
42293  0.0000000e+00
  48.2437468  49.5898914  17.4259055  48.1016111  49.9218559  16.4826643
  48.8348103  50.2897549  17.8512692  47.3102951  49.6509409  17.8067446
  48.7900686  48.2470512  17.6312709  48.0300665  47.5719023  17.2379780
  50.1382160  47.9618025  16.9389725  51.0170603  48.5196972  17.2622287
  50.4163790  46.9177580  17.0828187  50.1131010  47.9018116  15.4617894
  49.2158794  48.2643747  14.7868979  51.1316252  47.3297691  14.8092043
  51.1249447  47.2987032  13.7997043  51.9897223  47.0099592  15.2352142
  48.9956093  48.0361557  19.1254878  49.2282152  49.0274763  19.8300529
  48.8974524  46.7772484  19.6335828  48.6507893  46.0845375  18.9411843
  49.5145035  46.3667727  20.8618355  49.2644310  47.1270847  21.6017652
  48.8995409  45.0235891  21.2891245  48.8249588  44.3188000  20.4609895
  49.6124315  44.5977306  21.9951987  47.5954533  44.9822235  22.0345092
  47.6773167  45.5007553  22.9897714  46.3655519  45.4277325  21.1780190
  46.4135742  45.0426435  20.1594424  45.4036140  45.1361990  21.5996647
  46.2704277  46.5126181  21.1324453  47.2778320  43.6005449  22.4446988
  48.0692387  43.1177568  23.0180168  46.4097023  43.5850620  23.1036472
  47.0689726  42.9801702  21.5731430  51.1180878  46.3388109  20.8014655
  51.6236973  45.6851816  19.8784137  51.7403889  46.9222403  21.8356490
  51.1156893  47.3140621  22.5258136  53.2464361  46.8347692  22.0858359
  53.8454962  47.3415232  21.3292408  53.6252117  47.5975323  23.2719469
  54.7110128  47.6799631  23.3202958  53.2041979  48.6011267  23.2115197
  53.1992006  47.0247030  24.4756556  53.8421679  47.2817993  25.1405621
  53.9250994  45.4154825  22.2392368  53.1635571  44.4107628  22.3629975
  55.2682209  45.2885962  22.2267008  56.1982536  46.3009691  21.8846059
  56.4814997  46.9371462  22.7231455  55.7679844  46.8387699  21.0397744
  57.4207020  45.5576992  21.4960718  58.3741903  46.0851383  21.5238762
  57.2983265  45.3141451  20.4407024  57.4233818  44.2926836  22.4336147
  57.8317642  44.5794678  23.4026742  57.9968166  43.4859705  21.9769955
  55.8931160  43.9927292  22.3395252  55.7784939  43.3487558  21.4675975
  55.3915644  43.1762314  23.5085940  54.9891138  42.0832825  23.2587743
  55.4034948  43.6704826  24.7482014  55.8233547  44.5524549  25.0049949
  54.8014355  42.9796743  25.9123325  55.3479433  42.0614672  26.1275744
  54.8780823  43.9020586  27.1851087  55.9342670  44.1507483  27.2886705
  54.3860626  44.8701906  27.0916224  54.5173979  43.1335306  28.4434891
  53.5271883  42.6972008  28.3123159  55.4707146  41.9672108  28.8734651
  55.3217602  41.6543674  29.9069309  55.3751564  41.1980820  28.1070352
  56.5037060  42.3145819  28.8545275  54.5159817  43.9947128  29.6864581
  53.8492632  44.8464060  29.5514655  54.0831470  43.4444475  30.5219007
  55.5349159  44.2878532  29.9393272  53.3557463  42.6874304  25.5698609
  52.9844570  41.4920855  25.6785107  52.5552559  43.6311436  25.0888228
  52.9467010  44.5510101  24.9448872  51.0605907  43.4990931  25.0831342
  50.6716347  43.1525898  26.0406065  50.4196930  44.8468208  24.6904159
  51.0503101  45.1159382  23.8430691  49.3745995  44.5877790  24.5207548
  50.4866982  45.8952427  25.7895565  49.7968340  45.5598164  26.5639472
  51.4606524  45.9893751  26.2698269  50.0906134  47.3640919  25.2728295
  49.8237991  47.4969864  24.0484786  50.0093174  48.3809376  26.0595655
  50.5361652  42.4988556  24.0073085  49.6154976  41.7118502  24.2526937
  51.2272739  42.3540974  22.8562808  51.9660139  43.0031776  22.6259375
  51.1123466  41.2732887  21.9272661  50.0501823  41.0497713  21.8274856
  51.6029596  41.7331266  20.5301094  51.5733957  40.9228277  19.8016572
  50.9756708  42.5506401  20.1747608  52.9773378  42.0946741  20.6498027
  53.0861378  42.7983379  21.2937117  51.7497826  39.9105692  22.3261738
  51.1151028  38.8518596  22.1828055  52.8601551  40.0229502  23.0496097
  53.3946276  40.8738661  23.1515098  53.4468365  38.7876606  23.5749173
  53.5454082  38.1147313  22.7231240  54.8651075  39.0301418  24.1726398
  55.4399204  39.5479584  23.4048152  54.8060083  39.7179723  25.0161457
  55.5809116  37.7807236  24.5638013  55.4850149  36.9684911  23.8432550
  57.0694208  38.1063557  24.6651196  57.6668406  37.3128414  25.1140285
  57.4582624  38.2837605  23.6624074  57.1338940  38.9675140  25.3302193
  55.1966524  37.3647642  26.0162497  54.1458702  37.0819664  26.0793519
  55.7882547  36.6012383  26.5213680  55.4010153  38.3092117  26.5205908
  52.4679232  38.1354046  24.6127272  52.2501755  36.9605708  24.6194124
  51.8826342  38.9674330  25.5111647  52.0984745  39.9462056  25.3865957
  50.8989000  38.5399795  26.4536691  51.3575220  37.7598429  27.0612478
  50.5663061  39.7023797  27.4099541  49.9307537  39.2467880  28.1693053
  51.4754438  40.1892090  27.7628970  49.8832178  40.3749561  26.8911719
  49.6184921  38.0371070  25.7926345  49.0937614  36.9641590  26.2411451
  49.0270185  38.7497497  24.8427081  49.3042850  39.7010541  24.6471310
  47.8843212  38.1947112  24.1016030  47.1990061  38.0014610  24.9268889
  47.3929548  39.2848086  23.1432867  47.3117399  40.2637386  23.6157203
  48.1788063  39.4725275  22.4116421  46.2422562  38.9915252  22.2881317
  46.1907768  38.0260825  21.3397145  47.0047474  37.3576736  21.1007905
  44.9597979  38.0728841  20.6458879  44.6519566  37.2699523  20.1161313
  44.1451693  39.1207194  21.1788154  42.8382397  39.5687032  20.8449697
  42.2379398  38.9593005  20.1856732  42.2887945  40.7114553  21.5437102
  41.3061047  41.1283445  21.3796282  43.1183386  41.2621689  22.5407982
  42.8168535  42.1497583  23.0771613  44.4049788  40.8244610  22.8334904
  44.9529362  41.4304876  23.5398006  44.9953938  39.7166419  22.1753240
  48.1959915  36.8652415  23.3862400  47.3838997  35.9485865  23.4041452
  49.3876076  36.7311358  22.7967668  50.0899458  37.4567676  22.8137541
  49.9340343  35.4277849  22.2352886  49.2025423  35.1553106  21.4745092
  51.2181854  35.7735014  21.5561986  51.0509872  36.3389516  20.6394553
  51.7982626  36.4482856  22.1857023  52.0418453  34.5787072  21.1743402
  52.0177126  33.7971234  21.9337106  51.6895962  34.3730497  20.1635337
  53.5060787  34.9351239  21.0815716  54.0872145  35.9166622  21.6553974
  54.3045759  34.0317297  20.4734707  55.2927589  34.1980386  20.3472233
  53.8724041  33.1594348  20.2043414  49.9923372  34.3728304  23.2573438
  49.5300055  33.2270670  22.9848552  50.5052567  34.6011448  24.4818377
  50.8289671  35.5270338  24.7227550  50.4553270  33.7377429  25.6173229
  50.9176588  32.7669430  25.4387355  51.1887693  34.2997003  26.8402719
  50.9155130  35.3324199  27.0568800  50.8148432  33.5984278  28.1517720
  50.9212732  32.5206852  28.0282974  51.3563299  33.9574003  29.0270090
  49.7685480  33.7993217  28.3820009  52.7212906  34.2660952  26.6706586
  53.2178926  35.1223922  27.1269846  53.1731892  33.3873010  27.1306705
  52.9285383  34.2805409  25.6006455  48.9800739  33.4187508  25.9571505
  48.6395788  32.2503161  26.2124324  48.0969286  34.4116306  25.9762335
  48.4914017  35.3297663  25.8295321  46.6552830  34.2397571  26.3700819
  46.5526390  33.9477992  27.4152255  46.0386658  35.6174207  26.2553263
  46.6560507  36.3775468  26.7340136  45.8817101  35.8622074  25.2048230
  44.5581436  35.7154107  26.7859983  44.0039778  35.1606750  26.0288525
  44.4972181  35.4445434  27.8400469  44.1849232  37.2164226  26.7669892
  44.8665619  37.7873063  27.3975110  44.2830276  37.6108694  25.7556105
  42.7825594  37.4501371  27.3393178  42.7093983  36.8141389  28.2215047
  42.7256250  38.4528255  27.7629614  41.6266489  37.1462393  26.4375019
  41.5921450  36.2036324  26.0763884  40.7613087  37.2585845  26.9460869
  41.6405296  37.7812123  25.6521893  45.8372879  33.2966709  25.5172420
  45.1597595  32.4401379  26.0605121  45.9708548  33.3784986  24.2035437
  46.6213608  34.1250038  24.0043616  45.6306744  32.4765611  23.1451130
  44.5470238  32.3725128  23.0905533  46.1882401  33.1303263  21.8257022
  47.2341919  33.4356213  21.7960358  46.0584354  32.4730325  20.9659266
  45.1556540  34.4460034  21.3450050  45.2466059  35.2097726  22.4373841
  46.1858988  31.0112000  23.3805609  45.3726053  30.0913239  23.4799361
  47.5102663  30.8163357  23.5287499  48.1007719  31.6343260  23.5767174
  48.0650425  29.4367290  23.6200762  47.6978207  28.8862348  22.7539325
  49.5358419  29.4692659  23.5657001  49.8553133  30.0880408  24.4042468
  49.8533106  28.4547043  23.8064837  50.1638603  29.7398877  22.2210956
  49.9263763  30.7794714  21.9953346  51.6351080  29.4686890  22.2850919
  51.8017149  28.3919334  22.3156118  52.1302891  29.9511075  21.4423752
  52.0948315  29.9412537  23.1530952  49.7134686  28.9545083  21.0061049
  49.8789787  27.8792119  21.0727668  48.6406565  29.0489984  20.8380461
  50.2669477  29.3149209  20.1389956  47.6050901  28.7143207  24.9099612
  47.3955345  27.4750137  24.7771311  47.4655437  29.4307613  26.0084057
  47.7331066  30.4043245  26.0345221  47.0225048  28.8283587  27.2682190
  47.6189423  27.9350138  27.4534202  47.3020554  29.7910476  28.4570146
  46.8743563  30.7675385  28.2297587  46.7559338  29.2854714  29.2534065
  48.7845850  30.0297070  28.7554479  49.2400312  30.4398918  27.8541064
  48.8242340  31.0229158  29.9810481  48.2695961  31.9093204  29.6732140
  48.2703447  30.5744410  30.8057737  49.8652744  31.1563420  30.2752209
  49.5091152  28.8033962  29.2167306  49.8063469  28.2168531  28.3474088
  50.2897453  29.1985607  29.8667836  48.7838125  28.2375550  29.8014235
  45.5297756  28.3910513  27.2746229  45.1509762  27.4599195  27.9941797
  44.6663666  29.1227102  26.5222502  45.0550890  29.9189973  26.0375595
  43.2667923  28.7473106  26.2437797  42.8116512  28.4125543  27.1759200
  42.5428391  29.9962616  25.6555700  42.6494360  30.8171439  26.3647175
  43.1300688  30.2067828  24.7617316  41.1275482  29.9026299  25.2102685
  40.8538389  30.8349586  24.7163463  40.9555006  29.0632558  24.5365071
  40.1630878  29.6973944  26.4010406  40.3834772  28.8827729  27.0909119
  40.2599478  30.5993152  27.0054054  38.8001966  29.4835281  25.8070540
  38.4682345  30.3563166  25.2447915  38.8079023  28.6155868  25.1477194
  37.7749062  29.4467020  26.9201112  36.8635726  29.4367480  26.4848208
  37.8597450  28.5417819  27.3605919  37.8515601  30.1618791  27.6291585
  43.1892252  27.5472903  25.2432537  42.2747040  26.7422128  25.3895879
  44.1621399  27.3963404  24.3940425  44.9028635  28.0779719  24.3115163
  44.2091894  26.1738348  23.5383606  43.2035494  25.8216071  23.3087397
  44.9486113  26.5788651  22.2183800  45.9856367  26.7181277  22.5238204
  44.7596455  25.7410717  21.5471911  44.4891834  27.9051614  21.5920877
  45.3908396  28.5764575  20.6879306  46.2717867  28.0726290  20.3184867
  45.0668478  29.8583364  20.2077174  45.7390642  30.3290844  19.5056319
  43.8259315  30.4106522  20.4796982  43.3836222  31.5932870  19.9539220
  42.6318073  32.0102525  20.3811359  42.8013182  29.6024227  21.2166429
  41.8250227  30.0393057  21.3662505  43.1151295  28.3455682  21.7202592
  42.4245119  27.8096104  22.3544478  44.9320173  24.9765611  24.2237854
  44.7051764  23.8061690  23.9218473  45.7185555  25.2910900  25.2707195
  45.7811308  26.2344623  25.6260157  46.2541056  24.1334128  26.1136150
  46.7985344  23.4549022  25.4568624  47.3600912  24.6405005  27.1211815
  48.2660055  24.9301624  26.5887260  47.1194887  25.5624104  27.6506186
  47.7145958  23.5620236  28.0227184  48.3776665  23.9166856  28.6195016
  45.1165962  23.4649992  26.9070721  44.2649508  24.1481256  27.4313545
  45.2062082  22.1217871  27.0154119  45.9023619  21.6658163  26.4430833
  44.1648817  21.3383937  27.7234626  43.3552217  21.9994736  28.0325341
  43.6202383  20.2735281  26.7714477  42.8544903  19.7041023  27.2982121
  43.1161118  20.7909083  25.3678012  42.2780657  21.4854431  25.4260826
  43.9344358  21.2363863  24.8021173  42.7311373  19.8932481  24.8839641
  44.7044039  19.3704891  26.5024114  45.0133467  18.9700782  27.3183942
  44.5619917  20.7720876  29.0790296  43.9505386  19.7442365  29.5539737
  45.5857706  21.3714409  29.6799612  45.9100199  22.2313452  29.2610025
  45.7042074  21.2498546  31.1250401  44.8241377  20.7069492  31.4697695
  46.9364786  20.4558682  31.5506506  47.1432972  20.7266235  32.5860333
  46.7227459  18.9101362  31.6706181  45.7567263  18.7597501  32.1525788
  46.8456745  18.4059417  30.7120895  47.4373674  18.3979452  32.3148847
  48.1795788  20.7699752  30.8439755  48.7831306  21.2908387  31.3787913
  45.6622505  22.6278996  31.9110703  45.9873819  22.6693463  33.0463648
  45.5024576  23.7986970  31.2450314  45.4047775  23.8663793  30.2420449
  45.4014874  25.1335192  31.9303584  46.2069130  25.2262402  32.6589179
  45.4507637  26.2267518  30.8302426  46.3970709  26.1840773  30.2909994
  44.6292686  25.8831525  30.2016020  45.2218103  27.6546526  31.2986422
  44.0882635  28.4852862  31.1437702  43.1953621  28.1944442  30.6103468
  44.4456148  29.7466183  31.6058016  43.8360310  30.5466604  31.5138865
  45.7125378  29.8361945  32.1678400  46.4045334  30.8496618  32.8566289
  45.8424616  31.7659330  32.9611850  47.6452351  30.5941391  33.4707499
  48.1347704  31.3960648  34.0033579  48.1631374  29.3018317  33.3809400
  49.0808630  29.1097474  33.9169312  47.4333906  28.3231759  32.7220678
  47.8039694  27.3091769  32.6924491  46.1828375  28.5331511  32.0653892
  44.1856194  25.1781940  32.7761936  43.1373215  24.7369695  32.3036671
  44.3058538  25.7567477  33.9714146  45.2285767  26.0628486  34.2452598
  43.2630920  25.9483743  34.8869872  42.3213387  25.8236361  34.3525386
  43.4128380  24.9749517  36.0763764  43.6001205  23.9387584  35.7947302
  44.2290640  25.3569627  36.6895151  42.0881557  24.9902534  36.9590950
  41.7685890  26.0039759  37.2006488  41.3080549  24.4190860  36.4557886
  42.2886324  24.2291069  38.2102394  42.7441788  23.2933497  37.8863025
  43.0615807  24.8116875  38.7114882  41.1354828  23.9852357  39.2082381
  40.3192472  23.3962893  38.7899041  41.5937281  23.4134150  40.0151682
  40.5405188  25.2678132  39.6053934  40.5840349  25.9811354  38.8916874
  39.5708680  25.1538587  39.8640299  40.9963560  25.7090282  40.3912973
  43.3921623  27.4703217  35.3045750  44.3244743  27.7858067  36.0163546
  42.4415541  28.3373237  35.1309299  41.3192749  28.1047821  34.2509937
  40.4267168  27.7810168  34.7863603  41.6171169  27.5063038  33.3900571
  41.0301113  29.5150375  33.8086390  39.9467349  29.6242714  33.8583398
  41.3369894  29.6790361  32.7756691  41.6288614  30.6036878  34.7346210
  40.8254099  31.1587477  35.2188444  42.2591162  31.3558531  34.2601466
  42.5092077  29.7042918  35.6581974  43.5338926  30.0732112  35.6132531
  42.0284319  29.9370885  37.0959210  41.2750769  29.0873432  37.6042151
  42.4182034  31.0334182  37.7309608  43.0489111  31.6708612  37.2662234
  41.8401241  31.4575481  39.0269923  42.0910597  30.7578826  39.8242426
  42.5514555  32.7693701  39.5143557  43.5955620  32.7538872  39.2017770
  42.2736025  33.4922886  38.7473512  42.2136307  33.3136678  40.8642483
  41.1289930  33.4126711  40.8211136  42.5497198  32.2803831  41.9826460
  43.6354589  32.1890306  42.0131159  42.1257830  32.5301290  42.9552794
  42.2075891  31.2548566  41.8435669  42.8322124  34.6556377  41.1781263
  42.4700737  35.3186202  40.3923702  42.4326277  34.8973227  42.1630287
  43.9171553  34.5531750  41.1556721  40.2653980  31.6611862  38.9539981
  39.6967626  31.8390536  37.8716612  39.6582890  31.5051317  40.1080227
  40.1196861  31.1788368  40.9451246  38.1931567  31.7672229  40.3430891
  37.6515961  31.0377741  39.7408271  37.8820086  31.3658500  41.8411922
  37.7307200  30.2864075  41.8373442  38.6948156  31.7189908  42.4758053
  36.6393661  31.9437003  42.4189281  35.6838942  32.2965765  41.8413210
  36.6470838  32.0580482  43.6854315  35.7695365  32.3442125  44.0954494
  37.4577522  31.9578266  44.2794561  37.8037548  33.2609630  40.0447559
  38.4327960  34.1670537  40.5514574  36.8133926  33.5362482  39.2219234
  35.9645391  32.5114083  38.6534166  35.6781960  31.7002988  39.3229008
  36.5026093  32.0281267  37.8379297  34.7160339  33.2201743  38.0796576
  33.9943099  33.4180117  38.8721681  34.3524933  32.7460790  37.1679759
  35.2867126  34.5676589  37.6478624  34.6031690  35.4166579  37.6394248
  35.7922363  34.5293760  36.6829371  36.3370228  34.8085809  38.7657285
  37.1773505  35.3678203  38.3543897  35.7456779  35.6519270  39.9254322
  35.5981636  36.8881202  39.8523903  35.5169439  35.0857973  41.1386776
  35.6423855  34.0850568  41.1924171  35.2480006  35.7828307  42.3785114
  34.9696636  36.7929316  42.0779657  33.9052653  35.2128673  42.8537416
  33.9782715  34.1299486  42.9540157  33.6513782  35.5412936  43.8615990
  32.6596260  35.4609585  42.0000172  32.0772767  36.5325069  42.1608257
  32.2118187  34.6394300  41.0141706  31.3666558  35.0090647  40.6028605
  32.7351189  33.8505292  40.6621838  36.3235116  35.8633041  43.4031773
  36.0272264  36.0663533  44.5831156  37.5638413  35.6800199  43.0149174
  37.7590823  35.6323195  42.0251179  38.7016273  35.6696844  43.9124489
  38.4690690  35.0160980  44.7531891  39.9375892  35.0496173  43.1787300
  39.6795464  34.0210772  42.9264975  40.1438856  35.5502343  42.2327232
  41.0975885  34.9986506  44.0698242  41.1452198  34.1691923  44.5507908
  39.0305185  37.0869255  44.3812990  38.7608361  38.0319095  43.6318254
  39.5667624  37.2409225  45.6103897  39.9332881  36.4102769  46.0528755
  39.8594713  38.5324693  46.2386608  38.8996577  39.0416670  46.3256836
  40.4900694  38.3999681  47.6204157  40.2159452  39.3019533  48.1675720
  40.0713205  37.5293803  48.1252193  41.9972658  38.3196449  47.7775097
  42.7827883  37.2084093  47.6508284  42.4469709  36.2079191  47.4213839
  44.1080809  37.5034046  47.8313303  44.8079681  36.7753506  47.8173685
  44.2728186  38.7872434  48.2635736  45.3819656  39.5426702  48.7422895
  46.3151312  39.0144777  48.8712168  45.3089523  40.8750868  49.0931797
  46.1388874  41.4264917  49.5097971  44.0392876  41.4987898  48.8534498
  43.9201450  42.5273895  49.1603470  42.9021931  40.7907104  48.3097553
  41.9844246  41.3480282  48.1935883  42.9904795  39.3906808  48.0758286
  40.7038927  39.4917345  45.3933382  40.3015184  40.7003832  45.3955173
  41.6849709  38.9882803  44.6422529  41.7976809  37.9863119  44.5834827
  42.5582981  39.9185634  43.9333963  43.0799913  40.5878878  44.6174622
  43.6588812  39.1628075  43.2425261  43.3120108  38.4166169  42.5276995
  44.1978025  39.9316502  42.6888609  44.6561003  38.4954166  44.1897774
  44.4521236  38.8128638  45.2123833  44.4372082  36.9453096  44.0442944
  43.4332705  36.5713024  43.8434601  44.9275064  36.5253425  43.1660366
  44.8616457  36.4887905  44.9384689  46.0470152  38.8651061  43.7720490
  46.1194420  39.9526620  43.7809420  46.8342161  38.5493064  44.4566584
  46.1483908  38.5633326  42.7295685  41.7771721  40.7830143  42.9087877
  42.1443415  41.9737577  42.7704334  40.7371998  40.2514315  42.2997332
  40.3828382  39.3533039  42.5962114  39.8647547  40.9854317  41.3069439
  40.4776573  41.5746355  40.6248140  39.0139413  40.0624609  40.4213524
  38.3681417  39.5381284  41.1257076  38.3344007  40.7166529  39.8751283
  39.7950792  39.0013433  39.5725656  41.1440134  39.2093134  39.2367411
  41.5580225  40.1830435  39.4531870  41.9082451  38.1434536  38.6572218
  42.9658604  38.2643843  38.4749556  41.3331175  36.8628454  38.4445381
  42.0230436  35.8722186  37.8483820  42.9422998  36.0961080  37.6857662
  39.9361277  36.7184377  38.7344408  39.4304776  35.7764387  38.5816145
  39.1920543  37.7409291  39.3117547  38.2130075  37.5740218  39.7360301
  39.0289879  42.0957327  41.9570160  39.0734839  43.2599401  41.5649557
  38.4023619  41.7983055  43.1399918  38.4374309  40.8076096  43.3333683
  37.6309538  42.7902222  43.8936853  37.0213366  43.3580160  43.1907845
  36.7593813  42.1826553  44.8815632  37.2527695  41.9315863  45.8205175
  35.9933496  42.9339075  45.0736856  36.1067033  40.9482193  44.4300985
  35.3457570  40.7659388  43.2978725  34.8609781  39.5304823  43.3978128
  34.3091917  38.9954257  42.6390982  35.3311968  38.8482738  44.4790840
  35.3089619  37.8469849  44.6095610  36.1320806  39.8297548  45.1714945
  36.6578341  39.6896195  46.1044216  38.4889293  43.8660192  44.5534372
  38.2120728  45.0456095  44.4795275  39.6353817  43.4215021  45.0694799
  39.8356152  42.4318266  45.0459385  40.6699228  44.3435431  45.6632757
  40.1238966  45.0073910  46.3335466  41.6340590  43.5581970  46.5330410
  41.9120073  42.7155113  45.9000111  42.5291204  44.1125393  46.8153143
  41.0629892  43.1235027  47.3534203  41.3587236  45.2157259  44.5702219
  41.8331432  46.3162374  44.8302746  41.3755083  44.7723818  43.3102179
  41.1805439  43.7820196  43.2746077  42.0201015  45.4130650  42.0766783
  41.6783190  44.7375059  41.2925196  41.4955807  46.8355560  41.6981602
  40.4254389  46.9051409  41.8932295  41.9002390  47.5896835  42.3731756
  41.5722656  47.1423721  40.2379322  42.5822353  46.9046831  39.9039197
  40.8416986  46.5472412  39.6900344  41.2906027  48.5546684  40.0454235
  41.7730665  49.1794443  40.7970762  41.6852427  48.8491631  39.0729856
  39.8682499  48.9820099  40.0126266  39.3262005  48.5288477  40.8426476
  39.8862839  50.0674105  40.1110029  39.1676283  48.6820602  38.7398314
  39.3279004  49.4180155  38.0669427  39.4234538  47.7629852  38.4082341
  38.1622601  48.6453915  38.8292623  43.5552931  45.3539181  42.1153498
  44.3367290  46.2408876  41.7233610  44.0895128  44.2170048  42.5500298
  43.3647203  43.5236835  42.6687145  45.5538464  43.8835907  42.5394011
  46.2489128  44.7083855  42.6965761  45.9285545  42.9281998  43.7299824
  45.3391933  42.0392036  43.5054016  46.9919252  42.6951790  43.6747932
  45.5890942  43.3823109  45.1395750  44.4993687  43.3750725  45.1631641
  46.2291956  42.4833202  46.2395668  47.3105097  42.4755049  46.1024809
  46.0277319  42.9519224  47.2028542  45.7600069  41.5036297  46.1491060
  46.0633421  44.8560667  45.3499031  45.8208179  45.0715351  46.3905048
  47.0640087  44.9592304  44.9302292  45.4928875  45.4974842  44.6781397
  45.9059191  43.2261229  41.1530924  47.0998764  43.1433678  40.7377958
  44.8432255  42.7644634  40.4195261  43.8919353  42.9479361  40.7049990
  44.8521566  42.2842264  39.0064478  45.6872606  42.8563738  38.6022925
  44.9216366  40.8002901  39.0240693  44.1810703  40.5039930  39.7669506
  44.6802759  40.4161549  38.0329680  46.3172197  40.2282095  39.3093872
  46.7743540  40.6893063  40.1848984  46.1957932  38.7712860  39.5155835
  45.5139971  38.6481118  40.3570604  45.8617592  38.3586311  38.5636187
  47.1410084  38.3132458  39.8069096  47.3054171  40.4935074  38.1709719
  47.4194098  41.5630388  37.9943228  48.2275105  39.9124050  38.1835055
  46.7754221  40.2316618  37.2551918  43.5173225  42.7642107  38.4356713
  42.4490833  42.8624153  39.0324378  43.6553574  43.0743694  37.1276736
  44.5000792  42.8733540  36.6117907  42.6888418  43.8587189  36.3899159
  41.7221308  43.7814951  36.8875170  43.0461168  45.3252554  36.6294098
  42.8762341  45.6085205  37.6681590  44.1270638  45.4545927  36.5752435
  42.2784758  46.3186121  35.8065176  41.4462233  46.0342932  34.9011874
  42.5731945  47.5034857  36.0687208  42.5499201  43.3356333  34.9466228
  43.5688543  43.3786440  34.2937326  41.3875246  42.8435850  34.5093393
  40.3170252  42.4385166  35.3919435  39.7277141  43.3111238  35.6736708
  40.7399654  41.8331957  36.1936975  39.4365644  41.5486050  34.5764303
  38.3761120  41.6611814  34.8019791  39.8279452  40.5362558  34.6767616
  39.5916867  42.0398426  33.1546974  38.9978862  42.9435205  33.0173349
  39.2932534  41.3573599  32.3589253  41.0911560  42.3517561  33.1500196
  41.7415333  41.4995098  32.9530740  41.3184738  43.3967972  32.0815706
  41.2139559  43.0358410  30.9357333  41.3338709  44.7020245  32.3370862
  41.5437889  45.0946236  33.2436728  41.1902523  45.7089090  31.2752938
  40.5781221  45.2656794  30.4898381  40.3654623  46.8917704  31.8251204
  40.2799892  47.5756598  30.9806752  39.3631673  46.5586948  32.0945263
  41.0301161  47.6098728  32.8466129  41.1865330  47.0119953  33.5812378
  42.4912691  46.1936235  30.6110191  42.6718473  47.2674656  30.0168157
  43.4856606  45.3979254  30.7568479  43.2381964  44.6075296  31.3348985
  44.6831989  45.2545500  29.8871779  44.4683695  45.9379101  29.0656114
  45.8370066  45.6791687  30.7533908  45.5864382  46.6679335  31.1376619
  46.0412359  44.7844458  32.0195389  45.4820156  45.2865553  32.8090096
  45.5316162  43.8209438  32.0124888  47.0950747  44.5810413  32.2096872
  47.0903206  45.5411530  30.0491405  47.6909399  46.1385012  30.5008483
  44.8096943  43.8797474  29.2378473  44.2403889  42.8609037  29.7722745
  45.5349636  43.8710260  28.1059742  45.7519436  44.9784613  27.2363114
  46.0868788  45.8419514  27.8110313  44.7971439  45.4067612  26.9313216
  46.7509937  44.4619274  26.2356091  47.7771425  44.7308493  26.4862084
  46.6131830  44.8826504  25.2395678  46.4852858  43.0098486  26.1357737
  47.3610687  42.4493408  25.8087611  45.6941175  42.7790499  25.4224133
  46.0290527  42.6137495  27.5272679  45.2364302  41.8656206  27.5393724
  47.1490383  42.0196772  28.4702206  47.3690367  40.7819319  28.5153508
  47.9003000  42.8111124  29.2566180  47.7145052  43.8037348  29.2733645
  49.1120100  42.3944330  29.9860191  49.7827005  41.7425632  29.4262505
  49.9360180  43.6957788  30.3502178  49.3318033  44.4385386  30.8711171
  51.2247610  43.3232307  31.0599279  51.7973137  44.2286539  31.2611461
  51.0669804  42.7823734  31.9930315  51.8144369  42.7207565  30.3689814
  50.2471066  44.4301462  28.9752746  49.3472242  44.8068094  28.4890318
  51.1192369  45.0815678  29.0313053  50.6412983  43.6046743  28.3825564
  48.9118576  41.6076374  31.3497496  49.7628403  40.7523727  31.7091894
  47.7354622  41.6981125  31.9823074  47.0640564  42.2784567  31.5001059
  47.2227001  40.8823061  33.0426621  47.4941921  41.3305807  33.9984059
  45.6503344  40.8473682  32.9671526  45.2765274  41.8584299  33.1287956
  45.3506613  40.5933237  31.9504142  44.8995924  39.8256159  33.7818861
  43.6598301  39.3132687  33.4069967  43.2789946  38.5519576  34.4270873
  42.4302101  37.8841496  34.4259214  44.2937422  38.4833598  35.3381872
  44.4481325  37.8366089  36.0984421  45.2847242  39.3345261  34.9365377
  46.1583567  39.5223832  35.5430627  47.7685022  39.4888401  33.1071091
  48.4842777  39.2355871  34.0933728  47.6814270  38.6829281  32.0795321
  47.1728754  39.0076208  31.2695622  47.9471207  37.1849370  32.1248651
  47.2714138  36.7628288  32.8687358  47.5408173  36.5513182  30.7440948
  46.5012741  36.7733860  30.5029821  48.3663416  37.1418238  29.6018457
  48.1708813  38.2120609  29.5348382  49.4389153  37.0815015  29.7863722
  48.1494665  36.6845965  28.6364388  47.6806927  35.0063825  30.7290387
  47.5232172  34.5772886  29.7395062  48.6825705  34.6842527  31.0128832
  46.6132307  34.3593121  31.6119289  45.6260777  34.5016503  31.1721826
  46.7861938  33.2843089  31.6624641  46.5221691  34.7270155  32.6339865
  49.4050980  36.8706369  32.5573611  49.5854092  35.8502746  33.2695937
  50.3732538  37.7258968  32.2661161  50.1132393  38.4710622  31.6358590
  51.7563820  37.5409818  32.5625157  51.9958591  36.4776325  32.5562930
  52.7150202  38.2244086  31.6341114  52.6182795  39.3100595  31.6442537
  53.7035561  38.0217600  32.0462179  52.6074505  37.7643347  30.2007389
  51.6660786  38.1076622  29.7717333  53.7416840  38.4445143  29.3062735
  54.7127724  38.0218387  29.5640135  53.5911322  38.2644224  28.2418513
  53.7982368  39.5165133  29.4952726  52.6005220  36.2438607  30.1095510
  53.4665394  35.8247900  30.6219006  51.7157936  35.7424998  30.5019712
  52.6367617  35.8842230  29.0812254  51.9921780  37.8588223  34.0645432
  52.6452875  37.0577598  34.7429585  51.4556551  38.9903736  34.6531129
  51.0800076  39.6949673  34.0346169  51.4556313  39.3264270  36.1201358
  52.4697065  39.4597459  36.4969325  50.6402397  40.6234312  36.3333488
  49.7155619  40.4546833  35.7814479  50.4699755  40.6956482  37.4075437
  51.3731718  41.8734455  35.7912803  52.1517897  42.1060324  36.5177488
  51.9334221  41.6481495  34.8838258  50.4393768  43.0797005  35.6210613
  51.0332155  43.9586306  35.3701806  49.6140385  42.9395247  34.9230194
  49.7856188  43.3660078  36.9044566  49.9845314  42.7560902  37.6845431
  49.2861462  44.5500088  37.2473216  49.0154648  45.5710173  36.5268016
  49.2117691  45.5356216  35.5366945  48.5673714  46.3349676  37.0122790
  48.9699459  44.7404385  38.5019302  48.9030600  44.0216208  39.2082787
  48.6641979  45.6663465  38.7652135  50.7701302  38.2384133  36.9890332
  51.3381910  37.8763556  38.0238652  49.6583986  37.6452422  36.6272902
  49.4443750  37.8374934  35.6591296  49.0636778  36.5906000  37.3747516
  48.9511156  36.8341494  38.4312177  47.7025604  36.5083385  36.7005754
  47.1606398  37.4536300  36.7296457  47.7242994  36.1790085  35.6617451
  46.7433977  35.4309416  37.2876406  47.0454407  34.3839145  37.3122644
  46.6970825  35.6321883  38.3578992  45.2896500  35.5358672  36.7567277
  44.4261837  36.2884808  37.2828436  45.0253153  34.9834776  35.6970239
  49.8756313  35.2647758  37.3710370  49.7836685  34.5786428  38.3602524
  50.7090569  35.0732589  36.3650656  50.7202196  35.6514883  35.5370402
  51.6980600  33.8856554  36.3775635  51.3357258  33.0076647  36.9123006
  52.1683931  33.4094381  34.9775815  52.2419310  34.2417431  34.2776060
  53.5019445  32.5971627  34.9429464  54.3356657  33.2979941  34.9859047
  53.5533667  31.8285179  35.7140779  53.5523748  32.1942163  33.9314151
  51.1346626  32.5307155  34.3310618  51.3669443  31.5049386  34.6172929
  50.1384544  32.7908731  34.6888232  51.0515070  32.4496913  32.8014827
  50.2613115  31.8195224  32.3933387  51.1102724  33.4226823  32.3136997
  52.0066404  31.9659781  32.5969076  52.9346943  34.3868852  37.1789026
  53.3100653  33.6820841  38.1262875  53.2994795  35.6829643  37.1288633
  52.8095961  36.2662005  36.4655733  54.2280579  36.3406348  38.0284405
  55.2569151  36.1443090  37.7267647  54.0179586  37.3939943  37.8429723
  53.9784813  36.0114241  39.4641733  54.8494387  35.6705642  40.2442694
  52.6875305  36.2061000  39.8719954  52.0521641  36.8098259  39.3700695
  52.1924496  35.9982753  41.2065125  52.9879236  36.1790228  41.9294643
  51.0504055  36.9452953  41.5143251  50.3756714  36.7908359  40.6723213
  50.5620861  36.5300441  42.3959255  51.2872458  38.4520125  41.7225218
  52.1835518  38.7491274  41.1780357  50.1503420  39.3305564  41.1239576
  49.2821121  39.0677524  41.7282820  50.4149532  40.3765059  41.2790966
  49.9675226  39.1600013  40.0630188  51.5854597  38.8184524  43.1658745
  52.4027348  38.2186031  43.5662985  51.7635250  39.8903847  43.2516670
  50.7523203  38.5746098  43.8250542  51.7566395  34.5144176  41.5794849
  51.3563919  34.2377067  42.7085304  51.9641256  33.6007953  40.6470728
  52.1977472  33.9846134  39.7425270  51.8188810  32.1513391  40.6251526
  52.0919228  31.7655134  39.6429706  52.7424669  31.3902760  41.6134167
  52.3346853  31.3720870  42.6241064  52.7446365  30.3409863  41.3183165
  54.1894150  31.9565392  41.5999603  54.5348978  32.0150566  40.5678177
  54.3733692  32.9503703  42.0080757  55.0995445  30.9648395  42.3524094
  55.2238083  30.0448585  41.7811918  56.0853815  31.4282823  42.3142815
  54.7166920  30.6295991  43.7033081  54.5215893  29.6672535  43.9397955
  54.5067406  31.4281631  44.7350454  54.7083235  32.7034497  44.7726440
  55.2076340  33.1421709  44.0121698  54.3325663  33.2646966  45.5235863
  54.0448809  30.8744240  45.8069420  53.7390327  29.9141121  45.8729410
  53.9552498  31.4784670  46.6114283  50.3373814  31.7504597  40.7236004
  50.0832748  30.5868196  40.9897661  49.3390942  32.6152682  40.5180073
  49.5353460  33.5757160  40.2748442  47.9446030  32.3484635  40.7936621
  47.8962231  31.8967915  41.7844963  47.2905159  33.7114429  40.9792233
  47.5129032  34.1841674  40.0225735  46.2053061  33.6362529  41.0482311
  47.8451109  34.6814966  42.0962334  48.9286852  34.5754600  42.1483469
  47.5790024  36.1240864  41.7305422  46.5496731  36.2486672  41.3943052
  47.8040981  36.7732239  42.5767422  48.2239771  36.4088941  40.8992815
  47.2940683  34.4464993  43.4814453  47.7405119  35.1240730  44.2092419
  46.2395763  34.6747160  43.3263397  47.4514294  33.3948588  43.7210131
  47.2006226  31.3410330  39.8488045  46.3413048  30.5702257  40.3269005
  47.4514198  31.4352226  38.5003519  48.1632900  32.0687246  38.1656599
  46.8790245  30.5397367  37.4836159  46.1891174  29.8177695  37.9205227
  46.0741711  31.3561797  36.4575791  46.7994118  31.9433427  35.8942270
  45.7237291  30.7018232  35.6593823  44.9310827  32.0613456  36.9553471
  44.7495413  32.9256654  36.5790582  47.9508543  29.7484446  36.8067360
  49.0330219  30.3204560  36.5046048  47.6798058  28.5022163  36.5479541
  46.7485619  28.1504583  36.7186832  48.6384773  27.4690437  36.2264156
  49.4166183  27.9900694  35.6686234  49.2990589  26.9434047  37.5426626
  50.0299788  26.1952281  37.2359252  49.8508358  27.6571345  38.1544113
  48.2936144  26.3667560  38.5150909  47.5915861  27.0966077  39.5155358
  46.8622303  26.2083912  40.2461958  46.1529064  26.5278316  40.9953403
  46.9238377  25.0177073  39.6730137  46.3285351  24.2213488  39.8505664
  47.7940226  25.0701046  38.6142945  48.0186176  24.2644334  37.9310226
  48.1785345  26.3003135  35.4088283  47.0021105  26.0055923  35.2865791
  49.1623449  25.6142330  34.7775531  50.1003647  25.9681869  34.8997641
  49.0507936  24.3142629  34.1651630  48.2504368  24.2055368  33.4332418
  50.3764296  24.0389013  33.4099221  51.1686134  24.0957642  34.1564560
  50.6910896  24.8221374  32.7202630  50.4094172  22.4613595  32.5943780
  48.8364840  23.3528495  35.3644919  49.6759987  23.2479167  36.2714148
  47.7930212  22.5993562  35.2611661  47.1854496  22.7631617  34.4711471
  47.4408102  21.6107535  36.2928915  47.3713112  22.2274423  37.1889758
  46.0449171  20.9420609  36.2316465  45.8677816  20.4662371  37.1961737
  45.2531481  21.6726661  36.0660625  45.7699490  20.0151181  35.1359344
  44.8105192  20.0404835  35.1146793  48.3576965  20.4357195  36.3158941
  48.4082413  19.6491551  37.2056413  49.0562057  20.1964378  35.1943994
  48.8505411  20.7437277  34.3708229  50.1455164  19.2289329  35.1133966
  49.8553038  18.3040547  35.6118703  50.3097439  18.7098646  33.6304045
  49.4144011  18.2277882  33.2378936  50.5791140  19.5587814  33.0020094
  51.2751198  17.6032865  33.4307814  51.0949087  16.2048197  33.7111521
  52.0783663  15.5250716  33.0956602  52.2231960  14.4560492  33.1468081
  52.9238033  16.4716876  32.5943255  53.8860083  16.3093281  32.3337364
  52.4160624  17.7531767  32.7588224  52.9316092  18.6360228  32.4106860
  51.4478350  19.6036947  35.8363199  52.1312428  18.7034631  36.3234854
  51.6902304  20.9217000  36.0213351  51.0894585  21.6058326  35.5841422
  52.8131151  21.4728856  36.7494726  53.5001373  20.7028723  37.1004462
  53.6313534  22.2186208  35.6599379  54.3321228  22.9064322  36.1331606
  52.9050636  22.8794384  35.1867366  54.3294096  21.1625195  34.1405058
  52.3974228  22.3241925  37.9760599  52.8234386  23.5067272  37.9425216
  51.6009998  21.8737984  38.9608312  51.3982964  20.8873487  39.0378404
  51.0984421  22.6921773  40.0579596  50.5377436  23.4501648  39.5109892
  50.1053715  21.9449735  41.0450077  50.6174278  21.0737705  41.4535475
  49.5608902  22.8120351  42.1256447  49.0932512  22.1767902  42.8778982
  50.4309511  23.2961845  42.5691414  48.8435364  23.5280752  41.7246628
  48.9014626  21.3082910  40.2795458  48.4532404  22.0805407  39.6543789
  49.2905521  20.4903817  39.6731377  48.1385231  20.9718609  40.9815741
  52.2412443  23.5059524  40.7546282  53.1256247  22.8034973  41.3214207
  52.2537374  24.8390603  40.7707548  51.4246273  25.7549095  40.0434399
  50.3696918  25.4926038  40.1234674  51.7976379  25.6907248  39.0212607
  51.6792488  27.1648216  40.5356121  50.9192133  27.3565006  41.2930489
  51.6061926  27.9066825  39.7403741  53.0824232  27.0824385  41.2156296
  53.1580257  27.7087331  42.1045256  53.9441156  27.2427249  40.5676413
  53.1932259  25.6210256  41.6599083  54.2124605  25.2593064  41.5241766
  52.8328657  25.4531956  43.1314611  51.7034149  25.1761317  43.5276890
  53.8008738  25.6893706  43.9905691  54.6688652  26.0994005  43.6765957
  53.5912466  25.6617808  45.4628563  52.7603006  24.9969149  45.6986284
  54.8012877  25.1376843  46.2077379  54.9104881  24.0731597  46.0004568
  55.6969118  25.6743240  45.8947325  54.6736383  25.1961207  47.7455521
  54.4191742  26.2318635  47.9704571  53.7875700  24.6063638  47.9804325
  55.9304857  24.8273468  48.5216331  55.6753922  24.8709488  49.5804644
  56.1470842  23.7760663  48.3318615  57.2087097  25.6394601  48.2959414
  57.8439522  25.2798963  49.1054392  57.5502253  25.4795766  47.2732449
  56.9708490  27.0663404  48.6375523  57.8754139  27.4434161  48.8818550
  56.6526079  27.5048137  47.7851629  56.3213205  27.1975088  49.3997908
  53.0306053  27.0510221  45.7732582  53.6553478  28.1031585  45.4897118
  51.7737865  27.1373010  46.2911177  51.2520361  26.2767577  46.3768053
  51.1476374  28.3902192  46.7687082  51.8742657  29.0640426  47.2226620
  50.5185795  29.1006279  45.5410576  51.3169718  29.2802548  44.8210573
  49.8568821  28.3293009  45.1469612  49.7457600  30.4360151  45.7829857
  48.9796209  30.3428483  46.5526915  50.6941891  31.4731550  46.3959932
  51.2067556  31.0611939  47.2652817  51.4132833  31.8332529  45.6602430
  49.9763775  32.1966028  46.7826080  49.0616274  31.0826802  44.5802259
  48.4510803  30.4100394  43.9778233  48.4455109  31.8912697  44.9735165
  49.8567867  31.5137744  43.9719629  50.0872755  28.1907058  47.9003572
  49.0572643  27.6272249  47.5961447  50.1952171  28.8311791  49.0390491
  50.9340048  29.4917560  49.2337942  49.0893364  28.8321805  50.0510502
  48.9464331  27.7929354  50.3471184  49.4756603  29.5874977  51.3585472
  48.8968182  29.3419647  52.2489166  50.4953527  29.3084860  51.6240406
  49.5040607  31.1184907  51.1665154  48.4936857  31.3474202  50.8276510
  49.6510267  31.5902281  52.1380949  50.5261755  31.7230606  50.1249218
  50.3062487  32.8771949  49.6153021  51.6136026  31.1062670  49.8410988
  47.6684189  29.2626095  49.4888258  47.5642967  30.0416279  48.5308123
  46.5929985  28.6849785  49.9790621  46.4037275  27.6316762  51.0420179
  46.3865805  28.0438256  52.0509481  47.1160412  26.8252015  50.8679152
  45.0515127  27.0235443  50.7012653  44.6445227  26.5176296  51.5767717
  45.2033758  26.3799095  49.8347950  44.1281700  28.1984520  50.2800894
  43.8901758  28.8142037  51.1474466  43.2455635  27.9472876  49.6918440
  45.2008438  28.9667940  49.4560289  45.1538563  28.6385703  48.4176826
  44.8666859  30.4792213  49.2945480  44.9319124  31.3045955  50.1926231
  44.2715645  30.8292294  48.1283760  43.9285374  30.0677967  47.5603485
  43.8690948  32.2011423  47.7299070  44.5398331  32.9545093  48.1430054
  43.9416885  32.3683047  46.2295437  43.1338644  31.7742443  45.8022118
  43.5921955  33.7681603  45.8555508  44.3644190  34.4512701  46.2092876
  43.3897781  33.9779210  44.8052549  42.6328468  34.1159987  46.2386513
  45.3178358  32.0034885  45.6861210  46.0481977  32.7749205  45.9301758
  45.7460070  31.0821939  46.0810757  45.2740288  31.6309905  44.2125034
  44.3733883  31.0218859  44.1354465  45.0657749  32.5232148  43.6220217
  46.0676241  30.9482861  43.9088249  42.4411774  32.3681593  48.2587671
  41.5174294  31.6736722  47.8194284  42.1069384  33.3678317  49.0609217
  43.0243444  34.2324042  49.7074747  43.3205318  34.8988843  48.8974237
  43.9228010  33.7922573  50.1400757  42.2488785  35.1004863  50.6718588
  42.0778275  36.1281109  50.3511858  42.6082993  35.0072503  51.6966629
  40.8897591  34.4317579  50.7438517  40.1195431  35.1855707  50.9070492
  40.9741449  33.6426091  51.4909983  40.7323790  33.6371684  49.4597244
  40.3009129  32.6486206  49.6169090  39.8586488  34.3454409  48.4011793
  40.4019356  34.9255490  47.4688435  38.5311532  34.3214083  48.5863543
  38.2012677  33.7123299  49.3214083  37.5371242  35.1177549  47.7913332
  38.0075502  35.3343129  46.8322134  36.1742330  34.4189858  47.5912571
  35.7542109  34.1727376  48.5664749  35.5132389  35.1504707  47.1263695
  36.2726116  33.2501292  46.6530228  35.2760506  32.8929973  46.3933659
  36.5038776  33.5524845  45.6316519  37.0763683  31.9749522  47.0739603
  36.7052054  31.3118410  48.0691051  38.1311774  31.7324638  46.3761711
  37.3050261  36.5809679  48.2973003  36.7616892  37.3984337  47.5637102
  37.7856803  36.8794179  49.5360231  38.1436396  36.2082171  50.2004433
  37.7546310  38.2686663  49.9610424  37.9716682  38.9090991  49.1061497
  36.3496089  38.5067773  50.5413532  35.6224418  38.0993223  49.8389959
  36.2183309  37.9434133  51.4651966  35.7917285  39.8750377  50.6007290
  35.7898808  40.6529951  51.6988802  36.1164355  40.3725815  52.6893997
  35.1660800  41.8197966  51.4087868  35.2293301  42.5810099  52.0695877
  34.8056078  41.9618464  50.1136398  34.1833210  43.0016136  49.4593763
  34.0037370  43.9181948  50.0016260  33.7839389  42.7315044  48.1498623
  33.3877254  43.5473680  47.5635290  34.0657783  41.5174675  47.4698830
  33.8331890  41.3771152  46.4246035  34.7917223  40.5330610  48.2148075
  35.1720810  39.6064091  47.8110123  35.1295829  40.7044506  49.5493412
  38.8873219  38.6139464  51.0047531  39.2186379  37.7116561  51.7777348
  39.3454504  39.8952603  50.9996176  38.8939404  41.0208893  50.2526665
  37.9020882  41.2100697  50.6631994  38.7902069  40.7761288  49.1955805
  39.8582292  42.2407913  50.5686140  39.2690301  42.9934549  51.0924864
  40.2242994  42.6468658  49.6256399  40.9517288  41.6467428  51.4808512
  40.9713984  42.3669767  52.2987652  41.8825579  41.3897943  50.9752512
  40.3802109  40.2945089  51.9885635  41.2294722  39.6134734  52.0437765
  39.8833156  40.3518915  53.4001970  38.6812544  40.5139732  53.7041807
  40.8004618  40.1827335  54.3707085  42.2706747  40.2473307  54.2778778
  42.5265932  41.0848475  53.6289024  42.7517796  39.2822504  54.1189337
  42.6134157  40.6821012  55.7199383  42.5755119  41.7695808  55.7835579
  43.6040449  40.3100586  55.9813643  41.6821194  40.0641203  56.6696644
  41.6037893  40.6947613  57.5552511  41.9084406  39.0395069  56.9646931
  40.3708601  40.1253605  55.8077002  39.8837638  39.1637397  55.9693336
  39.4292068  41.2444544  56.2529612  39.6731305  42.4346018  56.1026716
  38.3393693  40.7942152  56.8500710  38.0338049  39.8352551  56.7656088
  37.3710322  41.7423439  57.4046612  37.0754051  42.2978306  56.5146399
  36.1139107  40.9673405  57.9193735  36.3160276  40.2310991  58.6973143
  35.3363419  41.6535902  58.2548523  35.4564309  40.1964712  56.6833591
  36.0609531  39.3468523  56.3658571  34.1258740  39.6721601  57.1264505
  33.4589958  40.5326509  57.1805429  33.7400579  38.9795971  56.3783836
  34.1652369  39.1691780  58.0926561  35.2894044  41.0001135  55.4053593
  36.1803603  41.4170027  54.9357843  34.6700430  40.4489470  54.6977520
  34.5956612  41.8029690  55.6548500  37.9655933  42.7235699  58.3791399
  38.8894105  42.3399353  59.1070223  37.4371386  43.9469004  58.4485054
  36.6448188  44.1432428  57.8537083  37.8537679  45.1393795  59.1784048
  37.1122837  45.9037924  58.9460659  38.0445504  44.8216534  60.6825924
  37.1189046  44.4044447  61.0791111  38.8867736  44.1635895  60.8964014
  38.2485461  45.7435894  61.2271214  39.1265392  45.7343912  58.5343456
  39.1336823  46.8987083  58.2458830  40.1642895  44.8872089  58.2809639
  40.2484512  43.9645815  58.6831760  41.3737440  45.2526617  57.5656414
  41.9030380  45.9436178  58.2217884  42.2110939  44.0317965  57.1407747
  42.2460508  43.2978296  57.9458666  41.8120289  43.5509348  56.2476778
  43.4990215  44.5584869  56.8338776  43.9602280  44.9654293  57.5709581
  41.1248159  46.0533953  56.2967634  41.7166471  47.1049643  56.0683680
  40.2247381  45.4924154  55.4473925  39.8263454  44.5895576  55.6623983
  39.8865819  46.0857916  54.1433191  40.7498169  46.6813135  53.8461924
  39.7942281  45.0062799  53.1158733  39.7440767  45.5030251  52.1469402
  40.7493019  44.4810629  53.1251049  38.3451414  43.9436245  53.4835243
  38.7225008  43.2389736  54.5540190  38.6624408  47.0093870  54.1825867
  38.3064246  47.5236988  53.1155014  38.0644155  47.3676205  55.3161764
  38.3696890  46.8805361  56.1466312  37.0160031  48.3869791  55.3982210
  36.8754888  48.6758995  56.4397955  37.3901200  49.2654657  54.8724842
  35.6386304  48.0027390  54.8067904  34.6587610  48.7312651  55.0629616
  35.4170704  46.8934298  54.1037273  36.1667395  46.2204838  54.1760874
  34.0469098  46.4233971  53.7483644  33.4070802  46.6264725  54.6071339
  33.4228945  47.3261929  52.6523447  33.3365965  48.3383226  53.0476332
  34.1879416  47.3678255  51.3023186  35.1395750  47.8665352  51.4861059
  34.3199921  46.3456678  50.9475517  33.5259271  47.8276014  50.5685329
  32.0125031  46.8878794  52.2676086  31.3048267  46.8488359  53.0957174
  31.6012907  47.5005102  51.4653063  32.1344995  45.8980799  51.8277073
  33.9164782  44.8792410  53.4639406  34.8855352  44.2298555  52.9572725
  32.7583385  44.2319775  53.7489510  31.5394330  44.6232224  54.5357132
  30.6196237  44.7674227  53.9689159  31.6261387  45.6044483  55.0023842
  31.5204644  43.4769487  55.5477715  30.5798006  43.4033298  56.0935116
  32.3519325  43.4865189  56.2525225  31.6478896  42.2896433  54.5603037
  30.6906796  42.1830702  54.0499258  31.9448686  41.3875723  55.0952625
  32.5854373  42.7971220  53.5132742  33.5255551  42.2632408  53.6520243
  32.0857048  42.5435352  52.1082258  31.5835190  43.4038782  51.4065647
  32.0529723  41.2333202  51.6192818  32.5727177  40.0119114  52.3044062
  32.0781827  39.8849130  53.2674265  33.6321688  39.9650764  52.5563335
  32.3243785  38.8253188  51.3699722  31.9026423  37.9757547  51.9070768
  33.2282472  38.6233449  50.7952309  31.3734674  39.3887353  50.3468990
  30.3519368  39.1707063  50.6584167  31.5640950  38.8883781  49.3974781
  31.5265083  40.8819675  50.2798891  32.2490692  41.0755825  49.4870949
  30.2075076  41.6232967  49.7777319  29.1000605  41.4022064  50.3074884
  30.1599717  42.2675085  48.5546494  31.0107613  42.3756170  48.0211926
  28.9953542  42.6061821  47.7308178  29.2401481  43.2173872  46.8621349
  28.4977460  41.2980556  47.0608521  28.0250692  40.7454205  47.8728056
  27.7713203  41.5128899  46.2771082  29.5824647  40.4964304  46.4503813
  30.2317047  41.0044718  45.3177881  29.9991131  41.9902229  44.9428320
  31.4391851  40.3775454  44.8545122  32.0574141  40.8752823  44.1220808
  31.8508339  39.1484833  45.4565859  32.7378559  38.6330009  45.1191425
  31.0781169  38.6143780  46.4969397  31.4196610  37.6857400  46.9298124
  29.9754190  39.2532110  47.0392704  29.4896173  38.9656997  47.9599953
  27.9775810  43.4196520  48.5010099  26.8099499  43.0879021  48.4008121
  28.4349227  44.4096041  49.2433071  29.4415903  44.4915628  49.2420578
  27.6510549  45.3323078  50.0530958  26.7379308  45.6334829  49.5396805
  27.1314526  44.5476675  51.2793636  26.3133049  45.1060343  51.7342997
  26.7066431  43.5804462  51.0108089  28.2845712  44.3056011  52.2334576
  29.0369248  43.7011766  51.7267656  28.6179662  45.2893877  52.5637913
  27.8137875  43.6037588  53.4692907  27.0659399  44.0405130  54.3471241
  28.1075573  42.3417425  53.4685183  27.9186893  41.7813635  54.2873001
  28.4803462  41.9510269  52.6150131  28.3945656  46.6005468  50.5181742
  29.5651054  46.5392303  50.4634047  27.6777887  47.6812983  50.8894682
  26.6770124  47.5577497  50.8321810  28.2177353  48.9202356  51.4800692
  29.0725780  49.2487335  50.8889341  27.2016025  50.1484156  51.3371038
  27.7649665  51.0612822  51.5304947  26.8588614  50.0420618  50.3078747
  26.0568786  49.9751616  52.3317719  25.4295564  49.2102003  51.8741751
  26.4508486  49.7203016  53.3156061  25.2469516  51.2447739  52.2996759
  25.7556343  52.0523500  52.8261375  25.0625825  51.5735435  51.2769270
  23.8697124  51.0250092  52.9407120  23.3922553  52.0003796  52.8469467
  23.3074164  50.3595257  52.2856855  23.8346791  50.6037951  54.3113661
  24.0300798  49.6211910  54.4394970  24.4896197  51.1056519  54.8938560
  22.9541755  50.8679199  54.7297573  28.7428784  48.7221527  52.9435921
  28.3420801  47.6978493  53.4995651  29.5966935  49.5455933  53.5430002
  30.1744032  50.6882954  52.8855610  29.4439173  51.4970970  52.8672647
  30.4846525  50.4889727  51.8598318  31.4725161  51.0892344  53.7055826
  31.7078948  52.1534252  53.6918211  32.3701334  50.6715965  53.2495499
  31.1061573  50.6123257  55.1321507  30.6432748  51.4477062  55.6574869
  32.0460987  50.2590990  55.5562210  30.1255155  49.4246340  54.9186230
  30.6699061  48.4813452  54.8744965  29.0956640  49.3597174  55.9985638
  28.0208373  49.8598051  55.8517456  29.5007300  48.8622856  57.1802378
  30.4949880  48.6907673  57.2263956  28.6937070  48.8013697  58.4156466
  27.8605986  48.1103706  58.2869911  29.4733644  48.0667973  59.5365620
  30.5383372  48.2183361  59.3605804  29.0202928  48.4638882  60.4449463
  29.2775941  46.5373373  59.7004509  28.1943059  46.4286041  59.6478701
  30.0879121  45.6962252  58.6973763  29.9064183  46.0661221  57.6882505
  31.1477423  45.6240702  58.9416170  29.7631216  44.6588516  58.6169481
  29.6082711  46.2070894  61.1063242  29.6978378  45.1272535  61.2247658
  30.5755496  46.6093159  61.4074707  28.8724160  46.6722059  61.7622900
  28.1106639  50.1657152  58.7849569  27.0630026  50.2016830  59.4206762
  28.8756895  51.2342739  58.6184788  29.7658682  51.1301708  58.1528139
  28.5046458  52.5809431  59.0049934  27.4205446  52.6093149  59.1146326
  29.0698457  52.7892065  60.4087257  28.7244296  51.9290304  60.9822083
  30.6060719  52.8460503  60.4678154  30.8954310  53.6186743  59.7554827
  30.9729671  52.9984617  61.4828348  31.0702586  51.8797922  60.2703905
  28.4886384  53.9291096  60.9398651  28.5860538  53.9537287  61.8945932
  28.7971425  53.7092638  57.9968452  29.6792603  53.4642982  57.1251726
  28.2660675  54.9166012  58.1087303  27.6718998  55.1359081  58.8954782
  28.4622121  56.0130930  57.1913481  28.3751392  55.6335211  56.1732864
  27.3925400  57.1344662  57.4534178  27.6289749  57.9282856  56.7448664
  26.4070344  56.7209101  57.2392797  27.4014354  57.5730085  58.8557768
  26.9104338  56.8854523  59.3116093  29.9063206  56.5909338  57.2623396
  30.6538057  56.4171076  58.1987000  30.3721428  57.3375988  56.2336493
  29.6380925  57.6418066  55.0106907  29.1339207  58.5993910  55.1408577
  28.8943291  56.9523382  54.6112442  30.6389260  57.8805733  53.9991331
  30.2287626  58.6792612  53.3810949  30.6930017  56.9239998  53.4793758
  31.9306707  58.4230852  54.7332096  31.8370199  59.5023489  54.8537350
  32.8438902  58.1204891  54.2207956  31.7704630  57.6008797  56.0559320
  32.2519684  56.6460085  55.8450174  32.4294710  58.2454348  57.2419786
  33.6264920  58.0095196  57.5158501  31.7656708  59.1973114  57.9143381
  30.8768940  59.4655848  57.5165892  32.3933363  59.9304247  59.0155268
  33.3932352  60.2934837  58.7778568  31.6851306  61.2557936  59.3590593
  31.6281247  61.8994856  58.4812737  30.6485510  61.1445951  59.6772385
  32.3082733  61.9400549  60.4640627  32.2152901  62.8700066  60.2446413
  32.4469519  59.0834856  60.2525043  33.5392523  59.1007233  60.8585405
  31.4464569  58.2515001  60.5853891  30.6378675  58.2534075  59.9801779
  31.5733552  57.2305250  61.6503000  31.8972278  57.7449942  62.5550270
  30.1383448  56.7170382  61.9755220  29.6180344  56.2670946  61.1299849
  30.2268791  55.9189558  62.7126265  29.2912364  57.8480005  62.6427317
  29.7545004  58.3813810  63.4727859  28.9469266  58.5757113  61.9078922
  27.9496694  57.3138237  63.0960703  27.3159671  56.9915915  62.2698212
  28.0225563  56.4763546  63.7899256  27.1750426  58.3444643  63.7429905
  26.6731620  58.9906263  63.1508064  27.1257520  58.6393642  65.0398302
  27.7093673  57.9392433  65.9506321  28.2963300  57.1690416  65.6636381
  27.7194476  58.2086802  66.9239807  26.4377666  59.6826220  65.4372215
  25.8427787  60.1163673  64.7458792  26.2170172  59.8758411  66.4036798
  32.6534843  56.2214136  61.2873793  33.4344172  55.8936262  62.2177982
  32.7196145  55.7497263  60.0443602  32.0151210  56.1825705  59.4643259
  33.7038016  54.8142958  59.4988871  33.8253617  53.9130878  60.0998449
  33.4260798  54.4726038  58.0794907  32.4689794  53.9534092  58.0295324
  33.3240843  55.3911209  57.5015402  34.4836187  53.6165714  57.3595381
  35.4446459  54.1261959  57.4289608  34.5326209  52.2567749  57.8521061
  35.0995421  51.5212536  57.2813988  35.1009822  52.3236418  58.7797928
  33.6012244  51.8109226  58.2011318  34.2626572  53.5524702  55.7934904
  33.8569403  52.5790358  55.5179453  33.5428166  54.3190861  55.5067205
  35.2030993  53.5213280  55.2433109  35.1165080  55.3100967  59.6080923
  36.0075974  54.7325993  60.2789974  35.3549981  56.5423346  59.0806055
  34.6138549  57.0866156  58.6628008  36.6587400  57.2031879  59.1313410
  37.3282528  56.4887857  58.6523008  36.5892410  58.4446096  58.2049084
  36.4578819  58.2015800  57.1504974  35.7025933  59.0134335  58.4849024
  37.7637482  59.2304802  58.3372545  37.7651620  59.6089029  59.2195225
  37.1646070  57.4234200  60.5000257  38.3247685  57.1179533  60.6857777
  36.3343573  57.7622986  61.5597200  35.4062676  58.0262041  61.2612200
  36.7866850  57.8894186  62.9816055  37.6172638  58.5885048  63.0792046
  35.6567383  58.2768154  63.9294529  34.7389197  57.7132034  63.7619781
  35.9573793  57.9932356  64.9380636  35.3000879  59.7560024  63.8680124
  36.0885620  60.3595114  64.3176651  35.2485538  60.0938845  62.8329849
  33.8620996  59.8856640  64.3850946  33.1132460  59.2521620  63.9097071
  33.7404943  59.5737457  65.4224157  33.4245944  61.2574577  64.0953732
  34.1734743  61.9057798  63.8979769  32.1784711  61.7038631  64.1605091
  31.1884069  60.9729624  64.5574093  31.3032961  60.0124598  64.8478174
  30.2491331  61.3261890  64.4429779  31.8321037  62.9101944  63.8172388
  32.5845289  63.5010004  63.4933567  30.9539223  63.3791828  63.9873791
  37.3267794  56.6110754  63.5181046  38.3321714  56.6443586  64.2911434
  36.6806698  55.5100393  63.1537771  35.9269857  55.6662226  62.4998140
  37.0766664  54.1419172  63.6308861  37.1245456  54.0803051  64.7180891
  35.9985590  53.0861187  63.1773186  35.7736039  53.2472229  62.1230173
  36.3972974  52.0716763  63.1813192  34.6314120  53.1404448  63.9394522
  33.7648058  52.2438002  63.7634420  34.4470787  54.0915871  64.8021269
  38.4399104  53.7856865  63.0418682  39.2123389  53.0828714  63.7166166
  38.7871337  54.3132925  61.8976927  38.1192207  54.8053837  61.3216352
  40.1020479  54.1711712  61.2928867  40.5033684  53.2075644  61.6067505
  39.9399185  54.1439390  59.8040247  39.6317482  55.1149845  59.4164705
  40.9393883  53.9782906  59.4018745  39.0813589  53.0284548  59.0909910
  38.3872223  53.0958605  57.9045391  37.8980088  51.9040966  57.6423979
  37.2796535  51.6842747  56.7846632  38.2295346  51.1042356  58.6368799
  38.0017781  50.1209927  58.6751556  39.0663052  51.7107487  59.4900608
  39.5851326  51.2623978  60.3244495  41.2062883  55.2295446  61.6667223
  42.2938585  55.1637697  61.1116314  40.9932566  56.2078524  62.5125313
  40.0830841  56.2880325  62.9429483  41.9984579  57.1971989  63.0021906
  42.5027514  57.7503014  62.2098160  41.1714125  58.3048010  63.6429214
  40.7361507  57.7980518  64.5042324  41.8046618  59.1546679  63.8975286
  40.4552698  58.6870861  62.9155302  43.0204153  56.5576982  63.8989592
  44.0255213  57.2076130  64.1166306  42.7480841  55.3651190  64.4952822
  41.8689203  54.9511766  64.2199230  43.5938263  54.5315933  65.2999067
  44.0356064  55.1730680  66.0624266  42.7548218  53.4428787  65.9983587
  43.3313084  52.8048754  66.6682339  41.6735220  54.0024805  66.8661451
  41.0126209  54.6525478  66.2927914  41.0258675  53.2501984  67.3163748
  42.0352507  54.5571613  67.7319288  42.1573830  52.7291107  64.9652624
  42.2083902  51.7940140  65.1764297  44.7222662  53.7580919  64.4729042
  45.7242346  53.5104799  65.0653076  44.4589424  53.5579777  63.2255936
  43.5824537  53.9375448  62.8972626  45.4593563  53.0911303  62.2526693
  45.9680653  52.2147846  62.6543379  44.7180319  52.7988815  60.9593248
  44.4205093  53.7225294  60.4628706  45.5139303  52.3727942  60.3485060
  43.4618807  51.8854618  60.9473753  42.7245045  52.2713804  61.6512585
  42.8445482  51.9675589  59.5414114  43.0103064  52.9564238  59.1138840
  43.4193611  51.3609886  58.8415813  41.8152428  51.6092157  59.5267248
  43.8607693  50.4507399  61.1333847  44.2967463  49.9539328  60.2666616
  44.5915079  50.3579569  61.9368219  43.0232573  49.8033047  61.3932180
  46.5225029  54.0438175  61.9292402  46.3372087  55.2823162  61.9769859
  47.7390051  53.5556507  61.5311575  47.8209209  52.5490904  61.5161896
  48.7681246  54.3323469  60.8624697  49.1299343  55.0942850  61.5528631
  49.8980188  53.3395529  60.4567814  50.5089712  53.1310081  61.3350439
  49.4920540  52.4621534  59.9533272  50.8346510  53.9517641  59.4517279
  50.6371355  53.8507652  58.2450676  51.7086887  54.8301888  59.8817062
  52.0468998  55.4792643  59.1857052  51.9142342  54.9487591  60.8634424
  48.2653618  55.1188231  59.6476030  47.4085474  54.6010971  58.9653921
  48.6939955  56.3695574  59.4501305  49.3257380  56.7718077  60.1277733
  48.1847525  57.3255539  58.4948301  47.1375751  57.4244213  58.7807512
  48.7272263  58.2702637  58.5315418  48.3084106  56.8484640  57.0967054
  47.2951365  56.9927788  56.3966084  49.3208170  56.2884569  56.6020966
  50.0607634  56.0455227  57.2451878  49.3518353  55.7860041  55.2528858
  48.9903641  56.5305758  54.5436192  50.7954645  55.6104422  54.8770475
  51.4765358  56.3189363  55.3485107  51.1039209  54.5690966  54.9695539
  50.7826376  55.8481741  53.8133669  48.4266043  54.5844460  55.0598526
  47.7064562  54.4984102  54.0302801  48.2923222  53.7464476  56.0820293
  48.8612938  53.9973068  56.8779182  47.5158024  52.4902010  56.1360979
  47.7779245  51.8181086  55.3189754  47.9588890  51.6499376  57.3283815
  49.0079498  51.4168453  57.1460581  47.7071142  52.2249508  58.2194901
  47.1644545  50.3315735  57.5504541  46.1603975  50.6989288  57.7626371
  46.9395351  49.2961407  56.4345026  46.2653971  48.4985304  56.7466831
  46.6490459  49.8539114  55.5442142  47.9045963  48.8805342  56.1446285
  47.5335407  49.6461153  58.8990116  47.5348806  50.4307461  59.6556234
  46.8975067  48.7868452  59.1116714  48.5346317  49.2328691  58.7759495
  46.0030460  52.9192495  56.0743523  45.2413797  52.2711706  55.3705883
  45.6003428  53.9982510  56.7680264  46.2295961  54.4767904  57.3966408
  44.3095922  54.6283817  56.6800594  43.5483837  53.8916445  56.9367361
  44.2843914  55.6746578  57.8483772  44.3719339  55.2675676  58.8557100
  45.1525593  56.3336658  57.8387022  43.0408764  56.5541077  57.9059458
  42.2377729  55.9076500  57.5520849  42.8503370  56.8194866  58.9458370
  43.1000710  57.8373146  57.1671391  43.7174177  58.0845547  56.1414099
  42.3173523  58.7888288  57.5528526  42.2802877  59.6402073  57.0107365
  41.8062830  58.6165142  58.4067917  43.8767481  55.1141596  55.2720976
  42.7283287  54.9641466  54.8932076  44.8666811  55.6535292  54.4979239
  45.8107090  55.8021402  54.8247719  44.6200657  56.0584736  53.0812836
  43.6954737  56.6348839  53.0499268  45.7552195  56.9025612  52.4046469
  45.8123350  57.8707075  52.9021645  46.7063570  56.4238119  52.6375437
  45.6797981  57.0912409  50.9161949  44.5640469  57.7129602  50.3610897
  43.6847448  58.0086136  50.9140968  44.4944715  57.7754736  48.9771891
  43.6294222  58.2532740  48.5415220  45.5820799  57.3522568  48.1552982
  45.5285358  57.4918938  47.0857000  46.7358065  56.7263269  48.7828064
  47.5294399  56.2893677  48.1949091  46.7421293  56.5942574  50.1524925
  47.6160717  56.1333084  50.5885601  44.3138647  54.8261023  52.2371864
  43.3054829  54.6489859  51.5613651  45.1841927  53.8097095  52.3176813
  46.0343218  54.0049839  52.8268480  45.0084209  52.4676752  51.7043304
  45.0476170  52.5662041  50.6195021  46.2365627  51.5354586  52.0776463
  47.2157431  51.8295527  51.6997290  46.3245296  51.4578629  53.1613159
  46.0306549  50.4998541  51.8070412  43.6897326  51.8079996  52.0812321
  43.0268621  51.2256622  51.2192917  43.2474852  51.7778254  53.3315611
  43.9494181  52.0741987  53.9945459  41.9718695  51.2384415  53.8332701
  41.9419861  50.1778555  53.5835457  41.9159031  51.3395357  55.3490591
  41.8670607  52.4104261  55.5463362  40.7989693  50.5404186  56.0239172
  41.0838032  50.4575777  57.0727825  39.9130726  51.1467266  55.8350086
  40.6842089  49.5276451  55.6376266  43.1462574  50.8338928  55.8893633
  43.8388920  51.4757681  55.7165623  40.7642746  51.9168329  53.2776308
  39.8561430  51.2611723  52.8136921  40.7918930  53.2114506  53.1666613
  41.5555429  53.7239885  53.5840893  39.7799945  54.0363121  52.4200296
  38.7932253  53.7302017  52.7674484  40.0128794  55.5791855  52.6490307
  41.0409737  55.8923244  52.4671793  39.2884779  56.0048246  51.9546461
  39.4633675  56.1437607  53.9066315  38.3961606  55.9245634  53.9402580
  39.8158145  55.5340242  54.7385645  39.6390605  57.6299095  54.0978050
  40.7024240  57.8610325  54.0350533  39.1523910  58.0666685  53.2257414
  39.2513609  57.9679489  55.5133104  38.2345986  57.6296329  55.7129097
  39.8894763  57.5103283  56.2692785  39.1038322  59.4082737  55.7663918
  39.9970388  59.8210812  55.5386353  38.3624864  59.8520136  55.2433252
  38.8679123  59.5707369  56.7349243  39.7228479  53.6975336  50.8998680
  38.6639547  53.3447456  50.4352427  40.8228683  53.5899115  50.1785040
  41.6962528  53.7776470  50.6497240  40.8814192  53.3364916  48.8074923
  40.1504612  53.9012003  48.2287788  42.3753500  53.6712599  48.4333229
  42.5230169  54.7162294  48.7059689  43.1003046  53.0839920  48.9969301
  42.7932978  53.5201645  46.9409370  43.8794041  53.6009121  46.8967772
  42.5644398  52.4766493  46.7245722  42.1043015  54.5356035  46.0898113
  41.8475389  55.6464052  46.4878273  41.7133665  54.1671038  44.9278355
  41.0802126  54.7624350  44.4132519  41.6382217  53.1794310  44.7304487
  40.5910778  51.8289804  48.5345221  39.7728419  51.5656328  47.6637936
  41.0962391  50.9150839  49.2886972  41.7658234  51.1119843  50.0187588
  40.7680368  49.4951963  49.1985226  40.8984613  49.0307331  48.2210922
  41.8087196  48.6640215  50.0239706  42.8029442  48.9508533  49.6814156
  41.7117167  49.0005827  51.0561609  41.5216255  47.1200705  50.0059175
  40.4743290  46.9687510  50.2673912  41.8022537  46.5851784  48.6439991
  42.7663851  46.9400167  48.2797861  41.7285728  45.4977465  48.6314011
  41.0011387  46.9315195  47.9910326  42.3272371  46.3595581  51.0830164
  42.1946287  46.7297602  52.0996141  42.0224857  45.3131294  51.0978794
  43.3784628  46.4673185  50.8157778  39.2600155  49.2739725  49.5190620
  38.6381221  48.5422230  48.7781382  38.6611176  49.8967171  50.5284309
  39.2278552  50.5701113  51.0238695  37.2221708  49.8140860  50.8611727
  37.0132899  48.7458134  50.8040333  36.9776559  50.2560663  52.3111963
  35.9832287  49.9720335  52.6554918  37.6927066  49.7426891  52.9540348
  37.1428370  51.6401625  52.4290180  38.0071926  51.8364525  52.7977467
  36.2983370  50.4523611  49.8652458  35.3409886  49.8338413  49.4246387
  36.6515255  51.6063499  49.2896318  37.4007773  52.0689297  49.7843504
  35.9901452  52.2833204  48.1718349  34.9490547  52.4988842  48.4121752
  36.6627073  53.6435509  48.0063152  37.7410078  53.5004711  47.9363155
  36.4445877  54.0791893  47.0312548  36.3014960  54.5364141  49.1521215
  35.2324653  54.7476912  49.1267061  36.3889313  54.0873146  50.1414490
  37.0983195  55.8532715  49.2443371  38.1082916  55.4599953  49.1286278
  36.8226314  56.4566898  48.3794785  36.8421555  56.5737534  50.5311298
  36.4160442  56.0080910  51.2512350  37.0668364  57.8575134  50.7987356
  37.5929260  58.7185383  49.9522591  38.1304669  58.3627272  49.1747332
  37.6157761  59.6923065  50.2193689  36.6530204  58.3567190  51.9412661
  36.1117220  57.7351284  52.5249863  36.6555452  59.3612719  52.0460176
  36.0021424  51.4390564  46.9177246  35.0238395  51.3952780  46.1765099
  37.0860195  50.6792212  46.6881704  37.8772640  50.8031082  47.3035383
  37.2406888  49.8282003  45.5326986  36.9711328  50.3319454  44.6044302
  38.6676097  49.3794775  45.3814936  38.9074135  48.8636637  46.3112974
  38.9158821  48.5114861  44.1373205  38.2307696  47.6698399  44.2391014
  38.7752461  49.0753365  43.2151508  39.9062777  48.0619669  44.2091322
  39.4541478  50.4921770  45.1922226  39.5710778  50.9229612  46.0421371
  36.2818217  48.5940218  45.6714630  35.5059409  48.2519150  44.7309208
  36.3429451  47.8601027  46.8149233  36.9367242  48.1791353  47.5670862
  35.4343796  46.7476892  47.1134472  35.4672718  46.0241032  46.2989235
  35.7624269  46.1544991  48.4673166  35.7070470  47.0298147  49.1145086
  35.0242925  45.4539347  48.8577795  37.1076322  45.4932976  48.5064936
  37.8464770  46.1325026  48.0231428  37.5488877  45.2326584  49.9364567
  36.9594550  44.4714355  50.4475546  38.5905790  44.9339771  49.8191023
  37.4325275  46.1595774  50.4980421  37.2165012  44.1912937  47.6750898
  36.5172720  43.4796095  48.1140423  36.8534470  44.4637299  46.6840982
  38.1916857  43.7061691  47.6330948  33.9915824  47.2356939  47.1457338
  33.1044769  46.4451361  46.8436527  33.7453628  48.5085726  47.5821495
  34.4807005  49.0082026  48.0614758  32.3907447  49.0794992  47.5255966
  31.6614914  48.4896803  48.0809402  32.3647356  50.3855753  48.3099461
  33.2086587  50.9955978  47.9878187  31.3726234  50.8328056  48.2482862
  32.6280284  50.0715590  49.6386480  33.5799098  49.9625444  49.6989727
  31.8816686  49.2653513  46.0887861  30.6555080  49.1716671  45.8387518
  32.7795362  49.4291496  45.1026440  33.7581873  49.4933796  45.3439283
  32.4118996  49.6717358  43.6529303  31.3961744  50.0657320  43.6871099
  33.4401441  50.6251192  42.9247904  34.4237447  50.2764273  43.2395029
  33.3639526  50.5681849  41.8389416  33.1848884  52.0730782  43.3826828
  32.1399951  52.3180914  43.1922531  33.3802533  52.1028423  44.4546223
  34.1583061  53.0302572  42.7012539  34.0331984  54.0025187  43.1778622
  35.1785398  52.6878357  42.8743792  34.0580511  53.0225134  41.2173891
  33.2925391  52.5098991  40.8034849  34.9437714  53.4894323  40.3401804
  36.0994673  53.9560699  40.7570696  36.2253428  54.1071081  41.7477465
  36.8748736  54.0067673  40.1118755  34.7692513  53.3194304  39.0872264
  33.8174582  53.1070662  38.8243628  35.5035806  53.6079359  38.4566545
  32.2217607  48.2400703  42.9665995  31.4957905  48.0749750  42.0180607
  32.9337502  47.2264099  43.4869766  33.4414697  47.5737667  44.2880154
  32.9139447  45.8589697  43.0106068  33.1498384  45.8753347  41.9465637
  34.0762067  45.0766754  43.5559702  34.9824190  45.6791830  43.4938622
  33.9142489  44.7561407  44.5851088  34.2603493  44.1825056  42.9604435
  31.6354012  45.0827980  43.2692719  30.8441472  45.4407835  44.1323566
  31.3535595  44.1175461  42.3721743  32.1435213  43.7366962  41.8711567
  30.0593901  43.3805037  42.1461821  29.3579006  43.5941267  42.9526424
  29.3998480  43.8560629  40.8307457  28.4122658  43.4004927  40.7583475
  29.2508245  45.3245974  40.7008648  28.7459850  45.6771374  41.6002798
  30.2280688  45.8060741  40.6651831  28.6165833  45.6695986  39.8842740
  30.0336790  43.4868288  39.7046685  30.9456587  43.7857294  39.7281671
  30.3055310  41.9135189  41.9809437  31.4112306  41.4983702  41.6492081
  29.3423390  40.9952068  42.2931767  27.9564500  41.2581015  42.6295233
  27.6076984  42.2002649  42.2066689  27.8778815  41.3880587  43.7088966
  27.1463776  40.0490236  42.2390413  26.6955209  40.1405811  41.2508869
  26.3222837  39.7718287  42.8964138  28.1769824  38.9193106  42.3275089
  27.8864455  38.0470490  41.7419720  28.1662869  38.5668731  43.3589029
  29.4922853  39.5720792  41.9463539  30.2937317  39.0883017  42.5046968
  29.6935272  39.2637348  40.4635286  29.1196346  39.8488140  39.5517969
  30.6193209  38.3814001  40.1650810  31.0137582  37.7992845  40.8901072
  31.0217071  37.9817796  38.8186002  30.6477165  38.7229156  38.1122375
  32.5893378  37.9068089  38.6949539  32.9278517  37.0938730  39.3373275
  32.9874992  37.3680305  37.3445415  32.5939107  37.8801179  36.4665055
  34.0657210  37.3450613  37.1863937  32.5506425  36.3694501  37.3351908
  33.2560110  39.1755319  39.1319680  33.0363846  39.3144774  40.1905346
  34.3405890  39.1986990  39.0258574  32.8191519  40.4978609  38.4199858
  33.5155678  41.2199306  38.8462710  32.9286861  40.5303717  37.3359895
  31.7954135  40.7327414  38.7113428  30.2700734  36.6498971  38.5544205
  30.3350306  35.7974935  39.4539022  29.8313522  36.3603330  37.3086309
  29.7369027  37.2994280  36.2049651  30.6800056  37.2139668  35.6651831
  29.4984150  38.3066678  36.5465665  28.6446404  36.7757726  35.2972221
  28.6833239  37.2102880  34.2983246  27.6570463  37.0175695  35.6900358
  28.8762474  35.2829194  35.3450918  29.6977282  35.0067663  34.6840215
  27.9296231  34.7995782  35.1034594  29.3245125  35.0477719  36.8298459
  28.4640980  34.7856545  37.4455452  30.3066826  33.8661289  36.9035959
  31.4985800  33.9610624  36.6583371  29.7261381  32.7358341  37.3232627
  28.7782955  32.7167487  37.6715851  30.5116796  31.5000010  37.4971032
  31.4907908  31.7763710  37.8883362  29.7511506  30.6641173  38.5062265
  28.7063098  30.6982207  38.1976104  30.0731206  29.6235514  38.5469556
  29.9312854  31.3025594  39.8930621  29.8464203  32.3804045  39.7546864
  29.0510011  31.0060787  40.4634094  31.1377692  30.9708357  40.7709217
  31.2732410  31.6664147  41.8191290  31.8923450  30.0148368  40.3779459
  30.7376838  30.9314489  36.1153769  29.8889565  31.0649681  35.2474880
  31.9352221  30.2503252  35.8968186  32.5588346  29.9918485  36.6480851
  32.3424602  29.5871520  34.6358156  32.0923042  30.2578235  33.8137937
  33.8633299  29.4281244  34.6405911  34.0304327  28.7483144  35.4760766
  34.0684438  28.8509345  33.7389922  34.7772336  30.6515598  34.6633434
  36.0807180  30.3433323  35.0840187  36.3070822  29.3155646  35.3266168
  37.0525789  31.3856268  35.0257111  38.0509067  31.2421155  35.4119062
  36.6616392  32.6875949  34.7110391  37.5294518  33.7393403  34.7570205
  38.3571744  33.6825323  35.2399778  35.3563595  32.9315376  34.1918015
  35.1206279  33.9533639  33.9335322  34.3907094  31.9525123  34.1519356
  33.4278297  32.2073889  33.7344432  31.5686250  28.2993555  34.5079255
  31.3100529  27.6182413  35.4903817  31.1763382  28.0315924  33.2132554
  31.2425637  28.7085605  32.4666429  30.2342963  26.9418859  32.9646659
  29.2624927  27.1205473  33.4248590  29.9500012  26.9490075  31.4252615
  29.5281672  27.8937006  31.0821676  30.8487964  26.6487288  30.8866501
  28.8943052  25.8891988  31.0760355  29.2244625  24.9409175  31.5001392
  27.5566840  26.1817336  31.7051744  27.1892953  27.1914005  31.5216041
  26.7362761  25.5076218  31.4589930  27.6864409  26.0846138  32.7830577
  28.6172318  25.7050347  29.6277738  29.5583081  25.6211472  29.0842342
  28.0361056  24.7829032  29.6192813  28.1657863  26.6245627  29.2552567
  30.8710647  25.6749296  33.4594226  30.1982212  24.9046636  34.1677570
  32.1594715  25.4714036  33.0211997  32.4434662  26.2753034  32.4797249
  32.9048944  24.2551661  33.1409335  32.8978944  23.9915919  34.1985631
  32.1864796  23.0728745  32.4074364  32.7734089  22.1544123  32.4010444
  31.3279581  22.7960372  33.0193233  31.8655181  23.3991575  30.9140372
  31.3531947  24.3568969  30.8225536  32.7960539  23.4255481  30.3470206
  30.9140396  22.3174381  30.4138327  31.3420057  21.3218021  30.5306792
  29.9561596  22.2886848  30.9331965  30.6993699  22.5201058  28.9307308
  30.2333641  23.5048079  28.8946843  31.6552401  22.5367475  28.4071469
  29.8254585  21.4768839  28.3796120  30.1611185  20.5296206  28.2789397
  28.8978291  21.4746785  28.7791085  29.7569203  21.7556357  27.4112630
  34.3863702  24.3535042  32.7384806  34.7407937  25.3420663  32.1019840
  35.1287961  23.2562518  33.0320835  34.7442055  22.6509690  33.7433028
  36.5532613  23.1554294  32.7765226  36.8481040  23.9538407  32.0955634
  37.2264719  23.1930232  34.1329503  37.3185802  24.2280793  34.4620013
  36.5420985  22.6048231  34.7443080  38.5685611  22.6084495  34.1540194
  38.7827563  22.4690723  35.2136397  38.6500359  21.6391754  33.6621189
  39.6563911  23.4956956  33.5207486  39.4848561  24.5189095  32.9242778
  40.8676386  23.1757164  33.6551619  41.5356302  23.7649012  33.1789827
  41.1714363  22.6640368  34.4712448  36.8626261  21.8721795  31.9827771
  36.4529371  20.7814622  32.4123311  37.5522709  21.9990540  30.7788992
  37.7486944  22.9688048  30.5761695  37.8912711  20.9360409  29.8502707
  36.9834304  20.5680680  29.3722272  38.7758660  21.6113114  28.7306595
  39.5898342  22.2028875  29.1496944  39.4549179  20.4755259  27.9085851
  38.7721515  19.8725092  27.3100019  40.1929235  20.8141756  27.1814179
  40.0653267  19.8057938  28.5143566  37.9321599  22.5043392  27.6948237
  37.6012325  23.4092116  28.2045269  38.6305165  22.8503203  26.9327903
  36.8289375  21.7912030  26.9326210  36.4119363  22.4238634  26.1490703
  37.0713043  20.7958412  26.5603089  36.0462904  21.5280390  27.6441717
  38.5407329  19.7656763  30.5950594  39.3932128  20.0129890  31.4812708
  38.1436276  18.4976912  30.2596712  37.1368861  18.0321133  29.3358588
  37.6222777  18.0848229  28.3613253  36.1962008  18.5671806  29.2057848
  36.9318986  16.5696621  29.7387815  36.5281272  15.9251177  28.9579916
  36.3321590  16.4626300  30.6426382  38.3751512  16.0795176  30.0628734
  38.8873029  15.8305109  29.1334653  38.3453703  15.2090049  30.7181740
  38.9249969  17.3217058  30.8147478  38.6550522  17.3250282  31.8707895
  40.4381895  17.4133158  30.7134223  40.9370518  17.5858521  29.5528340
  41.1193323  17.3167467  31.8293285  40.5844212  17.3416698  32.6856899
  42.5826883  17.3721516  31.8389940  42.9165745  18.3239734  31.4258909
  43.1924105  17.2737598  33.2568669  42.9246092  16.3140714  33.6988854
  44.2705965  17.4051559  33.1655073  42.6104259  18.3753097  34.1788578
  43.0435276  19.4753063  34.2294836  41.7173576  18.1160235  35.1077199
  41.6680956  18.8264287  35.8239627  41.1340380  17.2915936  35.0951934
  43.2261372  16.2962210  30.8791947  43.0491400  15.0669968  31.0612369
  43.9228821  16.7295229  29.8815989  43.9760685  17.7381241  29.8835468
  44.7756386  15.9636652  28.9710903  45.0799894  15.0394332  29.4622850
  44.0729761  15.6689000  27.6658297  43.1167936  15.1829076  27.8598118
  43.6434078  16.5187907  27.1354938  44.8773050  14.8776031  26.7901945
  44.2401123  14.7152090  26.0907507  46.1121178  16.7001212  28.7349176
  46.0924482  17.8015125  28.1636000  47.1771574  16.0218716  29.1870379
  47.0552301  15.1750851  29.7238755  48.5320425  16.3925648  28.9605093
  48.7312412  17.4171877  29.2744660  49.3662977  15.4518163  29.7763109
  49.2515278  14.4607472  29.3373227  50.4393053  15.6374180  29.8244619
  48.7977886  15.5688989  31.4551687  50.0039291  15.8306611  31.9666481
  48.9997911  16.3191772  27.5017309  49.9581528  16.9767559  27.1539283
  48.2803059  15.5604041  26.6817379  47.3874474  15.1248991  26.8640494
  48.8487482  15.2721488  25.3000927  49.8593998  14.9234164  25.5123734
  48.0780220  14.0991116  24.7561383  46.9928503  14.1326785  24.8529863
  48.2106733  13.6884677  23.2624316  47.9374218  12.6634872  23.0117202
  47.4652004  14.3171287  22.7754450  49.1414404  14.0358329  22.8139734
  48.6660385  12.8755391  25.5564237  49.7512102  12.8433526  25.4591179
  48.4045124  12.9506123  26.6119170  48.1851912  11.9548810  25.2258539
  48.7938261  16.5945137  24.4455576  49.7574329  16.9458127  23.8155532
  47.6595688  17.3216856  24.5370197  46.9182396  16.8866742  25.0673938
  47.4180603  18.7311196  24.1044736  48.2610655  18.9588213  23.4520912
  46.0347128  18.6668766  23.2789278  45.7385349  19.6909797  23.0517936
  46.2026310  18.0673969  22.3842096  44.9676085  18.1176722  24.0795827
  44.8706007  18.6512232  24.8717380  47.3206615  19.8207128  25.2081513
  46.9815731  20.9482026  24.9089003  47.8273344  19.4032025  26.3967943
  47.8899288  18.4126532  26.5838599  48.2356453  20.2574348  27.4579906
  47.5886631  21.1344194  27.4377823  48.0468321  19.6784186  28.3619785
  49.7090340  20.6937623  27.4380565  50.4157639  20.6549740  26.4414024
  50.1222563  21.0624242  28.6614513  49.3906212  20.8969474  29.3377829
  51.5137911  21.3212395  28.9819264  51.3950014  21.9060183  29.8940802
  52.1680689  20.0305653  29.5009923  52.4392271  19.4269955  28.6348057
  51.4167070  19.4499803  30.0362277  53.5879993  20.5391526  30.4862332
  52.2597742  22.3115444  28.0149674  52.9061794  21.8305683  27.0562243
  52.2363472  23.5741639  28.4293532  51.6752291  23.9119744  29.1982031
  52.7411604  24.6704125  27.6018929  53.6395454  24.3351507  27.0836234
  51.7452288  24.8946714  26.4365339  51.4926386  23.9367628  25.9818816
  50.8168268  25.3652906  26.7600894  52.4149370  25.8813000  25.1295757
  52.2700167  27.1174192  25.6152797  52.8689861  25.9874988  28.3925748
  52.0062637  26.8886876  28.3978772  53.8665247  26.0619760  29.3098497
  53.7572813  26.9271159  29.8194551  55.1379108  25.2850962  29.5790720
  55.7588148  25.8128953  30.3029609  54.7905111  23.9868736  30.2635932
  55.7157373  23.5290742  30.6135607  54.3777609  23.2070613  29.6235704
  53.9815855  24.1828203  31.8691540  55.9993935  25.1234412  28.2600307
  55.6946516  25.7773995  27.2626925  57.0595360  24.3543887  28.3620048
  57.3054743  23.9604378  29.2588997  57.7051497  23.7773156  27.2170687
  58.5918474  23.1694412  27.3969555  57.0134592  23.0773854  26.7482781
  58.2210255  24.7557807  26.1197639  59.0967035  25.5373645  26.2436819
  57.7031374  24.5101190  24.8913884  57.0813608  23.7382317  24.6972704
  57.9556370  25.4013562  23.7177849  59.0203667  25.2427006  23.5466528
  57.0190239  24.9784899  22.5978088  57.0889854  23.8996339  22.4589753
  55.9813881  25.1396465  22.8901291  57.1377230  25.8722997  21.2924719
  57.9974556  25.5253601  20.3246784  58.6907864  24.6993923  20.3836417
  57.7784920  26.4313769  19.3140090  58.2813215  26.3584089  18.4411180
  56.9878340  27.4694943  19.7596669  56.6729259  28.6864209  19.1810501
  57.1388531  28.8625216  18.2227695  55.8286285  29.6198153  19.8219478
  55.6010199  30.5511308  19.3247092  55.2814960  29.2709136  21.0590482
  54.5534182  29.9838996  21.4167571  55.5732870  27.9664230  21.6121960
  54.9482775  27.6568007  22.4367595  56.4861679  27.1133041  21.0184145
  57.6887465  26.8981290  24.0096736  58.4434843  27.7940583  23.6391711
  56.6359806  27.2603464  24.7868490  56.1865330  26.5653825  25.3657484
  56.3947058  28.6332536  25.1766968  56.4525461  29.2152190  24.2568755
  54.9597216  28.7915993  25.7840824  54.3248701  28.4104705  24.9842048
  54.9385738  28.1041169  26.6296768  54.5583677  30.1975465  26.2114549
  55.2219248  30.5308747  27.0093799  54.6658278  31.1482430  25.0178576
  55.6992722  31.4659810  24.8794985  54.2761946  30.7212782  24.0937424
  54.0785599  32.0571709  25.1484895  53.0833292  30.0907731  26.6549158
  52.4015570  29.7100067  25.8944535  53.0830908  29.3542576  27.4584365
  52.6495981  31.0554123  26.9184637  57.4733973  29.1611791  26.0758972
  57.9251480  30.3368759  25.9999061  57.9359388  28.2915306  27.0063591
  57.6517487  27.3268628  27.0999217  58.9470243  28.6314368  27.9773545
  58.7325668  29.5760703  28.4771419  59.2574310  27.4788284  28.9532399
  59.3875980  26.5189052  28.4535384  60.4747725  27.8179455  29.8278069
  61.4156771  27.7673984  29.2798615  60.3560925  28.8080096  30.2680230
  60.4154539  27.1680069  30.7008266  58.1361055  27.1416759  29.7094321
  58.2160330  26.2546515  30.0677633  60.1602983  29.0216041  27.1929502
  60.6233263  30.1003838  27.4362421  60.5992317  28.2210732  26.2853837
  60.2752495  27.2740889  26.4208674  61.7137003  28.4734082  25.4203582
  62.6219606  28.6779809  25.9872007  61.9528627  27.1962810  24.5568252
  61.0927153  26.8530440  23.9819884  62.6966047  27.4362946  23.7969923
  62.5701427  25.9933877  25.3692150  63.6586189  25.9983802  25.4266000
  62.2304487  25.9642339  26.4045215  62.2035599  24.7557354  24.5609641
  61.1373472  24.5293355  24.5557857  62.6119614  24.8403144  23.5539126
  62.8328323  23.4803534  25.1453471  63.8359928  23.6673760  25.5284834
  62.2267723  23.2208276  26.0133576  62.8873110  22.4425364  24.0753388
  61.9782639  22.2023892  23.7064695  63.4899569  22.8314400  23.3642316
  63.3666134  21.6530323  24.4840646  61.4786053  29.6985316  24.5639753
  62.3923349  30.5027175  24.4454718  60.2754068  30.0364447  23.9840603
  59.5707512  29.3165994  24.0574861  59.8926497  31.3303280  23.3207726
  60.5820704  31.5041423  22.4945855  58.4307289  31.3116670  22.9446197
  57.6792812  31.1316133  23.7133884  57.9131126  32.5868487  22.2249007
  56.8864202  32.3463035  21.9489670  57.8526688  33.4774327  22.8504467
  58.5429621  32.8583503  21.3777423  58.2229757  30.4622817  21.8836069
  57.5857735  29.8128319  22.1898508  60.0811338  32.5567961  24.2895508
  60.6497812  33.5977387  23.9071155  59.6374035  32.3960805  25.5315995
  59.0942049  31.5763831  25.7620978  59.8516893  33.4921098  26.4984465
  59.5508194  34.4431138  26.0589290  58.9537525  33.3242559  27.7759886
  59.1182661  32.3339415  28.2006240  59.2026329  34.4682765  28.8375044
  59.2391300  35.4631686  28.3937073  58.3513737  34.4111753  29.5158839
  60.1473951  34.2422581  29.3319058  57.5014591  33.3914948  27.3406124
  57.2792482  34.4219947  27.0635009  57.2861147  32.6678991  26.5543962
  56.8221712  33.2919741  28.1872344  61.3177633  33.6601233  26.9300294
  61.7235231  34.7766685  26.9676518  62.0051432  32.6531792  27.3315978
  61.6264820  31.7253852  27.2054482  63.4120750  32.7185822  27.6906562
  63.5279560  33.4521556  28.4884906  63.9088726  31.4201117  28.3228946
  63.3978271  31.1880827  29.2572880  63.5392237  30.6079412  27.6969266
  65.3844643  31.2685132  28.5002995  65.9596014  31.4179063  27.5865173
  65.8371210  31.9309783  29.2380953  65.7636547  29.9352455  28.9676714
  65.3871822  29.7516465  29.9739838  65.2626705  29.2442536  28.2897019
  67.2798491  29.7125387  28.9597464  67.5973558  30.0464320  27.9719162
  67.7737188  30.4400611  29.6038771  67.7466106  28.3392596  29.2073727
  67.3027039  28.0625176  30.0713515  67.6362467  27.6549935  28.4727287
  68.7400723  28.3971500  29.3799496  64.3274641  33.2785082  26.5731525
  65.2342463  34.0408015  26.9049382  64.1191912  32.8019357  25.3262591
  63.3050871  32.2400379  25.1222849  64.7555923  33.4454083  24.1011953
  65.8292389  33.5036707  24.2800951  64.4686031  32.5838208  22.8500962
  64.7001028  31.5610290  23.1474233  63.4016848  32.6964235  22.6574636
  65.2932930  32.9028702  21.5824103  64.8878479  32.1546078  20.9013677
  65.1460552  33.9111066  21.1952686  66.7593050  32.6477242  21.5757656
  67.4180889  32.4785328  22.6536298  67.3496008  32.4560094  20.5103612
  64.3504524  34.9423957  23.9176989  65.0181961  35.6962919  23.2101607
  63.2169676  35.4446697  24.5541096  62.6930952  34.9060202  25.2290344
  62.7366161  36.8136406  24.3960404  62.8800726  37.2267270  23.3976007
  61.2022400  36.8701553  24.5272994  60.8584976  36.4990973  25.4928327
  60.6546783  38.2717133  24.2787480  61.2398481  38.9880109  24.8554635
  60.6748104  38.5942578  23.2377553  59.6039534  38.2986569  24.5674515
  60.5247021  36.2031960  23.4874058  60.8285093  35.2956510  23.5626435
  63.4865332  37.8683949  25.3056717  63.6003828  39.0054035  24.9065089
  63.8729286  37.4137568  26.5147662  63.9050674  36.4183569  26.6828346
  64.3945265  38.2401252  27.6001310  64.3341255  39.2686796  27.2444224
  63.4786272  38.0638671  28.7738943  62.4872303  38.3492708  28.4220648
  63.3646536  36.6528583  29.2858553  62.4332666  36.5070987  29.8330045
  63.4455967  35.9547853  28.4526420  64.2207575  36.5256643  29.9484301
  63.8830614  38.8411164  29.8496532  63.5261965  39.7319078  29.8768878
  65.9083414  37.9524636  27.7884102  66.5224266  37.1593642  27.0800328
  66.4546013  38.5727620  28.8798809  65.8079910  39.1545677  29.3932009
  67.7905846  38.3997965  29.3927741  68.4156847  38.7228656  28.5603237
  68.0236578  39.4196844  30.5572438  67.6528788  40.3334379  30.0928354
  67.4607611  39.1216087  31.4417791  69.5408821  39.6982527  30.9872746
  69.3937826  40.2829838  31.8953228  69.9924707  38.7467790  31.2681079
  70.3853941  40.4053879  29.9100041  71.4551926  40.5083275  30.0917649
  70.3006172  39.8637390  28.9679098  70.0109625  41.8300629  29.7604942
  69.2292547  42.2241449  30.2642131  70.4745054  42.7686644  28.9231205
  71.4987421  42.4754095  28.2204914  71.9272375  41.5758181  28.3855057
  72.0520020  43.0456066  27.5968885  69.9661255  43.9477491  28.8810039
  69.2078543  44.2413950  29.4800830  70.3034782  44.5209694  28.1209326
  68.2598972  36.9605589  29.7338271  67.4461699  36.0803008  29.9981260
  69.5913315  36.7770600  29.5292401  70.0685406  37.4838972  28.9881730
  70.3975391  35.5374765  29.8395324  70.3588200  34.9267244  28.9375448
  71.8356991  36.0359383  29.9983764  71.9233036  36.4880371  30.9863186
  72.8230715  34.9103212  29.8164964  72.5402403  34.4491935  28.8702083
  73.8402033  35.3017712  29.7988415  72.6922512  34.1893888  30.6234860
  72.2182608  36.9416070  28.9990377  72.8520155  37.5715661  29.3498969
  69.9532986  34.7562432  31.0325575  69.8465729  35.3096485  32.1047807
  69.7672272  33.4713864  30.8205914  69.9268627  33.0664897  29.9091768
  69.3858957  32.5384212  31.9104624  69.7764206  33.0563045  32.7864742
  67.8135920  32.4961019  31.9062328  67.5263643  33.5318017  32.0876884
  67.4278498  32.2646379  30.9133959  67.1906328  31.6143322  33.0219507
  66.1667252  31.9372225  33.2102346  67.1421051  30.5669570  32.7240419
  67.9148436  31.7368031  34.2998815  68.0239248  32.9118347  34.7565627
  68.5208273  30.7952452  34.8160505  70.0281763  31.1629486  31.7615795
  69.6388626  30.4433942  30.8599114  70.9236765  30.7369328  32.7309585
  71.6328907  31.5402627  33.7410545  71.0109043  31.7302918  34.6157670
  71.9687033  32.4503994  33.2440853  72.8505993  30.7489038  34.2174053
  72.5968838  30.1838517  35.1143169  73.5667515  31.5496254  34.4019985
  73.0780697  29.8095703  33.0545259  73.5612392  28.8636231  33.2991266
  73.6424923  30.3605628  32.3022318  71.6762447  29.4681263  32.5569987
  71.6799545  29.0976262  31.5319014  71.1274910  28.3770800  33.4081078
  71.7094612  27.3241806  33.2237816  70.1570702  28.6309648  34.3467784
  69.7645950  29.5608044  34.3085551  69.7619152  27.5997186  35.3217006
  70.4673624  26.7850018  35.1583409  70.0173092  28.2239366  36.6649103
  69.7826624  29.2832255  36.7695785  69.3172884  27.5214934  37.8562212
  69.6283388  26.4781380  37.8037095  69.5703411  27.8917456  38.8496876
  68.2460833  27.6900721  37.7457762  71.5410852  28.1710172  36.9721818
  71.9100714  27.1904564  37.2729254  71.9982767  28.3065987  35.9920263
  72.0494747  29.3218040  37.8429532  71.7655849  30.2640700  37.3742914
  71.5496683  29.3395281  38.8114500  73.1263494  29.3325043  38.0112743
  68.3425331  27.0906591  35.0933099  68.0846548  25.9464908  35.3619504
  67.4749804  27.9281950  34.4672561  67.7348375  28.9030075  34.5153689
  66.1237383  27.5058722  34.0461183  65.7380342  26.8004441  34.7821212
  65.1407671  28.7337852  33.9678979  65.4909086  29.4990849  33.2752109
  64.2058420  28.3439565  33.5653353  64.9684381  29.4266820  35.2464271
  65.7183456  30.3322935  35.6396627  64.0214825  28.9689541  36.0697126
  64.0679646  29.3005824  37.0225835  63.5544062  28.0813456  35.9509873
  66.2982273  26.7043734  32.7039719  66.3560343  27.2990990  31.5876055
  66.3516998  25.3540349  32.7988601  66.2732172  24.8954153  33.6953020
  66.7350388  24.3768454  31.7127848  66.7003775  24.8796773  30.7463169
  68.2730293  24.0615177  31.8747663  68.4585857  23.4629679  30.9829116
  69.2360973  25.2806282  32.0263600  68.8119459  26.0573888  31.3900948
  69.2256880  25.6966782  33.0337811  70.2280474  25.0039220  31.6691923
  68.3264828  23.3605051  33.0608177  68.1905127  23.9757848  33.7850714
  65.8841753  23.1371617  31.6865826  66.1873722  22.2452903  30.8835530
  64.7659779  23.0237341  32.4105000  64.5503235  23.8312626  32.9775023
  63.8319921  21.8368196  32.3564839  64.2765427  21.0560465  31.7393351
  63.5982323  21.2807703  33.7609196  63.0628681  20.3481936  33.5826278
  64.9183655  20.7915115  34.3594408  65.4818630  21.5592217  34.8897099
  64.6856785  19.9552214  35.0186658  65.5953979  20.4339719  33.5836244
  62.9211044  22.0760226  34.7605300  62.9298449  22.9920149  34.4733357
  62.5455904  22.2140050  31.6824245  62.0388746  21.4686728  30.9315157
  62.0717812  23.4205723  31.9073296  62.6791859  23.8985658  32.5574684
  61.1509466  24.2066383  31.0500383  61.3125134  25.2546191  31.3024902
  61.4134789  23.9255166  29.5464802  60.9388065  22.9723597  29.3135095
  60.8410788  24.7293091  29.0834737  62.8109884  24.0290976  28.9560556
  63.5514259  25.1474380  29.2983913  63.1020641  25.9005022  29.9287653
  64.7961760  25.2403378  28.7928128  65.3545237  26.1516666  28.9481688
  65.3558969  24.1628194  28.0454922  66.6515970  24.1817665  27.7958775
  67.1210527  23.4246016  28.1535292  64.6191788  22.9670191  27.9109168
  65.1104498  22.1290970  27.4387503  63.3154202  22.9007602  28.2999945
  62.7199602  22.0149875  28.1349635  59.6869564  24.0186644  31.3260365
  58.8472795  24.6775556  30.7266140  59.3354654  23.2347393  32.3890638
  60.0659657  22.6463842  32.7636480  57.9768562  23.1540990  33.0248141
  57.2295094  23.0098462  32.2445798  57.9514217  21.8526292  33.9107084
  57.0058775  21.7181873  34.4360423  58.1523705  20.9881473  33.2779455
  59.1367149  22.0396709  34.7872543  59.5525455  21.2154365  35.0505471
  57.6585484  24.4399476  33.8247561  58.4526777  25.3675485  33.8782907
  56.4094257  24.5851779  34.3467021  55.7989311  23.7985301  34.1776347
  55.8183956  25.7660031  34.8960042  55.6537914  26.3859510  34.0147161
  54.5614004  25.5529237  35.6508613  53.8662863  25.0387764  34.9871039
  54.7745609  24.8613214  36.4659405  53.8793707  26.8634391  36.2396383
  52.9536963  27.5231075  35.3768134  52.8098965  27.1454048  34.3752837
  52.2769642  28.6513972  35.7948637  51.6182041  29.1375017  35.0904942
  52.4197817  29.0661192  37.1397400  51.7709827  30.2462530  37.5399971
  50.9382820  30.3884482  37.0839381  53.4193373  28.4987736  37.9848480
  53.6038208  28.9281583  38.9584994  54.1644001  27.4253869  37.5093222
  54.7896910  26.8578005  38.1825709  56.7633390  26.6238904  35.8446503
  56.8618202  27.8462744  35.8145237  57.4669504  25.9363389  36.7236233
  57.3097467  24.9387264  36.7111826  58.4570599  26.4937806  37.5797009
  58.0233526  27.2906828  38.1838083  59.0422058  25.3238058  38.5049844
  59.3671417  24.4000959  38.0261564  60.1616478  25.8361363  39.4219875
  60.8235407  25.0111890  39.6855545  60.9184361  26.4947748  38.9958715
  59.7639084  26.3624096  40.2897120  58.0806303  24.9004889  39.4431019
  57.4165583  24.3355608  39.0412736  59.6633959  27.2422647  36.9563484
  60.0624943  28.2669067  37.4656439  60.0496531  26.8383718  35.7591558
  59.5774651  26.0243416  35.3924155  60.9185028  27.6153541  34.8493195
  61.6228294  28.1987643  35.4423213  61.6955948  26.7149138  33.9053178
  61.0392952  26.1491156  33.2440734  62.3896694  27.3541427  33.3596563
  62.6940775  25.7857800  34.6617699  63.0013323  24.7153211  34.1425157
  63.2622433  26.2288737  35.6855035  60.2216148  28.6350369  34.0102887
  60.6634855  29.7482061  33.9156389  59.0460300  28.2471657  33.3908272
  58.7722588  27.2926784  33.5755110  58.1765461  29.2117548  32.6543307
  58.6355639  29.4577813  31.6967964  56.7934608  28.4913206  32.4354625
  56.9137955  27.5253987  31.9449377  56.3091898  28.1932378  33.3653712
  55.7160664  29.2138791  31.6544151  54.3497372  28.8925934  31.7457533
  54.1053009  28.0351257  32.3551846  53.3939457  29.3946981  30.8344579
  52.3567867  29.1140246  30.9436917  53.7897348  30.5625153  30.1229477
  53.0316830  31.1519575  29.6286678  55.1076126  30.9261680  30.0314832
  55.3334618  31.7044520  29.3175745  56.1126804  30.2040863  30.6815314
  57.1352005  30.5516171  30.6728935  57.8610802  30.5001831  33.4897947
  58.0876827  31.5658402  33.0323887  57.5009871  30.3304076  34.7777581
  57.4247074  29.4079804  35.1819944  57.0936298  31.4652944  35.6044388
  56.4023113  32.0153308  34.9659705  56.4394188  30.9265041  36.8832421
  55.5196285  30.4786801  36.5070200  56.9632339  30.0853634  37.3373365
  56.0308456  31.9467640  37.8975892  55.4803371  32.7471232  37.4031520
  55.3736115  31.3223147  38.5027432  57.1257687  32.4082851  38.7980032
  58.0692577  31.7087722  38.9396691  56.9465971  33.5094142  39.4623947
  57.7114868  33.7777519  40.0649214  56.0790253  34.0249705  39.5026398
  58.2718754  32.3597670  35.8966637  58.1205845  33.5535860  35.7046723
  59.4710255  31.9002032  36.2857604  59.4880009  30.9535313  36.6373610
  60.7700205  32.6133466  36.2046289  60.6462717  33.4987450  36.8282104
  62.0043659  31.8043351  36.7671561  61.8519688  30.8681583  36.2300825
  62.9010582  32.2503185  36.3368773  62.0409250  31.4813781  38.2444811
  61.1998606  30.8771110  38.5844374  62.9105711  30.8557272  38.4454155
  62.2188568  32.6854658  39.2078185  63.1992197  33.1527066  39.1147065
  61.3500643  33.3375502  39.1179156  62.2092676  32.1225357  40.5941486
  63.0653620  31.4482069  40.6162262  62.3789883  32.9371047  41.2982607
  60.8869886  31.5782952  41.0866642  60.9011984  31.1852098  42.0169210
  60.1608181  32.2800946  41.1024809  60.6098652  30.8387136  40.4571342
  61.0632467  33.3194113  34.8972821  61.4991379  34.4512200  34.9488878
  60.8825636  32.7656245  33.7002325  60.4752207  31.8437266  33.6348534
  61.2460709  33.4930301  32.4995923  62.2225714  33.9590240  32.6314998
  61.2940884  32.3870111  31.4334369  60.2726984  32.0620370  31.2353158
  61.7740107  32.7713156  30.5333877  61.8557405  31.5161729  31.7715001
  60.2670956  34.6171308  32.2545767  60.6204939  35.6890726  31.6669369
  58.9980221  34.4129753  32.6135087  58.7644720  33.5098624  33.0007315
  57.9253340  35.4015708  32.6183343  57.9480600  35.7799482  31.5963697
  56.5539026  34.7467542  32.8267050  56.5678167  34.0951681  33.7004018
  55.4829359  35.8974385  32.9650354  54.4887304  35.4553533  32.9000926
  55.5634737  36.4732623  33.8870144  55.5242205  36.4996624  32.0574450
  56.1432076  33.9170837  31.6067624  55.5602837  34.4563675  30.8601260
  56.9687510  33.4563613  31.0642552  55.3743362  33.1899309  31.8678713
  58.3521271  36.4909530  33.6618471  58.1587505  37.6340580  33.3725357
  58.8385534  36.2466478  34.8613191  58.7111616  35.2907038  35.1613927
  59.4585562  37.2071195  35.7924366  58.7314081  37.9930115  35.9967208
  59.7866249  36.4437032  37.0706964  58.9186811  36.0415816  37.5932574
  60.5630970  35.6815958  37.0044279  60.3566933  37.3796797  38.1290340
  61.4243555  37.1320081  38.6405540  59.6435118  38.4914899  38.4088564
  60.0404072  39.1488647  39.0649319  58.7475061  38.6277437  37.9630947
  60.6421804  37.9567933  35.1207948  60.6491327  39.1883731  35.2385974
  61.5003633  37.3150420  34.3211269  61.4907598  36.3059187  34.3621492
  62.6127529  37.9445386  33.6214447  63.2171583  38.4663868  34.3633819
  63.5722828  36.9142365  32.9526091  62.9761505  36.3508105  32.2347832
  64.3676615  37.4417114  32.4260759  64.1859770  36.0107136  33.9157629
  64.5418072  36.5954161  34.7640634  63.4234142  35.4062510  34.4069099
  65.3958416  35.3322482  33.2778549  65.3385496  34.3226361  33.6846709
  65.2716970  35.3076673  32.1952271  66.7226410  36.0291100  33.6548662
  67.4868059  35.6544971  32.9738212  66.6674137  37.1176219  33.6687851
  67.1616507  35.5993271  34.9984503  67.3060465  34.6007776  35.0448585
  68.0642033  35.9383249  35.2994108  66.5342045  35.8126211  35.7606316
  62.1917009  39.0217185  32.5799441  62.8135157  40.1076365  32.4669361
  61.0919380  38.7629366  31.7821217  60.7275152  37.8233743  31.8493962
  60.4831648  39.6541119  30.8235359  61.1884117  40.1215124  30.1363206
  59.5109129  38.8185310  29.9825048  59.8892403  37.8588676  29.6303535
  58.6753654  38.5124421  30.6120157  58.9366865  39.5105600  28.7358379
  58.5730362  40.5181503  28.9373708  59.9811888  39.5369887  27.5903034
  59.5168018  39.6222329  26.6078639  60.7433319  40.3144312  27.6434207
  60.4791737  38.5693669  27.5285435  57.7103281  38.8392472  28.1769276
  58.0418968  37.9702306  27.6086211  57.0369577  38.5631466  28.9883733
  57.2205400  39.5259333  27.4865055  59.7202969  40.8362532  31.4859080
  59.6928644  41.9647551  31.0943103  59.0370321  40.5624056  32.6142263
  59.1550016  39.5980501  32.8902960  58.3115387  41.5218687  33.4188604
  57.7348900  42.2449446  32.8420258  57.2425938  40.8820105  34.4277048
  57.7235079  40.1235533  35.0454140  56.9240379  41.7203856  35.0471807
  55.9548426  40.1760197  33.9536285  56.1240911  39.4250965  33.1818962
  55.3962040  39.4441724  35.2566671  56.0574627  38.6253691  35.5402184
  55.1460075  40.2071810  35.9937716  54.4702101  38.9645886  34.9394441
  54.8900461  41.1918831  33.5300970  54.5775890  41.7193937  34.4313121
  55.3321457  41.8418455  32.7749848  54.0562630  40.5564785  33.2315016
  59.2125988  42.4967241  34.1790342  58.8598347  43.6898088  34.3587255
  60.3971910  42.0527124  34.5875120  60.5406809  41.0542822  34.6390319
  61.3982058  42.8683710  35.2791548  60.9941912  43.1769133  36.2433529
  62.6562738  41.9453812  35.4075503  62.9148626  41.4765930  34.4580913
  63.9198637  42.5735140  35.9774971  63.7437916  42.9579926  36.9821262
  64.6945572  41.8071604  36.0030508  64.3791294  43.4107399  35.4519200
  62.3242903  40.8696270  36.2847209  61.7431831  40.2506638  35.8366132
  61.7222786  44.1359663  34.4512630  61.9082499  44.1613054  33.2564473
  61.7695618  45.2458858  35.1311421  61.3634729  45.2355337  36.0558510
  62.0131826  46.6076088  34.5595598  62.7468014  46.6582108  33.7549829
  60.6331015  47.0675564  33.8703585  60.5749321  48.0969524  33.5167146
  60.4514933  46.4096880  33.0204582  59.8182344  47.0061350  34.5916915
  62.5049496  47.6185179  35.7189369  61.7676163  48.1448460  36.5278721
  63.8225889  47.9736519  35.7087493  64.4370461  47.4876261  35.0713158
  64.4347382  48.9212370  36.6125083  64.0566015  48.7334681  37.6174235
  65.9619379  48.6725760  36.7434645  66.1895800  47.6262665  36.9472408
  66.5349579  48.8640118  35.8362174  66.4572048  49.5766735  37.7536511
  67.1961737  50.0655174  37.3841095  64.1446447  50.4175711  36.2538171
  64.4315767  50.7976961  35.0796342  63.5228491  51.2445974  37.1753502
  63.4195471  50.9354544  38.1313133  62.9422569  52.5878525  36.8790102
  63.2868958  52.8496742  35.8786249  61.4143896  52.5499487  36.8617606
  61.1622715  52.0418072  37.7925301  61.0073709  53.5607910  36.8367100
  60.8019781  51.7357588  35.6900668  61.0706282  50.6799889  35.6542182
  59.2759752  51.7018795  35.9713125  58.9763927  51.0632324  36.8022680
  58.8534546  52.7041912  36.0416651  58.7219906  51.3187504  35.1143336
  61.0492373  52.4486637  34.3372035  60.5754566  53.4301472  34.3552923
  62.0713949  52.5170469  33.9648819  60.5961800  51.9093466  33.5053563
  63.5010862  53.5994339  37.7967262  63.0540800  53.5413265  38.9837551
  64.4456816  54.2660332  37.3727655  53.0365896  22.1779966  32.3768830
  36.7813492  61.7521620  51.1677504  39.7437072  63.7075186  42.1399879
  59.4481421  34.5854616  41.6218424  25.1236486  61.5314245  63.0732250
  39.8921847  43.4580564  24.2614269  21.3430119  39.9436784  11.5452766
  75.1971089  57.1310863   0.6247918  49.7425808  22.1114688   3.6745517
  49.4833045  23.0154710   3.8528268  49.1196971  21.5811925   4.1715972
   3.4385796  11.8237805  32.7956343   3.6178513  12.5735557  32.2282481
   4.1736813  11.8059826  33.4084463  47.7839958  55.5911776  26.1469857
  47.7314960  55.3902242  25.2125947  48.1891262  56.4576575  26.1832349
  16.3413805   5.7238297  28.1066625  16.3918060   4.7810130  27.9492490
  15.4312462   5.8758216  28.3611886  50.8597004  75.2005932   7.3503987
  51.5086519  75.7846686   7.7427642  50.3888571  74.8298237   8.0967681
  17.9946716  56.0793492   2.9086082  18.0255134  55.1679537   2.6176803
  18.1843621  56.5888068   2.1207635  64.8294198  62.3868057   9.3375270
  65.7704674  62.5593302   9.3673961  64.4943463  62.7431700  10.1603047
  58.8230228  36.6788721  64.1880703  58.2834148  37.4286747  63.9373684
  59.6581841  37.0632410  64.4545269   9.3789823  62.1120235  17.0865361
   9.8003251  62.1413657  16.2275617   9.3454368  63.0262253  17.3682134
  16.9780630  25.8894305  31.9033639  16.9660801  26.8188624  31.6747777
  16.8366808  25.8737426  32.8499333  14.4509752  51.6216633  10.2341764
  13.7040431  52.1247920   9.9098508  14.4675977  51.7971441  11.1750047
  42.7642404  68.4596202  19.6351163  42.7864360  67.8883740  18.8673799
  43.4490418  69.1079876  19.4711034  18.7790925  52.7108428  47.7369515
  17.8531844  52.9512677  47.7704160  19.0081794  52.7686521  46.8093698
  18.8675511  16.1481404  61.8736935  18.4658527  16.9940960  61.6756296
  18.7000322  15.6155467  61.0961914  20.3257316   9.3958430  23.7664525
  20.5220550  10.1512771  23.2123677  19.4705767   9.5944028  24.1479318
  53.9533800  12.0586543   4.3477218  53.6021131  12.5784926   3.6247985
  54.5392317  12.6574760   4.8107879  76.5843056   6.9391065  46.5848176
  76.9493173   6.1371999  46.2107293  76.1923145   7.3942428  45.8395497
  20.0587995  75.2417204  36.6882913  20.8357532  74.6931741  36.5802686
  20.1583059  75.9301135  36.0306851  20.4286856  29.1414790  32.1558110
  20.5970901  28.2229714  31.9455449  21.1841101  29.4098573  32.6788251
  42.2401661   6.9312863  23.1374757  42.8494829   7.4746900  23.6371533
  42.1919292   7.3525720  22.2793214  63.1887627  33.2689881  62.8859282
  62.9694700  32.6362658  62.2019672  62.4546862  33.2235265  63.4985399
  73.2027518  35.4031756  13.0318849  73.1335723  35.7392332  13.9254777
  72.9473530  34.4833073  13.1014936  41.1354107  13.0795960  17.7648561
  41.8136066  12.5585465  18.1947343  41.4022869  13.9872127  17.9106252
  81.1863136  35.6326699  62.5087643  81.9805622  36.0626054  62.1916580
  80.7390785  36.3048649  63.0229187  27.7807732  35.5208158  53.3059168
  26.9239064  35.1527309  53.0902100  27.8019925  35.5335045  54.2628002
  73.7243544  67.7680799  14.6137445  73.4087550  67.3207304  13.8285653
  73.7760579  67.0798895  15.2770345   9.8277205  37.2412448  45.7644193
   9.4634885  36.6414123  46.4153974   9.4367045  36.9623284  44.9364488
  52.1471781   9.2746596  15.2213590  51.5672296  10.0135283  15.0370614
  52.6144689   9.1261010  14.3992917  37.2804880  36.6349387  62.5282860
  37.9008484  36.8421793  61.8294048  36.5425181  37.2253156  62.3763371
  57.4363804  36.6689873  53.1878710  57.4847746  36.0845041  53.9443541
  57.5827265  37.5426722  53.5504818  15.2999061  30.9620194  34.8027532
  15.5504269  30.6154256  35.6591050  14.8310322  30.2420526  34.3808095
  68.5241305  63.0603954  29.1862027  68.1277739  63.8695380  28.8630502
  69.1921794  63.3520576  29.8065869  31.2492460  16.6160207  42.9034822
  31.0997766  16.3350539  42.0007340  31.7258448  15.8893113  43.3047025
  42.9913194  53.8591370   7.3799579  42.2678716  54.4489083   7.5921456
  43.7544019  54.2549631   7.8009908  73.8202810  12.9273701  59.6426868
  74.1955662  13.2794845  60.4497862  74.5501900  12.9175520  59.0235186
  43.9919812  71.2611124  28.6556642  44.9487073  71.2458393  28.6295526
  43.7245137  70.5891845  28.0285947  20.6469816   7.1738534  62.1862714
  20.5670542   6.8613820  61.2850396  19.7478575   7.1919875  62.5141065
  15.6164605  70.0406811   1.9534938  16.3100106  70.6421801   2.2244565
  15.3333289  69.6202227   2.7654569   6.4817113   0.3153615  37.9879586
   5.5516929   0.4883914  38.1341092   6.5087408  -0.5805154  37.6519506
  55.6000669  69.2089221  16.8714444  55.8471734  70.1217934  17.0192163
  54.6708066  69.1726300  17.0981137  58.2760614  36.0833173  15.9138696
  58.1465620  35.3747897  15.2834336  58.9821047  36.6105275  15.5399720
  52.7037989  73.1654164  14.3484609  53.1518733  73.0221817  13.5148351
  52.3440539  72.3084351  14.5773618  48.5794306   9.3065631  60.4414606
  49.0687561  10.0548446  60.7833195  48.7087870   9.3484604  59.4939709
  42.5725568  71.8371527  61.6124010  43.4484494  72.0821713  61.3140631
  42.2207368  71.2972931  60.9045839   9.4877393   8.2655713  28.8596074
   8.9494235   9.0157840  28.6073606   9.4956786   8.2874152  29.8165242
   2.4316508  44.5720419   3.7877624   1.8905170  44.1243687   4.4381444
   1.8052537  45.0435588   3.2386415  78.2072353  21.4504337  64.2832470
  78.8314438  21.9782043  64.7812986  78.6639786  20.6240153  64.1262293
  69.9470507  43.1583705   0.6500785  69.1650521  43.6538282   0.4066960
  69.6106326  42.3961970   1.1214034   8.9104074   5.3051763  20.1590840
   9.4935006   6.0554891  20.2742593   9.3929571   4.5673804  20.5319516
  45.7153845  19.2420924  39.4382858  45.8853865  18.3315611  39.6796679
  44.8470068  19.2250931  39.0359640  36.5740466  22.3113942  49.2159843
  36.8458009  23.1711149  48.8946438  36.6888285  22.3631144  50.1648712
  71.6272389  69.8014185  13.8009469  72.1426951  69.9241182  14.5981137
  71.1032902  69.0189549  13.9725797  79.9778115  74.9696633  27.9508130
  79.0590274  74.8429367  28.1874673  79.9506365  75.2962896  27.0514695
   4.3326814  44.0794393  27.2569100   3.4822137  43.8931301  27.6546781
   4.1211946  44.5313320  26.4400308  59.1763198  52.7442536  24.4534032
  58.8468062  53.6428019  24.4371526  59.0760314  52.4360451  23.5527436
  15.3960604  26.0242944   4.0744226  14.4560141  25.8657556   3.9883201
  15.7611412  25.1735454   4.3176858   0.4834706  38.5825646   5.4090039
   0.2234895  39.0582406   6.1979072  -0.1756566  38.8212897   4.7572438
  46.6837311  17.5984597  57.9140568  45.7335520  17.5123727  57.8367186
  47.0183945  17.3388958  57.0556498  35.5206912  24.8113200  29.3759553
  36.3943338  24.9154434  29.7529714  34.9250524  24.9261591  30.1164071
  62.9255044  51.6346499  20.5181615  63.3861076  50.8620593  20.1907842
  62.4367344  51.3180825  21.2778489  18.5002315  47.5286722  39.1069841
  17.8985298  47.9890013  38.5219336  18.2482123  47.8164101  39.9844384
  75.4890000  72.4943563  33.1987874  76.2857615  71.9993946  33.3896176
  74.9046790  72.2994181  33.9314572  61.9152486  40.5673058   5.3666942
  61.6165935  40.3482091   6.2493197  61.1145674  40.5949517   4.8428838
  64.8590314  67.4929783  43.9150159  64.3197309  67.4402139  44.7040765
  64.3192732  67.9740092  43.2877175  13.1148528  74.6819755  13.7893407
  13.1722628  74.7106883  12.8342931  12.3549496  74.1277215  13.9670484
  46.4276028   4.1737747  61.7864895  46.9178629   4.2643723  60.9693813
  45.6160069   4.6577433  61.6337729  35.7630134  18.5808158  65.3930521
  36.6158032  18.9845192  65.5543184  35.1306629  19.2758965  65.5753326
  13.3718831  70.3185221  65.4562776  13.6024768  70.3835508  66.3830010
  12.4147756  70.3275773  65.4464070  21.7010219  34.9090126   8.0814330
  22.6038749  34.6380612   7.9150884  21.6993959  35.8516908   7.9153411
   7.2278042  30.4935193  55.0236416   6.6414662  30.8780670  55.6752205
   7.1100541  29.5488381  55.1233530  41.1835909  18.3725309  49.0403986
  41.4538431  19.2063689  49.4249868  40.6683111  17.9481733  49.7264290
  66.8719732  41.9672176  21.3573663  67.1118724  42.8001758  20.9513394
  66.8099462  42.1653315  22.2917859  26.9948620   8.4188323  11.4758794
  26.5684027   8.8692861  12.2048919  27.0238727   9.0707164  10.7755725
  19.6214575   2.4757581  26.1777036  19.9422401   2.1120076  25.3524606
  18.6811584   2.2969012  26.1688439  66.0359489  60.2736494  38.4071366
  65.2494275  60.1329848  37.8800408  65.7048141  60.5323407  39.2671697
  41.2341172  65.2101156  30.0304715  40.3041131  65.4250070  30.1022069
  41.6859014  66.0239813  30.2535359  48.0114788   7.2812848  15.4758756
  47.1516127   7.2776656  15.0553338  48.0954498   6.4071946  15.8568494
  57.3041093  53.7406918  29.7811715  57.1127307  54.1901597  30.6043260
  57.3566972  52.8153035  30.0201718  78.3069455  50.3945288  16.8950955
  77.8688180  49.8542139  17.5526254  78.9966809  50.8486065  17.3791520
   7.7408178  55.2757034   2.5925700   7.0236022  55.1634750   1.9686763
   7.3087365  55.3491875   3.4435288   1.3760240  72.1227786  11.4843194
   1.3658101  71.1853477  11.2910525   0.4694850  72.4031469  11.3585774
  46.8053150   5.4430175  43.1903505  47.2890091   4.6296567  43.0464172
  46.0309124   5.1766646  43.6859226  36.6027779   2.6635366  14.4461839
  35.8485168   2.7814965  13.8687627  36.2966055   2.9591661  15.3035562
  18.1574106  30.8297849  59.5401955  17.6113498  30.7723379  60.3242540
  18.5345948  31.7088532  59.5748949  45.4738677  77.0760784  42.6266861
  44.5229829  77.0167297  42.7190638  45.7585395  77.5723906  43.3940601
  71.1788137  68.9068481  11.0954396  70.6969411  69.3266246  11.8080489
  71.6775472  68.2097837  11.5215842  22.0038170  16.0483365  39.5452039
  21.7056888  16.9572358  39.5097558  21.2413544  15.5355411  39.2770307
   8.7504728  71.5656111  13.2550447   8.4836013  71.9266745  12.4096791
   8.2365615  72.0549199  13.8974683  73.6121976  46.5126976  25.5046384
  74.4657027  46.9254878  25.6364171  73.4118163  46.1029687  26.3461892
  27.7959490  26.7361355  62.4809313  27.8756380  25.7967377  62.6464987
  27.2202325  27.0539379  63.1764793  14.7508104  73.3632681  11.9592587
  14.4130237  72.7117416  12.5737874  15.2645595  72.8560087  11.3307826
  11.1216790  61.8731829   3.8099496  10.9708411  62.5349757   3.1350343
  11.4451701  62.3681471   4.5626800  26.9536567   8.2404011  53.8112593
  26.4943385   8.9706224  54.2260313  27.1942592   8.5696691  52.9452801
  78.5468315  10.0222354  27.2405927  77.9003094  10.2524762  27.9078500
  78.6587046   9.0759902  27.3319165  50.8471298  25.5808520  64.3351698
  49.9981070  25.3338575  63.9685822  51.3774872  25.8159852  63.5738134
  69.6090005  14.5977502   9.3115108  70.1086996  13.7841611   9.3793885
  69.0489636  14.6003346  10.0877730  37.3564857  17.0385270  12.0000808
  36.6076702  16.7539887  12.5240485  37.5489181  16.2923102  11.4323060
  49.9923658  26.3030338  60.3736162  49.3006039  25.9175420  59.8359394
  49.8933792  27.2471070  60.2504921  75.5622184  55.1914510   6.9460265
  76.0199486  56.0315093   6.9141500  76.0260474  54.6418413   6.3143413
  19.5650327  18.0646408  63.8794279  19.2563748  17.2794020  63.4273624
  19.9175560  18.6188757  63.1831646  59.1332208  62.3413393   9.2665784
  58.2641875  62.6530096   9.0138452  59.0076505  61.9603822  10.1356809
  60.6974745   0.1336240  57.2216177  60.7470608   0.6707588  58.0123520
  61.2662697  -0.6143144  57.4040794  74.4579063  33.4877543   8.3597009
  75.3290175  33.5052638   8.7560479  74.1009055  32.6337724   8.6036317
  60.5511236  15.3135169  65.1518440  61.4959145  15.1636648  65.1180601
  60.1856375  14.6778011  64.5366096  18.5086149   2.5037341  21.1913411
  19.0855497   3.2137494  21.4728658  17.9870886   2.8847222  20.4848783
  32.5417341  64.8064892  52.6900148  32.9887975  64.3093936  52.0049858
  31.6445888  64.4728987  52.6812696  33.7967408  65.3639416  60.3130245
  34.2111219  66.0114221  59.7426891  33.2336105  65.8791141  60.8907080
  17.1033853  10.0734048  31.5991036  16.6434807  10.1480393  30.7629506
  17.2560400  10.9786515  31.8701283  28.7238002  42.2409534  61.2529325
  27.7767062  42.3326206  61.1488104  28.8679481  42.3018885  62.1972561
  50.0400448   6.4082706  54.5239019  50.9312773   6.4887607  54.8636913
  50.0005722   7.0375001  53.8036633  11.2227494  71.9159362  31.4304463
  10.6932504  72.3611352  30.7688825  11.7659766  72.6078364  31.8078153
  23.7527711  52.6956198  22.7310006  24.0629012  52.0423874  23.3581750
  22.9496915  53.0402645  23.1215398  66.4100450   6.5728717   8.3668773
  66.3116163   5.9879212   9.1181247  65.8196157   6.2136369   7.7046268
  77.0623242  69.2700025  14.6561162  77.8221070  69.3542430  15.2321927
  76.8726384  68.3318445  14.6455113  16.3448042  24.4580989  11.8792836
  16.0646910  23.5644870  11.6812436  15.5290502  24.9519067  11.9625489
   0.2861554  70.6713220  27.2527711   0.0190456  70.1779553  28.0283181
   1.2205083  70.4850480  27.1604650   5.4956872  71.6977999   8.2259385
   5.1536996  71.5693566   9.1106860   4.7238118  71.9024870   7.6981704
  80.7381903  42.7331787  18.4851377  80.7534825  42.5987729  19.4327275
  80.9387957  41.8723118  18.1178586  24.9844450  14.8553710  48.0439393
  24.6545547  15.3783040  48.7746541  25.7049698  15.3732114  47.6848905
  40.9958404  13.4284167   2.0031039  41.1673969  12.8789716   2.7678983
  40.2253622  13.9421754   2.2452657  72.8995787  67.8270194  31.7387216
  72.1887147  68.1094500  32.3141686  72.4652898  67.5942036  30.9180944
  66.2854969  75.2860185  45.9463422  66.8610918  75.9657809  46.2968366
  65.4114091  75.5333158  46.2480752  55.5005657  57.8040680  14.0472619
  56.1405718  58.3289596  14.5280091  55.8150589  56.9041976  14.1342084
  72.0781600  45.0276229  15.4953115  72.8419673  45.2165386  16.0404126
  71.4807736  44.5555511  16.0754029  58.1970488  37.0090237  12.4815003
  57.3718130  37.4881062  12.4060218  58.0582558  36.2110430  11.9714086
  30.9454025  77.3445494  50.2696705  31.0007728  77.2190847  49.3223476
  31.6981233  76.8673672  50.6188726  79.3964564  44.8662779   4.2104833
  78.5163962  44.7288522   3.8600080  79.6848475  45.6900445   3.8174502
  15.6996162  27.4088535  46.3110654  15.0555761  28.1056735  46.4371030
  15.3995425  26.6996631  46.8796079  46.6085304  76.1918816  49.2789888
  46.1009181  75.4957397  48.8619137  46.0116924  76.5692478  49.9252129
  40.6479501  75.7185075  21.9112317  40.2279090  75.8780906  21.0660569
  40.5377340  76.5387580  22.3921411  66.6369425  67.0225546  48.8980500
  67.0485865  67.7650401  49.3401925  65.7023870  67.2294852  48.9021222
  55.4235923  60.6340501  13.5100858  55.7277929  61.5182373  13.3053700
  55.8307301  60.0804183  12.8437726  77.9561841  75.1288077  24.6578900
  77.3937737  75.5152628  25.3291432  77.3512065  74.6770379  24.0695588
  39.0356183  15.7105672  38.1611943  38.3730006  15.4272544  38.7911987
  39.2499018  16.6053784  38.4250641  70.6108761  43.5512924  60.2238989
  70.0656366  42.9993153  60.7844925  70.3801012  44.4465256  60.4719496
  64.6112572  41.2440705  25.6003968  64.9634325  41.6507593  24.8086850
  64.3784439  40.3558214  25.3301351  75.6085478  74.4627163   1.1548249
  75.4375636  74.0516850   0.3074471  76.2275063  75.1661918   0.9592549
  78.7938296  55.7476327   6.5702407  78.3021533  55.1194915   6.0411613
  78.1225096  56.2417421   7.0407931   7.9451568  73.5995004   5.6480901
   8.0582196  73.5783288   6.5983550   8.8191325  73.4248492   5.2989499
  52.1615659  23.9794406   3.7922732  51.8422019  23.5428032   4.5819489
  53.0411708  24.2783067   4.0229384  53.3859932  53.1556663  11.9544951
  52.4678599  53.3830401  11.8076388  53.8764822  53.8920256  11.5892188
   5.2877052  39.5517665   6.8302552   4.9774177  40.0696391   7.5730626
   6.1584575  39.2536305   7.0932023  56.4917612  43.6757708  48.3335257
  56.8739843  44.2376852  47.6594400  55.5506468  43.7003851  48.1605148
  60.2628361  13.0855700   6.3860194  60.5695378  13.9777848   6.2244098
  59.7176587  13.1579229   7.1694581  75.6430041  71.8271777  15.8040921
  75.9712445  71.1930844  15.1665799  75.1762234  71.2973663  16.4503495
  78.7879038   9.3414432  39.8414373  78.0666828   9.3075752  39.2130065
  78.4089470   9.7512043  40.6190777  13.2239062  52.3391589  15.4692380
  12.3437698  52.3366019  15.8455293  13.0806691  52.2818717  14.5245568
  70.8047997  32.7710661  11.2313048  69.9239098  33.1228605  11.3597791
  71.1917292  33.3333269  10.5602042  30.0163484  27.2896671  65.2579641
  30.7425690  27.8178096  64.9264479  30.1706409  27.2354150  66.2010860
  27.3720510  52.9241726  31.6202371  28.2579286  52.8621563  31.9774549
  27.4906881  52.8578541  30.6727330  72.1978509  45.7208219  18.9058606
  71.5680396  46.1580178  18.3327691  71.8431603  44.8395666  19.0234105
  54.7390461  45.8572817  58.4723330  55.0934315  46.7242718  58.2749271
  55.2070093  45.5809832  59.2603064  73.3242035  36.3228226  46.7652750
  74.1162825  36.7653680  47.0702267  73.6030149  35.8432937  45.9851837
  76.2537801  70.5780837  44.9649827  76.6912352  71.2695357  44.4682328
  76.7047297  70.5677482  45.8092420  21.3303036  15.0945001  10.5078141
  22.1298927  15.5551629  10.7621400  21.6212124  14.4456487   9.8670404
  31.6627926   5.5641465  16.0709493  31.4063734   4.6717029  15.8385007
  31.1239904   6.1219697  15.5099122  59.6176046  10.2939611  14.5207612
  59.0123075  10.9923368  14.7700040  59.0518278   9.5540957  14.3000237
  69.4379616  15.8692217  45.4721975  68.9250755  16.2681103  46.1750937
  68.7989235  15.6867039  44.7833204  13.7195975  65.3374216  32.2787301
  13.2104022  64.6979019  32.7766912  13.7076528  65.0061986  31.3807408
   8.8976772  41.1324109  32.4207894   9.6810825  41.6146430  32.1562879
   8.3267314  41.7964521  32.8071897   4.6095318  15.6170373   2.0586555
   5.3524679  15.2943616   1.5485971   4.9938601  15.9018569   2.8877513
   7.2629185  15.7045603  33.9822054   7.8380414  14.9488127  34.1018248
   7.7822228  16.3214791  33.4664869  14.1858477   2.8053765  61.7801587
  13.8004106   2.6748185  62.6465432  14.4926685   1.9364791  61.5211026
  11.7011041  14.3471770  19.4818513  11.8002409  13.8685565  20.3048436
  10.7547087  14.4344144  19.3680112  11.9209869  63.3654138  33.1947820
  11.9004256  62.4746773  33.5446374  11.0018022  63.5834190  33.0405061
  67.0009899  42.8494263  58.6265421  66.3197422  42.2487450  58.9287186
  67.6171970  42.2927523  58.1504869  78.3478378   4.1011529   6.0508077
  78.8615988   4.7702460   6.5031306  77.7831362   4.5943790   5.4557626
  21.7130000  43.4031975   7.7582709  21.7192704  42.5465950   8.1853835
  22.6183469  43.5377893   7.4781529  22.0940638  40.1280260  50.4412413
  22.6539135  40.3926563  51.1711502  21.2084484  40.1336002  50.8044004
  72.8046643  64.4105121  10.8132951  72.8794610  63.4562370  10.8132998
  73.1235968  64.6757552   9.9506490  11.9971950  48.6901817  34.3153684
  12.6628692  48.0300596  34.1221063  11.5058477  48.3263799  35.0518815
  61.7862034   7.1293741  55.9684277  62.6338911   6.6905206  55.8972549
  61.1663055   6.5191895  55.5688858  54.8261582  60.4080316   5.9952943
  55.0799071  59.5910570   5.5658786  55.6527578  60.7909438   6.2891356
  20.4578788  49.1587564  11.8004052  20.0592477  48.3639869  11.4459149
  19.8325069  49.8532233  11.5933864  20.4655040  48.6163751  66.4153576
  20.8017267  47.9196255  65.8516884  21.1304057  49.3034164  66.3694429
  21.5643686  11.2457566   3.3938567  21.6526979  11.9646173   4.0196912
  22.4144834  11.2036138   2.9559533  20.6399959  17.9541545  23.7550752
  19.7427791  18.2153039  23.5476224  20.7129663  17.0605855  23.4197537
  20.9353406  72.4845025  15.8414666  20.4810245  71.6478464  15.7423036
  20.2649600  73.0836174  16.1699311  58.7871027  25.2392960  64.8258829
  59.0396261  25.9028602  65.4678679  58.9181757  25.6640649  63.9781666
  81.6039942  31.7353396  45.3813378  81.4224099  30.8855348  45.7827012
  82.2397946  32.1460061  45.9672944  22.6741238  54.0754414  51.8173933
  21.7289086  53.9632654  51.9184542  23.0315037  53.8902473  52.6858473
  53.3276415  12.5586581  62.5633287  53.4712458  13.1228447  61.8035221
  53.9246893  12.8981936  63.2300234  61.9637394  30.8300972  61.4307117
  61.5371943  30.3310990  60.7340860  62.3820353  30.1663828  61.9791126
  69.8305368  13.4129643  34.1110063  68.9828396  13.6956680  33.7678981
  69.8135853  13.6700332  35.0328827  43.9484209   0.0710492  17.1294133
  43.2961983  -0.5632634  17.4268834  44.1928476   0.5519562  17.9201238
  44.6636636  65.3944394   6.0392873  44.8717267  64.4601962   6.0506312
  45.5128343  65.8279273   5.9543387  72.4321639  47.1534190  63.1006066
  72.1348654  47.2340223  64.0068929  73.3743893  46.9998822  63.1703870
  78.0102301  65.4112291  35.2164578  78.4079361  64.5975304  34.9066949
  77.8958273  65.9381437  34.4255662  41.5781587  24.1632848   9.1947619
  40.8923763  24.7682624   8.9120357  42.1522468  24.6934371   9.7475640
  25.6446165   9.5303493  17.2560231  25.7523197   9.7982936  18.1686227
  24.6968359   9.5003276  17.1254746  66.7002106  31.5685916  57.7249241
  66.1497831  30.8424044  57.4318171  66.4009094  32.3185992  57.2109795
  36.2935585  18.0949168  14.9359242  37.0411343  18.0822282  15.5335919
  35.8166593  17.2884040  15.1317231  49.4057697   9.5689158  26.8066995
  49.2952579   9.2617803  25.9068791  50.1502937  10.1690726  26.7651956
  58.1462180  40.7668273  13.4659497  58.5521495  41.0902202  14.2702310
  57.6976787  39.9635920  13.7302510   5.3306157  48.0908802  20.8481042
   5.9486777  48.3492413  20.1643865   5.3847463  47.1354946  20.8713357
  22.1383470  10.6614165   7.9659144  22.6929134  10.1542716   8.5587852
  22.1312326  10.1556783   7.1532599   7.6384777  19.1140037  42.8526704
   7.0993084  19.9041228  42.8879182   7.0077247  18.3954387  42.8074281
   7.5457974  49.8164272  48.6914110   8.3663578  50.2787399  48.8622046
   7.5862809  49.0415812  49.2519569  32.2221565  17.7537870  56.4167261
  31.6136456  17.5761962  55.6995010  32.5670242  18.6264646  56.2276983
  19.9693197  15.7805972   4.6552960  20.7158131  16.2861877   4.3338124
  19.5133871  16.3775640   5.2485864  12.4890096  75.8520409   0.7053821
  11.7902620  76.4032099   0.3529708  13.0092675  75.6064936  -0.0596507
  51.3882160  48.1052017  63.1838942  51.8645430  48.7600613  62.6734972
  51.9300604  47.9663944  63.9606619  10.5813176  76.0710022  20.8090322
  11.4520271  75.7359549  21.0231225  10.7233531  76.9960591  20.6082170
  57.5990003  23.5244756  16.0870950  57.6576990  24.1229444  15.3423612
  58.3945078  23.6921268  16.5923612  64.3587160  21.0536623  51.4584494
  64.2607832  21.9837809  51.2546873  65.2429056  20.8356857  51.1636162
  47.4531883   4.8344712  16.6867749  47.5988144   4.0920930  16.1003510
  47.0189136   4.4547324  17.4506108  48.3587129  64.4526240   6.1834018
  48.1858880  63.6390015   5.7097117  48.0025251  65.1387092   5.6189076
  33.5940988  74.2215010  20.6433026  33.4127099  73.2819053  20.6654756
  33.7279660  74.4177815  19.7160546  13.8991185  54.8288202  36.3170958
  12.9492779  54.8857260  36.4209747  14.2081662  55.7257414  36.4446139
  36.5025479  59.1174909  18.7672154  36.7696626  58.1988737  18.7352101
  37.2731931  59.6014878  18.4704225   7.5708062  64.2072794  11.6395299
   7.5852925  64.0773055  12.5877540   7.0592029  65.0066683  11.5151422
  47.1215589  68.3134457  15.2516572  46.7102201  68.5196969  14.4123189
  47.2182615  67.3611781  15.2434079  64.5796484  43.7726598  11.5312068
  65.2149481  44.0682988  12.1833055  64.0799898  43.0884271  11.9766252
  81.0046040  42.4444562   2.5643365  80.9120452  43.3223474   2.9344337
  80.3133284  42.3885491   1.9046084  67.2582102  16.2701941  60.4574108
  68.2015944  16.1706328  60.5852699  66.8677139  15.8715045  61.2350893
  70.3882395  39.0876476   6.0863702  69.6682250  39.6334483   6.4024560
  71.1721360  39.4777612   6.4730804  51.5191610  57.2202143   2.5461642
  51.7761857  56.8373498   3.3849637  50.5971105  56.9830474   2.4471299
   3.1785888  16.9618993  16.1969773   2.4222702  16.6040044  16.6618745
   2.9655355  16.8493753  15.2705972  48.5568094  25.0625920  63.0492496
  48.2540989  25.6370378  62.3459673  48.5201979  24.1832972  62.6727819
  74.0546799  50.1857042  34.0120697  74.1576147  50.9042740  34.6360040
  73.2665634  50.4093981  33.5170245  33.5620379  52.8368425  67.1267366
  33.9295912  53.3376265  66.3984871  32.7309704  52.5008631  66.7910624
  36.6618609  46.2112617  64.2700100  36.8419266  46.9243860  64.8825932
  37.3710513  46.2612581  63.6290884  63.6392397  10.4714351  29.4227044
  62.9622358  10.9393220  29.9115579  63.3190531  10.4605680  28.5207097
   6.9355304  28.7969944  30.5106465   7.6846511  28.2012770  30.5238359
   6.4787776  28.5894236  29.6954648  20.6381375  68.2840320  26.2264554
  21.0823257  69.1310045  26.2660234  21.3397987  67.6528260  26.0668103
  40.7450008  29.0127015  65.2408361  41.2261677  28.2539725  65.5710506
  40.0523376  28.6386085  64.6963120  14.0052074   2.2581725  11.4871327
  13.3074087   2.0684438  12.1142833  13.6286587   2.9148297  10.9012620
  43.5166121  11.5241313  59.8628855  42.9975319  11.0308504  60.4980707
  44.3487978  11.0534477  59.8164940  10.9757573  67.0787260   6.6322200
  11.1378247  66.1425349   6.7484681  10.1779277  67.1200249   6.1049621
  45.2287728  66.8713257  33.2165544  44.7171075  67.6327965  32.9434411
  44.7525937  66.5201661  33.9690034  80.0761019  47.4491259  31.4350431
  79.1245114  47.4701717  31.3336961  80.3853165  46.9374099  30.6875340
  70.1659107  21.2961626  49.7721672  70.1269102  21.3004541  48.8157701
  69.7304392  20.4824233  50.0259876  20.8350583  53.8488007  36.2220740
  21.7874070  53.7565136  36.1948037  20.6137772  53.7752008  37.1504331
  60.2957916  47.4879169  38.7264037  60.7495308  47.7280474  37.9185128
  60.9748030  47.5177622  39.4004107  35.3246021  31.3082790  58.0247068
  36.0930991  31.8089056  58.2986021  34.6047091  31.9383693  58.0558729
  10.3762538  44.6159980  39.3068139   9.9555547  44.0304163  39.9363725
  11.3138206  44.4976714  39.4591252  51.0219669  44.6017027  46.8970585
  51.2918186  45.1289511  47.6490068  51.7624331  44.6502161  46.2924194
   8.1729442  53.1995201  59.4363642   7.8073990  53.9520931  58.9713430
   8.1868899  52.4988079  58.7844133  80.8052921  22.5043035  57.7852297
  81.2911987  23.3286190  57.7600622  81.4790535  21.8271542  57.7239990
  25.8665824  42.1455193  60.2210474  25.8792663  41.6553831  59.3989563
  25.4447985  41.5551615  60.8453894   5.6739731  16.1714566  66.8476391
   4.8532887  16.6299427  67.0279408   5.7262536  16.1406767  65.8923626
   9.0495784  43.8165471  24.3224828   9.4494445  43.6784449  25.1811234
   9.2869384  44.7140524  24.0892903   0.2922780  76.5296289  61.3397233
   0.9275777  76.6587374  62.0439736  -0.5589669  76.5611121  61.7763249
  21.4704460  15.3684192  16.7380445  21.0661405  16.2251191  16.6008298
  20.7550806  14.7439199  16.6176812  25.9084661  45.0161949   4.3205516
  26.0236509  45.3542510   5.2086322  25.1758868  45.5198166   3.9657037
  35.4828113   0.4934840  23.1050984  36.4155716   0.5583053  23.3100049
  35.1516575  -0.1747842  23.7050836  56.8734455  24.8834872  56.7977715
  56.2074995  24.5010567  56.2263727  57.4214697  25.4049587  56.2112856
  20.8513648  52.8245708   3.1665866  20.4366595  53.3297810   3.8658826
  21.7872817  52.9971585   3.2690827  25.2470964   8.2221894  28.3782975
  25.8199495   8.1762176  29.1437737  25.8346552   8.4290175  27.6515119
  28.9946169  12.0095305  21.2907712  29.6488947  11.3148837  21.2158505
  28.4691852  11.9305425  20.4945867  56.7932320  31.1227560  61.4011860
  56.0531521  31.4532566  61.9103813  56.6462755  30.1782680  61.3503885
  43.3677715   2.0638375   2.8138845  43.7019819   2.5581985   3.5623090
  42.4192804   2.1877437   2.8492658  23.9466405  44.0147209  57.2453451
  23.6341143  43.6570644  58.0763912  24.7653389  44.4578457  57.4680662
  79.4225871  69.7917983  27.0290868  79.8042714  70.4454705  26.4431970
  79.9074017  69.8922440  27.8482930  70.0145388  60.5621529  51.9011116
  70.2040195  59.7113132  51.5056324  69.3649054  60.3723049  52.5779963
  74.1888762  48.2826853  40.1718664  75.0125504  47.9031467  39.8656917
  73.5393286  47.9944086  39.5306015  57.8782034  39.1027379  61.6135883
  57.3668480  39.8529053  61.3102770  57.5508690  38.3655858  61.0981369
  69.5462603   7.8842883   0.2739541  70.1798052   8.2138877   0.9113090
  69.5121664   8.5612254  -0.4019292   6.7305821   0.5411725  23.6692445
   7.2585720   0.0975757  24.3330876   6.4683169   1.3638978  24.0822522
  18.6459488  38.2069688   7.9853551  18.1105226  37.4543767   7.7340571
  18.8366074  38.0662875   8.9127652  14.6714217  69.1367409  10.6642358
  15.1170070  69.9189517  10.3389136  14.0120942  68.9422056   9.9981515
  61.2379181  71.5064117  23.1070535  60.5136811  71.3507792  23.7132661
  61.0138523  72.3292920  22.6724355   5.7108754   8.8403420  16.4750974
   6.0427708   9.5574765  17.0152680   6.4771289   8.2913308  16.3087384
  75.1752757   1.6369443   0.4818265  75.7498573   2.0708280  -0.1489146
  75.5846094   1.8013911   1.3313167  22.8970474   0.0698547  10.8305661
  22.5534672   0.9401422  10.6286113  22.4177641  -0.2010865  11.6135804
  12.3132236  47.3907158  23.2784383  12.5743110  46.7144647  22.6533429
  13.0982263  47.9261532  23.3938233  47.7147913  40.2119398  61.9069099
  47.2643566  39.4148874  62.1862745  47.2517204  40.9188366  62.3564625
  61.3936520  59.1191101  35.3246546  60.5105019  59.3464088  35.6155300
  61.3615227  59.2049503  34.3718529  15.0483221  15.4634433  29.0541570
  15.4104132  15.2478747  29.9136083  14.9325794  16.4134030  29.0744321
  81.5628230  68.6252066  21.1338441  80.9677588  68.9458296  21.8115823
  81.7824732  69.4027421  20.6205861  44.2811394   2.0548886  46.6384554
  44.8435497   2.1396542  47.4083519  43.3942699   2.0007385  46.9945002
  15.1109213  12.4749951  16.3784329  15.4875988  11.8093162  15.8029191
  15.7611174  13.1773763  16.3899247  14.0571709  12.2592139  61.1497641
  14.2107411  12.9463470  61.7982197  14.8115273  11.6762388  61.2353039
  36.2225778  26.9319341  27.2216050  36.0835511  26.2507376  27.8795354
  35.9641702  26.5233108  26.3954751  36.7254967   2.0365100  32.2887055
  36.7705339   2.9920058  32.3238008  35.9211344   1.8172078  32.7589623
  70.7259642  56.7962512  22.3649709  70.8751952  57.0243737  21.4474122
  70.9104048  55.8581468  22.4116056  71.7368781  58.2266340   7.5382630
  70.9402930  58.6779162   7.2589366  72.1668994  57.9723069   6.7217891
   0.5924518  66.2239644   4.4178693   1.2311227  66.6398856   4.9969546
   1.1196048  65.6870481   3.8262050  23.2498163  21.3423829  49.0823857
  22.6263803  20.6271987  48.9555852  22.7124876  22.0802407  49.3706147
  19.2733009  65.0810739   7.1065061  19.3112809  65.1588628   6.1532275
  18.5809619  65.6877348   7.3689239   5.8671243  64.2386767  27.2431581
   6.1754901  63.3327720  27.2650353   4.9148280  64.1692159  27.3105447
  29.0166801   0.9489303  12.5558393  28.0726570   1.0231667  12.6956288
  29.3778747   1.7536073  12.9276769   9.5502240  69.7105738  35.4326264
   9.9123723  69.2269131  34.6902291  10.3023488  70.1647541  35.8124463
  17.6505811  62.8362557   0.0264279  18.2239635  63.5968229   0.1213138
  16.8149287  63.1184170   0.3983180  18.0888326  67.4197003   8.7868659
  17.5327308  66.7345974   9.1578309  17.5896604  68.2269022   8.9113061
  33.0040128  43.3677164  24.0938108  32.4116380  43.7804016  24.7223107
  33.7762410  43.1353429  24.6094720  27.2213835  22.0826154  29.3121354
  26.4560217  22.6210313  29.1107194  27.3668045  22.2140174  30.2490537
  12.8889294  59.7370243  60.8998251  13.2319851  59.1527891  61.5759993
  11.9940873  59.4315624  60.7508373   7.7646072   1.7916115  64.9772024
   8.0386550   2.7072819  64.9254417   7.7606303   1.4910563  64.0684223
  66.1627579  64.4650412  57.8144121  66.1854124  65.4055691  57.6379871
  66.8585300  64.3250084  58.4566927  20.4257482   4.3142180  13.8274018
  20.4930538   4.8484569  14.6187799  19.4857592   4.2577510  13.6557595
  71.6152131  56.0917291   9.2364518  72.4902665  55.7071003   9.2872016
  71.7197406  56.8497094   8.6613290   2.6216336  35.1683688  25.9016252
   3.0762597  35.1116562  26.7420626   2.1328469  35.9900188  25.9486818
  11.8648023  29.8902707  18.6983792  12.3438996  29.6112494  19.4786565
  11.3635796  29.1180902  18.4361856  15.2153499  77.3090169  26.1746423
  15.8322055  77.6157185  25.5100648  14.6247012  76.7232844  25.7010572
  57.1230268  54.9354553  66.9294548  57.7149105  54.6402740  66.2375164
  56.5351486  55.5530357  66.4944553  43.4027017  75.1524393  60.5443430
  43.2618392  75.9904052  60.1036596  44.3523229  75.0327170  60.5333853
  68.0082029  35.7569127   8.7444894  68.8692564  35.3391461   8.7276856
  68.1479353  36.6102176   8.3339088  61.5932523  60.0161955   2.8718965
  61.4896952  59.3837091   3.5828607  62.2134434  60.6605789   3.2130210
  25.6597132  15.2594667  25.2307622  26.1901373  14.5810180  24.8129289
  25.3639501  14.8618083  26.0496823  81.7239450   6.7946487  25.5149095
  80.7678007   6.7827897  25.4715745  82.0032380   6.9219976  24.6082608
   2.9095002  56.7722702  48.0443096   2.8998681  56.9961452  48.9749146
   1.9879265  56.7829466  47.7858448  59.9734266  66.8412659  24.2630403
  60.0229032  66.0646483  23.7056844  60.1634462  66.5168330  25.1433103
  39.3559927  28.2290559  19.0815465  39.3832964  27.6927094  19.8738877
  40.0409120  27.8638749  18.5213964  45.2652449  31.9211249   9.7059743
  45.0888485  32.7542834  10.1429717  45.1813740  32.1175962   8.7729184
  54.0775537  58.3324718  47.5429392  54.7303581  57.6328039  47.5662470
  54.0358734  58.5905790  46.6221380  22.1469422  17.8864956  58.4379101
  22.1667023  16.9358265  58.3280516  22.7642174  18.0583036  59.1490269
  17.1805497  38.6899734  49.5388365  16.9993229  38.8814664  48.6186600
  17.1242733  37.7364302  49.6006298   3.7925644  50.3331280  48.7850761
   2.8734894  50.4730368  48.5571194   4.2088051  50.0842285  47.9598331
  17.3190880   1.4014149  51.5901613  17.4485707   0.4562909  51.6689444
  17.9654479   1.6784041  50.9407568  54.0654910  50.1240198  49.0697956
  54.1072143  50.6415955  49.8739147  54.6804775  49.4051401  49.2154884
  39.5238972  27.3526525  49.5917368  40.1026058  28.1029892  49.4563818
  39.9364376  26.8564653  50.2987289  66.2659931  23.9803219  62.5187397
  66.8188524  24.7533345  62.4045897  66.8533182  23.3172631  62.8815508
   3.0263240  70.6922027  22.0571630   2.6581437  69.9942467  22.5989549
   3.7956292  70.9911725  22.5419538  26.3252980  54.0861162  22.0911138
  26.4391668  54.3926784  21.1915032  25.4545743  53.6886510  22.1003072
  75.9671879  33.4015942  43.8886547  76.7091179  33.9380527  43.6093998
  75.2682447  34.0318227  44.0633631  55.8462381  17.2580326  48.7577820
  56.0119677  17.8617227  49.4818878  56.6485739  17.2833943  48.2363939
  50.0707859   6.7365365   1.1271970  49.5496029   6.3891702   1.8510310
  50.9425539   6.8664651   1.5005223  68.6906885   0.9654074  17.6353662
  67.7800404   1.1441927  17.4008767  69.0473352   1.8195491  17.8792493
   0.0060565  54.3030915  47.7533547   0.6567962  54.1916093  47.0602910
   0.5203492  54.3518302  48.5591809  66.7723989   8.0008942  61.9688559
  66.3889313   8.1486338  62.8333521  67.6358461   7.6296228  62.1501112
  39.8444914  61.2388346  15.3306500  39.8510801  60.5841252  16.0288922
  40.1984905  60.7800505  14.5687882  26.1951709  29.3967867  37.3894954
  25.9693408  29.9114060  36.6146398  25.3842545  28.9439392  37.6209521
   9.2858607  39.9668492  17.2208802   8.8043983  39.1930400  17.5135343
   9.4140155  39.8284747  16.2824456  75.2249622  16.0850775  62.9652405
  75.8243561  16.7006230  63.3872175  74.3545246  16.4482272  63.1286144
  67.5787198  30.7896116  16.3724057  67.0244896  31.2353733  17.0129983
  67.9650008  31.4972058  15.8563344  64.6554613  11.2266505  43.4476662
  64.6615124  11.7622364  42.6543522  65.5570889  11.2616503  43.7671614
  37.3583746   7.1719122  47.0273781  38.2587242   7.2500867  47.3427963
  37.3621678   6.3830686  46.4852142  22.9463441  32.9985443  15.0747125
  23.2370288  32.9804388  15.9865300  23.6076648  33.5226765  14.6228616
  20.4600919  68.4240184  44.1334534  20.3460754  68.1228910  43.2320356
  19.5949758  68.3238802  44.5306635  72.0563780  13.7882563  23.2841508
  72.0041358  13.2824108  22.4732034  71.3122737  14.3887636  23.2402055
  26.7286873  24.2743492  56.8222380  27.3752236  24.9346304  56.5727377
  26.8147612  24.2020488  57.7728176  45.3903532  17.0944488  63.6621237
  45.7322168  17.1914959  62.7733374  44.5223045  16.7087126  63.5440683
  79.6130835  19.8654458  10.1025264  79.2495572  19.7604093  10.9817569
  80.2616250  20.5635723  10.1933209  63.9458501  24.0751156  18.8427369
  63.6943113  23.6026320  18.0491845  63.2504927  23.8770148  19.4700067
  41.0790157  13.7079358  62.5164700  41.3865089  14.3243301  61.8518353
  40.7514191  14.2627227  63.2243729  48.6773157  24.6060228  44.8355484
  49.0725327  24.9666667  44.0418386  47.7452326  24.5370269  44.6289253
  62.9787153   4.9564748   3.0661933  62.9984087   5.1244454   2.1240537
  63.8552088   5.1925521   3.3699481  79.6226931   0.6885158  57.4689531
  79.3768406   1.4594921  57.9802084  79.4997644   0.9559448  56.5581274
   0.4131896  62.0660731  38.6953465   1.3017089  62.3900697  38.8429563
  -0.0640242  62.3051640  39.4899098  78.5176611  31.5973973  43.0636501
  79.1104841  32.2925854  43.3491421  79.0954351  30.9162688  42.7194500
  56.5608276  71.4553056  62.1275759  57.2410167  71.7224632  62.7457952
  56.1624492  70.6829510  62.5288153  63.5685444   4.3768021  46.6536045
  63.6287880   4.9096960  47.4464607  64.2916870   4.6808818  46.1051226
  51.7557716   3.1193268  50.3300095  51.3249922   3.4903917  49.5599651
  52.6789999   3.3474341  50.2211761  77.6657616  22.8473791  10.6916682
  78.1088053  22.0029828  10.6083743  78.0990826  23.4095928  10.0495021
  69.7444760  46.3138875  11.8401162  70.6750666  46.0997274  11.9061772
  69.3757712  45.6154498  11.2993066  49.7042322  22.3922324  66.6941595
  48.8147068  22.2261405  66.3820934  49.8784637  21.6810584  67.3106861
   1.9139786  29.9294543  52.9777145   2.1828480  29.1657400  52.4671459
   1.0856553  30.2019644  52.5829220  26.6954941  44.1472726  11.9591586
  25.7402557  44.0998178  11.9978921  26.9698042  44.2038446  12.8744618
  36.2304330  18.7973046  42.0756817  36.9149709  18.4244192  42.6311970
  35.4126978  18.4727645  42.4527931  54.0307296  71.2267457  63.1886435
  54.6232951  71.6392450  62.5602007  53.3323825  71.8687932  63.3164024
  35.1542146  51.3849136   1.2095181  35.1427133  52.0633110   0.5343310
  36.0699899  51.3352916   1.4836089  25.9488834  71.9295077  33.6636019
  26.8902744  71.9976513  33.8228726  25.7535566  72.6536338  33.0688572
  44.7875357   5.4115659  29.4192266  43.9934301   5.1230788  28.9693356
  44.4744825   5.7788956  30.2458453  81.2398243  19.3255889  40.1558828
  80.8314228  19.1421211  39.3098426  81.4410973  18.4622431  40.5169249
  37.2254003  76.5931502  40.4857302  37.0165027  75.7396794  40.1060200
  36.3735116  77.0002853  40.6430626  30.5412019  62.8796474  54.1083670
  31.3532127  62.5673680  53.7091780  29.8511279  62.5678663  53.5228634
   9.1842467  37.5064839   3.1042735   9.4653089  37.1260001   2.2721259
   9.9997909  37.7088341   3.5627143   5.3060634  55.9386250  14.9299256
   5.4818399  56.7727789  15.3652684   4.3599517  55.8196458  15.0132958
  67.4241257  53.0653381  51.5010118  68.0289364  52.7214718  50.8436012
  67.9336548  53.7228584  51.9745874  53.9174891  20.2748179  48.9997911
  53.6302662  21.0864592  49.4180870  54.2672491  20.5524635  48.1531429
  54.3984556  14.6497965  52.3537064  54.9369955  13.8810837  52.1658516
  54.2157841  15.0300348  51.4944744   7.9287160  76.6687248  18.2474160
   7.0967902  77.0298333  17.9412639   7.8086985  76.5568594  19.1904509
  59.8770618  30.0147271  43.3513355  59.8634768  29.8279142  44.2900324
  59.9626446  29.1559005  42.9374218  18.6671788  46.0307398  27.9166333
  19.1334207  45.2032468  27.7978723  19.3589217  46.6905376  27.9655091
  63.5152388   7.5481123  40.7745647  62.6269579   7.3390210  40.4856443
  64.0151167   7.6414979  39.9636197  54.4410181  18.6811972  64.9868059
  54.2287588  19.5667934  64.6920204  55.3827477  18.7045586  65.1566219
   9.9124260   0.8930607  36.2982059   9.8028393   1.1904356  37.2014165
  10.8233948   1.0978884  36.0874653  71.7750632  54.4099232  12.1339576
  71.1110961  54.7867736  11.5565841  72.0593869  53.6140260  11.6845815
  81.8020881  63.9166919  40.9162903  81.6167224  64.8557143  40.9059095
  80.9879745  63.5151939  41.2200308  44.6654571  46.5043942  55.2743101
  44.8346532  47.1487920  55.9615946  44.1307414  45.8345286  55.7004452
  44.0455777  43.7658271   9.6864907  43.9107854  43.0588156   9.0554587
  43.3128221  43.6848643  10.2970235  58.0585146   0.6335876  44.4339418
  57.2242212   0.2867914  44.1178465  57.8471136   1.5099350  44.7557402
  48.7694693  18.0166376  41.6782570  47.8586864  17.7222431  41.6841412
  49.0321732  18.0010343  42.5985718  30.0422818  67.5562093  20.7186524
  30.0011785  67.4089381  19.7737424  30.0113256  66.6785452  21.0994164
   2.6936455   3.6991081  50.7988834   2.6575299   3.5685593  49.8513174
   1.8128701   3.4819072  51.1043215  27.1749878  24.9407363  59.6481085
  27.4740720  25.8069634  59.3716478  26.4415622  25.1173401  60.2372837
  25.5830026  17.7918816  13.6558914  25.7058787  17.2595906  12.8698885
  24.8726535  17.3591471  14.1295743  -0.0013046   5.7794124  53.8921833
   0.0903626   6.2631667  53.0713224   0.5760117   6.2353212  54.5046282
  67.6968813  18.6353028   9.3496668  68.4457588  18.1026220   9.0819681
  68.0172682  19.1406453  10.0968027  61.0402107  29.0357494  40.0848818
  61.9666576  28.8145018  39.9901152  60.6059933  28.5558128  39.3796515
  52.9869843  28.8401437  64.8346281  53.2399940  28.4390688  65.6661081
  53.6099482  28.4874511  64.1992140  61.1988258   2.9989615  64.3697786
  60.4041767   3.5085714  64.5280790  61.8647528   3.6531979  64.1582394
   3.4420354  65.2091858  20.4116075   4.0298660  65.7984564  20.8843057
   2.7138955  65.0622126  21.0153024   8.3175202  15.0906193  66.3670349
   9.0448399  15.7065475  66.2782717   7.5381585  15.6447494  66.4089155
  55.4344810  59.2276267  34.6910357  56.2523521  59.7198347  34.7620821
  55.6515086  58.4819917  34.1314316  33.0541862  61.1246149  44.2138386
  32.8400338  61.8083040  44.8486137  32.8103221  60.3081099  44.6498203
  59.6641827  20.5352473  53.1342316  59.3352890  19.6493053  52.9820251
  58.8817310  21.0510135  53.3291340  42.9099869  66.7474362   8.3703153
  43.2093596  66.5786835   7.4769322  43.1702351  67.6521990   8.5432450
  50.0804532  57.8266017  63.9088154  50.4552615  57.6695446  63.0421638
  49.1372455  57.7210299  63.7845659   3.3803041  42.4448419  10.8926551
   3.2512099  43.3706474  11.0986917   4.2571170  42.2463256  11.2213246
   9.3569475  24.9379778  61.8465233   8.4177941  24.7829843  61.9475126
   9.4128370  25.7402468  61.3274145  64.8442507  19.6425998  54.7410917
  65.1313591  20.4551387  55.1577282  65.2800035  18.9510608  55.2392149
  13.0376727  45.2346089   8.2968299  13.4041602  45.1450899   7.4171083
  12.6159484  46.0938963   8.2943074  34.6696533  75.6250307  53.7118196
  34.3803037  75.4168503  54.6001720  33.9392103  76.1116437  53.3298635
   2.8188534  21.7381334  63.7697029   1.9547577  21.3384271  63.6707067
   3.2941552  21.1410904  64.3475103  49.0278352  60.6097297  35.5984330
  49.0508235  60.9346346  36.4985108  48.2086862  60.1177291  35.5422378
  31.3589055  72.0345971  22.3938577  31.0639817  71.2143943  22.7894799
  32.0642526  71.7746589  21.8012731  53.3093316  50.3574642  17.2105519
  53.2318647  50.1526615  16.2787263  52.4108083  50.5259809  17.4942414
  72.7795493  25.5056688  14.5332162  73.5218560  26.0330936  14.8282353
  72.0447098  26.1185893  14.5093171  81.7963778  52.1755907   3.8979308
  81.1599719  51.5726241   4.2821853  82.0220553  52.7723536   4.6114985
  27.8717286  69.2967889  21.1934201  27.2715432  68.6613485  21.5835874
  28.6768205  68.8025281  21.0393064  18.9332498  68.7704251  19.3535113
  18.0714000  68.9644895  18.9850187  18.8766111  67.8545139  19.6257806
  66.9867646  44.7694662  21.0552232  67.6821219  45.2670643  21.4854638
  66.2456643  44.8225829  21.6586988  57.3940719  74.9739319  46.2362576
  57.8849376  74.9306145  45.4156446  56.4767326  74.9111165  45.9702158
  44.9280762  18.0350491  11.4505450  45.5498194  18.1231138  10.7281129
  45.4733872  17.8458378  12.2141330  24.6771717  -0.1305244  40.3733492
  24.4709229   0.7951098  40.2433729  25.4481435  -0.2831405  39.8269582
  29.0413469   0.8098917  20.4698960  28.1409305   0.5585580  20.6756036
  29.2480129   1.4987092  21.1016099  14.8358937  15.5420959  59.8259878
  14.7755070  15.2380109  58.9203835  15.4270287  14.9192297  60.2488708
  39.2702348  33.5695955  25.2516667  39.2231900  33.3064869  24.3325345
  38.3811242  33.8523054  25.4656808  75.6788540   2.6370516  54.5002794
  76.3514996   2.9830262  53.9136934  75.2260494   1.9731203  53.9802885
  72.5542628  42.7044818  31.2278955  72.6774775  42.1869555  32.0236413
  71.7717587  43.2277903  31.4012925  27.1229608  60.8215925  19.7490232
  26.4810712  60.8118030  19.0390126  26.6541917  61.2047598  20.4904191
   5.8186455  29.5220852  41.2924337   6.6458626  29.5934272  41.7687273
   5.3573819  30.3371859  41.4901161  67.5661421  22.2377348  52.7148056
  67.7038383  23.1832790  52.7715254  67.1469545  22.1073389  51.8642092
  47.9417419  25.0806022  48.3240700  46.9882917  25.1584339  48.2907629
  48.2622766  25.9073591  47.9635715  12.0152528  56.2537858  40.8027856
  11.3533551  56.3815126  41.4823548  11.5206535  56.2559339  39.9832742
  24.2539740  39.0933037  67.2486639  25.0455189  39.1085815  66.7106533
  23.5348773  39.1264009  66.6177607   8.0218608  48.3743372  10.5014197
   7.7461536  48.8092050  11.3083331   8.8682611  47.9829600  10.7174222
  23.4410817  53.2110164  14.3317048  22.6243598  52.8396687  13.9980809
  23.9608867  53.3892807  13.5479562  18.1956250  54.7211954   6.4091270
  17.4505861  55.2015397   6.0479943  18.0650146  54.7538170   7.3568122
  65.8202445  65.8197328  14.4818608  66.6459476  66.2478182  14.2556111
  65.8797037  65.6680199  15.4250924  31.1400646   3.1808953   8.8365190
  30.8245415   2.6846080   8.0812852  31.8760771   3.6905198   8.4977023
   2.6930733  12.0929348  52.1900082   2.8415127  11.4678240  51.4804792
   1.8074532  12.4225366  52.0374632  22.3471315  21.4796659   6.0711495
  22.6787288  20.8087143   5.4744069  21.9190032  20.9870359   6.7713277
  81.3200700  19.0099081   4.0312259  81.1061322  18.5763261   4.8573415
  80.8790814  19.8577997   4.0845172  81.1114346  41.4677960  27.4997346
  80.6649338  40.6756732  27.2007195  81.7366349  41.6677990  26.8030564
  55.0862741  20.6357646  43.9360189  54.3968821  21.2849808  43.7964010
  55.8574438  21.0098839  43.5099173  39.2149026  55.1907143  22.7301614
  38.5254533  55.4284188  23.3501451  40.0295407  55.4115352  23.1816308
  21.5482868  75.2346252  25.9963679  21.8288768  74.7744770  26.7874193
  22.3231281  75.7208688  25.7145548  65.3069305  47.1412230  53.8706636
  65.3926468  46.7303658  54.7309446  65.7855797  46.5605116  53.2791376
   4.8813076  10.7426763  58.1995726   5.5601521  10.1656377  58.5494614
   4.8833676  11.4985228  58.7868738  34.6635628  18.5921824  62.2724771
  33.8789701  18.7117136  62.8075981  34.5022488  19.1191316  61.4898300
  68.1260300   9.6139669  53.4001017  68.8430309   9.9591434  53.9320755
  68.4579420   9.6432698  52.5027704  75.0214659  39.4407152   7.4975268
  75.0841891  39.6128842   6.5580289  75.8860003  39.6666738   7.8406827
  71.3263642  22.8372511   3.0529849  72.1090590  22.2865078   3.0354850
  71.4085137  23.3446094   3.8604943  46.5473026   0.1771407  25.9708230
  45.9227222   0.0359874  26.6823117  47.4037403   0.1657324  26.3981645
  41.0347045  31.3883154  66.9395685  41.9762052  31.5378706  67.0258141
  40.9602178  30.7133047  66.2649918   9.0997178  63.3329388  25.6106774
   9.4782455  64.1727087  25.8709447   9.5350129  63.1195208  24.7853295
  79.6268117  21.7764100  13.5105149  79.1960990  20.9650788  13.2413308
  80.3886115  21.4878127  14.0131108  80.8613669  35.8998564   7.3545234
  80.7628667  36.7606169   7.7614896  80.2650153  35.9191436   6.6060416
   5.6416305  49.9510924  61.8204784   6.4390739  50.4720585  61.7260885
   5.2830871  49.8993174  60.9344721  66.6142607  24.5644045  65.7164478
  67.4867773  24.3111062  65.4151487  66.0164642  24.0209651  65.2030802
  66.4660835  27.0396972  18.5568678  66.7868662  26.7015028  19.3929040
  66.6417885  27.9798365  18.5955346  59.7936392  11.1188757  50.4272032
  60.6177998  10.6477928  50.3044367  59.3021917  10.9555376  49.6222019
  23.2363374  67.1143529  18.1324021  24.1254003  67.0218584  17.7899949
  23.1860978  66.4760539  18.8439385  60.2496492   3.9053699  20.9600846
  60.0952374   3.4122440  20.1543443  59.5010530   3.6935374  21.5177266
  53.1954288   2.3387328  31.0381722  53.4885597   2.4995106  31.9350886
  52.3167372   2.7166492  31.0019898  37.4416024  65.7586858  27.2722928
  37.2101743  64.8871013  26.9513337  38.0390413  66.1068270  26.6104047
  29.2867715  47.1718880   5.8855884  29.8628289  46.6522536   6.4462773
  29.7944219  47.9578277   5.6835286  10.3722376  44.6285539  50.6426255
  10.8524555  45.4548841  50.6955544   9.6128458  44.8275094  50.0949304
  18.1888791  55.8422947  61.6687727  17.2965928  55.5926323  61.9090033
  18.7015839  55.0428057  61.7879009  17.6936455  34.5774961  54.5850325
  17.9466076  35.1751184  53.8814068  17.1335431  33.9288926  54.1586113
  28.0268151  66.1517689   6.7338149  27.7116449  67.0373532   6.5531461
  27.4664457  65.8382890   7.4437062  25.3213365  71.8646833  12.9426734
  25.0437028  72.7585074  12.7420966  24.7526319  71.3113925  12.4072473
  28.5627324  69.3929860  11.0138289  28.5191686  70.2721831  11.3897912
  28.7373502  68.8212129  11.7613666  53.6547299  14.3073761  57.6565170
  53.6196156  14.3265462  56.7001534  52.9146500  13.7568784  57.9123783
   3.7023659   1.6626982  56.4235449   4.3507214   2.3668301  56.4312458
   4.1592045   0.9207823  56.0272026  51.0804033  14.9277818  62.6058865
  51.6313839  14.6057200  61.8924952  51.6043568  15.6115329  63.0232430
  13.3372803  31.9658208  61.5910769  13.9576073  32.0200920  62.3180389
  12.7488442  32.7092934  61.7223215  77.0826006  16.8167233  52.4156284
  76.9455767  17.6663125  52.8347397  76.8230391  16.1776292  53.0792665
  45.4160070  30.2677584  53.7399435  44.6921110  30.5884409  54.2778778
  45.0974321  30.3426075  52.8404236  34.8730428  35.6208637  30.4186551
  34.6675737  34.9366784  31.0557572  35.5876977  36.1151585  30.8201043
  30.7764013  55.8221087   1.5954940  29.9815042  55.4824874   1.1843507
  30.8174379  55.3766605   2.4417321  61.0489935  17.5342660   0.6622235
  60.5176443  17.0610242   0.0219600  61.8997282  17.0962195   0.6380527
  70.7898963  64.7627918  42.0152044  71.3325847  64.8283331  41.2294388
  70.8473647  63.8418762  42.2698498  37.5599474  13.2007127   1.2569491
  37.2939485  12.8523545   2.1079032  37.9812759  14.0356164   1.4610211
  11.0837956  10.4814982  38.8059616  11.0623856  11.3831580  39.1265607
  11.2116070   9.9507105  39.5921922  48.0940575  14.8335843  17.3969667
  47.2324747  14.4458394  17.5504415  48.0136579  15.7311969  17.7195470
  53.1728792  40.8367920  62.1620321  52.5074625  40.9294319  61.4802217
  53.2648993  39.8913598  62.2800159  51.7155743  39.1670227  50.0702763
  51.7631674  39.1510105  51.0261583  51.8693018  38.2595038  49.8075771
  21.6431291  25.6830510  18.4870641  20.9353215  25.4351780  17.8922479
  22.4276979  25.6834552  17.9387204   3.3407231  23.5828447  49.3471003
   2.7398320  24.0380597  49.9369717   4.1563817  23.5131073  49.8431444
  72.2755861  21.5882039  32.6914454  72.4037743  20.7131815  32.3251987
  73.1004572  21.7852855  33.1352687  59.2125893  13.9616394  41.9169283
  58.3516979  14.3552446  41.7748833  59.7690153  14.3532228  41.2436676
  27.7826364  34.6440276   8.2837741  27.3829324  35.2684143   7.6782910
  27.8491742  33.8320941   7.7812116   5.6479474  49.0181923  55.0880671
   6.5049096  48.9962673  54.6622086   5.8441945  48.9710712  56.0237503
  22.0627614  13.2650709  25.0652719  21.8915959  12.6197469  25.7511926
  22.8368206  12.9322410  24.6110702  81.6991997  20.3703022  65.4728842
  81.7026997  20.4910755  64.5233440  81.0629272  21.0096121  65.7932997
   2.5373097  43.0997992  49.3343544   1.7464657  43.6299229  49.2355108
   2.3359795  42.2821331  48.8792467  77.4280739  38.7491608  40.1817179
  78.2611895  38.3740950  40.4671478  77.2722864  38.3596301  39.3213534
  52.9151214  77.0604837  35.9734750  53.0438674  76.9179120  35.0357485
  52.6810230  76.1982327  36.3169169  17.7442844  63.6235687  21.6800134
  17.4074847  64.2463276  22.3241918  17.4903257  62.7658078  22.0205800
  64.7388124  22.7410889  59.6663189  64.9328470  21.8084383  59.5728064
  64.0329552  22.9028177  59.0403461   0.3732319  25.3241992  65.2356815
   1.1500569  25.7107568  64.8315144  -0.2337245  25.1898432  64.5078230
   4.4271393  33.5982203  14.8158574   5.2726384  33.6506343  15.2615142
   4.1627045  32.6831722  14.9107206  40.1658017  67.8092095  21.1337964
  40.6376512  68.2007763  20.3987710  40.8009298  67.8025600  21.8498914
  46.1029100  22.8702760  42.3222637  46.4525890  22.1132636  42.7922487
  46.1162233  23.5787797  42.9657507  80.9168625  51.4538288  38.6312222
  80.6088734  50.7986403  38.0050445  80.2015018  52.0874405  38.6862373
  11.2903519  13.3513677  28.3773875  11.7075272  12.6231909  27.9170036
  11.8083687  13.4586239  29.1751266  26.9933088  76.8045303   9.3828074
  26.7704827  77.7314016   9.4693582  26.7677171  76.4236996  10.2315204
  48.7517507  56.3614628   2.1730773  48.4943826  56.2590930   3.0893294
  48.0696637  56.9152221   1.7931430  64.5949221  67.7426672  54.6163464
  65.5024719  67.4730778  54.7574091  64.0981388  67.2702599  55.2843809
  41.0775518  37.0739627  53.7770319  40.5629635  37.5999665  53.1648684
  41.9256401  36.9666076  53.3463907  13.9771468  41.3677907  25.1896302
  13.2605893  41.7858115  24.7120969  14.6040065  42.0738164  25.3471295
  76.7711449  47.4242830  66.2304354  77.1196175  46.7497396  66.8133450
  75.9118319  47.6355839  66.5953541  71.6016954  36.9812303   0.3430478
  72.4571508  36.5966039   0.5341069  71.1658377  36.3330607  -0.2102359
   5.7102128  39.8476648  42.0249510   6.3125725  40.3129530  42.6053858
   6.2522145  39.5783567  41.2833786  77.0708132   6.4880919  65.3723288
  77.1382570   6.2497610  64.4477272  76.1446524   6.3698441  65.5832052
  38.7846048  26.6926643   1.7603890  39.3066365  27.3049125   1.2418668
  39.3508298  25.9288248   1.8706862  44.4792789   7.5571876  26.9723813
  45.0267500   8.1633906  27.4714105  44.8551029   6.6946416  27.1484487
  17.4942704  42.2552586  29.3582106  17.4168988  42.0493269  28.4266329
  16.6101571  42.5110388  29.6211910  18.5143478  60.4711863  11.6113059
  18.9386708  61.1660096  11.1079185  17.9458148  60.0307748  10.9796063
  13.6823423  75.4072425   3.4876649  14.5269067  75.8554527   3.5329263
  13.4042794  75.5115840   2.5777070  64.5712185  51.9422674  46.8087101
  65.3278589  52.5084448  46.6564894  64.4880486  51.4319181  46.0031939
  76.6509997  70.5952713  26.1728971  76.4775264  71.4435050  26.5811078
  77.2084033  70.1365015  26.8014447  38.8144601  73.7560184  44.8203182
  39.6075834  74.1390492  45.1951265  38.2096113  74.4930209  44.7353840
  53.8587529  36.6659449   9.4162480  53.3361585  37.3351794   8.9743726
  53.6582906  36.7802069  10.3452222  25.5890656  54.1055346  62.2157240
  26.4586544  53.7073421  62.1770954  25.4708385  54.3336630  63.1377935
   3.8150807  57.7582359  42.1275330   4.5981808  57.7901649  41.5780115
   4.0971871  57.3018599  42.9202271  15.0494725  45.2979395   3.4775226
  15.1392276  44.6388480   2.7892129  14.6682174  44.8228040   4.2158477
   4.9667127  49.3320307  25.4812257   5.2780206  49.4939288  26.3717954
   5.7282741  48.9780292  25.0219457  56.1757273   9.3826823  17.5635259
  56.5792936   8.8649468  18.2601754  55.3396791   8.9478736  17.3956124
  75.3341961   1.0263647  48.5215330  75.5322170   1.3510925  49.3999195
  74.7932720   0.2506006  48.6692619   6.9264811   6.8900447  10.9129874
   7.5454682   7.2219996  10.2626817   7.4395555   6.8197112  11.7179935
  74.3670797  20.4031515  55.9398127  75.1042223  20.2323556  56.5260601
  74.0328407  21.2560320  56.2174940  38.0921288  76.3536119  53.8947582
  37.2753926  76.6115046  53.4673595  38.7748070  76.8070936  53.4002447
  75.5948925  34.5122433  39.8783541  74.6882343  34.2135167  39.9487948
  76.0803270  33.7387419  39.5915103  77.4199616  36.1850814  15.4506700
  76.7593276  35.7937732  14.8791234  76.9368350  36.8275112  15.9703843
  44.7640514  11.6735744  49.7294188  44.6143293  11.4312673  50.6432581
  44.0901852  11.1993015  49.2423820  42.1099622  50.9004137  16.4721887
  41.5976674  50.0931808  16.4257161  42.0500714  51.1696622  17.3887841
  28.2836587  47.4251619  20.3447549  27.9740483  48.1009647  20.9478013
  28.7417943  47.9090151  19.6575658  12.0960637  25.3462839  44.9947453
  12.3338528  24.7593427  44.2769814  11.7095585  26.1081958  44.5630741
   4.7923584  56.5603733  64.9376631   5.2146073  55.7066631  64.8422241
   4.1671677  56.4398003  65.6523895  50.7992411  38.7415171  55.6866407
  51.6024637  38.7316251  56.2071896  50.3127193  37.9720378  55.9823179
  77.7387762  18.3777165  65.7788038  78.4705353  18.7257588  65.2692747
  77.8289127  17.4273276  65.7090235  55.2568865  14.8770356  31.3661313
  55.9820127  14.6036470  30.8042717  55.4603243  14.4979227  32.2211862
   5.0186368  31.9100857  56.4067125   5.1503010  32.7983022  56.0750961
   4.2367001  31.5978813  55.9513760   3.6195762  51.7964885  25.7868115
   3.8205964  50.9286639  25.4365174   3.9135606  52.4030778  25.1072137
  68.9701796  52.1535110  49.3448591  68.3322620  51.6734648  48.8167906
  69.6031570  51.4894629  49.6180105  53.3277381  70.0596349  56.8395042
  52.5652850  70.1230280  57.4147177  53.6043609  70.9664599  56.7076635
  21.2072583   3.7638065  47.0409203  20.3555127   3.8392231  47.4711323
  21.6897889   4.5392469  47.3274136  26.0492761  11.4266499  58.9699793
  26.5752179  11.2164601  58.1983328  26.6333539  11.9442757  59.5241928
  33.9358480  26.0449120  22.8020112  34.2933805  26.2924620  21.9492929
  33.0695302  26.4513203  22.8256146   4.8495729  59.1783330   0.4389398
   4.3235357  58.9756223   1.2125222   4.5816714  60.0635812   0.1923768
  40.9113939  71.5834948   6.8024890  40.6923253  71.7810127   7.7131049
  41.4539201  70.7964417   6.8519513   8.9702054  19.4939363  59.8444414
   9.5958157  20.1653552  60.1165485   9.5148488  18.7737846  59.5266676
  18.0965252  23.6343718  61.6910410  18.8205452  24.0157509  61.1944771
  17.3126812  24.0425777  61.3233614  63.9471960   0.7472713  60.2532816
  64.1299343   1.3999882  59.5774078  63.3376122   1.1832568  60.8487272
  39.7913511  72.4945113   3.1326692  39.6188600  72.9689929   2.3194377
  40.7430322  72.5252125   3.2306354  65.1291370  70.4497671  57.6535940
  65.2507257  70.6156731  56.7187548  65.9693575  70.0960064  57.9453373
  70.9758949  12.8410029  53.4884739  70.5135965  12.7732539  52.6530552
  71.0518312  13.7823367  53.6445379  53.2083607  11.7803311  53.4879446
  52.9928875  12.0396256  54.3838072  52.5142860  12.1660829  52.9534483
   1.3063914  53.2669315  12.2921483   1.0644777  53.6168501  13.1496255
   2.0028217  53.8470873  11.9845120  67.8145170  43.2206440  30.9207940
  67.4242115  44.0340662  30.6010461  67.5225830  43.1561565  31.8301034
  54.1769088  67.9875455  37.3682857  54.7911800  67.3513154  37.7344990
  54.1962779  67.8238587  36.4253831  39.3736036  40.4954761  19.2626874
  39.1612870  40.6460974  20.1838128  39.1747625  39.5702081  19.1192643
  67.7295494  45.3210735  58.1205368  67.2742939  44.5391941  58.4330130
  67.9249001  45.1336288  57.2024250  76.9936943  15.4577219  40.6107616
  77.4528217  16.1976421  41.0081959  76.1218929  15.4768002  41.0055161
  18.8280160  70.5237409   7.1400516  18.9573962  70.5837032   8.0865685
  17.9066140  70.7478449   7.0095841  21.1706563  45.4787493  35.5165625
  21.4796658  46.3219643  35.1853085  20.2840634  45.3939915  35.1658440
  28.3029932  16.4625268  26.6178910  27.3602432  16.6267448  26.6399972
  28.3802456  15.5085092  26.6285722  24.2716545  10.8920817  10.4685084
  23.5122055  10.4470544  10.8445708  24.7078222  10.2201657   9.9445645
  15.4853364  61.7004395  49.4166756  15.3999539  62.4487066  48.8258791
  15.3232022  60.9374809  48.8618469  76.4122248  11.2377810  28.4354138
  76.0437441  11.0903108  27.5643754  76.3985443  12.1887720  28.5433984
  12.8803260  71.0353014   7.2702233  12.9668052  70.2559015   7.8191249
  13.7538821  71.1668083   6.9016568  18.4315116  39.8890399   1.4530913
  19.2760093  39.9712494   1.0100381  17.7909858  40.1785619   0.8033721
  68.9304924  27.2787523  59.4239330  68.1175852  26.7770934  59.3626976
  68.6875486  28.0709338  59.9031639  44.6040392  21.3292241  66.5935373
  44.7239828  20.3934622  66.7553949  43.7443447  21.5281844  66.9644451
  78.5723483  67.3448893  28.5332887  77.9060542  67.2818467  29.2176263
  78.5642134  68.2666203  28.2752721   5.8170720  51.3562679  39.5452762
   5.5481549  51.4487791  38.6313009   6.3805790  50.5825377  39.5519972
  27.1371263  61.3084798  34.4657819  27.0055336  62.2543054  34.4000260
  28.0511183  61.2118440  34.7332017  29.5971543  74.1586158   3.3327119
  29.0782125  73.6432216   3.9502112  30.4892308  74.1181871   3.6773793
  39.8460920  13.2234581  24.9577022  39.6757276  13.3031948  24.0191650
  39.7187383  12.2936638  25.1461005  22.7584095   5.4495746  64.3763733
  22.1858140   6.0913253  63.9562321  23.5690899   5.4831928  63.8685417
  62.0987368  73.7368488  25.8866239  62.0220041  72.7957726  25.7293987
  62.4719906  73.8031864  26.7655516  63.3020258  61.1655617  59.7465134
  63.5375214  60.9080601  58.8551807  63.2417059  60.3395557  60.2264166
  74.7549343  37.5621843  51.3210201  74.9903965  36.6345620  51.3034773
  74.3754482  37.6965857  52.1894407  52.9211611   3.6281018  12.7091805
  52.7683061   2.6834064  12.7296035  53.7022108   3.7560468  13.2475202
  79.3298566  75.3146359   9.9842279  78.7768971  75.9730861  10.4048411
  80.1615559  75.3638670  10.4554812  75.2185339  43.1938558  15.4206197
  74.7548098  42.4017625  15.6922261  74.8593325  43.8845449  15.9775369
   2.7191455  63.2698461   7.8048389   3.2736022  62.4929568   7.7323834
   3.3183582  64.0047786   7.6742713   4.0414448  46.9798183  50.3612423
   4.2944546  47.6543808  50.9914684   3.0854817  46.9578409  50.4047823
  30.5611665  48.6264732   2.0079534  31.4358766  48.5887578   2.3948686
  30.7021959  48.9844593   1.1314885  21.2117393  65.2287218  20.2411477
  20.5864389  65.9513900  20.2957646  20.8264978  64.5374414  20.7796208
  70.5454350  36.9551420  46.4111328  70.2435827  36.0764527  46.1808681
  71.4928102  36.8638992  46.5130377  18.3717054   6.7136674  11.5649716
  17.9505009   5.9123712  11.8760030  18.7451071   7.1092181  12.3525922
  22.3235817  13.7445593  43.7932682  21.6300316  14.3169379  43.4652376
  23.0707665  14.3272269  43.9291096  72.2422457  62.8482199  62.0633459
  72.4494696  61.9313860  61.8825006  72.9810715  63.1624651  62.5845146
  16.3308675  55.3936812   8.3336322  16.3175304  56.3443443   8.2227628
  15.6574351  55.0731024   7.7336804  80.9926319  71.4948845  66.9127750
  80.1934052  71.8852186  66.5590620  81.2748432  70.8755112  66.2397528
  60.6970644  51.2048388  56.0154390  59.9473619  51.0239840  55.4484606
  61.0532379  50.3412724  56.2242985  75.6755924   1.2932874  66.4865828
  75.6965733   1.7272966  65.6336880  75.9946012   1.9551921  67.1000528
  20.4286595  33.1413722  41.1894655  20.8662911  33.7683654  41.7653084
  19.6171017  32.9218721  41.6470909  43.7646008   0.1151261  44.2387676
  43.7134171   0.4458481  45.1355600  44.5614529  -0.4150105  44.2241096
  74.6678782  20.6981087  61.0002184  75.0776196  21.0671902  61.7825985
  74.0026474  20.0986481  61.3383675  75.0818599  51.8540923  66.3756084
  75.7664169  52.0233051  65.7283211  74.9282039  50.9108989  66.3207293
   6.5989228   6.2474126  33.2759500   5.8181305   5.8411610  33.6521816
   6.6534062   5.8872628  32.3907614  32.6202066  63.9326021   0.8001010
  33.3541829  63.3990022   1.1047046  32.9709680  64.8223588   0.7609098
   8.8820096  27.0537543  60.3480101   9.3969746  27.7549481  59.9487972
   8.4818573  26.5987849  59.6069860   9.1298028   9.7986341  57.8440142
   8.6802216  10.6285155  57.6846170   9.9924584  10.0526881  58.1719112
   2.5770112  29.4601727  55.8959532   1.9812031  30.1880717  56.0731888
   2.5911732  29.3892050  54.9414921   7.5178894  72.0351950  63.2151794
   8.1857857  71.4403818  62.8740883   7.4751076  72.7419518  62.5710535
  24.3609340  74.2983839  12.4981467  24.3993098  75.1143929  12.9970328
  23.4896381  73.9466926  12.6808803  70.6501102   4.6772930  66.8706465
  71.0407495   5.5471295  66.9544363  69.7835302   4.8388353  66.4975929
   9.2690904  63.7006852  33.1515615   9.3569047  64.2615268  32.3808591
   8.9564378  64.2873046  33.8402955  10.9620877   9.5776111  48.6276197
  10.2703877  10.1249266  48.9993954  10.7979889   9.5918316  47.6847029
  57.6023353  54.2587201  38.6461854  57.1882499  54.7998707  39.3184400
  58.4878410  54.6130792  38.5653400  42.9667152  65.8110623  62.4925661
  43.0510057  66.7205612  62.2063112  43.3205713  65.8061151  63.3819437
  37.7528245  76.9607279   0.4087274  37.2527082  76.1511776   0.3050916
  38.6678846  76.6862652   0.3490083  27.7655942  29.8373672   0.6018607
  26.8269212  29.6625611   0.5342738  28.1808335  29.0750846   0.1984612
  19.2242868  57.1655020  11.2758891  19.1024930  58.0828091  11.0310523
  19.7121484  57.1999702  12.0987098   3.3566971   1.2535691  53.2395363
   2.9575272   1.0755478  54.0911245   2.7525444   1.8622304  52.8143740
   1.5394981  52.0674595  27.6434056   1.3938100  51.1453232  27.4320523
   2.2508914  52.3368570  27.0623986  81.3765526  26.8288970  20.0902367
  81.3915539  26.3142300  20.8971596  80.7686901  26.3601065  19.5184183
  64.0600395   3.1062853  29.5356703  64.6328211   3.8692763  29.4582343
  63.8650894   2.8603798  28.6313701  73.5380173   3.9579040  64.3849754
  74.3003654   3.4317675  64.1436529  73.9076519   4.7558630  64.7629499
  64.4519103  57.3190586  31.6962147  64.6337760  57.6647214  32.5700998
  65.2640785  56.8838445  31.4369917  29.2059536  23.0123544  60.2376270
  28.4645386  23.6104655  60.1438141  28.8246174  22.1403408  60.1356173
  50.8209801   5.0056565  11.9175732  50.4192877   5.5908161  12.5598073
  51.5505981   4.6003625  12.3862183  63.3275175   1.7329444  57.6809788
  62.8601360   2.4673976  57.2830248  62.7479410   0.9821361  57.5520945
  44.0888370  75.5417190  64.0741062  43.4350122  75.1255570  63.5123587
  44.6827138  75.9811481  63.4654617   5.0782128   4.4485453  66.2358046
   5.1952763   4.7796291  65.3453493   4.2121430   4.7622785  66.4960575
   0.2340718   3.7186399  61.5066576   1.1053868   3.3240324  61.5431738
  -0.1796035   3.4624827  62.3309660  56.3224983  26.8162823  40.6529570
  57.1118689  26.2789440  40.7192755  56.6194582  27.6285577  40.2427673
  47.9384327  20.1023817  58.0398273  48.4894371  19.6518111  57.3998165
  47.2948790  19.4457996  58.3062267  78.2516349  60.9370569  50.4493618
  79.1975272  60.8017282  50.5060768  77.9462970  60.8762912  51.3545179
  71.4163256  36.6621900  49.3316746  71.5309811  37.3858213  49.9476624
  71.4321470  37.0770478  48.4691906  80.1434135  16.6967082  55.7385254
  80.6640339  17.0724177  55.0285673  80.2481747  15.7506263  55.6375980
  59.0191031  10.5856204  64.3985128  59.7074366  10.3826380  63.7650919
  59.4822598  10.6933260  65.2292442  70.7650852  18.8764298  62.6034594
  71.6932535  18.9091349  62.8351212  70.3194380  19.2943609  63.3403254
  62.9368258  22.5952983  57.6584482  63.0303049  22.4905777  56.7115974
  62.6318502  21.7413068  57.9649162   2.5453336  22.7981982  21.2180440
   2.2883279  23.6000344  20.7628076   2.4254710  23.0006322  22.1458833
   2.0487770  77.1371493  54.8136520   1.9042858  76.9154404  55.7335424
   1.2752804  76.8000302  54.3616772  15.6677361  44.3494844  49.6342945
  15.5430527  43.4381485  49.8991537  16.6052647  44.5057344  49.7476625
  62.0453119  23.5841489  54.1522503  61.6635561  24.0661144  54.8858786
  62.0181465  22.6678133  54.4276094  49.5071650  31.1748481  61.0612297
  49.8524761  30.7562399  60.2727127  50.0634813  30.8488512  61.7686701
  11.7972203  28.3751178  33.3569717  12.5836487  28.2189894  32.8341055
  11.5461941  29.2751288  33.1491351  17.5789185  26.1842155  65.9191132
  18.4256859  26.5697002  66.1441183  17.4198742  25.5375242  66.6066647
  40.5561753  10.1811635  56.9571543  39.7791691  10.3572881  56.4266109
  40.2148743   9.7772872  57.7550459  74.4378722  74.5373155  66.0041618
  74.0942252  75.4168085  65.8472300  75.3845084  74.6269045  65.8941984
  73.2893501  12.2635560   2.3848168  73.7678681  12.8141360   1.7650430
  73.0157803  11.5047650   1.8694322  31.6525119  48.4594759  26.6068666
  31.8038534  47.5468823  26.8528382  32.1712046  48.9653155  27.2324197
  51.5853035  59.2607734  16.8951337  51.2243973  59.8948118  17.5147931
  51.5555917  59.7085711  16.0496633   6.4306039  30.8844523   8.5627477
   6.9871158  30.5461316   9.2642180   6.0856360  31.7083173   8.9069478
  34.0992301  59.6577045  23.6897580  34.6351754  60.1209971  24.3334596
  34.5346069  59.8215339  22.8531854  21.7993855  46.6833019  60.7245350
  21.9887972  45.7461977  60.7713938  22.3850656  47.0122337  60.0426197
  13.9184773  23.3826923  57.7104902  14.0500629  22.6394844  57.1217966
  13.1589973  23.1379294  58.2391787  11.3610572  20.9292226   4.5016353
  11.9792980  21.6595368   4.4760434  11.8348402  20.2001958   4.1012828
  62.9337703  68.6169311  36.4493196  63.2409369  68.0653426  35.7298581
  62.0981704  68.9683029  36.1418454  40.8070778  75.3443953  58.2725732
  41.4978623  74.6888491  58.3690469  40.4370569  75.1766655  57.4058644
  21.7534679  13.4792190   8.1588666  21.7290157  12.5556235   7.9086606
  22.6639742  13.7405829   8.0213897  19.5264166  45.6116483  19.6454064
  20.4382204  45.6201675  19.3542497  19.0354096  45.9692201  18.9056222
  17.5626034  11.7398696  27.2105424  17.5510258  12.5459390  27.7266328
  18.0571598  11.9667535  26.4230363  65.6869648  13.4733014  12.5296609
  65.8066808  13.4038453  13.4768025  66.5751456  13.5489850  12.1808927
  10.5555481  17.8344207  20.8586804  10.3973240  17.1163564  20.2458398
   9.7506374  18.3518701  20.8342950  70.6176745  31.9660464  43.2066552
  69.9517094  32.5367358  43.5901086  70.9509360  31.4568093  43.9454667
  77.1538781  17.1642880   2.7232282  76.5974210  17.5258784   3.4130351
  77.0055459  16.2196355   2.7663915  20.9909797  32.3705697  56.5397644
  21.4979744  32.3787665  57.3516273  20.1835108  32.8364778  56.7569256
  34.3298912  48.7698126  59.4007063  34.0222931  49.1034126  60.2435160
  35.2748394  48.9219379  59.4133472  10.5642599   5.0885444  39.2388742
   9.9063105   5.7837586  39.2418305  10.7835335   4.9623733  40.1620404
  38.1353706  15.1309590  26.4447324  38.7607283  15.8083110  26.7023198
  38.6798424  14.3816190  26.2033193   6.8231970  69.5476627  51.7756987
   5.9510767  69.7077465  51.4151287   7.1726340  70.4207850  51.9539785
  19.6671766  18.8869958  35.9372632  20.5293840  18.7292724  36.3219182
  19.6862215  18.4147124  35.1049058  24.3390364   0.3741770   5.4557673
  24.3487352   0.0032191   6.3381068  23.5718483   0.9464865   5.4449813
  27.7714676  10.8911233  16.2355344  27.8167099  11.2908416  17.1041028
  27.0027727  10.3220038  16.2735288  36.6010475  74.1359282  62.9045105
  36.6070104  74.8789263  62.3010635  37.3599935  74.2802811  63.4696627
  61.7921559  44.4015222  28.2401483  60.8533280  44.3811898  28.0546205
  61.8465082  44.5417504  29.1854589  71.4403699  18.3649163   4.4857089
  70.7648800  19.0425735   4.5126025  72.2067963  18.7746530   4.8868815
  13.7662739   1.3681846  51.4746778  13.8509029   0.4157834  51.5194432
  13.9513677   1.5823655  50.5602948   5.9060669  65.2516079  47.7586794
   5.6856835  64.3616915  48.0338430   6.8135703  65.3710651  48.0386782
  70.5367516  15.5732350  27.2520177  71.0817657  15.9814076  27.9247586
  70.7173501  16.0777097  26.4588372  26.8062729  42.5998693   2.4896352
  26.8926805  43.2570176   1.7990462  26.9062561  43.0933480   3.3037107
   7.6288122  10.3534465  28.4828774   6.7069549  10.5005269  28.2712667
   7.7673215  10.8356767  29.2980401  59.1387533  40.1791530   8.6547296
  59.8526143  39.7902494   8.1493680  59.1653566  39.7238927   9.4963138
  23.6517805  25.3415875  25.9497754  23.8621992  25.8587365  25.1722734
  23.2899565  25.9758906  26.5686242  14.6784443  16.7533069  48.8560502
  15.0444073  17.4266772  49.4295327  14.1167683  16.2306552  49.4283978
  73.7358235  28.0101495   0.3555839  73.2877468  27.7131610   1.1475770
  73.2156824  27.6505475  -0.3630097  73.9432906   6.3189750   0.5033509
  73.5507964   5.4590039   0.3529374  73.5674523   6.6119008   1.3335149
  68.6724555  75.2259800   7.5961511  68.9220034  74.8878476   8.4561698
  69.3742072  75.8346388   7.3652570  48.9870882  43.3176184  54.0448046
  49.2715693  42.7920437  54.7925138  49.7593212  43.8294601  53.8041544
  72.3775767  34.7842507  10.1679294  73.1708537  34.9249272   9.6510617
  72.5749741  35.1727490  11.0201852  33.3232921  13.9644008  27.4745671
  34.2802185  13.9416795  27.4774949  33.0764097  13.5504632  26.6475694
   9.5279163  34.4674730  55.7934952   8.8331932  34.7010708  56.4091444
  10.0929904  35.2395844  55.7657957  12.4574757  40.2981615  57.4388361
  11.6330874  40.0686455  57.0099545  12.5506127  39.6528816  58.1396723
  80.3660475  38.4643716   8.2256572  80.3122508  38.4367886   9.1809480
  79.5074450  38.7823376   7.9464976  55.1515900  55.5666050  11.4017550
  56.0466921  55.5565235  11.7407529  54.8455154  56.4596054  11.5601890
  30.9923180  37.3288287  20.6698434  30.9883579  37.5554799  21.5998094
  30.8282789  38.1579576  20.2205388   5.2929086  10.8723598   2.8428428
   5.3681463  11.1920266   3.7419431   4.5049709  10.3288846   2.8470151
  73.9519154   3.2786565  21.2050931  73.2214497   2.7800851  21.5712659
  74.5603965   3.3841138  21.9364373  58.8866102  41.2740537  20.7853524
  57.9434048  41.1245637  20.7201688  59.2661201  40.7052514  20.1155297
  14.8564290  68.4632060  16.7774026  15.2035712  67.8894755  17.4604527
  14.5607602  67.8659221  16.0903279   8.4862727  15.1134877   5.5861012
   8.3850378  15.4414325   6.4796559   8.7420935  14.1975169   5.6946866
  42.3354732  74.0344521   9.9522607  43.0519139  73.5017845   9.6069877
  41.5526461  73.5010526   9.8147885  10.6382412   6.0635858  27.0127408
   9.9182719   5.5879455  26.5984456  10.6161684   5.7822900  27.9274098
   7.5021846  52.8155360  25.4969518   7.3640926  52.2396728  26.2489812
   7.0385272  53.6215374  25.7241456  30.2349114  13.1638134  26.8874240
  30.7029748  12.4381173  26.4744902  30.6755090  13.9489198  26.5622878
  45.1617479  36.7556214  64.8906183  45.5703306  36.7036104  65.7546759
  45.3928566  35.9293389  64.4662666  56.3841306  38.0300802  44.3991105
  56.3832103  37.6062187  43.5408704  56.7924678  37.3899338  44.9819486
  35.1657426  56.4535722  22.5987832  34.3985271  56.8350980  23.0254571
  34.8444676  56.1600622  21.7462174  38.8225293  13.7067676  50.7296419
  39.3653893  12.9186475  50.7497215  39.1752267  14.2221200  50.0042152
  42.3767292  63.7932059   8.2368724  42.2691678  63.6497161   7.2966210
  42.8444134  64.6259734   8.3001153  58.7593662  62.2283933  40.5849092
  57.8961169  61.9437906  40.8849732  58.8746058  63.0951115  40.9744660
   0.5340540  44.4459560  18.0585210   0.1858293  45.1537451  17.5162999
  -0.2419866  44.0086493  18.4088914  74.4116341   6.7363124  13.8886849
  73.6809777   7.3539262  13.9190499  74.8493765   6.8414502  14.7334115
  67.9391038  72.3584339   4.2694871  68.1869733  71.8618271   5.0493447
  68.4603106  71.9736716   3.5648362  74.0890442  23.4473090  20.7258145
  74.0563749  24.3844132  20.9181706  73.2774316  23.2721238  20.2495496
  25.4951262  40.4547787  47.6630831  25.9145904  41.2669373  47.9471254
  25.6254864  39.8497796  48.3932972  10.4724681  20.9069228  18.3513212
  11.3846982  20.6835508  18.5361803  10.2767575  20.4548264  17.5306273
  65.2860425  22.9048448  37.9790418  64.7891222  23.0683951  38.7806336
  66.2024640  22.9620605  38.2494657  80.1545417  45.7051244  13.3780686
  80.8086287  45.3510401  12.7755515  80.1998841  45.1329234  14.1440694
  29.4350559  69.1010234  13.9274900  28.7825673  69.4114301  14.5552938
  29.5925147  68.1902310  14.1762845   6.4986962  42.4722338  56.3953161
   5.6540000  42.1561337  56.7159414   6.4934605  42.2638988  55.4610777
  73.1176840  65.7730982   5.0713079  72.8906428  66.4284298   5.7310216
  74.0389477  65.9415528   4.8735063  66.0001432  49.4559929  14.6895616
  66.1031496  50.3987810  14.8190610  65.1222765  49.2634818  15.0189797
  43.4470522  51.7327711   9.2634885  42.7933084  52.2117040   8.7541024
  43.7477826  52.3619530   9.9191730  81.5797685  17.8037076  16.3050477
  82.3448990  17.6785426  16.8664186  81.3041328  16.9165092  16.0745255
  14.4200861  23.1448674  47.5608301  14.7708368  23.1878400  48.4504128
  14.0728569  24.0218163  47.3976564  14.3305439  12.2233729   1.3048379
  14.3589252  11.5360074   1.9703881  14.4260973  13.0382447   1.7978827
  55.5958687  41.0130221  10.6743876  54.7665416  40.9055141  11.1401050
  55.6268894  40.2740598  10.0667684   0.2537343  10.5577481  57.4606133
   1.0488058  10.2799916  57.9155254   0.5587351  11.1892879  56.8091774
  72.7618180  29.5430951  11.8521373  72.9290591  30.1137309  11.1020486
  73.6253284  29.3951135  12.2377316   3.2505649   1.0661893  16.9360845
   3.5991258   1.9550614  16.8679158   2.5509495   1.0325794  16.2836663
   7.6214475  24.5648246   8.5091178   7.6597732  25.5210738   8.5278480
   6.6858882  24.3628173   8.4968154  12.7579588  23.8857703  25.2328698
  11.8764442  23.7055974  25.5595319  12.9562897  24.7661929  25.5518548
  19.6426446  69.2987773  13.0330579  19.3452842  68.4025022  12.8765409
  19.6030099  69.4016716  13.9838902  19.0935755  65.6274652  64.1370058
  19.5198917  64.7804832  64.2678213  19.6608651  66.0882044  63.5188389
  13.2596660  26.9086146  51.7686796  13.4116876  26.2075353  52.4024010
  12.4524462  27.3288226  52.0654202  71.9666503  25.0606494   9.1604726
  72.5293599  24.2954974   9.0415732  72.5749682  25.7844405   9.3098132
  19.5478577  25.4286151  30.6489388  19.7326464  24.5374589  30.9454553
  18.6317629  25.5744653  30.8850114  13.4323521  25.4321194  54.0060186
  12.6055165  24.9927998  54.2049742  13.7226601  25.7879329  54.8458719
  44.7639513  57.8816032  66.8558264  44.1571283  58.4713936  67.3031998
  44.2951202  57.6087379  66.0671711  48.6650276  51.9405985  65.0170088
  48.9113760  52.8436852  65.2169466  47.9422665  51.7514181  65.6153870
  36.6862296  74.4529769  28.9257066  36.2139588  75.2855346  28.9194886
  36.8293380  74.2518756  28.0008809  64.7652636  29.5019870  19.5089738
  64.2865472  30.1109414  20.0713269  64.6169232  28.6432414  19.9049298
  33.4509415  12.8308635  17.1375768  34.2284721  12.6418309  16.6122643
  33.2431692  12.0001798  17.5653951  66.3198888  66.8108579  17.1117703
  65.7279717  66.1317989  17.4354188  65.9963690  67.6196143  17.5086133
  14.4759983   7.2893529  16.8650071  13.9180559   7.3294454  17.6417462
  14.2625278   8.0837398  16.3755052  28.5523204  47.7981034  11.8538301
  28.8244953  47.3521843  12.6558988  27.6136274  47.6224181  11.7888562
  80.7120927  13.7009740  55.4932451  81.6427118  13.4958136  55.4033041
  80.4256330  13.9089251  54.6039057  21.3904023  39.8215032  54.9757814
  20.6540251  40.4315042  55.0191498  21.1198735  39.1647077  54.3341684
  10.0701255  24.4484477   6.9777839  10.6999296  24.4346528   7.6984708
   9.2246241  24.2842631   7.3954026   3.4706563  37.7631383   1.7930333
   2.9439539  38.3891921   2.2898976   4.0274209  38.3073144   1.2361543
  50.4182816  18.4452975  65.2831554  49.5180750  18.2466471  65.5408239
  50.9423590  18.2223809  66.0524988   2.2881438  15.7745755  51.0717154
   2.1793327  15.3908253  50.2015829   2.0459127  15.0722158  51.6752434
  54.0421867  40.2869177  58.5315847  54.8637486  40.5394888  58.9528656
  54.2661142  39.5130515  58.0146503  72.5030028  53.6054084   6.9629113
  71.9494855  54.2285237   7.4336354  72.6678693  52.9061243   7.5954072
  31.9596351  64.3264906  58.6223602  31.1098398  64.4777362  59.0361357
  32.5906146  64.7354285  59.2146969  17.4257858  46.7585698  14.9412171
  17.9589565  47.5487748  15.0280492  16.8168361  46.9574663  14.2299859
  29.9287844  33.3370709  24.9947143  29.0974665  33.5088110  25.4370379
  29.7434688  32.5983143  24.4149494  70.2056265  34.6978688  62.6079035
  70.3799820  35.4252744  63.2051563  70.5405331  34.9966097  61.7624331
  63.3938872  57.9797193  13.7894361  64.0136682  57.4743053  13.2634465
  63.4887134  58.8783166  13.4735791  17.9251409  20.1859260  53.5613728
  18.7408245  19.7265339  53.3617496  17.9466271  20.3108501  54.5101452
  24.3584156  32.3403454  60.2903748  25.2113056  32.7744031  60.3103971
  24.3240166  31.8420887  61.1069489  66.8517828  61.5551567  51.0856295
  66.0551262  61.6321087  51.6106510  67.3813438  62.3102427  51.3418341
  15.8944601   2.8399138  28.0679147  16.0514301   2.1155314  28.6736028
  15.1363796   3.2968192  28.4323041  36.4448208  43.4821515   3.7246530
  35.9812826  42.6446729   3.7245671  36.1562055  43.9155774   4.5278184
  22.8076625  34.3459511  62.5582361  22.2113514  33.6278534  62.3461533
  23.4771919  33.9454436  63.1128168  32.0412725  19.1979365  34.0961091
  32.6225895  18.5214858  34.4435422  32.5515980  19.6206336  33.4053628
   4.2735523  14.2126155  42.2292852   4.0188524  13.6539805  41.4949226
   5.0529349  14.6742690  41.9199753  13.0165237  13.7805848  30.1966970
  13.8541025  13.9660363  29.7720830  13.0725044  14.2265325  31.0418241
  21.8098444  13.3610635   4.9938123  22.4452728  14.0456920   4.7846620
  21.0067266  13.8365274   5.2063529  45.3113651  19.0141141  47.6220179
  44.7365808  19.7747827  47.7071190  44.9342299  18.3617151  48.2122564
  44.4127274   6.2099493  61.4882803  43.8809252   5.6795311  60.8949232
  43.8292313   6.4076865  62.2208548  33.3106208  15.8118522  39.9177074
  33.0467343  14.9403119  40.2126884  32.6511097  16.3994265  40.2865362
   7.6789005  73.6703417  11.4417808   7.0743806  73.9163944  12.1419541
   8.0143840  74.5036337  11.1111657  41.1714649  66.7835140  57.0203543
  41.9153118  67.2522783  57.3987389  41.4946890  66.4604330  56.1792946
  44.3575144  36.6756392  56.8939304  43.6991787  35.9915137  56.7722893
  45.1930237  36.2335157  56.7433310  13.3373649  56.2119660  19.7289483
  13.9016254  56.9019183  20.0779550  12.6543004  56.6808161  19.2495362
  67.3532486  37.0376110  58.6622095  67.3035765  36.5682316  59.4949436
  66.5250111  36.8388438  58.2254601  11.7380023  38.8909101  54.6576738
  11.1152005  39.5916438  54.4644785  12.5876248  39.2473221  54.3981647
  48.5328913  17.6596797  51.6398573  48.1594610  17.0011795  51.0540581
  49.4629240  17.4382639  51.6872406   8.7514180  12.5023894  21.2408177
   8.8409037  12.6231675  22.1861474   8.5903376  13.3826499  20.9010808
  72.7345823  16.2767034  28.7201516  72.5126480  16.5951734  29.5951097
  73.6911057  16.2996440  28.6923997  19.0896505   9.7066360  36.9867246
  18.7096971   8.9422183  36.5536801  18.3462709  10.2903705  37.1379678
  50.2700329  66.6057777  62.1118879  50.2652645  66.9636631  62.9996538
  49.8288727  65.7601023  62.1921921  47.5903082  36.4544296  59.9628115
  48.1998873  36.6119862  60.6837988  47.8693151  35.6172967  59.5918751
   0.6742436  53.9200735  42.0742607   0.8081210  53.1070137  41.5871859
   1.3357100  54.5187378  41.7274284  25.2727795  34.0269637  53.0807114
  25.5921650  33.3809209  53.7106752  24.3242574  34.0378642  53.2088566
  62.8877060  45.6637006  10.0274198  63.6118250  45.1685529  10.4104487
  62.2889714  45.8165936  10.7584254   3.4007353  28.4994941  33.9683358
   3.1492609  28.2958131  33.0675046   2.6752132  28.1713872  34.4995610
  32.4695754  24.1114283  55.9425497  31.8703127  24.4216681  55.2636766
  32.1491933  23.2368970  56.1634159  63.1951094  39.2704892  66.7538738
  63.2668018  38.9255571  65.8638668  62.6730967  40.0673771  66.6605759
  39.1922795  67.8718111  16.0016458  38.4812462  67.2333738  16.0569684
  39.3986260  68.0800530  16.9128434  38.6647796  74.9653789   5.0201814
  39.3091571  75.5132624   4.5720355  38.3931052  75.4851982   5.7766311
  51.6505146  28.9289713  55.9400749  52.0976686  28.9442945  56.7862701
  51.1694670  29.7559071  55.9083652  77.2500884  42.9362580  43.2130830
  78.1470763  43.1998885  43.0077855  77.3044430  41.9909614  43.3534162
  71.0447823  71.9649717  28.0509583  70.8231961  71.8071243  27.1332376
  70.3442752  72.5326678  28.3722703  16.6724533  10.1727300   8.6160008
  17.4261898   9.7352796   8.2200877  16.4947885  10.9143119   8.0374496
  80.1807200  76.6695878  16.4512174  79.6411645  75.8796069  16.4189260
  79.7947108  77.1947905  17.1522061  36.3523221  29.7053385  64.8046303
  37.1914029  29.9675369  64.4259119  36.0714817  28.9609575  64.2724085
  39.1906905  32.4401832  62.9231167  38.4349775  32.9234886  63.2570982
  39.9382067  32.8100586  63.3928442  27.8110641  23.1934123   9.3973128
  27.6778120  22.9909663  10.3233211  26.9849390  22.9524379   8.9781730
  50.4741227  50.9149727   3.0024116  50.1955330  51.8167719   2.8431146
  49.6763050  50.4627141   3.2766072  38.8477063  37.3085475  59.7970772
  39.1368461  38.2119036  59.9258280  38.1122732  37.3769283  59.1882324
  65.5608319  12.1774631  23.7421910  64.6470778  12.2890525  24.0045564
  65.9469949  11.6468196  24.4389932  23.4283441  16.6346126  15.0350587
  22.8334278  16.1564450  15.6126992  23.8983053  17.2320895  15.6167714
  76.1253595  34.5000935  56.8225193  75.8827019  33.6010504  57.0440388
  76.6690493  34.7889471  57.5554562  14.0275669  52.7948999  62.9297400
  14.4683719  52.1717119  63.5072899  13.2019770  52.3675203  62.7017546
  67.3236011   7.4268012  25.7043283  67.1018694   7.4136691  26.6354005
  68.2019947   7.8058152  25.6726281  69.0423381   9.0505608  57.0589876
  68.6829411   9.1169842  56.1743116  69.9895894   9.0031632  56.9297600
  75.2068173  55.9954402  27.3578755  74.5087802  55.8549747  27.9976003
  75.9361207  55.4650125  27.6788156  12.6813215   7.2299485   6.3594930
  12.6036066   7.4200158   5.4245774  13.6244530   7.1987443   6.5199725
  24.3704409  18.8959556  57.1232812  24.1619867  18.8705783  56.1894052
  23.5698837  18.5984902  57.5555532  27.9055500  73.7557364  65.8564234
  27.9607487  74.4900036  65.2448368  28.7844062  73.6883068  66.2296486
   7.5789160  15.4527144   2.9316918   8.0449003  14.7820191   2.4324290
   7.8561729  15.3131442   3.8371627  15.9389156  26.6828733  27.2857587
  15.4835934  27.2329335  27.9232232  15.2376646  26.2545686  26.7948072
  52.1796529  14.3868690   8.4581058  52.3148623  15.0378232   7.7694766
  53.0126129  14.3597322   8.9289300  39.1769981  70.5219886  14.7122113
  39.0898954  69.5688555  14.7257821  39.4871079  70.7216093  13.8289182
  53.2617509  66.9614002  19.1958634  52.4821674  67.4712536  19.4161622
  53.3618390  67.0732519  18.2505052   6.7196567  66.3715789   9.3255822
   6.2360961  66.5647337  10.1287572   7.0803077  67.2157094   9.0542666
  47.0449149  42.0406207   3.2632463  47.1712696  42.9270384   2.9248254
  47.8070699  41.5536782   2.9498164  49.3839251  63.3041498  26.3490979
  49.3305980  63.5567591  25.4273717  48.8730251  63.9697143  26.8097894
  54.0739857  61.3409421  33.3286874  54.6909582  61.8432400  32.7964513
  54.6231472  60.7281420  33.8177030  75.0158822  65.2435872  26.3119905
  75.7616793  65.2875325  26.9104020  74.3207728  64.8319527  26.8254201
  44.4556999   8.4109646  50.9250402  44.0626764   7.5394356  50.8781385
  43.9470196   8.9366394  50.3076744  54.6302854  49.8346493   7.7685658
  55.0134408  50.5441424   8.2843558  53.9888226  50.2675018   7.2051875
  57.6446282  54.1003272  16.6358773  57.1081745  54.1065666  17.4286000
  58.5010659  54.4163546  16.9237535   1.3697869  61.5052816  10.4927651
   0.6246335  61.9610497  10.8842389   1.8957002  62.2009775  10.0982253
  67.0633124  45.7119374  18.0280034  67.2921930  45.2042489  18.8065354
  66.8597327  45.0533395  17.3639028  21.7542803  66.8757865   6.6906325
  21.4712035  67.7781865   6.5430753  21.2486123  66.5873524   7.4504582
  38.9582168  67.3910662  25.4531018  38.7870001  67.9447743  24.6913163
  39.8915278  67.1864816  25.3955857   4.6488449  25.9800982  35.0756264
   4.3117261  26.8667126  35.2040744   5.4494315  25.9500408  35.5994487
  23.4382624  24.9177747   1.8747680  23.4981245  24.2527823   2.5606458
  22.8165287  24.5555167   1.2435452  13.6977333  24.9250274   7.1504991
  13.4937567  25.6651073   6.5787427  14.4707340  25.2063994   7.6399152
  11.1680335  43.9004426   4.0027444  10.4453915  43.3739953   3.6608665
  11.3860959  44.5000081   3.2891671   8.0778045  37.4647384  18.0391900
   8.7920350  37.3513131  18.6662786   7.3245067  37.0462279  18.4558694
  76.9962238   0.7086997  15.2902619  76.8742059   1.4973693  15.8187882
  77.3741506   0.0707893  15.8956258  42.6867908   3.4418969  53.8700501
  43.0758566   3.6147170  53.0127351  42.8480190   2.5108438  54.0229527
   5.1794285  23.1331306  19.8301999   5.2089876  22.3354392  20.3584497
   4.3330568  23.5280137  20.0398557  45.3198719  42.5510120  55.9550571
  44.6965647  43.2774496  55.9522343  45.9877205  42.8109169  56.5896082
  69.3432288  47.2392702  59.1858816  69.0777533  46.5478373  58.5795164
  69.5590155  46.7774725  59.9960756  31.3854367  59.7993228  38.6619012
  32.0568330  60.2933308  39.1324346  31.7211778  58.9033028  38.6363141
  48.7765408  47.2706270  62.8147697  48.2229710  47.6862764  63.4758520
  49.6710634  47.4437237  63.1081915  48.2812500  38.0804968  58.0443144
  47.9997921  37.4467802  58.7041712  47.4692488  38.3690190  57.6276112
  15.9624314  29.7869349  62.1677113  15.7860374  29.1406107  62.8513622
  16.5267360  30.4344893  62.5901604  16.8692112  25.3336787  34.5305085
  17.4087656  24.7262383  35.0365996  16.1081624  24.8160672  34.2676091
  67.0082509  51.8064842   1.5432708  67.5303351  51.7062721   2.3392694
  66.6102063  50.9465358   1.4080636  81.2521731  73.1404421   8.3114879
  81.4275014  73.2879850   9.2408530  81.2227809  74.0182730   7.9309861
  76.6265856  47.4587688  46.0189740  76.7518698  48.2434198  45.4852597
  76.8931281  46.7368439  45.4497544  17.1673829  71.3720366  56.8173997
  16.2148483  71.2831470  56.8491189  17.3310287  72.2837159  57.0588319
   4.9510200  65.5563089   4.0623252   5.7839639  65.8986470   3.7379233
   4.7713048  66.0700342   4.8497407  31.6755509  26.7954707  56.8965292
  31.9621062  25.9174466  57.1479082  32.3240876  27.0844388  56.2545538
   7.8872526  75.9265332  53.3078289   7.8197778  76.7898913  52.9000425
   8.7794674  75.8937303  53.6529541  59.4078647  64.9220368   2.4620740
  59.4242346  64.1440985   3.0195443  60.1928007  65.4107019   2.7096955
  79.3574796  14.8121512  35.2468133  80.1945215  14.4150221  35.4873991
  79.5270686  15.7541323  35.2587581  25.0725359  26.4561753  19.3898408
  26.0049147  26.2922006  19.2483918  24.6716875  26.3149219  18.5321729
  69.0076672  43.7794015  48.5607736  69.7068869  43.5747299  47.9399411
  69.4588649  43.9121142  49.3944661   1.5035600  16.5060144  18.2343404
   1.5090102  15.5559926  18.1174867   1.1738843  16.6360765  19.1235082
  66.1806594  27.3555474  26.6079537  66.3003395  26.4876466  26.2223832
  66.2692593  27.9594808  25.8706300  22.6114649  10.7007747  19.0642468
  22.0488829  11.4727263  19.0024297  23.4846634  11.0538201  19.2348878
  60.5292927  76.6858432  55.6261937  61.4208161  76.8993470  55.3508203
  60.5550729  75.7477805  55.8148973  21.3722348  31.5861702  63.7065840
  21.5702820  31.2076211  62.8500128  22.2248363  31.8427253  64.0579844
  11.2071198  70.5188375  12.2542922  10.7554597  70.2770524  11.4457290
  10.8390850  71.3708119  12.4886481  74.1522191  26.5919786  44.6859376
  75.0869249  26.4219289  44.5691506  73.7255238  26.0512404  44.0212838
   9.9307150  12.4629121  31.7655961  10.4416722  11.6663175  31.9090764
  10.5772847  13.1182008  31.5033452   2.3238761  72.2843501  62.3750035
   1.4390094  72.5328109  62.6424233   2.2586686  72.1464893  61.4300267
  80.6493473  67.5084972  56.7961788  81.3298130  66.9382191  56.4384222
  80.4793549  68.1439161  56.1007833   1.7643875  24.2805152  30.1776998
   2.4649710  24.9001651  30.3813092   2.1014947  23.4335046  30.4695241
  11.9111031   2.1343141  29.0800111  11.3828677   2.6280408  29.7072522
  12.6344031   1.7836051  29.5996968   2.2629637   8.1020408   9.4831721
   2.9582828   7.4955802   9.2282884   2.4371070   8.2923226  10.4049651
  33.8191694  16.8026118  35.1885430  34.3813318  16.9895177  35.9403913
  34.4250912  16.5383773  34.4962518  46.3960683  65.9488675  14.0829770
  45.5342423  65.7675621  14.4579713  46.2545311  65.9286186  13.1365220
  29.5476627  64.6894360  60.0188303  28.6757421  64.3769884  59.7772551
  29.3851876  65.3784561  60.6631041  19.0323585   0.3480010  12.1212403
  19.8185772   0.8448749  11.8949477  19.1147846   0.1840239  13.0606858
  29.2853016  44.8278241  19.7663991  28.7694878  45.5735974  20.0729863
  30.0358671  45.2221780  19.3221299  23.4677214   7.1701007  13.9149873
  23.0676931   6.3297277  13.6914174  24.0240616   6.9773059  14.6696775
  65.0273000  14.7454410   6.3752095  65.2824019  15.4100614   5.7353417
  64.3631802  14.2227416   5.9258096  24.1692090  42.2163916  63.0759716
  23.8242149  41.6560411  62.3808336  23.3969188  42.4810219  63.5757446
  30.4108423  11.2459378   4.5203607  29.8137564  10.7441430   3.9654510
  30.0202745  11.2023740   5.3931634  56.9017755  63.1950042  26.7304437
  56.5005242  62.8135440  27.5112836  56.5238463  62.7023527  26.0019509
  76.8405329   9.2397412  63.4500027  76.7158639   9.1692456  64.3964243
  77.0974766  10.1510437  63.3094883  59.6992540  28.9725924  60.2378893
  59.2843676  28.5245609  60.9750271  59.9046803  28.2732558  59.6174383
  68.6485945  76.9396850  27.8091924  68.8171422  77.6129171  27.1499650
  69.1661298  76.1876818  27.5213067   3.4391087  40.8865933   8.2847230
   2.8305167  41.5808396   8.0319945   3.7948030  41.1742597   9.1255347
  24.3614429   2.5067811  24.7783868  23.5362333   2.9549460  24.9638764
  24.6085304   2.8115611  23.9052884   2.0538621  52.9941940  60.0729322
   2.8357527  52.4538231  60.1864195   1.9075647  53.3874559  60.9332657
  34.0367407  31.2421756  21.8320481  33.3948320  31.9321494  21.9997422
  34.1552299  30.8140616  22.6799409  33.8194616  61.1991522  28.3909814
  33.1843431  61.7192861  28.8832395  34.6715982  61.5028474  28.7037961
  19.0427917  22.0045810   4.1359250  19.8918194  22.4336724   4.2420737
  18.7544721  22.2577148   3.2589833  60.3491640  46.7087507  65.0586271
  60.0148964  46.7764091  65.9530067  60.7619286  45.8459044  65.0218344
  33.1000990   4.1977458   7.3062293  33.4086222   4.6824985   6.5406816
  33.8755363   3.7368207   7.6263492  15.6132276  68.3457920  38.1078069
  16.1532552  68.2023475  38.8850038  15.7198198  69.2763516  37.9105107
  19.1369671  31.8040662  16.5324132  19.7737783  31.1783462  16.1871926
  18.6583895  31.3143640  17.2012918   6.5383190  67.2771649  18.2777040
   6.8914312  67.9477220  17.6929872   5.6073278  67.2350507  18.0592744
  27.6385206  12.5998025  27.6908700  27.9390758  11.7911105  28.1055085
  28.4425348  13.0444722  27.4224202  53.0782318  38.3074570  63.2255650
  53.5282755  37.8578472  63.9407921  52.2175312  38.5250950  63.5834169
  40.8433908  30.1879649   9.0656678  39.9569267  29.8825984   9.2584531
  40.7657284  30.6306462   8.2205407  76.8114875  30.5909972   7.3462359
  76.4299868  29.7431855   7.1184032  77.7535437  30.4692225   7.2281901
  49.3572325  17.7701335  13.9137570  49.9637455  18.4999709  14.0390985
  49.0906567  17.8350263  12.9967181  24.7838682  33.4300809  26.6149537
  24.5742172  34.3307118  26.3676850  24.1026443  33.1893258  27.2428052
  39.5410437   0.9682088  39.5514791  38.6678165   0.5925612  39.4392602
  39.8258537   0.6595044  40.4115979  18.6218685  53.2265954  33.4424703
  17.8159470  53.0927091  33.9412610  18.6580223  54.1716580  33.2949178
  63.2614557  19.2929797   3.1916825  63.3266358  20.1215463   3.6665074
  64.1493057  19.1284614   2.8740518  25.7922024  18.5674100  21.9891660
  25.5539888  18.8697200  21.1127584  25.9876388  19.3691497  22.4741857
   5.9126419  16.3712697  29.7416131   5.9917706  16.8888621  30.5428998
   6.2044114  15.4949002  29.9927728   4.5778459  19.3451982  15.9861962
   4.0646285  18.5372500  15.9783856   5.3102130  19.1694598  15.3954427
  18.1899078   1.5143831  45.0469780  18.7330873   2.3021324  45.0216913
  17.2961480   1.8358095  44.9281883  72.2936569  20.4661994  11.6191213
  71.5248774  20.7533174  12.1118419  72.3672412  21.0957055  10.9018104
  59.1950573  16.3647132  35.9974877  58.5620154  17.0780759  35.9162347
  58.9050241  15.7132297  35.3589837  20.6164163   6.2125068  23.2715909
  19.9489111   6.6120963  23.8292615  20.4151291   6.5307050  22.3915498
  10.2942222   5.2704434  10.1018779   9.4115132   4.9206452  10.2231185
  10.5517453   5.5773120  10.9712140   8.0234975  16.4665370   7.9156224
   7.7140874  15.6891875   8.3806197   7.2907132  17.0806556   7.9616277
  36.8479454  58.2790729   5.6023376  36.3503527  57.5704953   5.1942317
  36.5948527  58.2489607   6.5249793  69.5686817  50.5971956  59.4472694
  70.5173588  50.4895687  59.3789816  69.4538498  51.3356447  60.0453806
  41.7048979  28.3643436  60.1603317  41.9931173  29.0792608  59.5928335
  42.0919323  27.5795865  59.7722721  14.1603321  13.0670218  33.9606778
  13.3522695  13.1256156  33.4509389  14.1811031  12.1626430  34.2735593
  17.9678071  44.5246840  45.8389759  18.5655034  45.2434015  45.6329727
  18.3434224  44.1170025  46.6193199  24.3172687  13.9431720  21.6002481
  24.3778366  13.3543735  22.3524968  23.7639326  14.6629815  21.9034402
  66.6753947  64.4425771  20.9265534  67.4877011  64.8519346  20.6285398
  66.6094457  63.6384484  20.4115216  31.8000168  21.1552577  13.5322873
  30.9810299  20.8313088  13.1573884  32.1502632  21.7475467  12.8668944
  27.6762718  33.8461309   4.0819900  27.9106993  33.2982831   3.3329026
  26.8221897  34.2125278   3.8527982  68.3891438  17.0358043  47.7588098
  69.2369758  17.4797540  47.7767007  68.2884859  16.6761069  48.6401288
  19.5467848  17.9874425   6.9850366  19.5789760  17.2101598   7.5427358
  20.2563137  18.5431533   7.3075072  49.7150278  41.6298103  44.8797560
  49.8619986  41.9986820  44.0087986  48.7987089  41.3531923  44.8712063
  27.4239916   2.2849374   0.8247535  27.3986048   1.3560538   1.0544650
  27.7620930   2.7165465   1.6093795   9.2330212  36.5798955  22.3757665
   8.9249224  36.0034041  23.0750196   9.3318886  37.4342876  22.7958505
  13.1609148  28.3290296   8.7642018  12.5095338  28.0547099   8.1186931
  13.4741444  29.1748910   8.4438245   6.4105053  67.2234821  53.5515738
   6.6318436  68.0961704  53.2265377   6.3009758  67.3400545  54.4953156
  20.3492111  29.1339736  40.6704156  21.0476774  28.5817819  41.0217778
  20.4238504  29.0393357  39.7208325  64.7016954  55.3197956  65.5733442
  65.2225256  55.8421183  66.1833858  64.3600655  55.9557009  64.9447393
  72.7580939   3.4589152  41.6476743  71.8233262   3.2594590  41.5961282
  73.0497394   3.4770780  40.7361714  33.4868097  46.0567284  60.5747557
  33.3822036  46.0689640  61.5261412  33.9125848  46.8891811  60.3698874
  48.4858459  19.1369538   7.6150481  47.9477209  18.5459619   7.0883815
  49.1939157  18.5847144   7.9465644  51.7828226  34.3618488  66.5114450
  51.3220263  35.1612473  66.2567759  51.6194773  33.7517571  65.7921839
  53.1190120  76.4217946   8.7773292  52.4697983  76.3181803   9.4730441
  53.5960900  77.2178885   9.0115516   8.8331360  13.0945783   8.8558785
   7.9933614  13.4330754   8.5453479   8.8670463  12.1972709   8.5243337
  60.0787830  59.3975687  56.2475538  59.5743036  58.5842657  56.2311649
  59.4772387  60.0451803  56.6149426   6.5537936  72.0616576  29.8665635
   6.0046107  72.3137256  30.6089227   7.4157817  71.9003269  30.2501981
  33.6675257  24.0428500  24.6919362  33.5318703  24.6400933  23.9563195
  33.6403173  23.1700139  24.2999570  31.1833042  21.6166739   6.3933484
  31.3071913  22.2215991   7.1247499  31.6395420  20.8192782   6.6621272
  40.4658222  69.9867249  65.0802279  40.6038475  70.7098103  65.6920481
  39.5538044  69.7294283  65.2153444   8.9776027  50.5906534  38.9801383
   9.5297885  50.6659317  38.2018995   8.3842146  49.8657465  38.7835789
   9.8684114   3.5157065  17.2594659  10.3323811   4.2233186  17.7069489
   9.3811482   3.0721335  17.9537599  67.5399685  63.3653593  45.9260607
  67.0128536  64.1197157  45.6627560  67.8752947  63.5979748  46.7919016
   7.2150511   4.4157271  15.8414952   7.0511311   4.6227365  16.7615621
   7.2854918   3.4613757  15.8195893  72.8950488  54.0967271  25.8270185
  72.1309077  53.6197683  25.5032460  72.5321089  54.8859534  26.2290494
  43.9278126  61.3832951  60.6876421  43.0269051  61.0599804  60.6791019
  44.4541597  60.6330252  60.4114437  47.4519026  53.1998286  12.4309175
  46.8276846  53.7949726  12.8461139  47.8644358  53.7254533  11.7455260
  20.0695127  21.4238935  27.0343129  20.5126280  21.2378984  26.2064950
  19.9619907  22.3750167  27.0400064  16.5979874  24.7657895  42.3084831
  16.9091880  25.3805280  42.9729223  17.0482790  23.9458013  42.5111866
  56.8836009  74.5468685  40.9029405  57.2480022  73.7122366  40.6082646
  56.7865812  75.0619695  40.1020066   7.7963013  28.2574277  12.9559724
   8.6150879  27.7624850  12.9267470   7.1480745  27.6713328  12.5654284
  49.7273731  36.8875337  61.9221878  50.4088163  36.5173078  61.3611221
  50.0078726  37.7896595  62.0762110  45.7183647  50.8093357  35.2640867
  46.2961817  50.0918865  35.5241466  45.2998209  50.5005264  34.4605398
  16.2857384  20.6689220  18.9911382  17.1903509  20.9720759  19.0686147
  16.1854309  20.0313287  19.6979920  13.1214661  11.6336303  27.4665753
  13.7916464  11.0372357  27.1327989  13.1653971  11.5351205  28.4176747
   1.6178233  61.0598823  20.9101121   0.8739621  61.6112134  21.1528794
   2.3840863  61.5389726  21.2256352  64.4871222  74.2998072  18.6939923
  64.1224872  75.0834104  18.2826058  65.4167234  74.4986150  18.8060109
   2.4709422  67.1888682  11.3322227   2.6941974  66.8827340  12.2112386
   2.1963412  66.3991925  10.8661334  28.5649771  43.1517510  24.4031446
  29.2270845  43.8429170  24.3912141  28.1473869  43.2052426  23.5435025
  50.6379312   1.1627107  17.9663102  50.6697983   0.2593069  18.2810895
  49.9468321   1.5731959  18.4860436  14.6736187  19.3187003  41.1832349
  14.9310488  18.5154252  41.6356866  14.5140118  19.0443139  40.2802007
  11.8736166   1.7124848  12.9924123  11.4805001   2.4094491  13.5176961
  11.6140551   0.9040599  13.4343450  44.1873306  22.1627622  21.6257493
  44.8515123  21.5224414  21.3706414  44.4693655  22.4701028  22.4872796
  70.0539468  28.1372933  21.4190499  70.9077059  28.2305627  20.9964101
  69.9460326  27.1933131  21.5351884  79.0806376   5.9406861  54.2978239
  80.0247323   5.9216889  54.4545174  78.9631020   5.4514511  53.4835386
  31.2199301  15.0359206   2.0950429  31.9540113  15.1684766   1.4952247
  30.4854244  15.4861026   1.6778295  22.6438993  32.5640683  27.7618138
  22.8225511  31.8633132  28.3889119  22.4991220  33.3395152  28.3039872
  79.0369832  58.9613005  14.5940320  78.5864245  58.5623547  15.3383939
  79.6047627  59.6250984  14.9854772  79.6293831  61.4171600  64.1638517
  78.8894749  61.6200304  64.7362232  79.5756340  60.4710102  64.0291739
   4.0484709   1.0412531  22.8336255   3.4023303   0.5925922  23.3790032
   4.8661393   0.9740524  23.3267037  39.0922970  33.2958131  18.5829083
  39.8565000  33.5924773  19.0770928  39.2573065  32.3668675  18.4214799
  34.8321670   7.8207545  25.4140679  35.2922815   7.5717740  26.2156503
  33.9524359   7.4588780  25.5206315  42.1275801   3.8423734   6.3442485
  42.7364963   4.4026856   5.8631007  41.6697306   3.3473687   5.6648509
  46.3584530   6.2616833  63.9336967  46.3450145   5.6178578  63.2254982
  47.2865736   6.4579399  64.0613842  39.6209145  18.6272061  54.8670340
  40.0103092  19.4906890  55.0048780  39.6172071  18.2247317  55.7354975
  15.8519977  27.7947812  18.0224721  16.1264557  26.8999820  17.8218667
  16.6666597  28.2970481  18.0395333  20.4941458  29.5296531  58.8246171
  19.8099607  30.1541524  59.0656964  20.0464720  28.8824325  58.2797067
  69.7485482  76.6277692  19.3516080  69.2692076  76.6002747  20.1796834
  69.9762665  75.7147381  19.1762464  54.8038483  25.5330467  64.3789482
  55.4400587  24.8223019  64.2995310  54.0445089  25.2316356  63.8801622
  37.6378781  75.1835176  13.2663171  37.5360543  74.5740029  13.9973180
  36.8333394  75.7020733  13.2729928  55.8039856  59.2492247  62.8735161
  56.0914230  60.1621056  62.8893995  54.9346590  59.2648411  63.2738400
  10.8598298   6.1575656  12.6061170  11.6273159   6.7203622  12.5038402
  10.1147169   6.7554431  12.5462691   3.1048352  76.1329743   1.0698382
   3.1860597  75.3751537   0.4907529   3.8619239  76.6788551   0.8575694
  19.2168850  26.3218312   3.0211703  19.5363182  26.8946080   3.7183921
  19.9633020  25.7604461   2.8115575   9.2297214  15.9476333   0.5871932
   8.6964005  15.4123597  -0.0004132   8.6076182  16.5531354   0.9904115
  36.9071792  34.7431521   5.0855701  36.4738439  34.4084458   4.3004434
  36.5630732  35.6303172   5.1892917  18.1723493  18.0850892  17.7499120
  17.6839012  18.3723979  18.5213391  17.6078218  18.3117299  17.0108716
  12.8406328  37.4653821  20.0305478  13.2447380  37.1515565  20.8395307
  13.2607693  36.9541030  19.3389527  77.6000977  63.2241201  62.2510147
  77.8756905  63.5119629  61.3807154  77.7082586  63.9975452  62.8044987
  26.3747501  39.2453003  65.2273321  26.9279337  38.4938884  65.4408741
  25.8295941  38.9426732  64.5010710  75.2353571  35.9031491  20.2400510
  74.7666071  35.6273274  21.0277192  75.8191489  36.5997462  20.5403344
  41.7998546   8.9278464  27.9825036  41.9014543   9.0485292  28.9266221
  42.6451010   8.5847240  27.6925771  73.1556295  42.1245866  25.2528016
  72.6594256  41.4316278  25.6884973  72.4898492  42.6637368  24.8258607
  47.3441452  42.8733926  18.8060109  47.2559828  42.0162110  18.3892362
  46.7986101  42.8155713  19.5904080   9.1487497  41.3380151  27.5316159
   8.4825534  41.9529061  27.8387372   9.8477811  41.8942456  27.1878163
  46.8836403  65.6728792  60.7772446  47.5832748  65.2118587  60.3144169
  46.1678839  65.0389147  60.8221102  66.4271795  61.5693852  30.4952256
  66.0579931  61.1380669  29.7245805  67.1851050  62.0491311  30.1611249
  58.3409739  40.3410339  58.3650684  59.1218805  40.7000542  57.9437351
  58.2586622  40.8372355  59.1794634  63.2756221  74.1518089  28.2987802
  63.9001857  74.0074107  29.0096299  62.5737011  74.6661875  28.6974732
  16.2387747  10.5303054  39.4082658  16.1015648   9.6109920  39.1796605
  16.4744276  10.5138497  40.3358571  31.9192447  62.7646348   4.5522658
  30.9849908  62.8619429   4.7364728  31.9844591  61.9371483   4.0755622
  27.8657206  61.3680693   7.2183148  27.2265493  62.0035502   6.8960444
  27.4179292  60.9212038   7.9366653  30.3778213  11.5567832   0.7667510
  31.2233919  11.8423610   0.4207818  30.5920690  11.1151652   1.5885179
  14.9537701  36.7277770  27.1920125  15.1729292  37.2651200  26.4307897
  15.7873911  36.6041331  27.6459043  17.4016184  13.8927178  16.4631574
  17.6753944  14.6037297  17.0425908  18.2166904  13.5689883  16.0796277
  80.0022160   3.5022648  46.7061377  79.1339909   3.1483181  46.8988466
  80.0844084   4.2621239  47.2824144  71.0993624  38.3590126  66.5954971
  71.0339165  38.0041838  65.7089090  71.2867785  37.5978899  67.1448660
  21.9845718  20.7218223  45.6635968  21.6354507  19.9618583  46.1292188
  22.9102320  20.7467704  45.9060018  44.3353421  57.8900978   1.0590522
  45.0721509  58.1065163   1.6304652  44.6294362  58.1412980   0.1834743
  17.5387186   3.3564286   9.3875281  16.9477171   2.6500897   9.6483581
  17.8153652   3.7543397  10.2129762  19.5029759  70.1737118  50.7540894
  19.4701421  69.2846298  51.1072111  19.7008038  70.0552845  49.8250723
  67.5752388   9.1298442   8.1901328  67.1807633   9.5891242   7.4487273
  67.4319659   8.2024961   8.0011193  44.3570465   4.8802047   8.6172549
  43.5871071   5.4289870   8.4680573  44.8391241   4.9141603   7.7910058
  47.4889068  28.1191354  17.9436700  47.6674174  27.5001817  18.6516683
  48.3094262  28.1647544  17.4528520  48.3200788  50.3963995  38.2770014
  49.2238855  50.5545282  38.0043173  48.1912708  50.9766388  39.0273094
  59.7109210  64.5573338  59.8502827  59.8005950  63.9793690  59.0925550
  60.6085765  64.8095234  60.0667238  44.0848405  74.2858526   4.9564712
  43.1298501  74.3507144   4.9527995  44.3866975  75.1924798   4.9004237
  43.5166454   2.4735391  61.7037392  44.4570494   2.2981492  61.7370367
  43.1101894   1.6558823  61.9909048  26.7493875   6.7710312  43.4553480
  26.1651666   7.0479973  44.1611814  26.8992288   5.8400543  43.6198759
  65.1410376  16.3615708   4.0870206  65.4318093  15.6878619   3.4723632
  65.6165336  17.1489005   3.8219850  16.7772335  27.6108174   2.3071591
  16.2636322  27.2672372   3.0381839  17.6690954  27.3080258   2.4778287
  28.3966917  20.4723411   8.6426990  28.3768791  20.4858785   7.6858012
  28.5102219  21.3892608   8.8929097   5.5124684  30.2422142  61.1191845
   6.3275929  30.1040196  60.6368017   4.8928853  30.5521941  60.4586840
  25.1774877  37.8768830  36.0342519  24.2798704  37.8257899  35.7057588
  25.3217071  37.0363097  36.4688317  76.5310526  68.6444378  50.2283287
  76.6879797  67.7873325  49.8321247  75.9723377  68.4605503  50.9834814
  46.2013573  39.0914016   3.8660399  46.6708130  39.9206834   3.9562623
  46.1074346  38.7705331   4.7629563  31.2092489  25.9225898  14.5263879
  30.8207935  25.4548984  13.7870614  30.7654756  25.5653863  15.2956121
  68.1002223  74.9933597  61.5142171  67.7482020  74.1052887  61.5745465
  68.7085091  74.9602434  60.7758920  39.6609301   7.4102597  24.9215714
  39.4299120   6.5440898  25.2571504  40.4420751   7.2602992  24.3890683
  65.5646276  69.9861622  52.3359680  66.0307550  69.7571707  51.5319061
  64.7396755  69.5038986  52.2802019  27.1077394  65.9978819  54.3786383
  27.0659375  66.7686129  54.9447298  27.7428341  66.2319756  53.7018204
  52.4934578  66.8019533  60.5448389  52.1298409  66.6616726  59.6705723
  51.7280722  66.9349384  61.1040640  26.6351265  21.8458133  55.3005616
  26.2674898  22.2695403  54.5249764  26.9049496  22.5707870  55.8643357
  28.3931345  15.4432302  12.1017234  28.8164085  16.1581616  11.6263835
  27.4560255  15.6092362  11.9992463   8.8549668   6.2862404  66.5687370
   9.2476041   5.5572422  67.0489836   8.4761626   6.8441971  67.2480154
  37.1586710  19.1992797   9.2418989  37.7221041  19.5976676   9.9052652
  37.3308020  18.2604422   9.3139204   9.5109505  71.3286309  16.4559190
   9.9215287  72.0676427  16.0070054   9.2444056  71.6820436  17.3046128
  79.5175670  63.0602651  34.4142167  79.5447658  62.2144704  33.9668481
  80.0729464  62.9416280  35.1847379  21.0179657   4.7951560  18.9639966
  20.7928270   5.7144122  19.1072099  20.1758856   4.3400483  18.9606015
  46.5031659   1.4384135  48.5619402  47.4436104   1.2901648  48.6610174
  46.1735820   0.6307419  48.1678915  20.9879202  16.9438558  20.8488290
  21.8240065  16.7770724  21.2839906  20.8916468  16.2202745  20.2296369
  48.5348654  48.7578201  34.1615033  48.4221840  49.7047853  34.0791178
  48.0406952  48.5253096  34.9476123  28.8241810  18.8535504  47.3282258
  29.0177053  19.7224336  47.6801030  27.9051060  18.7044673  47.5502889
  75.3383015  44.7473722   5.2174394  75.5240248  44.1261773   4.5132701
  75.9722255  44.5308881   5.9011857  13.3576638  30.2908428  64.0081120
  13.8361699  29.4707115  64.1291332  12.4677236  30.0181874  63.7847376
  30.2869982  59.4899468  29.4278543  30.6696838  58.9598565  30.1269834
  29.3761867  59.1997438  29.3784539  70.9857880   5.0906285  56.0339403
  70.4640519   5.6115349  55.4234648  71.7943179   4.9020298  55.5575514
  75.5101488  38.4353261  16.1970632  74.9310182  38.7430339  15.4998223
  74.9328540  37.9628949  16.7968766  34.0030712  31.1028724  18.8052194
  34.1722244  30.9980445  19.7415082  34.4919104  30.3909783  18.3923356
   1.5231222  49.8097425  33.3398644   2.0408839  50.0717835  32.5786225
   1.3931483  48.8679795  33.2284467  73.3300530  40.2587318  27.5635354
  73.6984765  39.6911749  28.2405774  73.5370528  39.8155526  26.7407529
  40.5221218  19.9506145  37.2701184  39.8724407  20.6221824  37.4778382
  40.2236170  19.1740518  37.7434842  22.3665041   6.8101983   6.1228101
  22.9443210   6.9795470   6.8669097  21.9327825   7.6479774   5.9608333
  57.1686930  21.3353448   1.9882409  57.6107401  21.9340949   2.5901715
  56.2454599  21.3849168   2.2360627  24.5798976  43.1977785   7.3591487
  24.9504573  42.7744439   8.1335561  24.5692832  44.1296574   7.5775973
  55.3225481  67.8226086  27.0678918  55.2537834  67.9653355  28.0118863
  54.9683010  66.9438025  26.9320981  44.4362688  59.5980740  63.2523966
  44.4249201  58.7401581  63.6767530  43.9988375  60.1789761  63.8748407
   6.5926236  19.3558459  34.0996568   6.1131257  19.8365741  34.7743527
   7.2200340  19.9905067  33.7535398  27.9012067  70.9578392  24.6777932
  27.1197660  71.1570951  25.1934258  27.6212747  71.0626242  23.7684552
  57.9031836  55.7498810   9.7542874  57.8855001  55.5289420  10.6854741
  58.6366688  55.2455291   9.4023482  80.5194969   2.9542249  63.6806297
  80.1876893   3.3976084  64.4613647  80.9123869   2.1469021  64.0124416
  45.1662648  49.1465871  30.7996821  44.3791450  48.8138215  30.3684783
  45.8904136  48.7464277  30.3183126  78.4950830  29.3033910  38.0029845
  78.1582121  29.2965269  37.1070480  78.7175362  28.3898163  38.1822300
  27.2478779  27.6289305   2.8377692  26.9090228  27.8940400   1.9827144
  27.1703034  28.4139046   3.3800141  32.1142316  22.2890878  48.6580610
  32.8571844  21.8871117  48.2078743  32.0885181  21.8562198  49.5114040
  61.5525424  31.2878618   0.2660291  61.9297158  30.5327859   0.7175080
  62.0989930  31.3992903  -0.5119212  23.0264688  10.3027737  57.9009104
  23.7608194  10.8785450  58.1140947  22.2995162  10.8986843  57.7201748
  66.9102418  10.8339974  12.6325671  66.1106621  11.2208578  12.9892795
  66.6023599  10.2182981  11.9674699  38.5265898   6.4438912   1.4555804
  38.4269118   5.6847903   0.8810727  38.1286883   7.1660849   0.9694306
  16.1817074  20.3650570  43.5213327  15.5150974  19.8857379  43.0292797
  15.6958163  21.0544443  43.9739752  79.2366402  60.0757579  33.9384317
  78.8604229  59.8116783  33.0988145  78.4819286  60.1727573  34.5191479
  25.0913644   5.8739835  63.0641079  25.3539395   6.3025367  62.2494745
  25.6960464   5.1372957  63.1528902  31.1882135  39.9972221   8.2382075
  30.9287723  39.4075224   7.5302665  30.9454691  40.8686063   7.9251592
  51.9407498  19.0822729  16.0112874  52.8844392  19.0556881  15.8532540
  51.5999281  19.6611795  15.3294293  54.2987823   2.2838664  39.3697429
  54.9509811   1.5851773  39.4217777  54.4847059   2.8417918  40.1249790
  68.0481087   4.6970865  32.8168313  68.8577830   5.1427957  33.0658261
  68.0786215   3.8642523  33.2876699  40.3877317  18.6736473   8.6299531
  40.3454458  19.6266016   8.7094609  40.1182996  18.4963033   7.7287356
  79.0331923  35.9774864   5.3448264  78.4264790  36.5097067   5.8594863
  78.5360944  35.1883608   5.1294057  52.4921023  39.1116167  13.3185308
  52.2751009  39.8203812  12.7128951  52.0179688  39.3288445  14.1211812
  45.7978964  24.9094701  44.2073822  45.8069420  25.8430076  43.9960623
  45.1128197  24.8205066  44.8699427   2.5796706  23.3868775  24.0038411
   3.2615382  24.0565810  24.0566365   3.0295856  22.5695822  24.2179315
  63.5246646  27.3896584   6.1545770  64.1967212  26.7258069   6.0000674
  62.8621875  26.9418797   6.6807382  63.9182603  56.3053033  20.0696389
  63.1404602  55.8059713  19.8207871  63.6504900  56.7935201  20.8482186
  72.5302219  25.4331756  42.8103495  72.6939058  25.7053185  41.9073677
  71.7253542  24.9172664  42.7628565  57.0223427   1.1681277  64.0857458
  56.4672422   1.9464561  64.1336679  56.8207359   0.7822736  63.2332802
  72.2751045  12.7165842  37.6938844  71.3725758  13.0353189  37.6846623
  72.4447107  12.4514043  36.7899227  29.3240786  33.4092665  53.3571577
  28.7235236  32.8893304  52.8230858  28.9876080  34.3031883  53.2945204
  64.5977020  24.7425389  53.2072639  63.7564850  24.2864776  53.1828737
  65.0343752  24.4831777  52.3959208  57.7112376  55.9788486  12.6264874
  57.6870453  56.8156740  13.0905644  58.6182582  55.6846771  12.7102010
  30.1535076  19.5173268  36.1495702  30.8260721  19.6501927  35.4815690
  30.4657787  18.7690883  36.6583554  11.4130981  39.8769525  19.3700711
  10.8498771  39.5240165  18.6812703  12.0035131  39.1561794  19.5894639
  41.3010740  11.6571963  64.4747162  41.9726467  11.1037147  64.0761185
  41.1080980  12.3169637  63.8086081  23.8076329   6.6396427  57.3805428
  24.7078800   6.9530004  57.4676800  23.6665535   6.5760058  56.4359379
  10.0044591  58.6296019  13.2312219   9.1982991  58.8446972  13.7003438
   9.8567397  58.9504167  12.3415677  69.9199235  20.3631982  13.3308999
  69.5497309  21.2122711  13.5722749  70.0901734  19.9296817  14.1671483
  11.7769527  56.5262641  26.4230935  12.0899713  55.6255854  26.5069024
  12.3956358  57.0437802  26.9384973  21.7415918  71.7692510  59.0194178
  22.0781101  72.5672708  58.6117983  22.4826444  71.1634986  59.0077305
  68.2165705  42.8584576   4.6277730  67.8814637  42.1059477   5.1152818
  68.0824315  42.6273876   3.7086169  24.5980644   3.9032865  50.3552723
  24.1591001   4.5577699  49.8119545  23.8920116   3.4961164  50.8572006
   5.4349893   0.7981091  14.6359746   6.2128085   1.2823300  14.9130265
   4.7328228   1.1336951  15.1932637  29.3585069  31.8974486  22.0954148
  28.9141328  31.0918519  22.3595731  29.4671972  31.8115130  21.1482923
  20.2602018  52.2528354  41.4972496  20.3365815  52.7628319  42.3036623
  20.1683963  52.9091613  40.8065701  37.0459437  45.4601160   7.9335277
  36.1430215  45.3252479   7.6458232  37.3225831  46.2603494   7.4870650
  18.9589124  64.9078724  10.3177325  19.1468745  65.3623769   9.4965570
  19.0736269  63.9805695  10.1099364  18.7008870  73.1361283  51.9626474
  19.2448247  72.6790647  52.6040936  18.4186567  72.4511744  51.3564968
  58.6833464  60.0702712  20.7070462  58.7987839  60.3643748  19.8034970
  58.2103049  60.7851192  21.1330239  44.7860336  12.6530647  64.3109751
  44.9825478  13.3367801  64.9514008  44.7681761  11.8440175  64.8222065
   9.0258618  21.4498639  54.4153166   9.4573422  20.9105372  53.7526035
   9.1379853  20.9620738  55.2312326  69.8367535  63.3313629   7.4024503
  70.3986394  62.5585887   7.4601810  70.0751626  63.7391970   6.5699451
  55.3663861  66.5755555  12.2671573  54.5196187  66.9978473  12.1226518
  55.6646358  66.9189140  13.1094090  56.6806399  49.4274518  10.3958385
  56.5439021  50.1075455  11.0553901  57.3320877  48.8439748  10.7849471
  59.3167782   6.9112730  64.6957207  60.1166868   7.0316666  64.1839743
  59.0563965   6.0063505  64.5238209  12.3279494   2.3395162   6.3807504
  11.7334098   1.6006141   6.5102880  13.1082243   1.9523768   5.9838502
  29.6843893  73.2967350  36.1595456  30.5613958  73.3400008  35.7784669
  29.1141187  73.0746791  35.4235284  47.8091203  44.5497766   8.3781068
  48.3597981  44.7798601   7.6297442  47.1267699  45.2209821   8.3887116
  34.3487048  24.8441887  36.4672971  35.2166080  25.0185657  36.8313980
  33.7717009  25.4610515  36.9176030  66.0021722  44.8154166   9.0682046
  65.0687944  44.6089384   9.1172616  66.3148820  44.3306789   8.3043544
   9.2295872  39.3049715   0.7687680   9.5772695  38.5193373   0.3467147
   8.8585769  38.9898376   1.5929477  39.8314250  76.3440465  48.1074142
  39.5706046  76.9007940  48.8410616  39.0054334  76.0292257  47.7401829
  69.5538699  49.8900291  23.7433164  70.2502333  49.5586917  24.3103520
  68.8167559  49.2996249  23.8992421  36.1284590  28.6603761  47.1376705
  36.2026286  29.5915365  47.3466492  35.6547260  28.6385059  46.3062048
  72.7861344  31.6369036  19.6829240  72.5462519  32.5322553  19.4441049
  72.2309291  31.0851428  19.1319768  53.0994081   9.5426869  47.1801615
  53.2668447   8.6632198  46.8414354  53.6179161   9.5927995  47.9831982
  64.6898925  64.3948933  39.6625249  64.8892080  64.1229984  40.5583970
  65.0056469  65.2969953  39.6101586  50.0473213   1.3230550  60.6921721
  49.4803381   1.7817931  60.0722313  49.9083328   0.3951870  60.5025005
  81.8011891  49.3150899  10.1846711  81.6802680  48.6935899  10.9025495
  81.0220706  49.2057988   9.6394555  58.3759748  67.1704337  30.6144731
  59.1154157  67.7514216  30.7931249  58.7472402  66.4670870  30.0818460
  -0.1496797   0.7589634  42.2758818   0.5422468   1.3331276  42.6042223
   0.2515800   0.2970592  41.5397692  68.6239421  39.3878360  39.6732633
  69.4124972  39.3644269  39.1311662  68.5780369  40.2897862  39.9904553
  39.9217391  18.4248090  42.1382284  39.3222094  18.8311994  42.7640390
  40.2153873  17.6242423  42.5730753  34.6539266  37.0765194  11.3843982
  34.6138341  37.5136447  10.5337827  33.7842138  36.6931780  11.4979188
  47.5593138  15.7112527  65.5849075  48.0026054  16.3315463  66.1636639
  46.7707253  16.1722076  65.2987480  65.0919544  40.3023596   7.8987329
  64.8150598  40.8359483   8.6436097  64.7639500  39.4253074   8.0972926
  36.5843034  37.6076412  54.0725136  36.9171810  36.7812991  54.4226313
  37.3353648  37.9984236  53.6259365  18.6325658  66.0177056  47.3391247
  18.4596408  65.7251660  46.4442778  19.5667661  66.2261287  47.3466587
  33.5737395  36.0420442  60.4066801  32.7343154  36.3789392  60.0934744
  34.1056347  36.8240476  60.5542803  27.9305649  15.4586732  57.1906948
  27.3535228  16.0295761  57.6979685  28.5719156  15.1407135  57.8261518
  42.4110794  27.9308271  56.2082005  42.5747585  28.7932920  56.5897751
  41.4699459  27.7950215  56.3180351  77.5829398  39.4802119  22.8244226
  77.7396714  40.4025951  22.6222436  78.4346663  39.1494814  23.1097619
   0.9062351  76.9428068  31.6246486   1.0457838  76.1790190  31.0648394
   1.7707051  77.1344093  31.9882607  30.3149748  13.2509053  61.3307190
  29.3655252  13.2943308  61.2171698  30.5554056  14.1133666  61.6692209
  68.0787360  54.5629689  35.9468095  68.8757645  54.7155484  36.4544503
  67.3675381  54.8129377  36.5366761  76.5509640  49.0688226  18.1861226
  75.9407078  49.7921166  18.3298604  76.2449776  48.6539629  17.3795907
  23.9726776  26.6846995  23.4842221  24.0220159  25.8646684  22.9929463
  23.5738033  27.3055272  22.8745381  59.8984944  64.4284031   7.2472732
  59.5219313  63.6070868   7.5633018  60.0175082  64.9566790   8.0365722
  49.0732228  44.7341588  12.2824637  48.6708342  45.6020251  12.3159949
  49.3975221  44.6550170  11.3853566  24.7899431  14.0123134   8.3261840
  25.4804081  14.0002732   8.9890162  24.9575848  13.2362132   7.7915780
  57.0954858  29.9415073   9.2847602  57.7775990  29.6214625   9.8751227
  57.5301921  30.6117943   8.7575261  23.3472776   0.7563669  62.3590612
  23.0402899   1.6478053  62.5243711  22.6779914   0.3739376  61.7915773
  30.8485937  76.3659037  19.6894090  30.6192136  75.5253018  19.2931668
  30.5736971  77.0176400  19.0445058   1.5822016  15.6303036  62.1465015
   1.8088642  14.7490704  62.4436331   2.2945483  16.1824071  62.4689531
  62.0530570  57.2866766  54.9476337  61.1789668  57.6084236  54.7270060
  62.6492370  57.8847877  54.4970131  23.6330856  64.0737061  23.7374330
  24.4681800  63.6070625  23.7704968  23.2159484  63.7616090  22.9344249
  35.7063246  18.2028484  18.0441928  35.7063937  19.0113139  18.5566509
  36.6152072  17.9035854  18.0688167  62.5659548  59.8621771  24.4434754
  61.9047152  59.8694822  25.1355283  62.0797812  60.0697276  23.6454885
  24.0191978   6.8833928  18.4430425  24.0304703   7.1702819  19.3561666
  24.0658420   5.9285550  18.4913938  69.8634291   0.0408053  58.6937666
  69.1485977  -0.5656305  58.5001707  69.5964718   0.8640672  58.2848644
  36.1436534  37.0922828  57.9820013  35.1996326  36.9906282  58.1033516
  36.4089036  36.3089633  57.5000381  31.9865001  70.7315288  55.8432531
  31.7545808  70.7862536  56.7703199  31.2659896  71.1691855  55.3898764
  67.3241436  49.0587231  21.3972585  67.8803479  48.6811337  20.7158677
  67.7087533  49.9177310  21.5716474  34.2634630  14.1145444  60.1246166
  34.1026807  14.1456580  59.1815329  33.5724711  14.6579158  60.5034447
  50.9702873  11.4961863  63.9596176  50.2673340  11.6684711  63.3331919
  51.7480135  11.8856037  63.5599613  36.1222768  28.6374855  39.5728970
  35.3737020  28.8274121  39.0073895  35.7648063  28.6641264  40.4604435
   4.8164150  35.5636883  51.5421104   4.3761796  36.1349416  52.1714687
   5.5678779  36.0740137  51.2402725  69.8154257   1.0138016  26.6061608
  70.0166319   1.8656974  26.9934861  68.9681028   0.7741742  26.9814603
  54.3099558  52.7435037  14.4081323  53.8372742  52.8899011  13.5887544
  54.7323047  53.5821101  14.5941178  47.3673069  35.8042180   6.7404859
  47.9927527  35.8871555   6.0206477  47.0295607  36.6907763   6.8676631
   1.6793502  76.6826384  35.8278799   1.8482889  76.0836759  36.5551591
   2.5492729  76.9333436  35.5170512  64.1669785  75.0697228   7.1253221
  65.0230443  74.6994707   6.9101541  63.5654508  74.3267795   7.0760123
  62.6705705  55.8072230   8.4232060  63.5825407  55.5692825   8.5903232
  62.3312866  55.0922069   7.8848092  50.8285796  51.3722929  17.9206006
  50.8689105  51.0373160  18.8163678  51.0957371  52.2884211  17.9952256
  36.1120857  61.3192598  55.8741570  35.3756917  61.7158310  55.4086542
  36.8873037  61.6383819  55.4121733  80.9751914  23.3094888  20.0700681
  81.0953425  22.3625426  19.9987428  81.5923332  23.6775355  19.4376866
  36.0771733  41.0885076  36.9899289  36.1509293  41.7961448  37.6302735
  35.6739705  41.4988407  36.2248914  13.4370697  44.3560410  27.8388357
  12.4924958  44.3139267  27.9879618  13.6206341  45.2888727  27.7276349
  31.0714674  40.0212717  58.3987951  30.1953888  40.3922939  58.5039568
  31.6519833  40.6543970  58.8211536  24.1521764   7.6327986  47.2090435
  24.9190450   7.2795856  46.7580557  23.8673139   8.3637160  46.6605520
   6.6301888   5.0122790  18.3144300   7.4010199   4.8860173  18.8676946
   6.1230821   5.6900840  18.7612550  31.7704058  12.2111034  64.0059519
  32.1040678  11.3506615  63.7519073  31.7033005  12.6946259  63.1825829
  15.6226934  71.5984605  43.0736542  15.6827653  70.9505193  42.3716593
  14.7574962  71.4561145  43.4575844  66.1062193  17.8412402  66.8957090
  65.2893162  18.0210996  66.4303541  65.8834219  17.1406293  67.5086880
  38.4868145   6.4181030  61.2663555  39.3123746   5.9453583  61.1605597
  38.5181022   6.7575204  62.1608114  64.0669298  49.8463011  49.6781063
  64.3445110  50.7207060  49.9512148  63.1983948  49.9785137  49.2981052
   4.4067914  17.7521750  10.6822459   4.9845559  18.2243630  10.0826995
   3.5328061  17.8594848  10.3069179  64.9890267  23.8761911  11.7488591
  64.7395860  24.7828695  11.9275920  64.8730170  23.7777087  10.8038346
  35.7039606  48.3903095  28.6321561  35.1130836  49.0989563  28.3773725
  35.5915373  47.7279219  27.9503648  71.1684971  72.5792177  50.9943199
  71.6960447  72.4655945  50.2037382  71.7687230  72.3814930  51.7132521
  38.7478852  27.7759695  40.0477695  37.8298259  28.0462813  40.0295639
  39.0384126  27.9745007  40.9379435  17.0907009   7.2612518  60.4795885
  17.5465190   7.2761047  61.3211584  16.1885667   7.0291841  60.6998825
   2.1362460  75.8144167  51.1747694   2.8528846  75.8367809  50.5406046
   2.3674143  76.4815887  51.8210459  44.6583176  28.6123538  41.1253071
  45.2342939  29.2520308  40.7066345  44.2296171  28.1631684  40.3968287
   6.0037416  22.0973325  49.0635109   6.3051039  21.7864752  48.2098246
   6.6891646  21.8244433  49.6733952  10.9550417  68.8037042  39.7991490
  10.3402270  68.9379970  39.0778995  10.4681552  68.2785408  40.4342699
  19.6485448  28.4718680  48.8465977  20.1988053  28.5321450  49.6275043
  19.3369579  29.3655658  48.7035894  68.4245526  50.4670426  35.6810491
  68.7833106  49.5797083  35.6682984  68.7114798  50.8293721  36.5192811
  39.3572711  59.3978450   8.6857669  38.7609016  59.5850822   7.9608409
  39.7767388  60.2374408   8.8737933  52.2949219  26.2039566  61.7572069
  51.5087318  26.0589719  61.2307930  52.8891325  26.6773152  61.1749077
  43.7282585  61.3656232  14.5401971  44.0558349  60.9022519  15.3110520
  43.5641097  60.6754038  13.8976399  22.5115532   7.0877700  40.4494588
  23.3425945   7.3575835  40.8403508  22.1189112   7.9023128  40.1354711
  57.0385992  74.7540566  17.5733773  56.4622723  75.2564642  16.9974725
  57.9101240  74.8604533  17.1921269  38.9720904  19.8619577  11.1385409
  39.2233884  18.9714488  11.3836448  39.3720733  20.4166278  11.8083064
  49.0868317  64.8973247  30.8975427  48.2327568  64.8270723  31.3239781
  49.1990530  64.0603825  30.4468076  69.5381832  13.4569991  36.9903755
  69.2678118  12.9160607  37.7323413  68.7231112  13.8343644  36.6594934
  81.2619530  45.8895662  29.3394391  81.5858208  46.3424560  28.5608308
  80.6941354  45.1995620  28.9963548  48.5446453  10.2651346  44.5441198
  49.4012690   9.9423957  44.2643595  47.9169464   9.7018409  44.0914297
  13.5034145  76.1040943  50.3454590  12.7185310  75.6638921  50.0192499
  13.3015741  76.3080762  51.2586308  28.6163009  69.2672775  57.8776932
  28.7644971  70.1183991  58.2898331  29.3060745  68.7061844  58.2321262
  61.0624170  29.3254209  53.7967443  60.8540010  29.8716497  54.5546532
  61.8431759  28.8382673  54.0600538  44.4644880  24.0845060  53.0956554
  44.6032238  24.3843937  52.1972990  43.8830471  23.3291054  53.0088997
  50.2977848  71.0482550  64.4950199  49.9990177  71.6928005  65.1365280
  51.0098886  70.5843449  64.9353933  65.3605091  60.8440253  28.1709783
  64.4170558  60.7212493  28.2761209  65.5113160  60.7472750  27.2307031
  19.0764797  20.4858494  67.1025229  19.3502903  19.6257532  66.7839432
  19.0502894  21.0344434  66.3185644  14.5344318  74.2297728  56.5508556
  15.0714696  74.6693100  55.8915901  14.4796432  73.3229397  56.2493849
  59.1661310  25.2630973  43.7606907  59.9199152  25.7551527  44.0861511
  59.5471430  24.5706558  43.2207060  20.6678963  25.4366183  59.5705128
  20.5517411  25.9862494  60.3455257  21.6148233  25.3136873  59.5037985
  21.4683604  15.7941973  61.2459087  20.5288839  15.9619546  61.3199091
  21.5893245  14.9307477  61.6409492  39.4582629   3.4447321  64.5682287
  39.8069429   3.8334322  63.7659979  39.9685836   3.8473281  65.2708817
  50.0774002   4.5398608  65.3623533  50.6996918   4.0413892  65.8919859
  50.2471876   4.2570212  64.4637918  29.3637193  53.8337151  13.2074499
  29.4612134  54.1574613  14.1029465  29.6947921  52.9361789  13.2398736
  48.6453628  74.6727697  44.2753029  47.7985566  74.4403661  43.8943291
  49.1979914  74.8806643  43.5219002  14.0036440  36.1679411  63.3104992
  14.6202767  36.3332105  64.0237188  13.2028902  35.8791924  63.7482738
  74.1549533  60.0096087  58.9807463  74.8115342  59.5682387  58.4419298
  73.8074045  59.3206314  59.5470953  46.3951492  40.1560788  18.6990182
  47.2136699  39.6769209  18.8281075  45.8304524  39.8625255  19.4139783
  14.0855432   2.4465099  46.8451786  13.2485545   2.8687873  47.0384741
  14.6224570   2.6131800  47.6198864  40.8553505  10.9216523  52.0231247
  40.8038425  10.9041440  51.0674715  40.4267168  10.1121402  52.3009586
   9.1718853  11.7134702  41.1571169   9.4185168  11.0890484  41.8393946
   8.5835546  12.3278379  41.5960360  71.0464751  58.4318170  13.6672322
  71.0076033  59.3328330  13.3464734  71.8099105  58.0546555  13.2300298
  44.2166818  64.9127547  58.0718660  44.4247688  64.6583716  58.9708757
  43.6243213  64.2284421  57.7603245  73.9710568  14.1674113  47.6168776
  73.0556767  14.3920624  47.4500179  74.1998885  14.6632266  48.4030294
  25.6948352  30.6595373  50.0819063  25.6819415  31.3560319  49.4254303
  26.2841940  29.9986649  49.7183990  59.8539268  65.2286527  33.3711640
  59.7898304  64.4411036  33.9114301  60.7367288  65.1951358  33.0026929
  22.0363855   1.9983913  34.2229867  22.2012925   1.3031448  34.8599076
  22.8413010   2.0465629  33.7072134  67.2880446  23.1896815   7.4086396
  68.0321824  23.7693497   7.5713508  67.3144399  23.0248639   6.4661042
   3.0479182  64.9503056  50.7063341   3.5942162  65.6911306  50.9689522
   2.4883521  65.2993957  50.0126076  10.6132854  62.2512690  37.7537775
  10.7784427  63.1797556  37.9176903  10.0185026  62.2425405  37.0038533
  49.5013296  69.2756388  16.4481465  49.4685709  68.5039732  17.0135610
  48.6711823  69.2590234  15.9718911  80.6898403  20.4321885  53.1459427
  79.7893667  20.4472232  52.8216743  80.7052612  21.0905027  53.8406467
  36.9978046  26.0605621  65.8107567  36.8332648  25.4648757  65.0797844
  37.5367689  26.7569637  65.4355574  59.1743743  46.0506365  41.7935102
  59.0245377  46.8911424  41.3606851  59.7134649  46.2659010  42.5546090
   2.5946767  33.9118466  10.2289550   2.5425441  34.5283583   9.4985978
   2.0486076  34.3022111  10.9113471  73.9012623  14.6930981  66.6100407
  74.5589256  14.5227540  67.2843504  73.6232376  13.8237679  66.3215971
  44.5109034  44.5694685  62.7959776  45.3163719  44.8646212  62.3713112
  43.8127661  44.8396206  62.1994448  82.0051610  59.3434545   0.7660024
  81.7583501  58.9426395   1.5994708  81.4765441  58.8840911   0.1134841
  55.1548481  37.1702075  64.8114729  55.1868629  36.6839266  65.6353283
  55.7494068  37.9082537  64.9457264  74.7452485  33.3386412  27.0782296
  73.9378154  32.8302774  27.1547143  74.4501578  34.2447296  26.9879262
  32.5394750  33.4824991  45.3932428  32.9852581  33.8121653  46.1735201
  32.0122027  34.2210317  45.0886297  18.1739986  51.9547558  16.8239927
  17.9142344  51.6031170  17.6755214  18.5647321  52.8051138  17.0251119
  74.8119580  64.8812362   1.9479291  75.1707732  65.4801771   1.2931411
  75.5769383  64.5672485   2.4300544  80.9992015  62.2867390  20.8418481
  80.9660565  63.2379863  20.7405297  80.3683173  61.9556639  20.2026288
  36.4590544  22.5762849   8.6204307  36.3131851  22.5953488   9.5662610
  36.8786043  23.4143453   8.4258525  38.3828110   9.7992139   2.6870029
  38.5327381   9.1769509   1.9752852  37.5182957  10.1675801   2.5049417
  57.8330803  20.8775258  40.4718351  57.0602751  20.9266496  39.9091697
  57.7441835  20.0409055  40.9283400  45.5161773  57.1069297  16.1909787
  46.1347090  57.0072910  16.9146649  46.0323869  56.9190237  15.4071157
  52.1072197  11.0411394  44.5558596  52.2550106  10.7248259  45.4471159
  51.8619871  11.9598901  44.6653652  81.2068974  68.4691831  49.2845838
  81.9302737  67.9234073  48.9762132  80.8264910  68.8359830  48.4864728
  40.2084493  68.9305350  28.4969537  40.1606869  68.9818308  27.5423257
  40.1680564  69.8414943  28.7880818  44.7080612  25.7872534  62.0462513
  45.3869581  26.4560652  61.9566631  44.1844749  25.8691716  61.2491465
  78.6475169  59.8660490   6.7870395  79.4339310  59.8375913   7.3319928
  78.9788615  59.8864528   5.8892505  47.1247864  21.7088437  52.6820135
  46.7431116  22.4707365  52.2460413  46.6458941  20.9621882  52.3222923
  20.3118236  69.0114066   1.2608354  19.3686540  68.9708897   1.1026685
  20.5676944  68.1024238   1.4174001  73.9131057  54.7386393  13.9900891
  73.4236561  54.2019650  14.6135156  73.2720792  54.9693975  13.3177297
  64.1472708  53.4239969  12.4490468  63.4937894  54.0703449  12.1817843
  64.5939385  53.1850597  11.6368739  52.1685135  64.4294378   1.8525521
  52.2792374  63.5054180   1.6285865  51.2309443  64.5245334   2.0203464
  31.5126324   1.4665507  62.7595854  32.2080112   2.0966518  62.9484034
  30.8034611   1.9950411  62.3935175  25.9022164  11.9124627  51.4382839
  26.8007565  11.7045808  51.6944885  25.9874630  12.6694405  50.8586740
  32.6279283  31.5511298  63.1512260  33.4719038  31.5230894  62.7005053
  32.6276851  32.3928237  63.6070585   9.0532535  22.4435048  35.8127038
   9.2842668  21.8426614  36.5211217   9.3012542  23.3077006  36.1411778
  54.8953902  37.9181094  20.2200334  55.3795253  37.5353478  19.4883744
  54.8330175  37.2109064  20.8620660  24.6408428  72.0270298  50.8654976
  23.8594163  71.5456752  51.1373568  24.3205655  72.6606367  50.2234697
  21.8665082  70.7473013  26.5754621  22.6529987  70.9993383  27.0593469
  21.9173677  71.2453219  25.7596032  11.4527959  10.7223706   2.2462909
  11.3493389   9.8126035   1.9672744  12.3880047  10.8117871   2.4296491
  79.0983426  77.1015021  23.1330506  78.6913048  77.7874467  23.6622350
  78.7036406  76.2889191  23.4495179  60.8466613  60.4364964  26.6728227
  60.3401267  61.2434956  26.5811364  61.6030537  60.6874177  27.2030561
  79.6034466  71.2099954   9.2371528  80.1368796  71.8565199   8.7748925
  78.7881839  71.6703770   9.4362180   3.3708818  63.3106634  17.5907628
   4.0387208  63.6088440  18.2082765   2.5847060  63.7997386  17.8335874
   5.5837715   3.2839188  32.3920608   5.9207636   3.0995804  31.5153122
   4.9033886   3.9427918  32.2535038  71.6776072  43.8190320   7.1311061
  71.2616431  43.7380382   6.2728230  71.8910252  44.7490427   7.2070281
  76.6308807  11.1299567  21.2581937  76.0636710  11.8120389  21.6177289
  77.4706434  11.5669065  21.1164109  51.6988897  50.4256439  61.3762140
  51.4649534  49.9187803  60.5986595  50.8798695  50.5060339  61.8650675
  74.7352934  41.4583158  29.9254727  73.8883495  41.7704058  30.2440953
  74.7003269  40.5089855  30.0428653  17.6321507  27.4447012  36.8512440
  18.5065818  27.5319076  36.4717746  17.1844780  26.8203092  36.2803197
  76.1792838  63.2794854   4.1876142  76.9084536  63.8884780   4.0707032
  76.5942656  62.4544832   4.4393937  17.4977863  42.5611973  66.9305897
  17.9213655  42.4766111  66.0763931  16.6433394  42.9468298  66.7370939
  18.9463371   6.6435533  25.2268807  18.6934656   7.4857001  25.6051366
  19.6073908   6.2998967  25.8278291  52.0738017  73.9951512   4.9079816
  51.4715659  73.2631537   4.7748582  51.6970264  74.4854519   5.6386487
  11.4018262  73.0134882  52.5539780  11.4654339  72.1851889  52.0784712
  10.5932272  73.4125523  52.2328091  71.2572209  27.9381728  52.3075819
  71.4860456  27.0199084  52.1638250  71.5350608  28.3824754  51.5065622
   6.9071980  23.9298654  34.0054774   7.2995110  24.7711945  33.7720394
   7.6250000  23.4308219  34.3952870  62.6118326  34.8375249  45.7363558
  63.1716251  35.3357720  45.1408529  61.7214298  35.0164652  45.4340506
   2.7515657  68.2459065   3.3949248   3.2667787  68.8027784   3.9786069
   3.1511457  68.3672878   2.5336282   6.5870530  67.2561261   0.2557151
   6.0956199  66.4604136   0.4595963   7.5051887  66.9904277   0.3073184
  75.6214809  41.2190008  53.2131290  75.2785635  41.2669849  54.1055059
  76.4491701  41.6984940  53.2484961  66.7006361  76.7441484  56.1687772
  66.4428937  76.1437318  56.8682782  66.7217862  77.6046702  56.5874497
  71.7566859  34.0455326  18.4061448  72.1582257  33.9178607  17.5466649
  70.8788287  34.3750846  18.2137982  18.9856648  19.0783143  56.2369394
  18.9911699  18.2292390  55.7950449  19.0812337  18.8657665  57.1653366
  53.0044896  44.5709130   2.4105565  53.0923612  45.0992259   3.2039039
  53.0508573  43.6659792   2.7190654  15.2274776  43.9778280  66.2620640
  14.5809913  44.1617632  65.5805540  15.2609158  44.7799969  66.7832518
  54.6122169  24.8121262  52.2165251  55.4487371  24.7845292  52.6809645
  53.9539766  24.6948791  52.9015112  41.3064491  54.0005121  30.1909940
  41.9145738  53.3307955  30.5038850  41.8662452  54.6587858  29.7792546
  51.7705536  48.4578037  47.6235485  51.4088345  49.2791605  47.9563618
  52.2680187  48.7126255  46.8464851   4.8463555   9.5300281  35.0026393
   5.5682488   9.2365009  35.5584717   5.1487275  10.3610587  34.6363211
  39.1599059  23.9136171  62.7723455  39.3974137  23.7721157  63.6887503
  38.2902050  24.3117452  62.8090477  49.4017649  14.6222854  58.3954048
  49.9457932  13.9520955  58.8090611  49.3595409  15.3282320  59.0404558
  68.7756478  59.7885463   0.4566447  68.6439788  59.9161097   1.3961236
  68.0330693  59.2508361   0.1815478  81.8586540  20.5670166  62.6703358
  82.0499706  21.1528516  61.9379187  81.4862728  19.7858548  62.2612572
  43.7543332  60.9599182   9.8214643  42.9812836  61.5229270   9.7808902
  43.8061475  60.5612490   8.9527814  46.7349529  43.3826166  13.1292932
  46.8070316  43.0461517  12.2360866  47.6354729  43.5862863  13.3819119
  68.8185978  25.5482817  56.5374279  68.6112690  26.4676642  56.3701439
  69.6284628  25.5742717  57.0470095  22.7900279  66.0928611  65.3307581
  23.3252824  65.3101866  65.4617262  23.0617393  66.4286653  64.4765711
  19.9530561  71.0580680   3.2930104  20.7854278  71.4654347   3.5326831
  20.1339490  70.6126448   2.4652974  69.5788085  32.2925469  27.6304070
  69.0158831  32.9185769  28.0858533  69.2497956  32.2844127  26.7315690
  46.0373449  17.1066284  35.2124906  45.4755688  17.1286690  35.9871888
  46.3619995  18.0029702  35.1264763  51.9823456  23.2636094  65.2908039
  51.5953684  24.0495896  64.9051666  51.2752962  22.8774095  65.8076811
   5.0646877  15.4751861  60.4809618   5.9553623  15.3916943  60.8214903
   4.7017425  16.2312233  60.9423828  27.2541565   3.8152270  10.7286899
  26.7546123   3.1337504  10.2789371  26.6232580   4.2222695  11.3224189
  31.6507966  37.7579546  32.4141137  31.6107614  36.9234997  32.8813569
  32.1453626  37.5632302  31.6180532  43.3812857  23.9625335  44.9671173
  43.4265900  23.7744188  44.0296793  42.5187540  24.3588448  45.0904655
  59.7261190   3.9394504  34.6106315  60.4512787   3.3924949  34.3086100
  59.4717455   4.4469294  33.8399243  46.1736012  27.2789693  45.8849287
  46.1725664  27.4328113  44.9401760  46.9642830  27.7181602  46.1982489
  40.0106573   3.4274900  52.8924942  40.1449490   2.7601776  52.2195196
  40.6364346   3.2026160  53.5810184  31.8339849  19.5572650  63.0852509
  31.7258215  20.3037763  63.6745310  31.3071823  19.7797549  62.3176527
  17.0561212  37.0551591   0.2285974  16.7403740  37.1399217  -0.6710418
  16.2869877  37.2325044   0.7700889  60.8644629  11.7856979  56.3874388
  60.7236195  12.1924555  57.2423935  61.5489101  12.3162258  55.9796333
  45.9718179  54.4588217   9.7040002  45.0746595  54.2822823   9.9871461
  46.2981164  55.1045105  10.3307740  25.2393062  74.3644687  24.3500058
  24.3700797  74.7610137  24.4085805  25.4540021  74.1238233  25.2512376
  74.0004473  75.4220864  23.8441396  74.3705635  74.5393385  23.8428879
  74.0103965  75.6846673  24.7645640  76.2028825  53.5006568  12.8182714
  76.4311587  52.9252323  13.5483472  75.2777611  53.7050793  12.9546325
  32.5195116  19.3479590   7.6922004  32.6907390  19.9992900   8.3724086
  33.2884830  18.7781434   7.7072112  55.5479002  45.2842808  44.0379477
  54.6333265  45.0216818  43.9339161  55.6259823  46.0886240  43.5249472
  27.1954894  31.4021969  46.0597515  27.0748878  31.7402124  46.9471264
  27.3007488  30.4578567  46.1754131  19.2739910   2.1063285   7.3493020
  18.6980194   2.1930747   6.5897195  18.7324280   2.3728375   8.0922143
  19.8949010  47.8908303  33.1205670  19.4248159  48.7158379  33.2414453
  19.5217282  47.3039439  33.7782399  47.9887390  51.1779642  49.1531372
  47.3799562  50.4953194  49.4352913  48.8459826  50.8715773  49.4489336
  49.7642416   8.7620406  24.2923562  49.9494261   7.8713613  23.9946477
  50.5418009   9.2632585  24.0465848  79.8679768  51.5942308   8.5001723
  79.5799147  52.5012335   8.3972184  80.8216273  51.6363093   8.4294192
  66.0614204  17.6470995  55.9405756  66.2903738  17.0656168  55.2155304
  66.3401842  17.1737349  56.7244434  80.2699506  70.2922746   5.5117862
  80.9035241  70.6796834   4.9078528  80.5425965  69.3781540   5.5910317
  31.9629622  24.5152307  47.1229887  32.1416378  23.7116170  47.6113653
  31.5427589  24.2168784  46.3163614   4.4519514   3.7280469  16.8348615
   5.3522152   4.0430980  16.9154851   3.9447636   4.5076089  16.6084115
  80.1936935  21.6541724  41.1433332  80.6970285  20.8416801  41.0909287
  79.8414014  21.6606908  42.0333306  76.8839871  51.4256367   7.8055541
  75.9857547  51.7346105   7.9236476  77.4121558  52.0120725   8.3471839
  49.9075365  33.1652951  54.4310379  49.0472317  32.7746105  54.2778397
  50.1477528  33.5531211  53.5895348  34.6784634  29.0095906   6.4497535
  34.1920036  29.0226655   7.2740237  34.1491121  29.5362287   5.8508603
  52.7304983  58.6604500  59.8926449  52.4991560  59.5832396  59.9983215
  53.6560154  58.6719704  59.6486855  59.1400992  68.4263489   6.2656371
  59.8894870  68.0434129   5.8095519  59.5250618  68.9008471   7.0024411
  52.4005461   1.0943510  59.2745876  51.6154528   0.9803837  59.8101902
  53.0343533   1.5047270  59.8628998  26.1886024  39.9465799  62.3103380
  25.5024648  40.6135416  62.3350859  25.7141829  39.1164637  62.2649097
  80.9687684   8.9716678   6.2469880  81.0351823   9.7101264   5.6415908
  80.1745366   8.5109239   5.9765403  35.0855947  31.1324835  66.6235352
  35.7381916  30.7348633  67.1999407  35.3627348  30.8850884  65.7413626
  47.9608631  47.7672338  52.6393366  48.2869434  47.1233988  53.2681274
  47.0157480  47.6180696  52.6121140   2.6137372  13.0495787  62.2965479
   2.5576993  13.0650508  61.3411140   3.3596917  12.4796522  62.4835300
  52.2651291  16.5013671  41.2143373  52.0847988  15.9001493  40.4916668
  51.6265297  16.2654376  41.8872118  29.2640305  38.1433821  53.3575058
  28.5216260  37.5437403  53.4316587  29.8885202  37.8336644  54.0134907
  48.1910276  38.2255101  54.3110418  47.4021196  38.1813526  53.7707615
  48.1607151  39.0957570  54.7085142  36.4257425  38.9411740   7.3175065
  36.8031162  39.6902041   6.8562285  37.1640915  38.3477216   7.4549119
  45.3332078  72.6126191   2.5854890  45.6503152  73.2843038   1.9817369
  45.5214094  72.9645011   3.4555404  48.7988424   5.6559902  58.7349224
  48.2683802   6.3338292  58.3161449  49.2897320   6.1206514  59.4126749
  35.5757761   8.9979494  45.2578115  35.5084705   8.5808289  44.3989086
  36.4683986   8.8084102  45.5468321  23.9741189  53.1886992  11.5705030
  24.8658807  52.9931661  11.2828223  23.5604102  52.3310384  11.6679542
  60.1152945  20.2078462  28.6480403  60.6463289  20.5385756  29.3725085
  59.2705345  20.6461024  28.7507272   6.1066110  24.1308424  22.4688260
   6.3757808  23.2180259  22.3661344   5.8667810  24.4106623  21.5854184
  46.3621473  17.7058220  60.7095528  45.5820417  18.2530642  60.6190300
  46.5659142  17.4295592  59.8160219   8.3418816  17.7793651  17.6697843
   7.7946156  18.4859805  18.0124585   8.8588923  18.1911092  16.9773976
  27.0027602  66.2678782  36.1404490  27.9032386  65.9773711  36.2852693
  27.0892728  67.1662394  35.8215570  29.5316828  73.8521716  21.4750020
  29.8973637  74.6020910  21.9441812  30.2080121  73.1776854  21.5372960
   2.4207790  52.3988137   7.9327981   2.5082595  52.9697058   8.6961190
   2.5801713  52.9736885   7.1842353  43.3202839  41.9105816  64.9698305
  44.2566204  41.8896008  65.1674747  43.2721281  41.7746162  64.0235615
  73.8379431  43.9842844  53.6318541  74.2838430  44.7654390  53.3044291
  74.5288610  43.4729481  54.0530396  78.4857117  67.7640364   2.9852502
  78.7982403  68.3049151   2.2599856  77.5864016  68.0570218   3.1323258
  18.2427931  32.6557660  50.6750774  18.5460162  33.5631990  50.7043123
  18.0047989  32.4534941  51.5798855  32.0633930  27.4982171   5.0090138
  31.4122862  27.1391730   4.4062011  32.7275175  27.8875070   4.4401328
  11.7580938   3.8945293  47.9465961  11.2296224   4.2880115  47.2522449
  11.7194843   4.5266259  48.6643648  75.9908007   7.2838550  25.8048551
  76.3018487   7.6942925  24.9979989  76.7588709   7.2655635  26.3757913
  12.9878576  62.7214524  22.2471063  13.8733298  63.0620214  22.3742978
  13.0921323  62.0153543  21.6093080  26.9979811  32.9473186  48.4789944
  27.9155755  32.9570174  48.7513113  26.5674543  33.5691857  49.0656424
  10.8106143  69.5302746  14.9446027  10.0982911  70.1588127  15.0619523
  10.9346921  69.4831368  13.9966504  27.5822872  12.3712306  18.9407460
  26.7389768  12.6732020  19.2782037  28.1334204  13.1538396  18.9383523
  74.6776390   9.3914181  58.5800219  75.4868317   9.4098908  59.0909958
  73.9807367   9.4612968  59.2324543  53.1716156  20.1393533  56.4732122
  53.3870459  19.2223608  56.6433573  52.3412848  20.1061535  55.9981632
  62.9120480  61.7532799   5.4131953  62.0934855  61.6155526   5.8898704
  63.5961687  61.5083024   6.0362498  26.0682786  73.0695231  26.7014766
  25.7500900  72.3323564  26.1803484  25.8778442  72.8228990  27.6065421
  63.6613642  75.9759161  10.0186030  62.8527581  75.5309698  10.2723948
  63.8371073  75.6651971   9.1304557  71.7364216  22.6215577  59.0243721
  71.6867542  22.6277018  59.9802637  71.3464832  23.4544516  58.7589169
  43.2413089  76.2107655  20.3057782  42.3716020  76.0340163  20.6643884
  43.3794367  75.5178901  19.6599690  75.3464448  32.2824320  14.3189351
  74.4562709  32.1995798  13.9769475  75.2662455  32.8956935  15.0494878
  22.5178249  73.6728951   1.0711925  22.2119529  72.8133532   0.7816093
  22.8207357  74.1015145   0.2707164  37.1782649  75.8082102  36.3889885
  37.1213115  75.4311481  35.5110288  37.9520763  76.3707989  36.3583016
   7.9326780  61.1336228   3.6338870   8.4997613  61.7498323   4.0975015
   8.3215100  61.0594293   2.7623765  33.9964986  25.0913191  58.5416603
  34.4612741  24.3984652  58.0724430  33.2130933  24.6630168  58.8867140
   8.9341457  52.4538252   4.9683826   8.3459861  53.2027075   5.0657193
   9.0554626  52.1270940   5.8598773  59.1886896   2.4053721   1.3355176
  59.3790525   2.3639588   2.2726838  58.4552950   1.8025355   1.2132184
  58.1016676  37.4929719   3.5361259  57.5505821  36.8081670   3.1572072
  58.9033486  37.4717717   3.0135457  36.7409367   7.2930770   5.9394328
  37.1390051   6.9587379   6.7431705  37.4535459   7.2909265   5.3003613
  12.7304071  19.2416625  19.2525785  12.6951021  18.4735017  18.6825578
  12.1217603  19.0405803  19.9634473  76.5666866  16.1909378  37.9651093
  76.9438791  15.4366374  37.5123525  76.5608215  15.9378564  38.8882256
  61.8492281  65.9849188   3.0635993  62.4683963  66.5179512   2.5648610
  62.3649370  65.2363512   3.3634727   9.4641227  57.7933455  65.3887129
   9.2128223  57.5115108  64.5091391   8.6525118  58.1209278  65.7762814
  20.7137489  23.8831592  47.6295424  20.9609365  24.3898034  48.4031296
  19.8769581  23.4815979  47.8635550  32.5059009  20.1799202  58.3907413
  31.7546916  19.8672533  58.8948774  33.2672167  19.9221087  58.9105082
   1.5215963  25.0476747  13.8443009   2.3272771  25.5571942  13.9309041
   1.1318320  25.0654607  14.7183721  58.8969933  72.6413366  10.4803245
  58.5354339  72.7609488  11.3585012  58.1525647  72.7775046   9.8942201
  38.7556291  29.2672920  45.5377769  38.5131645  30.1467037  45.8277369
  38.0639815  28.7023187  45.8822489  11.7226017  42.1278715  47.5684500
  11.1951745  41.8058300  46.8374634  11.9988859  43.0032349  47.2970819
  27.0957620  68.6919877   4.1831986  26.6450555  68.6947367   5.0276486
  26.6802365  67.9830906   3.6922423  77.8736006  58.8357398   1.5146701
  77.1782481  58.2342753   1.2482850  78.6526858  58.5184953   1.0579268
  73.8061654  60.5113837  18.5963456  73.2872950  60.1817819  17.8626172
  73.2318198  61.1410496  19.0321080  52.6550055   4.7284031  35.4025245
  52.6699495   5.5184680  35.9427142  53.1734848   4.0918863  35.8947206
  51.7278825  70.0969455  11.1735885  51.1957132  70.5113980  10.4944293
  52.3398744  69.5403907  10.6919829  33.5324025   5.3164881  45.2495098
  33.8698435   4.4367236  45.4179668  32.8876019   5.4623157  45.9417486
  20.0333643  32.8783631  65.6775904  19.7025180  33.6373043  65.1971960
  20.4439473  32.3313761  65.0079203  47.9752398   7.1226913  56.2914228
  48.5132647   6.8142593  55.5622911  47.1416616   6.6644669  56.1845922
  44.4196081  64.7966528  39.0419793  43.9971924  64.1184425  39.5690680
  45.3370380  64.7748041  39.3141508  77.5854909  41.4748838  40.2596204
  77.5247704  40.5592948  40.5320947  77.5460803  41.4434335  39.3037526
  66.2841749  18.6221302  60.9683561  66.4545536  17.6896799  60.8351612
  67.1475554  19.0027535  61.1293936  19.6445663  70.0645658  15.8456628
  20.1455838  69.3810317  16.2906281  18.7380845  69.9076387  16.1100213
  44.0917683   4.3679860  36.6135478  44.6885586   3.7954384  37.0954847
  43.5848904   4.8121956  37.2932434   9.4883258  55.8119544  13.9215104
  10.0401742  56.5569684  14.1595189   8.7571580  56.1995086  13.4404485
  24.0470147  48.9626741  42.7575207  23.4648609  49.7203302  42.8148651
  24.8674035  49.2606974  43.1504250  50.2814210  73.6839808  47.7935982
  50.5640186  72.9517941  48.3415699  50.4445804  74.4606201  48.3288002
   4.7420140  36.9551134  55.0477505   4.1648884  37.5838041  55.4812241
   5.4749222  37.4824095  54.7298813  25.5568464  59.9874899  15.3712480
  25.3401525  59.2763159  14.7683255  26.2411172  60.4829189  14.9211804
  33.9810467  39.3963671  63.1332350  33.0862236  39.4642687  63.4662724
  34.4231272  38.8143182  63.7513065  58.9606524  23.4625268  61.6715097
  58.9501524  23.9558005  60.8512640  58.0366659  23.3236098  61.8793011
   8.0405086  20.7454400   8.6666648   8.8119406  20.6520085   8.1077401
   8.3106178  21.3628202   9.3464534   4.8212726  70.3872749  34.0251081
   5.1302726  70.6357571  34.8963182   4.0280540  69.8771307  34.1887872
  15.3471130   7.2031693   3.1396644  14.6760363   7.0541863   3.8057630
  15.1479238   6.5672069   2.4525611  79.3933027  69.4169519  42.9069233
  79.5883601  69.9270413  43.6930513  78.6266105  68.8952361  43.1440496
  71.0576630  38.9081264  41.1876059  70.1955891  38.6383986  40.8709002
  71.0575438  38.6699176  42.1146917  26.6191792  18.1955230  51.9442177
  25.8495951  18.7296033  51.7474174  26.6611242  18.1790233  52.9003525
  35.4328156  20.7540226  52.4272966  34.8311234  21.3110757  52.9211473
  36.0873795  21.3589430  52.0782280  54.3378841  55.1892444  43.1842725
  54.2745125  54.4562754  42.5719182  55.1999342  55.0899503  43.5883061
   3.2637997  38.5947156  62.5865555   3.4459229  39.2472672  61.9103622
   3.6829586  38.9421964  63.3738279  45.3721333   8.5981482  62.8569221
  45.5793810   7.7404124  63.2278252  45.3020430   8.4413075  61.9152641
  55.5032969  35.4879785  62.7622795  55.3462076  36.2593460  63.3068371
  55.6151104  34.7720194  63.3876848   6.1492890  11.0529952   5.6182115
   6.0118288  11.4720635   6.4677541   6.0767931  10.1158052   5.7989232
   2.3211785  71.1794233  59.8678493   1.8547554  71.1360979  59.0331030
   2.7171822  70.3135395  59.9661636  30.8356340  41.0146333  35.2821366
  31.1058385  41.7935994  35.7683770  30.0688226  40.6911433  35.7549970
  49.2688751  45.9077168  33.7946486  48.5093927  46.2127161  33.2982612
  49.8850727  46.6395330  33.7633681  66.3872576  19.0185595  48.7920952
  65.6016731  18.5957217  49.1389418  66.8049431  18.3447397  48.2556820
  49.5937818  12.6804595  12.3838012  49.3340629  13.4103398  12.9459874
  48.8071865  12.4758916  11.8781869  24.7680515  13.3720403  12.1660583
  24.3772262  12.9620605  12.9376809  24.7838920  12.6772742  11.5078179
  14.3144055  12.5329614  38.9616919  13.9541073  11.9119549  38.3286285
  15.0182457  12.0510614  39.3959761  28.1974053  12.0501661  63.2873917
  29.0896988  11.8309295  63.0190992  28.3085608  12.5938511  64.0673161
   1.0058553  74.5856950  14.3647496   0.0841863  74.7964260  14.2152612
   1.0116441  73.6437556  14.5348851  56.3789177  22.1233821  51.1915636
  55.6421041  22.4440694  50.6714630  56.9823647  21.7516112  50.5482388
  22.0698322  74.0340052  54.7356749  22.2685350  74.6633003  54.0423203
  21.4791597  73.4030102  54.3243504  20.8476455  54.3517682   5.4740731
  19.9484212  54.5855161   5.7042615  21.2154872  55.1530430   5.1014010
   4.4263955  26.2783742  47.9578972   3.8136979  25.5444837  48.0052519
   4.4980736  26.4705992  47.0229387  42.0546722  24.8267269  48.6455631
  42.8497267  24.3870258  48.9468670  41.5467978  24.1370058  48.2182741
  46.8046761  27.8185654  66.2715006  45.8605766  27.6640487  66.2394476
  47.1909904  26.9427943  66.2671804  11.9647176  50.8229706  23.9330022
  11.2608726  50.1809451  23.8400857  11.9041974  51.1147615  24.8426358
  51.5631353  65.5103180  26.2361543  50.8487975  65.0185630  26.6412751
  52.1716248  65.6842467  26.9542901  50.1683897   7.9699235  18.9453046
  50.8133596   8.5942464  19.2776792  49.4107241   8.5078101  18.7154309
   7.6242931  30.4179439   6.2433259   7.3047788  31.2525526   5.9004371
   7.2589357  30.3662363   7.1265428  45.7107341  50.9153446  16.7712514
  46.0484444  51.5939829  16.1867635  44.8435103  51.2294695  17.0271413
  37.9398751  41.5703058  63.2517147  38.7386131  41.9275856  62.8636456
  37.5516438  42.3078346  63.7224245  71.0767924  76.2330291   6.4176003
  70.8426034  77.0595023   6.8398921  71.8726289  76.4329645   5.9247510
  79.6958911   7.5517472  45.6294584  79.5346009   8.4692867  45.8493423
  79.9146878   7.5636490  44.6976757  80.4487610  69.0777826  54.7121620
  80.0489712  69.8321056  55.1450539  79.9883556  69.0098572  53.8757133
  50.5628729  54.2206383  65.0718832  50.8498287  54.6048880  64.2434883
  51.0454702  53.3962965  65.1334381  27.2578710  36.5950351   1.6492335
  27.2083801  37.4597030   1.2416331  27.2677368  36.7737203   2.5895564
  78.1392657  75.7759353   3.4546201  78.6381566  76.2823507   4.0956227
  78.2982909  74.8630115   3.6944358  66.0493552  75.7788941  11.3110940
  66.1867630  74.9445078  11.7595927  65.0979244  75.8639380  11.2496202
  30.8897442  22.8683476  35.7903974  30.1691193  22.2468524  35.8937089
  30.4925674  23.6265235  35.3618447  65.5478764  48.2507801  58.8391495
  64.7488451  48.7598944  58.9754772  65.9079885  48.5855627  58.0178881
  43.8978189  17.9511695   2.0253675  43.1095976  18.1589274   1.5235965
  44.5424742  17.6978498   1.3647048  68.6080641  13.3981805  11.6196315
  68.9587587  12.5076394  11.6063373  69.1886705  13.8754134  12.2124021
   5.0899428   6.9209962  19.7132890   4.8656291   6.4358382  20.5073564
   5.2910251   7.8046947  20.0212972  76.1685514  22.5460815  59.5456934
  75.5772877  21.9118619  59.9511576  76.9511127  22.0393419  59.3287945
  68.3422184  40.8909702  56.7396832  68.1968927  40.7002735  55.8129978
  68.9502525  40.2117300  57.0315027  46.2733518   1.3514193  62.5329447
  46.5562069   2.2611006  62.4396563  47.0660948   0.8789643  62.7870560
  66.2050009  26.8741512  67.2909737  66.1640406  27.5693488  66.6342735
  66.2774086  26.0671759  66.7812824  35.4673952  20.3365378  38.0735509
  36.1261362  20.0122695  38.6876695  35.3438372  21.2539344  38.3171765
  73.6148357  53.8326120  65.0617886  73.9459753  53.1788158  65.6775236
  74.3801546  54.3637991  64.8418903  81.2342358  30.3115940  52.3211908
  80.3179455  30.0361228  52.2936392  81.2074757  31.1964250  52.6853180
  62.0391846  48.2138014  51.8670654  62.8234529  48.3237791  52.4047089
  61.6326761  47.4126816  52.1975040   2.1885651  24.6290450  34.6428887
   1.6712970  24.8324065  35.4221932   3.0562586  24.9865727  34.8313443
  76.2698221  38.2393765  36.4271331  76.2237692  37.6368809  37.1695042
  77.1543694  38.1243920  36.0798669   3.1803424  68.2514664  39.5379750
   2.6448877  67.4880454  39.3218438   4.0637595  67.9004213  39.6500794
  54.0915388   2.1206956   9.5067946  53.4298128   2.6546149   9.0671746
  54.1033739   2.4468713  10.4066293  30.1113469  64.6380874  21.4891259
  29.9673707  64.5870396  22.4340550  29.2753846  64.3739816  21.1048619
  23.9919847   6.1879354  35.2912824  23.6636585   5.9496217  36.1582486
  24.8680920   5.8042531  35.2531545  81.7799794  60.4947850  27.8275983
  81.4259230  60.4248211  28.7141530  81.0303771  60.3272173  27.2564141
  27.6175666  35.4341626  63.7789917  27.8853202  36.1000371  64.4123554
  28.3473372  34.8150635  63.7593842  15.5452449  73.2507750  -0.1779016
  14.8843629  73.9128730  -0.3806003  15.5555112  73.2074806   0.7782666
  16.8921013  59.4196367  29.5287919  16.4467354  59.1895580  30.3442311
  16.7907639  60.3689766  29.4601488  61.6233492  55.3119516  59.8957109
  62.2639990  55.2415752  59.1880035  61.2649012  56.1950970  59.8073530
  65.5552398  59.1455123  10.6309430  66.3582169  58.8354751  10.2122085
  65.8445870  59.8480484  11.2131373  57.8831625  34.9743080  66.3019800
  57.0592594  34.4901943  66.3572216  57.9549170  35.2205324  65.3797770
  32.8949029   0.5110176  55.7804537  33.7031896   0.0011214  55.7264853
  32.2342927  -0.1173918  56.0718727  67.7779675  35.8259988  61.1761284
  68.5198784  35.6286812  61.7478466  67.2596264  35.0213146  61.1700487
  60.9090614  10.4694819  67.0107222  61.2579679  11.3123834  66.7208719
  61.6039705   9.8417205  66.8126154  53.1899691  50.6027603  38.7640810
  52.5466871  50.2746534  39.3923879  52.6713514  50.8558941  38.0004096
  14.9747903  22.3970993  38.0875087  15.3559358  22.1222981  37.2535753
  14.1533954  22.8251084  37.8459692  62.2278500  60.9647465  56.4679575
  63.1068945  60.6742573  56.7111254  61.7127228  60.1591253  56.4249229
  72.4543667  34.7033072  59.3940735  72.9229832  35.2425408  58.7570000
  73.1183243  34.1040754  59.7351217  35.7970423  11.4057069  26.5646092
  35.4096741  11.0102468  25.7837216  36.2306732  10.6786160  27.0113008
  71.1458527  51.0852680  20.7403199  70.7521903  50.2140662  20.7879464
  71.6707122  51.1548576  21.5377538  68.2948107  14.8727899   1.2004153
  67.4024385  14.5396142   1.1060302  68.3507723  15.1521401   2.1142308
  10.6883758   2.9310756  21.2941472  11.4755601   2.9534440  20.7500188
  11.0150808   3.0022388  22.1910493  36.5659517   4.9237447  19.1977613
  36.4550823   4.0904908  18.7399117  36.7267698   4.6770434  20.1085298
  11.9174498   9.7421222  16.0824124  11.7392129  10.0932317  16.9548623
  11.1840457   9.1525369  15.9070794  80.9373474  14.7736406  62.3916912
  80.8703899  15.4581535  63.0574131  81.7795467  14.9348187  61.9663000
  25.4350323  34.5186143  12.3492114  26.0379785  34.1321807  11.7141072
  25.9971374  35.0244622  12.9360501  38.9830481  62.0042297  27.6467053
  38.8533150  62.9256245  27.8712766  39.7956979  61.7616531  28.0905358
  39.1932196  31.1496072  12.9476707  39.7610229  30.4790883  12.5678794
  39.3908543  31.9418340  12.4481217  41.2952662  73.8244200   5.3101689
  40.4256725  73.9429712   4.9280912  41.2010956  73.0687094   5.8900517
  18.5760665  34.6222830  64.3189621  17.8653777  34.9750257  64.8544312
  18.6613286  35.2428436  63.5951757   0.5854052  20.9741502  29.4346063
  -0.0042969  20.9060292  30.1855008   1.2172121  21.6476254  29.6865575
  70.8772265  63.2006499  44.5819108  71.2916886  62.3926637  44.8845880
  70.2357375  62.9121396  43.9326970  47.8390026  36.9605589  47.4651814
  48.4282684  36.4853907  46.8793297  48.2461262  37.8206944  47.5683737
  32.9004049  42.9631662  63.2490730  33.5386610  42.8832769  62.5402164
  33.3612633  43.4495592  63.9326382  24.5085478  19.8347032  51.4593935
  24.3981385  20.7799792  51.3569498  24.1096830  19.4604504  50.6738520
  66.5409517  13.3520389  56.9289494  67.2735548  12.8329289  57.2606897
  65.7938862  12.7540421  56.9518948  15.8932871  31.8408113   6.1516253
  16.0655302  32.4624925   6.8587892  16.7120928  31.8078713   5.6569497
   8.3023758  58.1857777  59.5798922   8.2425805  58.5240269  60.4733372
   7.5030060  57.6721001  59.4642687  57.7747059   1.3881367  58.6660480
  58.6634970   1.6707398  58.8814878  57.7041531   0.5112248  59.0432453
  65.0406408  29.6714735  56.8938446  65.5525970  28.9371681  57.2328568
  64.1309643  29.3821335  56.9646025  68.5363150  58.2919455   8.9533901
  68.3041096  57.4344730   8.5969418  68.9303303  58.0989647   9.8041224
  46.3341291  64.7121856  31.7554109  45.9172303  65.4751822  32.1557443
  45.6875760  64.3871829  31.1288564   4.0749283  35.5482268  34.9246311
   4.8879738  36.0230637  34.7522068   4.2932530  34.9515581  35.6405616
  70.4680014  48.4384584  48.5344839  70.2222157  48.9636087  47.7728844
  71.2698078  47.9892445  48.2670021  23.1655353   3.9357429  14.1106240
  22.2484774   4.1286807  13.9156453  23.2583183   4.1308503  15.0431172
  31.4061141  21.4995837  56.3178396  31.8405414  20.9673548  56.9843483
  30.4721904  21.3432217  56.4577341   0.4216344   5.2985676  57.6884317
   0.6692226   4.4453724  57.3320627  -0.2555602   5.1005753  58.3352995
  18.8051742   5.9886746   7.2536914  18.3903116   5.4173617   7.9000012
  18.1353611   6.1164098   6.5819280  70.0808573  45.9125614  61.5940762
  69.4858932  45.6679344  62.3028851  70.7676268  46.4228773  62.0232105
  42.7083165  72.0111868   2.6619069  42.5613553  71.3398692   1.9955985
  43.6563546  72.1432635   2.6638143  80.8858585  69.4099569  38.2643056
  80.2181911  69.1812706  38.9109492  81.5387058  68.7137890  38.3376384
  52.1035856  26.7791801   5.6519429  51.8551964  25.8945375   5.9201686
  51.7202085  26.8818765   4.7809045  52.0497316  10.6411510   0.2859847
  51.6184420  10.6900983   1.1391131  51.3527531  10.3915792  -0.3207763
  22.5159760   0.2734125  57.9448175  23.1848450   0.3897290  58.6195898
  22.3046036   1.1628767  57.6612616  39.0221746  74.2026755  16.0204618
  38.1638200  73.7791583  16.0300557  39.1869886  74.4306824  16.9353787
  25.4208012  35.2370071  43.0814981  25.8833142  34.4549394  43.3826447
  25.5002423  35.2099681  42.1279860  74.6138048  32.3294067  59.1714573
  75.2323341  31.9733548  58.5335827  74.7959709  31.8460512  59.9773169
  11.1236055  60.2843639   7.5006549  10.2504546  60.5671927   7.7723948
  10.9958656  59.9215743   6.6241281  72.4224889  45.7838067  12.8074901
  73.1790292  45.2832928  12.5019328  72.3837029  45.6091806  13.7478272
   5.5197580  65.8707425  11.6785590   4.7073610  65.4602906  11.3823049
   5.4154403  65.9514901  12.6266257  63.1143850   7.0499902   6.3439099
  62.5752634   7.4927812   6.9992797  63.5607427   7.7595763   5.8818595
  52.9342604  42.2804117  42.8699398  53.4683323  41.6035175  43.2856464
  53.0603456  43.0550861  43.4178591  13.6881107  36.3852792  17.0128171
  12.7313179  36.3825707  16.9850747  13.9217180  35.5045562  17.3060529
   5.5802959  30.8160548  27.1001737   5.9580702  30.7034926  27.9724423
   5.5349487  31.7645221  26.9793813  61.4081240  35.3282809  61.0541677
  60.6909847  35.4964519  60.4428959  60.9760237  35.0258970  61.8529701
  39.7796917  51.1392403  65.9244680  40.1613665  51.8569374  65.4190302
  40.3300619  51.0768890  66.7051315  66.9722939  29.4203019  54.0573311
  66.1591387  29.7074318  53.6419153  67.3232603  30.2103472  54.4682837
  27.8165382   5.9570079  21.0746877  27.3059029   6.7646127  21.1317746
  27.2849840   5.3047757  21.5310685  59.7262949  11.2486081  42.8192632
  59.1453070  11.8821101  42.3981111  60.5978960  11.4665084  42.4890153
  74.4021069  47.3658517   7.8514592  74.3330323  47.0178112   6.9624536
  73.5857236  47.1021882   8.2759969  58.0587673  29.3013978  49.6989441
  58.5201406  29.4967246  50.5145502  58.5709906  29.7438765  49.0221310
  63.8412470   4.3153958  16.6568200  63.4513468   3.6680703  16.0692994
  64.2505735   3.7953525  17.3483674  30.3696770   6.3792186  21.2814538
  30.7602447   5.5289893  21.4834229  29.4533867   6.1818366  21.0873239
   8.9880842   9.1707521  -0.1087459   9.1868419  10.1059871  -0.1541312
   8.7378401   9.0230517   0.8032815  53.8210583  69.2648840  60.3996563
  53.4228706  68.4011650  60.5076885  53.1459093  69.7874308  59.9668169
  52.7524471   5.7867062  54.1415405  53.5823679   5.9748304  53.7032843
  52.5127268   4.9120820  53.8352728  48.6232090  61.2652779  48.4202337
  48.0953455  60.9086943  49.1346836  49.0272045  62.0504570  48.7897158
  41.3292545  32.6872258  21.7310063  40.7146639  32.3910003  22.4023931
  41.5610069  33.5777574  21.9946019  44.7987837  22.0647626   0.6191937
  45.5419868  22.6434331   0.7895391  44.8922533  21.3598924   1.2600152
  29.9881214  24.9418836   8.7715594  29.8196501  24.6301894   7.8823487
  29.6964401  24.2257028   9.3356864  48.4318542  70.2326345  58.3423567
  48.6539221  69.7145414  59.1159773  48.2872057  71.1167049  58.6795902
  27.8264577  64.4100520  10.6921165  26.8928106  64.4391176  10.4830663
  28.2598931  64.3322727   9.8422257  67.9450315  10.9978442  16.3890473
  67.3983091  10.2252584  16.5319936  68.3547205  11.1618333  17.2384564
  51.2449026  53.2524300  44.8787642  51.9827652  53.8046312  45.1373625
  50.5218410  53.5431480  45.4345465  56.4732885  23.6138487  64.3826866
  56.2704039  23.0605936  65.1369905  57.2923422  24.0494585  64.6185541
   1.4790696  27.8865628  35.9265058   0.5460590  28.0992227  35.9041612
   1.5144009  27.0016580  36.2897222   1.7246552  34.6928740  42.7045202
   1.9214936  33.9335847  43.2531261   1.0480519  35.1679707  43.1869316
  37.9900402   1.2799602   8.1362216  38.2435984   1.2516646   9.0587918
  37.1986479   0.7436018   8.0887715  12.7340817  38.2801485  45.7096148
  12.2060454  37.9451013  46.4342880  12.1584129  38.2223344  44.9470568
  30.2294868  18.5965400  17.4718873  30.9491724  18.6143689  18.1027333
  30.2286333  17.7006679  17.1347730  25.8427198  59.6655556  26.5019528
  25.1918561  60.0631806  27.0803182  26.6110093  60.2309129  26.5814702
  55.3982019  36.8357587  51.6060352  54.8259401  37.0921254  52.3292398
  56.2681961  36.7719078  52.0000744  16.2555142  47.2033405  64.7135067
  16.8314190  46.4393234  64.6845293  16.8143673  47.9346466  64.4506502
  65.6717104  16.9758515  10.8774201  66.3870043  17.5883012  11.0491530
  65.9191126  16.5414577  10.0611321  68.6235081   3.3267315  54.0519571
  67.8413569   3.1108196  54.5597601  68.7763249   4.2546471  54.2303944
  29.6955532   0.6879120   7.5560920  29.7636217   0.3006797   8.4288184
  30.6028170   0.7984071   7.2716634  10.4084416  56.5750837  61.7295456
   9.6111603  56.0834694  61.5323639  10.1011105  57.4587727  61.9317150
  71.9543648  38.9485669  57.8795052  72.5811338  39.2975593  58.5132217
  71.2225199  38.6379933  58.4125853   7.8766841   1.9247537  18.8459603
   6.9372887   1.7481332  18.8966672   8.1271356   2.1480851  19.7424142
  12.3449272  18.4841113  29.7896497  12.0332545  17.6834445  29.3677251
  12.3178309  18.2875400  30.7260530  35.5564897  75.5120417  16.3870732
  35.6826388  75.7106659  15.4592435  35.2173679  76.3248226  16.7620484
  61.1241007  49.5595551  31.1388183  60.9346914  50.1558113  30.4143643
  61.6195917  50.0902843  31.7625499  59.9242401  55.4054308  62.2836018
  60.5021954  55.4969168  63.0411196  60.5137491  55.2131653  61.5543985
  55.6153727  48.4725571  58.2779980  56.2207937  48.6142063  57.5502396
  55.1634550  49.3101597  58.3800983  50.9412909  41.1146545  64.9894905
  50.9822559  40.7109118  65.8564091  51.6411877  41.7675972  64.9960470
  27.4050850   8.9648013   0.5873172  26.7878384   8.5327868   1.1777417
  27.7641004   9.6870332   1.1028020   6.1766167  24.6861815  62.2303629
   5.8137246  24.8312902  61.3565922   5.4099293  24.6039748  62.7975178
  70.0825214  15.4929674  56.6749811  70.0042677  14.6826053  57.1783924
  69.1897583  15.8355761  56.6322994  55.1824284  53.3296108  50.8236599
  55.2458334  52.3815203  50.7081842  54.7046041  53.6334658  50.0519133
  21.3733339   1.5736894  52.4269152  22.3201632   1.7139779  52.4189711
  21.0166979   2.3191199  51.9438267  33.9017541  75.0494310  31.9260613
  33.2478673  75.3812882  32.5413148  33.3886487  74.6522638  31.2223451
  65.8798218  15.6181407  62.6384687  65.3390980  15.0056124  63.1371260
  66.2754488  16.1833489  63.3019829  64.4725466  64.9078894  48.8229227
  64.2938423  65.5922174  49.4678974  63.6102343  64.5561266  48.6017656
  53.4783358  28.6086326  18.5747830  54.0943140  29.2688518  18.8924520
  52.8228086  29.1075282  18.0873315  47.2428888  23.3576684  15.6176202
  47.6174683  23.8102489  16.3733212  46.3542932  23.1299453  15.8910672
  45.0249154   3.1335648  41.1008358  44.2373712   3.0614289  41.6400862
  45.2396447   2.2301777  40.8684397  66.3677502  26.1287332  37.5433278
  65.5072832  25.7616663  37.7460456  66.6205931  25.7070351  36.7220640
  41.6390038  33.5837579  59.2885637  41.2788868  34.2162132  59.9102926
  42.4855518  33.3371019  59.6610594  24.5943254  26.3642268  11.4159600
  24.8368400  27.2657638  11.2046496  23.8321108  26.1858516  10.8651034
  25.7057548  31.0458922  55.1823664  25.6310272  30.9278584  54.2354155
  25.9470797  31.9658065  55.2907658   9.7677250  37.8706098  38.8939857
  10.6311818  38.0370355  39.2721081   9.4209118  37.1374416  39.4023323
  57.4746418  10.3644001  59.5531607  57.4308300   9.8087877  58.7749529
  56.8942165   9.9388790  60.1842451  75.7104384  54.2885622  17.9330842
  75.3109061  54.6183857  18.7379567  76.1689460  53.4925327  18.2020394
  70.6191635  30.3728056  56.6802502  71.2640762  29.6834707  56.8387842
  70.8336544  31.0529017  57.3187637  34.9698633  14.1512971  30.2853505
  35.3561300  14.2214923  29.4123666  34.3399423  13.4343677  30.2115933
  69.2343855  60.1989508  25.5535650  69.6205807  60.1564646  24.6787620
  69.1945505  61.1343765  25.7526207  80.1478516  69.5441481  18.0102174
  80.5781542  69.8539612  18.8071458  79.4785964  70.2036568  17.8275125
  67.5122404  49.1971159  60.7646942  68.3862162  49.3277121  60.3968048
  67.0191050  48.7694979  60.0645542  27.2233701  48.1515455  65.7306433
  26.6636038  48.5446644  65.0610495  28.0424476  48.6440039  65.6774187
  71.9548499  23.4715149  61.7487256  71.0190570  23.5532650  61.5647714
  72.0276152  22.6715931  62.2693555  78.2537686  62.6383993   1.4111583
  77.7453982  62.0223114   0.8836810  77.8232705  63.4824035   1.2749021
  39.5107740  23.5723977  24.3076436  39.4820207  24.4489007  24.6912496
  39.5426220  23.7251906  23.3632581  72.6549171  30.4625802  25.0309674
  72.7634905  30.3132730  24.0917317  72.2613011  29.6537213  25.3581349
  25.1949734  21.9745498   8.6982457  24.5234674  22.2795825   9.3083827
  24.8691648  22.2312312   7.8355805  78.6957537  71.6974470   1.9312207
  78.7625109  72.2040102   1.1217944  79.5026719  71.8969771   2.4058787
  66.6103803  23.6983781  19.2179219  65.8390222  24.2649846  19.2319886
  66.4520286  23.0962281  18.4908978  74.0494967  35.4137468  44.3053961
  74.3861675  35.7691431  43.4828568  73.1161833  35.2767801  44.1429281
  75.0187813  75.5222794  35.0178067  75.4649340  75.5631849  34.1719358
  74.0986430  75.3786537  34.7965734  43.7378878   8.6114030  17.6148049
  43.0756658   7.9217153  17.5697724  44.1023058   8.5363250  18.4967343
  73.5657549  47.3497438  60.4096794  73.1983995  47.3150969  61.2929010
  72.8258133  47.5893879  59.8517466  73.2897937  76.0168835  21.3198583
  73.7293851  75.9082553  22.1631829  72.4414336  76.4017770  21.5398042
  80.2444445  62.1406576   3.6462991  79.9940526  61.2209889   3.5582988
  79.6968877  62.5999543   3.0095403  47.1065563   9.1454845  28.1919114
  47.4161810   8.2468896  28.0783669  47.8672975   9.6887498  27.9860799
  16.0978718  29.7580957  37.0457458  16.5599080  30.2380705  37.7330422
  16.5856667  28.9394212  36.9559765  71.9110047  72.7463934  13.2812230
  72.5858437  73.2446644  12.8201978  71.5274989  72.1834490  12.6087300
  18.7934184  22.3226571  64.6889734  19.6340847  22.3542809  64.2323399
  18.1536651  22.5978518  64.0323019  40.8169598   2.5691657   4.3398540
  40.1664680   2.7683263   3.6664836  40.4179424   1.8712096   4.8593490
  47.6125908  33.0049467  48.8750267  48.5301065  33.0651951  49.1410398
  47.4642324  32.0694780  48.7367535  75.5082881  76.2694070  19.5457665
  74.6621405  76.2178180  19.9902932  75.5747830  75.4466554  19.0611093
  80.9856606  64.5683622  61.4050722  81.3860798  65.2885342  60.9179974
  80.3658390  64.1779375  60.7889414  34.9045652   6.5943675   1.4923589
  35.1114887   6.2796693   2.3723475  34.1761679   6.0432868   1.2060372
  60.6823826  53.1791401  40.2545500  60.9475994  52.2847509  40.4689312
  61.4144945  53.5312223  39.7483015   2.0948811  53.9254332  62.4682713
   2.6165505  53.3712769  63.0487919   1.8980141  54.7022343  62.9917765
  20.5043548  11.3399844  12.3525159  20.6692833  12.2819905  12.3932330
  20.4616302  11.1445479  11.4164559  66.0100079  38.6487556  64.1636467
  66.9472837  38.6814451  63.9721346  65.5943441  39.0339136  63.3922148
  76.6692066  14.4800806  46.7731237  76.8668365  15.3942943  46.5696859
  75.7265854  14.4700456  46.9392538  51.0747487  68.5211536  18.9506356
  50.4188020  68.0491349  18.4376447  50.5724199  69.1716000  19.4413678
  60.5729532  62.7899027  57.8265715  61.3783884  62.4859190  57.4081230
  60.1055813  63.2580709  57.1347523  45.7676649  73.7160349  51.1784983
  44.9826431  73.3555174  51.5908098  45.5472374  73.7683105  50.2484894
  32.5703580  37.2903269  13.8198487  32.6630933  37.9643498  13.1465547
  32.8645570  36.4848560  13.3945386  81.6086804  76.5684125   5.3495090
  80.6944787  76.4206526   5.1073663  81.6878831  77.5199649   5.4166381
  73.1232069  -0.0142856  16.2926309  72.6362501   0.7281308  15.9349648
  72.4643384  -0.6986136  16.4101808   3.1629045   4.5016262   4.8652713
   3.0354888   3.6503670   4.4465224   2.9533012   4.3490526   5.7866923
   8.2434280  64.0709326   0.5391757   7.9547126  64.5677063  -0.2263911
   7.5198419  64.1473648   1.1611192  17.4760539  71.7237493   2.9511420
  18.2374532  71.2164494   3.2324807  17.2900064  72.3052666   3.6883370
  18.5149521  40.6961732  20.0452535  18.6088032  40.2444606  19.2065732
  18.3916944  41.6156774  19.8095719  69.0122163  72.6730105  37.2980325
  68.8748156  72.2407219  38.1409375  68.9519870  71.9672152  36.6542546
  52.5495291  31.4585328  53.8543558  51.9378138  31.8484735  54.4788361
  52.6606178  32.1272087  53.1785154  69.1212416  48.6201811  65.2051067
  68.2515430  49.0184832  65.1703215  69.7251081  49.3521595  65.0794649
  43.5341835  60.7344866  49.0297222  42.7204180  60.6906796  48.5276318
  43.2635021  61.0288954  49.8993683  38.7483716  30.1272416  53.6584759
  37.9876137  29.8410058  54.1639948  39.1515350  30.8080482  54.1971731
  79.1107607   7.5360984  36.3523674  79.3060446   7.3750055  35.4292512
  79.5110607   8.3857155  36.5371394  80.1598107  67.8241727   5.1353662
  80.9933697  67.3634335   5.0398175  79.6592128  67.5773594   4.3577306
  52.5962299  20.5416160  11.5750520  52.2288364  19.6577888  11.5648763
  52.9086584  20.6814294  10.6811444  13.9775652  26.0301356  12.1013324
  13.4720081  26.7661958  11.7565791  13.3260435  25.3487020  12.2668616
  61.1355877  45.1469707  30.7429290  60.2818394  44.7818041  30.5105519
  61.4312267  44.6139479  31.4809775  49.9358267   6.4630847  22.6480119
  49.1884035   6.1018806  22.1714417  50.5414003   6.7477660  21.9635694
  36.1315912  12.9609160  16.0933225  35.7950443  13.3236651  15.2739446
  36.9216484  12.4847322  15.8378045  41.9391102  41.0692887   8.9301173
  42.0725054  41.2167554   9.8664348  41.1526531  41.5720563   8.7181203
  15.3231377   9.5963817   5.8320348  15.1730579   8.8536887   6.4169423
  16.2529034   9.5430045   5.6108586  51.6689247  15.9623151   2.2463147
  50.7305569  15.9193378   2.0623128  51.9289774  15.0507216   2.3789947
  65.0089025  62.1528578  48.8027430  64.9743891  63.0944681  48.6341667
  65.3033924  62.0827436  49.7108126  24.0246589  76.3792345  19.3282144
  24.8790509  76.3797948  19.7597711  24.1478402  75.8302662  18.5538117
  15.4207605  48.0476956  34.5325486  15.9483189  47.7756028  33.7816350
  15.4767031  47.3128896  35.1434152  71.8547440  48.2350063  58.7231302
  71.9740820  48.4667921  57.8021193  70.9488726  47.9306936  58.7780952
  14.7539228  37.3828893   8.4978358  14.1713137  36.7315106   8.8883512
  14.7536034  38.1090312   9.1214959  74.8602962  54.5724201  57.5737762
  75.1415825  54.9804640  58.3926821  75.5957317  54.0153265  57.3187876
  48.8828039  45.8921146  43.0675459  48.3689022  45.9897327  42.2659206
  48.4570837  46.4738464  43.6972952  68.9712906  11.5248430  62.1066856
  69.3592358  11.2287068  62.9301167  69.7119999  11.5948331  61.5044594
  36.4533734  31.0174179  55.5619144  37.2046137  31.6034245  55.6539249
  35.9416580  31.1570907  56.3586998  47.4546862  24.9976492  65.4933119
  47.7775097  25.2401733  64.6254396  48.0708456  24.3328381  65.8008909
  13.7158496  39.8770265   3.5303752  13.6927945  40.4510169   2.7647130
  13.6145599  40.4684064   4.2761914  60.3128719  47.9272652  46.6033697
  59.9869347  48.6470842  47.1436119  59.9911833  47.1372080  47.0376015
  79.7750092  23.3734775  49.3023491  80.6994629  23.1348324  49.2340183
  79.5702410  23.2747054  50.2321577  60.3895182  37.2156816  14.1935174
  59.6295828  37.2054534  13.6116044  61.0790056  36.7773681  13.6947934
  72.7448212  71.0282275   6.5547292  73.3303010  71.7275855   6.8451516
  72.7837359  70.3769705   7.2551410  46.4119775  74.0172455   0.0695912
  46.8681009  74.7522470   0.4794137  47.1123464  73.4361240  -0.2270968
  44.7271961   2.8545337   5.2306001  45.6217617   2.5806384   5.0281922
  44.7986168   3.7919812   5.4103868  81.6394602   1.4454993  37.8823042
  82.0662390   1.8857773  37.1472907  80.9326922   0.9398850  37.4809742
  79.6470164  45.4998403   9.7174327  80.0180958  45.6730180   8.8522498
  80.3488563  45.0574880  10.1948993   8.1803859  10.4866746  65.5306986
   8.9672364  11.0308793  65.5613363   8.5062731   9.5899060  65.6071228
  80.4576778  48.8044930  41.3841343  79.7339201  48.4259558  40.8850145
  80.1348305  49.6619081  41.6613388  30.2695043  67.7498147   1.3645474
  30.3159005  67.0070931   1.9665830  29.7587449  68.4082982   1.8354575
  12.8411014  29.5981482  27.0583646  12.5403602  30.4880825  27.2422139
  13.2917125  29.6667048  26.2166516  39.6590734  26.7219949  57.4492455
  40.2652597  26.2370467  58.0092430  39.0357614  26.0628915  57.1438026
  71.1269283  21.7933774  66.0224581  71.3603973  21.1524487  66.6939735
  71.4353752  22.6294661  66.3718128  61.9747210  48.4822845  56.4052677
  62.7893448  48.7219286  55.9634590  61.5659046  47.8418922  55.8230305
  60.7106203  30.9806018   6.9140498  61.1619181  31.8241076   6.8815772
  59.7994036  31.2036519   7.1042125  81.3044213  25.4178910   4.3377559
  82.1696494  25.4568725   3.9302079  81.1267303  26.3184361   4.6091859
  71.9256777   9.5039992  11.5721766  71.3562197   9.6071343  12.3346154
  71.6327089   8.6898761  11.1627881  73.7406015  65.3286457  32.7451348
  73.6776733  64.6401930  32.0830846  73.9422798  66.1213398  32.2479510
  68.3942080  45.9774590  63.7008047  68.3200693  46.8977833  63.9532614
  68.7601280  45.5460215  64.4729376  71.6107559  64.4818211  66.1551189
  72.3331976  64.4543839  66.7824554  71.8608236  65.1635981  65.5315113
  18.7247938  28.0916219   6.7758481  19.4034809  28.3288245   7.4077861
  19.0872139  28.3476739   5.9277169  10.6398316  60.8718395  52.6519442
  11.1069603  61.2176895  53.4124756  10.7067318  61.5643215  51.9945002
  80.8038127  16.6150196  64.8071861  80.0484978  16.2681969  65.2819920
  81.3943993  16.9279392  65.4924059  46.9621605  13.0452256  20.2442281
  46.3336319  12.8152566  20.9285466  46.4805025  13.6361651  19.6654050
  71.2887096  67.0456076  58.8012362  70.6223774  67.2384739  58.1416702
  71.3204527  66.0896063  58.8372135  36.0598844   9.5755677  16.0241906
  35.2690166  10.0895314  15.8610837  36.7797369  10.1709085  15.8153455
  16.7725080  36.2381558   6.8704049  16.0390419  36.4667563   7.4413650
  16.4245075  36.3331561   5.9837834  38.6104721  51.3828855  36.8458478
  39.4513506  51.7510324  36.5745179  38.4948915  50.6133370  36.2884633
  70.3499126  54.9051046  37.3441148  71.1160755  55.4732561  37.2639203
  70.3607750  54.6157122  38.2564545  48.3314508  22.7922826  23.0111234
  47.9580587  22.2495704  23.7055795  48.6072248  23.5938649  23.4556977
  55.1054859  42.7042770  62.9195929  54.3784904  42.1151924  62.7178955
  54.7901678  43.2311869  63.6538792   3.4811941  57.9187155  61.3765574
   2.7881959  58.4047318  61.8235111   3.6618418  58.4299803  60.5877590
  21.7064184  39.1802840   4.5055692  20.7618898  39.1332059   4.3576495
  21.8062538  39.0744500   5.4516427  58.8594694  10.3067641  31.0882489
  58.2965352  10.3687053  30.3165643  58.7131800  11.1278634  31.5579621
   6.5192433  37.4381471  43.8068962   6.7961712  38.1402135  44.3956614
   5.5655308  37.4208641  43.8866901  29.8554570  71.5079448  42.9280202
  29.4345147  71.2106344  42.1213929  29.9809224  72.4482366  42.8001897
  37.7209753  23.6519961  14.1214292  37.1335977  23.9554982  13.4292523
  38.2748884  24.4084458  14.3142812   8.3568628  76.0087845  26.5822331
   8.8224990  75.7236811  25.7960145   9.0242393  76.0106727  27.2684018
  59.7310591  30.0208974  47.8210163  59.6350002  30.2163744  46.8889236
  60.6090164  30.3318787  48.0417204  57.5782871  42.7717400  38.4823442
  56.6586351  42.9462814  38.2823324  57.9579544  43.6366034  38.6375976
  39.5805925  32.5197129  30.8442227  39.5536083  31.9095616  31.5812604
  40.4671902  32.8799777  30.8638684  10.7659347   6.3049038  60.8552074
  11.6113908   6.7381962  60.7381964  10.6364209   6.2845524  61.8033838
  63.8202763  50.0521851  55.2543592  63.9826250  49.8654747  54.3296862
  63.6041164  50.9844017  55.2761078  43.4397739  16.4824681   6.6268031
  42.9175466  17.0957093   6.1096494  43.4506172  16.8596845   7.5064723
  33.1345327  76.6870615  12.0412795  33.7554891  76.4453837  11.3540856
  32.3877198  76.1040041  11.9051187   1.0874094  45.5715756  14.5317475
   1.0941805  46.4116292  14.9905507   0.5136599  45.0154500  15.0587766
  32.8815407  12.4344974  25.4260747  33.4677452  11.8587689  25.9171216
  32.7749533  12.0016866  24.5789926  61.6049623  59.7693634  38.7414503
  61.1236429  59.8772192  39.5617747  60.9771442  59.3575430  38.1477523
  60.3757566  48.3350949   5.9316270  59.9397367  48.8320069   5.2393882
  60.5158228  47.4676614   5.5519263   7.5468070  76.7321894  32.9861180
   7.1810729  77.1607205  32.2122781   7.6157052  75.8099768  32.7391259
  55.9565639  50.5818319  37.9998779  55.2021313  50.3051758  38.5199952
  56.4875841  51.0997772  38.6048412   8.9003522  69.7021791   4.0615575
   8.9699704  70.5356094   3.5959641   9.5217807  69.1263220   3.6160819
  34.7918028  30.7129865  10.9507243  35.2205223  31.2651877  11.6045634
  35.0764460  29.8243194  11.1639754  38.5409212  75.6704521  31.6697598
  37.9869890  76.2023640  31.0983920  37.9617286  75.4026794  32.3832488
  39.5327896  25.9878449   8.9198939  38.9370579  25.7542090   9.6317594
  38.9931339  25.9406476   8.1307332  72.6155173  52.0358404   4.6247975
  72.2143304  52.6047990   5.2817361  71.8796717  51.7184660   4.1013114
  33.7463564  15.5152993   0.5327289  34.0787548  15.0447135  -0.2316602
  33.5690159  16.3993077   0.2113120  16.6254038   7.0328288   9.2642228
  17.3907274   7.1161132   9.8330657  15.9160942   7.4482350   9.7546784
  70.0992727  34.9558377  34.8956704  70.0004292  34.0674901  35.2381635
  69.9507809  34.8674607  33.9541984  49.2946672  51.0266018  30.8437324
  49.9640894  50.5980158  31.3770437  49.0435410  50.3659773  30.1981711
  10.4503435  14.0515380  11.0724656  10.1654524  13.5040097  10.3408401
  11.1790818  14.5622592  10.7198493  72.7387047  52.6293755  62.5590944
  72.9252052  52.9045391  63.4567213  71.9628334  53.1319761  62.3108149
  61.5839815  26.4753151  45.9259605  61.7361641  27.3685956  46.2343836
  61.9945574  26.4471006  45.0617504  51.4959812  51.4404631  55.0521994
  51.4203215  50.6939030  55.6464720  51.8562317  52.1424294  55.5941343
  74.0801703  59.4008729   2.8864781  74.6885335  59.0875336   2.2171895
  74.1542851  60.3544995   2.8499333  69.8241806  65.4332113  51.4159203
  70.4530811  66.0299826  51.0102367  70.0216770  64.5793152  51.0310984
  11.8248147  21.7821984  10.5413358  12.6081962  22.3211007  10.4311721
  11.3774151  21.8344979   9.6967427  63.6109156   9.8893933  12.1023623
  64.3942732   9.7984939  11.5598504  63.3921331   8.9936070  12.3591392
  47.1926546  57.7941084  65.3861761  46.2799644  57.7827883  65.6744528
  47.1429062  57.7456570  64.4314957  59.0754032  62.8805637  52.4249077
  58.9208078  61.9373178  52.3737240  59.9271679  62.9607201  52.8542089
  26.6267831  71.1282322  37.2858827  26.0322339  70.3879496  37.4072568
  27.5010068  70.7533237  37.3927037  30.1683515  14.4179587  21.5904443
  29.6483559  13.6325555  21.4202230  31.0420841  14.2020087  21.2645928
  50.2609056  12.7246432  17.1033875  49.6617788  13.4692054  17.0494763
  50.1560062  12.3969989  17.9966275  16.6026218  26.8788918  58.6764860
  17.5265891  26.8271836  58.4318638  16.3639600  25.9798439  58.9022923
  10.5673428  51.6485310  59.7315693  10.1091786  52.4842453  59.8204947
  10.7809659  51.3957500  60.6297302  19.4369644  10.6393151   1.6826360
  19.4199079  11.4233928   1.1338536  20.0168413  10.8679633   2.4090592
  66.9395768  70.4531810  15.6905381  66.3098227  71.1705777  15.6199090
  66.7439186  69.8882577  14.9430005  72.4748606   2.6389508   2.5046412
  73.4057039   2.7537208   2.6959435  72.3340887   3.1311898   1.6958682
  64.6675825  62.0335340  52.5431108  64.4899082  62.9523230  52.7443409
  64.7845888  61.6193771  53.3981085  33.4387630   5.5429177  28.6194245
  33.1220287   6.1615186  29.2776410  33.3258432   6.0007911  27.7864568
  50.3914499  45.6573153  60.2596617  49.9331856  45.8470392  61.0783386
  49.8992062  46.1364317  59.5930481  59.8541922  50.6345849  16.8564240
  59.4434828  50.9681706  17.6540868  59.2094129  50.7988935  16.1683099
  60.4014130  60.5068541  60.2852869  61.0363503  61.0048723  59.7704363
  59.5691987  60.6377220  59.8308468  43.5382993  50.3750667   3.0805270
  44.4673879  50.2994415   3.2980077  43.0878122  49.9221334   3.7933700
  72.3855829  67.2935963  53.5255146  72.0525980  67.2464228  52.6293373
  72.2297716  66.4203310  53.8851929  50.2578878  36.9055939  53.2403278
  49.8244286  36.3690662  52.5766420  49.5648241  37.4708676  53.5814428
  78.6434603  36.8591022  56.1343622  79.0670109  37.3500943  56.8384647
  77.8008413  36.5921855  56.5017557  10.3732701  69.7467327  65.2101612
  10.4606266  68.8014364  65.0876093   9.4575901  69.9316883  65.0014687
  51.4896822  43.0386829  51.0061741  51.4203644  42.1189737  50.7501268
  52.3982620  43.2723761  50.8161736  24.3469137  34.4297366   7.3197000
  24.3074221  33.6359363   6.7862622  24.8536867  35.0475125   6.7926662
  80.4196930  56.0496092  58.0581188  79.9949741  56.4758587  58.8025379
  81.0296440  55.4274082  58.4544182  69.4043875  63.8746738  54.1631889
  68.5352325  64.2020321  54.3947887  69.3764782  62.9437876  54.3843460
  48.8453096   4.3807273  24.1437165  49.6381515   3.8451867  24.1148107
  49.1171211   5.2299981  23.7957398  32.9097790  39.6076636   2.6082913
  32.0728821  40.0648122   2.5255363  32.9012102  39.2512851   3.4966342
  20.7441753  24.2719035   1.5477530  21.0714001  23.8271813   2.3296611
  20.0680584  23.6873965   1.2050454  71.2126255  30.2946949  45.4444408
  71.4293432  29.3907022  45.2162743  71.7761278  30.4947400  46.1918879
  24.0347171  26.1288190  48.0274725  23.4113407  26.6081285  47.4816751
  23.8437939  25.2066994  47.8557920   5.7333201  15.4215770  10.7972543
   5.2154511  16.1893468  11.0392682   5.2143377  14.6770291  11.1014525
  50.7766104  41.9125175  47.2501898  50.3280497  41.7502642  46.4203119
  50.9497976  42.8539181  47.2487783  46.4052719   4.2501121  19.7523610
  46.4731974   5.1803021  19.5370404  46.9005722   4.1558270  20.5660073
  10.7311637  69.0879723   2.0416038  10.8355434  69.6886870   1.3037173
  11.6244132  68.9196011   2.3415868  44.7747511  12.6743798  21.7856614
  44.5087999  13.5817246  21.9347493  44.5076507  12.2128062  22.5805394
  10.2346631  75.5366325  63.6482096  10.7960530  75.2357054  62.9337120
  10.2415486  74.8158789  64.2780542   9.9318333  23.5776591  65.4912949
  10.6065770  23.0411768  65.0751972   9.3556424  22.9462314  65.9220362
  55.0243944  29.1042333   7.3847596  54.2465109  29.2275291   7.9287498
  55.7547182  29.1238503   8.0032031  42.1938986  49.4317155  10.5292480
  42.0400137  50.1027207  11.1942975  42.3244518  49.9235253   9.7185056
  15.2045739  65.0355816  43.5509253  15.3419352  65.5398989  44.3528128
  16.0704553  64.6899652  43.3340645  61.4874935  43.3367968  64.8182344
  61.9362688  43.1564903  63.9922094  60.5583477  43.3482504  64.5884800
  65.0259584  12.0425181   0.3166692  64.4958872  11.3008456   0.6085317
  65.9241194  11.7115836   0.3214089  59.5895666  12.2498803  24.5124738
  60.3039163  12.6435189  24.0114800  59.9324125  12.1791415  25.4033677
  80.4350185  50.9571505  65.1909399  80.9846592  50.9306431  65.9741545
  79.7750378  50.2797318  65.3384590  70.4290384  43.8470655  19.7429196
  70.1207823  42.9760270  19.9929254  70.6569380  44.2675977  20.5720441
  70.8082008  44.2291784  50.7381296  71.0778475  44.8002672  50.0188351
  70.9086990  44.7683525  51.5226173  10.6480523  24.7880030  54.2869329
  10.4467125  25.0120592  55.1954985   9.7931881  24.6480989  53.8796663
  69.7231531  32.0088124  54.6979475  70.1118708  31.5031624  55.4117012
  68.7847757  32.0074630  54.8868370  74.3382680  76.7938039  14.7658460
  74.5351779  77.2179624  15.6010358  74.7246587  75.9214851  14.8432557
  32.4922508  49.5296483  32.7213876  31.9706816  49.2729764  33.4818570
  32.9544157  48.7308507  32.4672906  42.9809243   5.2445610  42.8701782
  42.8911359   4.5572193  43.5302830  42.5568349   4.8851498  42.0909452
   9.3180867  67.7097416  52.2574902   8.5249444  68.1191063  51.9117022
   9.2598935  67.8368235  53.2044315  32.3988247  76.9467020  52.7723360
  32.0811200  76.7223310  53.6469507  32.1212554  77.8534555  52.6420021
  46.5272319  13.8202294  41.5376043  47.2354316  13.9151867  40.9006834
  46.9639110  13.5367687  42.3408413  21.6653913  40.7968812  27.3905866
  20.9962171  40.1505904  27.1653192  21.7298740  40.7523398  28.3445756
  59.1499758  21.1271906  63.1386042  58.2033253  20.9868956  63.1186438
  59.2664242  22.0213175  62.8173494  39.4364733  18.7773805   6.0163085
  39.4746488  19.6651750   5.6605069  39.2896360  18.2193713   5.2525680
   3.9324399  28.3930087  62.4667025   4.5703907  28.9834261  62.0658779
   4.3583889  28.0884480  63.2679796  36.6657186  22.0722246  59.8431587
  36.5904999  23.0208325  59.9466801  37.6081252  21.9046760  59.8485947
  47.5668997   9.0016131   4.3800132  47.4699396   9.4060760   3.5178964
  46.6883701   9.0316491   4.7588412  63.1176043  20.6850886  48.6971045
  62.5348473  20.8344913  49.4416142  63.6008453  19.8913634  48.9267015
  59.2311472  40.9340100  23.6679761  60.1633924  40.8429151  23.8650910
  59.2030424  41.1426120  22.7342050  35.7342476  40.8205419  20.2314965
  35.5536121  40.9278111  19.2976396  35.0686115  41.3530545  20.6669156
  19.1974348  37.5578361  10.4786174  18.5566563  37.4509006  11.1816089
  19.8989099  38.0776696  10.8709638  72.4641371  47.8937435  45.6896257
  71.6402245  47.4460745  45.8819723  73.0169344  47.2190619  45.2953577
  63.7135083  15.5215080  38.4738731  64.1297681  16.0195835  37.7703929
  62.7788408  15.5544670  38.2700443  51.7745209  44.9180794  41.7848921
  51.3141298  45.3776312  41.0826921  51.8151617  44.0085173  41.4894772
  23.7097985  67.7995726   0.7766072  23.5143001  68.0040213  -0.1378425
  24.4744308  67.2252247   0.7354371  14.5142883   1.2637548   5.2372329
  13.9529795   0.5316954   4.9817769  14.6901983   1.1177044   6.1667220
  52.0132393   5.5019860  24.4240968  51.4219421   5.9148841  23.7947194
  52.3851437   6.2325625  24.9182431  67.2638601   8.3673387  13.7369363
  66.8087763   8.4948592  14.5693223  67.3163313   9.2438703  13.3559148
  81.7292260  34.5409970  36.1804215  81.3685320  34.5777516  37.0662992
  82.3352550  33.8003116  36.1991040  67.6126671  64.8934221  63.3375645
  68.1182384  65.0149822  64.1412115  66.7257595  64.6978045  63.6398220
  75.3485012  43.3309317  49.3023396  75.5499458  44.1446066  48.8401842
  74.7326946  43.5908079  49.9875259  58.9815521  58.3603716  44.0727901
  59.0118980  58.0528784  44.9787474  59.8996258  58.4146690  43.8074112
  17.2437233  28.6285691  32.3394792  17.4827188  29.5420938  32.1826760
  17.9062218  28.3094697  32.9522626  11.8698365  52.7683565  10.1770274
  11.5295989  53.5712299  10.5718247  11.0911805  52.2420129   9.9956672
  12.5076527  24.3813853   9.2346780  12.9823154  24.4636874   8.4075419
  13.1816524  24.4746547   9.9079196  62.0880127  73.0635166  32.1913886
  61.6127539  73.8193846  32.5363898  61.6648722  72.3079920  32.5992680
  34.5522875   6.0715680  15.4666249  33.6490911   5.7587485  15.5176847
  34.5475334   6.8972306  15.9508721  32.4074978  23.1603818  11.6056172
  31.8112606  23.8969998  11.7402713  32.3135704  22.9426484  10.6782548
  33.4922715  13.1977773  66.3334465  33.0165692  13.0529666  65.5155373
  33.7578984  14.1166413  66.2965679  26.7702955  25.0307899   3.3216636
  27.6968140  24.9037795   3.1175344  26.5930933  25.9386783   3.0755584
  24.7922844  22.2348790  24.1749684  24.0038437  22.7659087  24.2872540
  25.1272816  22.4827437  23.3132379  64.8133373  58.2208347  34.4549537
  64.3190193  57.4265385  34.6573806  65.1177263  58.5368347  35.3056693
  11.2539883  40.8613634  61.0528612  11.6263886  41.0523272  61.9137287
  11.3251324  39.9107099  60.9666538  65.3855753  42.3576880  51.5768623
  64.4972658  42.4447441  51.9226360  65.6927586  43.2586479  51.4761591
  33.3152813  23.0586963  15.7538907  32.3697752  23.0139689  15.6115739
  33.6916536  22.5818782  15.0141446  73.1520163  59.7582814  22.5443666
  72.6834189  59.2178842  23.1804673  72.9150616  59.3874308  21.6943376
  75.6560564  58.7361383  66.6920614  74.9098253  58.6190319  66.1041355
  75.2710104  59.0607071  67.5060797  26.2975067   7.3636823   2.4680631
  25.7765049   7.9213433   3.0458228  26.2612146   6.4977412   2.8743426
  31.9225019  28.2005792  16.7445199  32.5611204  27.8267531  16.1373536
  31.2289995  27.5429492  16.7975728  81.0536480  71.4978361  25.1360798
  81.5549564  71.0202312  25.7970023  81.3776684  72.3967266  25.1930070
  56.1153221  38.3362055  57.7241516  56.8521595  38.9448929  57.7770472
  56.4662075  37.5066423  58.0480909  60.3360510  15.5629408  47.7284193
  60.9101725  14.9689662  48.2119560  60.6025839  15.4626060  46.8145704
   1.3970681  24.9794340  62.2205973   0.6092091  25.1938367  61.7210627
   1.6660328  25.8104944  62.6120472  20.5638320  16.4575489  46.8089867
  21.0493810  16.4531620  45.9840918  19.6478946  16.3609703  46.5482903
  54.5279211  15.7143264   6.3892715  55.0420278  14.9170833   6.2614553
  54.3642897  16.0383706   5.5035798   9.8315163  33.4648013  28.2482409
  10.2038498  34.3306732  28.0813241   8.9979287  33.4677815  27.7777505
   8.9103836  22.7079110  17.1321599   9.7151321  23.2052093  17.2781198
   9.0504784  21.8834929  17.5979249  70.3801680  50.9185076  41.3526821
  71.2415934  51.2426567  41.0898066  69.9992180  51.6351509  41.8601561
  10.6253202   8.5317143  40.7979298  11.3576181   7.9460247  40.6057310
  10.8265502   8.8912209  41.6619253  23.8580751  65.7904243  44.3112707
  24.3219328  66.3698244  44.9157238  23.7007833  64.9930859  44.8169851
  40.9139299  61.0586977  59.9050331  40.4369640  61.2820625  59.1057587
  40.6640244  61.7384100  60.5309486  32.7796310  44.8277478   1.3580052
  32.6690000  44.1568761   0.6842629  31.8923611  45.1429849   1.5300862
  21.9178016  65.9290692  12.4802796  21.3503415  65.6967828  13.2153050
  22.8029735  65.9035179  12.8436725  64.2255604  25.2097424  61.1426926
  64.2195784  24.3760784  60.6723785  64.6847212  25.0198944  61.9608355
  74.9599260  40.6755261  20.8426873  75.7269186  41.2441497  20.9106652
  74.2198080  41.2457948  21.0506265  80.1858902  26.8386722  66.2610388
  81.0373974  26.7147446  65.8417416  79.5661020  26.3987947  65.6791544
  69.7395693   1.0368069  65.2058172  70.2964484   1.7759951  65.4501867
  70.2985655   0.4870613  64.6566963  61.7315292  52.4698162  50.5752945
  60.9589195  52.3866463  50.0163746  62.4662352  52.2495317  50.0026560
  79.2557383  74.7525024  48.2976103  78.7226343  75.0840759  49.0201664
  79.3634272  75.5041790  47.7148390   8.6484070  35.6825471  43.1325102
   9.3673726  36.2465000  42.8474283   7.9082413  36.2783027  43.2485580
  77.9700750  32.8128581  13.6523454  78.1058687  32.7025371  12.7112691
  77.0867819  32.4783759  13.8077180  24.1627617  53.6767387  59.4801664
  24.2511578  52.8953409  60.0259066  24.2726441  54.4074917  60.0885725
  10.3666134  17.4489105  37.4549484  11.2120171  17.3254311  37.0233655
  10.5671235  17.4098921  38.3900976  71.4568233  52.8710413  18.7189853
  70.5850649  53.2411957  18.8577414  71.5028286  52.1324348  19.3260872
  75.2908503  64.0009639  12.2055118  74.6524798  64.6710917  11.9613044
  75.9023987  64.4531938  12.7866523  51.9831419   7.6369083  21.4199090
  52.5503063   8.0124664  22.0933414  52.1434069   8.1748039  20.6445265
  80.7198582  16.6026759  51.2624407  81.4424608  16.4911938  50.6446600
  79.9323051  16.5599561  50.7200670  43.1694555  60.1113149  22.4646394
  42.4439537  60.2592727  23.0712621  43.6970460  60.9078237  22.5234239
  81.1067312  64.1836790  64.0977430  80.8985465  63.2495074  64.1123533
  81.1104386  64.4137387  63.1686115   4.3209661  74.3413214  27.7887893
   3.6996282  73.6367996  27.9726887   4.3951429  74.3522273  26.8345308
  22.1813310  70.9177653  51.8745041  21.7068256  70.7314370  51.0643435
  22.6975644  70.1281981  52.0367241  42.1241821  70.0032053  45.0677586
  42.9361690  70.4622237  44.8528004  42.4116720  69.1702275  45.4415607
   7.3685730  44.9808041  54.3073750   8.0018891  44.4609634  53.8124895
   7.7125133  44.9905078  55.2005911  44.2065048   4.7159791  58.7581444
  43.7867069   4.9802208  57.9395008  44.6472120   3.8930297  58.5465717
  20.9147954   1.0297334  48.9935160  21.3953328   1.5820529  49.6101665
  20.7890272   0.2033575  49.4599056  56.0037219  18.0389950  23.1501786
  55.4912078  18.5119793  23.8058106  56.8902408  18.0155560  23.5104100
   2.0917714  77.0093540  63.4524536   2.4748195  76.2835268  63.9450836
   2.8385318  77.5606586  63.2186985   2.3509491  59.7083144  30.7538152
   2.6706398  60.5429057  30.4110527   2.0941103  59.9022297  31.6552925
   1.9337714  74.0594624  31.6816950   1.1876477  73.9979548  31.0852480
   1.8930090  73.2557313  32.1999478  78.6694431  21.2871242  59.5479345
  79.3153334  21.6474152  58.9402771  79.1721296  20.6974101  60.1098776
  29.3239988  29.8359911  50.8448887  29.8309720  30.5875246  50.5376339
  29.9191106  29.0919248  50.7530165  10.5539000   7.8266925  37.4594665
  10.5164874   7.0116806  37.9600549   9.9779099   8.4259826  37.9341435
  63.1610042  13.3348222  59.1702004  63.8191849  14.0171976  59.3020900
  62.3295313  13.7604041  59.3793948  42.7673162  62.3918990  58.0587816
  43.5227216  61.8964652  58.3752298  42.0218719  62.0182721  58.5288286
  36.1752725  17.1920562  59.1111183  35.7083941  17.0340419  58.2905769
  36.5359116  16.3381135  59.3497658  52.8390276   5.2970883  10.0375382
  52.1037065   5.0680301  10.6059329  53.5728466   5.4308245  10.6374185
  26.4623237   9.4918895  61.1201429  25.9718823  10.0782633  61.6962194
  26.4352274   9.9192744  60.2640820  53.1442177   2.7796194   4.5215671
  52.5898706   3.4321496   4.0936248  52.5286686   2.1976039   4.9672000
  12.1010793  63.2455389  57.4683857  12.4473012  63.3970563  58.3478212
  12.3230112  64.0403644  56.9833803  34.5960951   9.6550250  65.3364038
  34.1431117  10.2210450  65.9614325  34.5343661   8.7793100  65.7179070
  29.6496296  25.0826907  16.5995264  28.7538242  24.9118996  16.3086689
  29.5472836  25.5811262  17.4102783  53.6906941  54.9989049  49.1626835
  53.0375852  55.0121872  48.4630346  53.2476135  55.3977982  49.9115467
  43.7590218   5.2429330  48.2499647  44.4196415   4.8048690  48.7865448
  42.9829121   5.2805728  48.8089514  37.2948956  26.6516304  35.3658605
  38.1833529  26.8469715  35.6637120  36.7514205  26.7597580  36.1463571
  28.5472596  61.0754947  26.2892604  29.4071687  60.8089010  26.6144013
  28.5548509  62.0308952  26.3474345  18.6271846   1.0973163  33.5672092
  18.3313787   1.9992021  33.6910343  19.5509434   1.1117174  33.8175964
  53.6333717  69.2360310  13.2995164  53.2562125  69.3048320  12.4224472
  53.0754913  69.7911428  13.8443565  58.6715635  74.8087518  53.8578129
  59.3892278  75.4096061  53.6574030  57.8787439  75.3182509  53.6902428
  22.9670966  63.9278213  61.6340017  22.0433009  63.9600364  61.3854218
  23.0675901  63.0833856  62.0733881  33.2718576  63.6942236  42.5751686
  33.4012807  62.8876368  43.0740690  33.7883104  63.5689024  41.7790508
  19.7215761  74.9994623  17.0008516  19.4389690  75.4026965  16.1800182
  19.5043720  75.6459312  17.6725149  62.2186947  12.9755723  51.1257839
  62.1874714  12.1939480  51.6774321  63.0941343  13.3351195  51.2691784
   0.4185410  31.8125987  15.3208816  -0.5122261  32.0229745  15.3960788
   0.7700940  31.9646668  16.1981022  54.7114169  55.0999853   6.3733785
  54.9624359  54.2731175   5.9616630  55.5068385  55.3995058   6.8136374
  74.1674172  28.6544725   8.4947745  74.7356116  28.2753476   9.1653316
  74.6856915  28.6143324   7.6910274  30.1750148  72.9538284  24.7352314
  29.4276298  72.3559011  24.7467041  30.5459750  72.8567393  23.8581944
  45.6608295  21.2795496  62.4589491  44.8718834  21.7772818  62.6735544
  46.0846996  21.1266780  63.3034611  70.2470541  10.3325450  54.9495745
  70.5356741  11.2012732  54.6698570  70.9916496   9.9776262  55.4352093
  15.2037681  74.6004055  27.9562593  16.0040916  74.2115311  28.3090901
  15.4789460  75.4549051  27.6240873  31.7156280  74.3044172  45.0524950
  31.0885919  74.6494530  44.4168806  32.3005737  73.7505512  44.5354748
  79.3491030  39.4306111  53.0500793  79.0422773  38.5650802  53.3201647
  78.7818480  39.6676397  52.3164082  28.5453809  55.4992167  46.2123871
  28.9849294  56.2602536  45.8331108  29.1659892  54.7802417  46.0934258
  67.0847225  13.8435960  17.7139306  67.5186205  13.2355499  18.3124685
  66.5648270  14.4104695  18.2836616  27.7985787   4.3821946  33.7244391
  27.8998709   5.3114492  33.5183859  27.4490047   3.9955637  32.9216003
  48.1290971  65.1620051  16.0867898  47.6032078  65.4516169  15.3412740
  47.5332629  64.6201798  16.6041295  62.9132557  25.8079362  57.2869492
  62.5545645  24.9217319  57.2398996  63.8306952  25.7088065  57.0325661
   3.2861538   9.5880288  30.7468319   2.8734036  10.4513800  30.7690668
   4.0419217   9.6688157  31.3286495   0.7622851  57.6527957  16.0230064
   0.2484644  57.5225298  15.2259803   0.1357473  57.5254683  16.7353749
  22.6889146  30.8347217  42.8610897  22.5160421  31.2995092  42.0423555
  23.3287872  30.1631920  42.6247787  70.7763516  76.3511130  35.8581845
  70.2703892  75.7662627  36.4222638  71.6314828  76.4137265  36.2836949
   1.6325200  43.2211534  46.1575603   1.9135726  42.5421230  45.5442429
   1.7595757  42.8304784  47.0221233  65.4187441  41.2339163  60.7457066
  65.2201509  40.3258276  60.9740973  64.6568251  41.7287970  61.0470486
  18.7463249  56.8416015  53.4157228  19.0477241  56.3337008  52.6624441
  18.1736959  57.5103370  53.0400562  18.7567384  22.1731898   1.0293595
  17.9509408  21.7293426   0.7649343  19.4004018  21.9139633   0.3700177
   1.5338106  32.4716282  58.4323978   2.3335788  32.9930401  58.5011959
   1.2196659  32.6312160  57.5424099  44.9563230  72.2653477  60.4661417
  45.4261697  73.0992876  60.4620171  45.3173936  71.7833201  59.7221613
  64.5232140  16.0812709  13.1021897  64.6479451  15.1384398  12.9938285
  64.8710214  16.4630720  12.2962825  48.6764609  18.4629080  11.3259952
  47.8796970  18.8854417  11.0052745  49.2768513  18.4868976  10.5808894
  66.9589411  67.5566670  27.7930085  67.3875272  67.1197388  28.5289685
  66.1894714  67.9757449  28.1783978   7.5344999  15.2086374  16.9874875
   8.0615098  15.9688470  17.2336118   8.1717307  14.5049474  16.8650453
  67.9431200   7.2127444  41.8765306  68.1852579   6.3331944  42.1663475
  67.6291180   7.6480973  42.6690626  42.8384399  18.8929129  43.8152409
  42.4479675  19.5957172  44.3346930  43.3722544  18.4017134  44.4397402
  14.4781316  64.0675835  52.0524836  13.5257400  64.1518132  52.0068169
  14.6237243  63.2504098  52.5292063  27.3503685   2.4188693  42.4697590
  27.7752972   1.5628634  42.4157095  26.8025470   2.3653060  43.2528639
  26.3789047  67.2263114  58.4349394  26.7088712  66.3460986  58.6154366
  25.4474128  67.1004884  58.2540417  58.3249747  48.1813958  14.3063752
  58.3333193  47.8749689  13.3995931  57.6021301  48.8079271  14.3408315
  50.3142691   4.2392159  33.9294100  49.6575308   4.9215591  34.0684557
  50.9180069   4.3341824  34.6661043  35.5822719  71.0670589  39.6693087
  35.2934755  70.1578436  39.5908499  36.4535154  71.0086386  40.0614214
  69.4023644  27.8146121   8.1132667  69.2420565  28.1600925   8.9914290
  68.5655820  27.9158029   7.6596324  18.0420745  51.7340080  38.0575800
  18.3704913  51.1311523  38.7246180  18.4040321  52.5849644  38.3047414
  30.5019058  69.2757342  62.5058222  29.8162044  69.6558712  63.0549479
  30.8144773  70.0066606  61.9726467   2.7835525  58.9244596   6.3650429
   2.9364360  58.2218758   6.9968939   2.0722450  58.5995559   5.8130360
  50.2997160  25.2695775  12.7009666  51.0384130  25.0769496  13.2784235
  50.6642914  25.2105403  11.8178844  35.3964686  11.6334307  37.0914745
  35.7771063  11.5820909  36.2147117  35.2393317  12.5674200  37.2300506
  61.4017010  16.2458169  52.9762554  60.7263756  16.1355567  52.3069239
  61.7271662  17.1361768  52.8437281   8.4930623  63.9236824  55.1955032
   9.0189136  64.7012417  55.3828859   7.9770649  64.1633026  54.4257212
  65.3849506  23.4458804  42.7405500  64.5704222  23.8280177  43.0672646
  65.4258013  23.7170696  41.8234825  43.8544130  11.7849433  24.1364050
  44.4408035  11.2346101  24.6555519  43.1334639  11.9937181  24.7304416
  12.1995074  35.0955760   5.4249017  12.7754504  35.3656980   4.7096698
  12.5598104  35.5282512   6.1989848  21.1669683   9.5047647  38.9506650
  20.7446051   9.4224441  38.0956435  22.0499778   9.8166800  38.7525797
  19.2323589  -0.1354627  65.7449770  19.5553613   0.4523632  65.0620699
  18.8827682   0.4485212  66.4180183  38.8862032   5.1088529  16.9068162
  38.9544004   6.0635858  16.9152562  39.0042156   4.8522048  17.8213803
  37.3170924  43.1442595   1.1737720  38.2671142  43.0776882   1.2699972
  37.0062065  43.4047651   2.0407884  76.4045035  45.5089506  39.5977609
  75.5522620  45.4739180  39.1633718  76.9080722  46.1423877  39.0864865
  54.5913076   1.4141557  46.2413073  54.6454859   0.5684958  46.6864538
  54.8939180   1.2359245  45.3508663  66.3864673  70.0882385  32.3227477
  65.4476512  70.2638016  32.3863077  66.4433349  69.1479025  32.1531439
  35.1211847  68.6481098  47.8549290  34.3903745  69.2359010  47.6634932
  35.3989423  68.3243326  46.9980431  71.3920849  53.6435572  47.4500418
  70.6666653  54.0361468  46.9643736  71.3632505  54.0674226  48.3077908
  23.0401475  49.8885271   8.8546578  23.3598621  49.9890932   9.7512643
  22.4360521  49.1472694   8.8975112   2.3193372  72.6846067  28.5168219
   1.5817440  73.2233674  28.8030505   2.4727667  72.0823602  29.2448258
  10.4894460  71.4062272  28.0674362   9.8795975  70.6867312  27.9042125
  11.2838996  70.9788744  28.3875036  70.8090639  19.8819458  44.4176626
  70.8072472  20.2978206  43.5555267  71.7062807  19.5680106  44.5302629
  34.8859262  11.8448901  49.7544241  35.6012893  11.5558827  50.3209591
  35.1104474  11.4998853  48.8902521  25.9818233  69.5259361  51.3865471
  25.3696883  69.4642768  52.1198416  25.7390369  70.3367047  50.9394026
  13.5120845  30.7409382  42.8015709  13.2887042  30.4746079  43.6934233
  12.7659976  31.2676454  42.5149250  38.0531705  61.2060587  53.8728952
  38.7146056  61.8910162  53.7750769  37.2904647  61.5404717  53.4010077
  37.8420115  17.2462332  48.5176897  37.8657818  18.2029593  48.4991980
  36.9733500  17.0217371  48.1841326  31.3307881  36.3639617  63.4268475
  31.5800858  37.2860646  63.3651257  30.5226493  36.3681555  63.9398098
  13.7785775  71.1935779  13.5674397  13.0931813  70.9272358  12.9546420
  13.4009893  71.0353300  14.4326608  64.3507290  11.5639257  57.1495056
  63.8405752  11.8506062  57.9069948  63.9721203  12.0412338  56.4112186
  27.4730647  61.6931037  38.4518051  27.2131313  62.4992589  38.8976526
  26.7602409  61.5187852  37.8372073  18.2931244   1.5541816  48.7373257
  18.0918062   2.4154240  48.3713150  19.1595829   1.3428117  48.3897543
  50.8189214  49.6377150  66.8465948  51.4265121  50.3593652  66.6844559
  50.0774539  49.8141972  66.2675333   1.6963870  17.7522442   2.7859323
   1.6338069  16.9368908   3.2834451   0.8976037  18.2304665   3.0083863
  75.2122580  76.5675446  29.4967668  76.0669409  76.8903491  29.2111985
  75.2812993  76.5179703  30.4501836   9.1368354  62.0353488  28.3108401
   9.0939010  62.2467176  27.3782563   8.4970249  61.3329272  28.4269261
   4.6125091  55.0607912  43.3214474   4.3510068  55.5228678  44.1178989
   4.3899692  54.1454927  43.4915590  42.7304792  16.1030459  63.8765717
  42.8570509  15.5208576  63.1273937  42.2790098  15.5634701  64.5256186
  70.1916444  73.1732461   0.5263679  71.0280644  73.4138462   0.9248082
  69.6938407  72.7716395   1.2385003  21.3321788  66.3467213   1.7736165
  21.4475782  66.1419389   2.7015082  22.1941573  66.6472289   1.4856593
  33.8291836   3.4605086  51.3842964  33.1684184   3.6251035  52.0570040
  34.1724300   4.3275964  51.1684895  65.5753773  63.2931356  65.7317448
  65.1326292  63.3327381  64.8840189  66.2604015  62.6350824  65.6136703
  25.3038610  74.8183696  64.6426821  26.0769094  75.0876848  64.1465950
  25.3729451  73.8650982  64.6949577  27.6911271  63.6492733  27.3135114
  27.2571290  63.6430673  28.1666470  27.9635776  64.5585291  27.1899986
  54.1029895  72.6794959  37.5727773  53.5030902  72.4179200  38.2712984
  53.9653171  72.0301120  36.8831563  71.8740451  46.6566852   8.8584249
  71.2863671  46.5245035   8.1145207  71.8769204  45.8148178   9.3139283
  50.7471180  24.7838092  48.0125046  51.0810328  24.5995069  48.8904333
  49.7981930  24.6864676  48.0918455  47.8461326  73.7483783  58.7918043
  47.2656930  73.6622704  58.0355597  48.4796871  74.4174136  58.5325146
  73.3243178   9.9502808  15.0341141  73.5418378  10.2674043  14.1575587
  72.8454380   9.1355485  14.8820698  16.9789041  71.6323940  31.5001869
  17.1199144  71.4978276  32.4373317  17.8024829  72.0047824  31.1851001
  49.3426371   1.4390138  46.0205507  48.7994337   2.1734619  45.7346296
  49.4134760   0.8784578  45.2479029  18.8459321   4.5882687  30.5818272
  18.2297249   4.1230425  30.0160670  19.0695782   5.3799403  30.0924706
  47.0080291  74.0074083   7.2364680  47.5992929  74.0097114   6.4837138
  46.4572846  74.7801444   7.1108024   8.9268912  72.5335176  59.8024321
   8.0559505  72.8440867  60.0499010   9.1443098  71.8774043  60.4646111
  22.7635169  26.3046980  52.0321608  22.2716784  27.0581150  52.3587942
  23.4131861  26.6817331  51.4388609  66.0469948  46.1044446  13.2480733
  65.6774937  46.6407224  12.5465695  65.5477511  46.3512984  14.0265672
  34.4785118   2.4004692  45.6059837  35.2440953   1.8653104  45.8150768
  34.6469545   2.7240753  44.7210360  64.2964762  60.6301359  46.7900324
  64.3756585  61.0539548  47.6446342  65.1447194  60.2085559  46.6522455
  55.9123564   9.8882991  50.5350685  56.2744093  10.4194307  49.8258114
  56.5841389   9.9088478  51.2166214  22.0859504  13.5999811  50.0470781
  22.4147344  12.8344536  49.5758009  22.8737354  14.0754652  50.3107834
  10.3096826  53.2350323  25.0712602  10.3072650  53.2908472  24.1156976
   9.3926961  53.0912182  25.3051011  12.8334678  73.8924162  31.9946218
  12.5781477  74.2825590  32.8305840  13.5814250  74.4148318  31.7050052
  26.2371600  76.8044620  51.7487240  27.0805753  77.2441094  51.6410351
  26.0882104  76.8003502  52.6942587  78.4360354  65.2779357  57.7605820
  77.9644792  64.9549047  56.9927835  79.1991680  65.7297437  57.4004030
  41.7855562  68.9053325  12.7369988  41.4564908  68.0788706  13.0904198
  41.0939658  69.2060022  12.1474791  34.3703521  70.7841275  64.6695232
  34.0101350  71.5923605  64.3045139  35.1529229  71.0637663  65.1445246
  10.2140916  37.1295873  19.8664165   9.7895134  36.8441145  20.6754088
  11.1509145  37.0603077  20.0502467  52.8707600   7.6220345  25.6942964
  53.6212635   7.7055925  26.2825131  53.0253077   8.2776594  25.0142217
  36.1290468  55.9987799  26.7286086  35.3886903  56.2891738  26.1959004
  35.9081806  55.1010148  26.9765425  25.1108611  71.1401198  25.0878716
  24.6395982  71.4725105  24.3238974  24.7510970  70.2643792  25.2288651
  26.7486238   8.3146280  48.7755394  25.9581375   8.0866712  48.2862520
  27.0690393   9.1124362  48.3547449  55.8293819  23.3838558  38.3112502
  55.8267546  22.4811625  37.9928660  54.9033022  23.6105919  38.3961177
  79.7755378  45.9565131  64.8105574  80.0535910  46.3375584  65.6434584
  80.5908125  45.8051101  64.3323994   1.6595514  49.2589638  14.9200551
   1.1801011  49.5977327  15.6760995   0.9775741  49.0015289  14.2996804
  55.4984522  14.1510320  48.7300825  54.7904444  14.6494889  48.3220434
  56.0395861  14.8125601  49.1611147  29.6632684  53.0030267  48.9444876
  29.3683637  52.1988909  48.5171366  30.5771793  53.0959312  48.6754799
  40.7961416   5.9328699  45.2696896  40.8314037   5.1121318  44.7783852
  40.8195543   6.6149628  44.5985460  76.8775117  48.6956188   8.0059688
  76.0672938  48.1928727   7.9221599  76.6065919  49.6068630   7.8943126
  63.2398831  58.0324969   2.4336974  62.6413762  58.7751242   2.5144689
  63.8808285  58.1643578   3.1322925  63.9184332   8.1567323  61.4950657
  64.8130322   7.8219253  61.5569878  63.9981318   8.9590132  60.9790993
   7.4191475   1.6419637  50.1381588   8.1408739   1.0197572  50.2287245
   7.8094226   2.4924511  50.3396273  20.4200853  71.3411359  40.6711006
  19.7798217  70.6716321  40.4301405  20.2015985  71.5671186  41.5752172
   6.8749101  43.7296686   7.6426379   7.0161445  43.0295357   8.2798926
   7.5650651  43.6036432   6.9914548  40.9409523   5.8179575  65.2298737
  41.8107128   5.4525679  65.0678730  41.0968828   6.7505616  65.3787613
  75.0788975  22.4924994  48.0584049  74.7454834  21.7393017  48.5460091
  76.0041714  22.2940826  47.9144192  16.1391091  29.0809798   9.6425927
  16.0918391  29.0795374   8.6865616  17.0013428  28.7153411   9.8403168
  48.7516928   3.3279964  30.0957322  48.6454630   4.0283230  30.7395411
  49.3946886   3.6694556  29.4742918  41.4922345  65.3924124  51.6521025
  42.0945133  66.0347585  51.2767553  40.6839574  65.5004684  51.1508608
   0.2908314  68.3446751   1.9693880  -0.1945841  69.0450935   2.4052981
   0.8754266  68.0018119   2.6453507  29.0373802   1.9314459  49.8182344
  29.8962021   1.7014983  50.1728916  28.4969735   2.1004456  50.5900049
  47.1665096   1.3794971  52.1153688  47.0493603   2.0281312  52.8094721
  47.7656794   1.7966762  51.4963484  77.4076622  48.5639493  57.6946735
  77.9765933  49.2484466  57.3425150  76.7662018  49.0355531  58.2260418
  46.7223167  30.1663205   3.9842479  45.7881569  30.1721844   4.1929214
  47.0714521  29.4187829   4.4695537  77.5091451  54.3009965  49.4559622
  76.6722482  53.8594715  49.3114281  77.6257317  54.8525039  48.6823511
   5.6610400  40.3491053   3.7678735   5.6217057  40.2563555   4.7197597
   5.5862148  39.4541333   3.4367291  38.4139026  68.1599526  12.4972117
  37.5223649  68.4870039  12.6173556  38.3078540  67.2175304  12.3674929
  72.5202131  36.7260480  55.1103973  72.1679640  37.1633959  55.8855629
  72.7618027  37.4407029  54.5212173  57.4328893  67.3535584  56.8591785
  57.0744540  67.9853384  57.4825621  58.0542817  67.8596715  56.3357735
  45.9629393  10.6651545  65.9284687  46.4113855  10.4352522  65.1146698
  46.6542339  11.0098135  66.4937592  49.4437157   7.9812428  41.2766282
  50.2003991   7.4008772  41.1939542  49.6329796   8.5128948  42.0497815
  12.4944080  69.9621151  52.9678726  13.3562244  70.3150086  53.1891680
  11.8913115  70.4163389  53.5562515   7.8715188  58.7839910   0.2374236
   6.9364698  58.9715597   0.3195064   8.3032806  59.5399114   0.6354110
  66.7912971  61.5659615   5.4296653  66.1137974  61.2614772   6.0334174
  67.6082265  61.4730164   5.9197824  73.1377840  19.6141052  53.8151503
  73.4562826  20.1963091  53.1253433  73.6050987  19.8962665  54.6014261
  75.2142017  51.6999285  45.1260328  74.3202107  51.3871805  44.9874735
  75.7640975  51.0636226  44.6689081  40.5193866  61.7643122  48.8675308
  40.5010999  61.4254753  49.7625685  39.7634090  61.3591794  48.4425640
  52.1853018   3.5664532   8.2097560  52.2086382   4.3319649   8.7839329
  51.9002247   3.9105713   7.3632663  46.1639547  13.7629485  52.2109270
  45.6494999  14.1883922  51.5249491  45.7345486  12.9177225  52.3429680
  76.1736522   9.9430877  66.6211605  76.7192404  10.7295680  66.6249609
  76.3143562   9.5498157  67.4824190  77.4507189  19.9512374  56.5296507
  78.1788445  19.6769202  57.0871592  77.5446749  19.4239938  55.7362938
  28.2430840   7.7031749  59.2647123  28.2323503   8.6351538  59.4827318
  28.7654829   7.3008746  59.9586058  68.4932756  32.7378297  61.9094753
  68.7328148  32.6769447  60.9847355  69.2419624  33.1675553  62.3230410
  36.8915796  12.1674287  45.7486725  37.5306106  11.4547777  45.7495546
  37.2625327  12.8224909  46.3398743  24.6476138  58.3736245  61.6103411
  23.7096227  58.3963053  61.4209080  24.7781909  59.0671186  62.2570610
  70.7176542   2.2721389  50.5674124  70.9879923   2.6902735  51.3849163
  70.8636236   2.9397905  49.8972130  75.5334282  33.6451221  35.6841230
  75.6118584  32.7034950  35.5310869  76.4192581  33.9248562  35.9149718
  54.2160177  47.1229553  54.4117928  54.7333860  47.5562286  53.7329435
  54.8140049  46.4819145  54.7961187   2.5245059  75.1625621  41.2080240
   2.3333586  74.2462967  41.4084053   1.9775046  75.6598614  41.8160677
  55.7053518  13.0785751  34.0696812  56.0385132  13.6559772  34.7565889
  55.8992195  12.1955395  34.3841577  49.2782927  15.0852001  47.8253317
  49.8277330  15.8332908  47.5914383  49.8776865  14.4710958  48.2494020
  71.6286325   1.7841348  56.2794542  70.7571602   1.9243853  56.6497231
  71.9750690   2.6657492  56.1417150  42.4983877  11.0750966   6.7423646
  41.5414232  11.0561233   6.7519347  42.7526420  10.7744174   7.6148192
  81.3233458  49.1834256  13.1495969  81.1861884  50.1018569  12.9174249
  80.6428992  48.7109515  12.6700227  13.6250992   9.4117671  42.1763277
  14.5466252   9.5606059  42.3881435  13.1930943  10.2380538  42.3928022
  59.3455982  13.8132501  50.7579994  58.7586498  13.2133412  50.2977514
  60.2193642  13.4487200  50.6169701  27.6737714  24.1514182  63.0168962
  27.9735112  23.5926294  62.2998571  28.4491253  24.2750239  63.5644150
  75.0073970  66.5546099  61.0834312  75.2471889  66.6343157  62.0066738
  75.8029426  66.7936472  60.6078386   3.5763986  58.8716718  19.7608487
   3.4280545  59.2483780  18.8934915   2.9783065  59.3498895  20.3351514
  15.7073327  39.2516708  60.8522034  15.2445622  38.4322119  61.0269976
  15.9919663  39.5546222  61.7144299  61.4090980  46.4706151  25.4744959
  62.2447646  46.7077200  25.8765864  61.6092933  46.3776032  24.5430970
  13.3056791  75.5793163  21.7051332  13.2239349  74.9923107  22.4567811
  13.4874398  74.9985167  20.9663026  60.5525398   1.6597947  59.7286892
  60.6908035   1.5229450  60.6659126  60.4145384   2.6030338  59.6421623
  29.1101754  60.5869238  57.0799971  29.6084369  61.3690976  56.8429947
  28.2039941  60.8050386  56.8620634  45.6688070  32.8450441  57.2585297
  45.0372982  32.9375410  56.5451717  45.1342154  32.8400612  58.0525160
  61.1719370   9.1740513  60.2389145  61.7762661   8.7503874  59.6293831
  60.8884716   9.9665999  59.7831202  20.1844330  11.7636549  48.3868074
  20.1461144  10.8515704  48.0989456  20.9495564  11.8017387  48.9607191
  75.5620861  18.0926740  26.4642692  75.1508141  17.9244661  27.3120856
  75.2085972  18.9389658  26.1902857  38.7374170  62.6798150   4.0078752
  38.2808168  62.3423406   4.7785012  38.0940206  62.6175544   3.3018987
  16.6258806  30.9412389   3.0624406  17.2609562  31.4526372   3.5638206
  17.1489138  30.2640491   2.6333968  68.4752035  11.4850605  57.8855371
  68.8976717  10.6918824  57.5559568  68.0277109  11.2041104  58.6836910
  14.9985619   0.4623786  60.7272387  15.3033467   0.5770949  59.8271370
  14.5491620  -0.3827481  60.7220554  15.1596852  36.2233329  41.7556953
  14.9904747  35.2816725  41.7261457  15.5450936  36.4243007  40.9028721
  71.4708185  14.6363890  46.9149733  71.1592817  13.7380505  47.0252705
  70.7511234  15.0869143  46.4730406  54.4976579  33.6206785   4.6105735
  55.2693283  33.9689693   4.1639773  54.8504554  33.1451401   5.3626554
  56.5849876  16.6832256  33.0303359  57.4681711  16.7167103  32.6627803
  56.0199308  16.9987655  32.3250818  77.9273844  46.6591024  21.0069585
  78.6012793  46.0308552  20.7473421  78.3868790  47.4974871  21.0539603
  73.0732155  53.5029888  33.6587620  72.6751423  52.8793478  33.0514407
  72.7030993  53.2760906  34.5118499   7.1546615  59.0600364  33.2860184
   7.0224059  58.4789268  32.5369835   7.9987443  59.4790010  33.1180167
  58.7475824   8.1622285  26.9464731  59.5447683   7.6887757  26.7086339
  59.0403986   9.0595347  27.1056390  62.0942413  65.8500430   9.4141070
  62.3448526  65.1621863   8.7974374  62.9259001  66.1958978   9.7380797
  50.7752562  20.2259469  54.8371077  50.1974630  20.5863285  54.1644192
  50.2684879  19.5172358  55.2335215  63.8596927  67.0253608  13.2120721
  64.4497763  66.4139363  13.6527459  64.0251242  66.8877551  12.2793738
  15.0243766  63.0058595   0.9869401  14.6180303  63.8213703   1.2802951
  14.5386274  62.7666399   0.1976029   5.9345043  75.4945521  29.4463301
   5.2831901  74.9470943  29.0077949   6.7720450  75.2097195  29.0807772
  37.5912452  22.0485210  65.4036760  38.2806635  22.6944065  65.5578375
  38.0602384  21.2248659  65.2700043  74.0806437  47.5257730  54.6120453
  74.0053511  47.9378653  53.7513828  73.2590580  47.7411842  55.0534391
  43.8480949  17.5996828  36.9382095  43.6330748  18.1192672  37.7128267
  43.0071449  17.4589694  36.5031981  74.3056059   3.1885567  60.9430790
  74.9069881   3.9006606  61.1609793  74.5299149   2.9526213  60.0429392
  29.7175653  69.4671819   3.0970256  30.3190286  69.9339721   3.6771838
  29.0748651  69.0720221   3.6861007  33.1507134  16.0123360  52.1580553
  33.6201572  15.1781964  52.1499300  33.8407683  16.6756320  52.1482897
  39.7509193  23.5825276  65.7632923  39.6653652  23.5746193  66.7166328
  40.6787395  23.7589502  65.6075430  35.4529346  64.3425111  45.1902485
  34.7232116  64.8911611  44.9026346  36.2317670  64.7807543  44.8473310
  73.3164202  49.2224428   2.5492255  72.6425969  49.6672961   3.0633323
  73.3960473  48.3590481   2.9547421  60.6752586  32.7924490  50.8812761
  61.1760950  33.4219980  51.3999939  59.8689604  32.6591229  51.3796186
   3.9912862  22.2653394   7.4979369   3.4213704  22.9924445   7.7484195
   3.8310546  21.5954595   8.1626336  47.0006514  -0.0009505  18.5789943
  46.0862732   0.2807269  18.5506701  47.4517059   0.6970958  19.0538776
  19.0784127  47.7518240   8.5926597  19.9464471  47.3485628   8.6037557
  18.6825807  47.4911866   9.4242923  51.3783836  13.2653916  48.3493280
  51.2804794  12.3275995  48.1844234  51.8720770  13.3143759  49.1679239
  47.1376609  20.7803282  12.7188699  47.1509802  19.9929199  13.2629697
  47.8067934  21.3475320  13.1019799  50.5879552  25.3448614  21.2251298
  51.0015065  24.4938371  21.3699452  51.2836892  25.8897433  20.8572976
  24.5650733  69.0907709  37.7758074  25.0829376  68.4476880  38.2600498
  23.8439239  68.5847114  37.4015331  69.8409605  19.2832589  21.3238525
  70.4162645  18.5614192  21.0704660  69.0269613  19.1192615  20.8476806
  56.1227179  32.3995662  13.9972258  55.6251431  31.9696569  14.6928048
  55.7087994  32.1014404  13.1872749  54.7812605  18.2811379  42.4116755
  54.1656828  17.5686610  42.5839281  54.4740343  19.0014422  42.9621363
  81.7287480  68.6436698   8.7252442  82.0634066  69.2538616   8.0680530
  80.7777964  68.6777398   8.6214702  31.6843748   0.7258322  41.4396667
  32.5741076   0.6608438  41.0927057  31.4985299   1.6647808  41.4479923
  27.4910307  24.4330072  45.2145386  27.6767921  24.8105311  46.0743046
  28.3342719  24.0933752  44.9148273  73.7374020  22.8456163  56.8186140
  73.1136894  22.7914691  57.5426865  73.6612082  23.7463140  56.5037060
  26.1093658   4.9332099   3.5366551  26.8236822   4.3661599   3.8272349
  25.4794973   4.3367248   3.1320540  10.8698595  73.2141958  48.7846470
  10.3857530  72.7232138  48.1207132  11.7788614  73.1889905  48.4857988
  46.9802952  10.9545290  35.9270358  47.5778961  11.6044176  36.2968349
  46.3126421  10.8317065  36.6018558  52.0510852  46.2851027   0.5254333
  52.6541888  45.9431353   1.1853997  52.5293385  46.2060633  -0.2999528
  46.9581842  21.1081958  44.5663261  46.3968420  21.6756606  45.0946331
  47.3535776  20.5073404  45.1978827  35.5544103  68.2660226  54.8916340
  35.4932178  67.4087910  54.4701576  35.5287517  68.8913779  54.1674042
  80.3969132  48.0479726   5.4711930  79.6455704  48.3252743   4.9469583
  81.0414731  48.7458357   5.3538672  61.5184498  26.9581699  63.5340500
  60.8282375  27.3900723  63.0307674  61.4792824  26.0426021  63.2575846
   3.8669212  52.8866085  14.5704572   4.6168191  53.1093571  15.1220529
   3.8968141  51.9325122  14.4994657   3.3398206  65.3023693  13.3927648
   2.5849921  64.7503444  13.1884686   3.1805236  65.6045815  14.2869203
  66.4637613  34.4657850  45.9527969  67.2811317  34.7887778  46.3320255
  65.7779551  34.8515749  46.4978313  18.7272282  11.8640542   7.0805478
  18.9688225  11.2867534   6.3562649  18.0361767  12.4212384   6.7224556
  59.7475904   6.6745381   5.9816567  60.3626245   7.1065764   6.5743653
  60.0547403   6.9083028   5.1057307   6.4342232  36.8390131  34.4211721
   6.5671368  37.6897097  34.0029836   7.3111744  36.4592385  34.4755626
  81.0611397  40.7118275  59.5138957  80.4826647  40.1172271  59.0363552
  80.4864031  41.1557342  60.1374795  15.2161128  59.9513742  12.8250424
  14.2943580  59.7052023  12.7475421  15.6150491  59.2339346  13.3173482
  45.0657797  46.5980196  65.5072021  44.7031689  47.1576548  66.1939001
  44.3223238  46.0752964  65.2067614  74.0995776  54.6774802   9.2283313
  74.6569716  54.8118839   8.4618537  74.5096862  55.2002606   9.9173467
  49.0544319  40.9966803  56.0298538  49.4908667  40.1507568  55.9289980
  48.1213093  40.7943487  55.9621620  41.4241600  23.8050461  57.0639229
  42.1242285  23.9443827  56.4261723  41.8283844  23.2758379  57.7515030
  74.6278000  25.6449127  38.0843568  74.7737932  24.7811055  38.4700441
  74.5089293  26.2257624  38.8358331  66.5243483   5.0827152  35.2727938
  66.5776920   4.8738214  34.3401909  67.4271631   5.2729893  35.5276442
  69.4904470   1.5930341  46.5389013  69.0171814   0.7616054  46.5701962
  70.2904892   1.4322104  47.0391989  59.5048666  32.5740361  45.9531450
  60.0824261  33.1812835  45.4906368  59.2143774  33.0604196  46.7246866
  43.0510044  19.9319279  50.9598732  43.3237028  19.0283704  51.1194134
  43.2779980  20.3964067  51.7654562  74.9409126   2.9068999  14.4807260
  75.3469060   3.4395318  15.1646153  75.5466889   2.9635339  13.7417619
  62.6347542  10.9111464  14.4426417  61.6999245  10.8427358  14.2486370
  63.0436182  10.2461410  13.8887191  29.5409775  27.2447467  54.4769621
  30.4033446  27.5516725  54.7568798  28.9256072  27.8517103  54.8882389
   3.9942849  77.4550598  52.5877333   3.4607948  77.3706709  53.3779860
   4.6782172  76.7930293  52.6886415  40.3966713  31.5524554  58.0894327
  39.6719623  30.9663343  58.3073568  40.5488348  32.0534039  58.8907623
   2.4699898  43.0768442  64.8769808   2.2631188  42.1447182  64.9446249
   3.2611580  43.1855059  65.4046965  30.1200224  23.6088712  66.5960908
  30.6357028  23.1931908  67.2871183  30.7038333  24.2718072  66.2274355
  46.2379837   2.9781681  38.0418348  45.9704685   2.2522047  38.6054325
  46.7770767   2.5695500  37.3646045  44.0147699  71.9190673  52.2865152
  43.5145772  71.2323419  51.8455553  43.3521045  72.4587901  52.7175713
  26.4102132  70.2989575  14.9727647  25.9938390  70.7882091  14.2631928
  26.0724790  69.4081542  14.8798291  48.4500421  65.3734795  27.9163766
  47.4990238  65.3371815  27.8139949  48.5840524  65.8191387  28.7528348
  57.2901046  70.0632212   4.0468232  57.1753990  69.1283104   4.2171685
  57.9903065  70.3309795   4.6420161  57.7986776  61.1911938   2.9448096
  57.1534931  60.4913685   3.0458657  57.2781383  61.9706294   2.7505128
  25.3874946  14.6452582  60.6557798  25.5325007  15.3628826  61.2724018
  24.6726418  14.1388333  61.0414648  67.3857260  28.4230518  41.8049479
  66.7992163  29.1463637  42.0264387  68.2101202  28.6414814  42.2395611
  56.4176273  14.2347372  36.6879153  55.8879995  15.0260293  36.5900230
  55.8166265  13.5886371  37.0588446  51.8993389  55.6164369   0.1047389
  52.1117937  56.4017078   0.6091611  51.1813080  55.8864865  -0.4677470
  68.8281142  41.7807221  25.8195703  68.1368434  42.3087418  26.2190358
  68.3675181  41.2061593  25.2080457  60.2210134  32.4164538  17.5734632
  60.6182856  32.6882987  16.7461221  60.9647554  32.2268109  18.1453912
  43.1112350  59.4715051  29.6758342  43.7421764  59.3327383  28.9695120
  43.6497081  59.6609477  30.4442048  28.5475076  66.2637357  62.1347666
  27.6254714  66.1422948  61.9082069  28.6090959  67.1799485  62.4049425
  45.4220604  76.0538456  10.7081239  46.3355540  76.3179967  10.8176057
  45.4691099  75.2076098  10.2632586  63.1588459  55.5874491  40.8253908
  63.2526398  56.3444948  40.2471924  63.2855082  54.8312616  40.2523518
  71.3881969  17.9156888  50.8405542  71.6614819  17.9146755  51.7579126
  70.4431438  18.0643535  50.8723450  11.9667263  40.5611658  34.4376349
  11.2205430  40.3854704  35.0108480  12.0088978  39.7996950  33.8591790
  65.5093002   1.1886266  56.2811470  65.5895662   0.2794581  56.5695953
  64.6863365   1.4901975  56.6658783  25.7642817  23.3166790  52.9245567
  24.8119569  23.3748174  52.8475666  26.0605574  23.0672145  52.0492172
  48.4656334  28.5674214  41.6160059  49.2093611  29.1280603  41.3951302
  48.0709982  28.3493543  40.7716465  52.3289299  16.9826984  63.8672686
  53.1283522  17.4984610  63.9728594  51.6230631  17.5832617  64.1066504
  15.8583374  54.9467325  64.7407484  15.9969731  54.9675703  63.7938690
  16.3845273  54.2067194  65.0436258  66.9647085  60.3849599  43.1617467
  66.4534413  61.1761495  42.9918878  66.5355908  59.9796793  43.9153020
  18.3491796   5.0262837  19.7434155  17.5468105   5.4391055  20.0628106
  18.5474438   5.4870324  18.9281575   2.8944022  76.6538164  46.3639943
   2.5761230  76.1396548  45.6219880   3.4169967  77.3501870  45.9662549
  38.3284604  53.1114384  12.1386210  38.2167792  53.8171431  11.5016429
  37.6634406  53.2831117  12.8053348   8.5077626  71.9850156   1.5427796
   8.1730182  71.1655042   1.1786716   7.9036624  72.6543328   1.2213676
  20.0709779  76.2006709  23.1036489  20.0025136  76.1940953  24.0583818
  21.0100181  76.2694856  22.9313294  73.5424983  67.8638384   6.9446580
  74.0141284  68.5927340   6.5415399  73.2887923  68.1908104   7.8077666
   0.5127061  73.6663578  24.1540408   1.2897027  73.6426253  24.7125626
   0.8018459  73.2848914  23.3251166  45.6126690  39.2661452  52.5368214
  46.0481644  40.0993395  52.3569298  45.6164646  38.8075948  51.6966152
  63.0768455  74.2937995  63.9165068  62.6031268  74.8742130  64.5122766
  62.4420703  74.0838103  63.2315302  -0.2415351  20.8134866  19.3958688
   0.4317685  20.6831336  20.0636220   0.2419205  21.0999203  18.6209750
  77.5749588  60.7897139  36.0252714  77.5731087  61.5043116  36.6621232
  78.1728458  60.1403952  36.3956094  73.7787914  36.7135024  58.0312634
  73.0417585  37.3150730  57.9257488  74.5189714  37.1688747  57.6300144
  74.6255814  53.6328658   3.2259194  74.3163716  53.0591497   3.9269654
  75.0577199  53.0438217   2.6074426  65.4118109  14.7975314  51.1777449
  66.3291645  15.0702274  51.1596632  65.1968575  14.7416556  52.1088219
   2.9213925   4.1689634  24.7911334   2.0726128   4.2256248  24.3522763
   2.7111645   3.9001295  25.6854272  60.9432136  66.7863318  19.7078912
  60.5395185  65.9637472  19.9846856  61.7512643  66.8401858  20.2181737
  24.5263637  74.9607716  17.1051741  24.3681634  74.0455170  16.8738437
  24.8849643  75.3507696  16.3079667  82.0215225  40.3268099  16.3409030
  81.0839653  40.3406668  16.5333200  82.3997593  39.7826076  17.0315671
   4.6983678  54.4463047  35.2273480   4.0120942  55.1133403  35.2092855
   4.4456393  53.8241157  34.5452611  71.0859299  42.8943443  46.9246006
  71.3841105  41.9950533  47.0609808  71.8052721  43.3165836  46.4550352
  16.9866670  67.1986000  35.9907174  16.6150344  67.2821478  35.1125717
  16.3429988  67.6151125  36.5638185  12.5055047  16.4200473  27.9421353
  12.7582379  15.5687785  28.2994795  12.1211262  16.2172341  27.0892835
  60.9970509  56.8906018  15.0814454  60.5198180  56.3103041  14.4883744
  61.6696655  57.2936127  14.5324437  22.7546330   4.2377174  16.6912305
  23.6288281   3.9930403  16.9948006  22.1651955   3.9137194  17.3722744
  12.9308850  40.3634733  14.6673505  12.1167381  39.9799190  14.9933641
  13.5771997  40.1653036  15.3450219   7.8871543  47.9139438   2.9007070
   8.4538991  48.6847576   2.9302995   7.0024831  48.2701263   2.8187339
  43.6519872  58.8054845  11.9799535  44.0940379  59.6469924  12.0925872
  43.0418705  58.9503381  11.2567632  63.0201387  35.2985978  42.2003126
  62.0984650  35.2383280  41.9490719  63.0240154  35.1217437  43.1410217
  14.3449664  33.5831261  36.5087867  13.7641215  33.1777120  35.8649778
  15.2214980  33.2920837  36.2573528  60.9303557  70.6876370  33.3821980
  60.3160011  70.0046369  33.1132905  60.8016264  70.7669637  34.3273751
  13.2115002  10.7981706  65.1986504  14.1374417  11.0024428  65.0677490
  12.8166218  11.6310954  65.4565954  15.9585960  28.6784968   7.0394151
  16.2339933  29.4036028   6.4785115  16.7104394  28.0862006   7.0516078
  33.6170477  23.2764487   8.8228433  33.7284321  23.3627038   7.8760688
  34.2473453  22.6026731   9.0777604  71.7192030  27.7437735  44.3018150
  71.2658024  26.9539380  44.0071630  72.6294374  27.4696755  44.4139862
  33.0144382  34.4509721  48.0124950  33.4218884  35.2964401  47.8243494
  32.3502183  34.6469593  48.6732769   2.0427615  76.0251495  22.7490918
   1.5073640  76.7771384  23.0022637   1.4365012  75.2845165  22.7613370
  56.4055204  11.1214888  41.2241983  56.2093210  11.2623870  42.1504164
  55.6318665  11.4461005  40.7634115  23.7047310  28.0166221  61.2223625
  24.0222378  27.2223473  60.7927704  23.5518094  27.7533126  62.1298409
   0.6251294  71.5819570   4.2158381   1.3441760  71.6206261   3.5852019
   1.0427530  71.3326594   5.0402610  74.7428608  32.7095652  32.2243261
  75.3048992  32.1742582  32.7844930  74.4631815  32.1154261  31.5278959
  80.6839943  15.3969383  26.5603948  80.9360981  15.7872999  25.7235599
  79.9746704  14.7934842  26.3391709  61.0397863  13.6786890  30.3608418
  60.7651711  14.3613005  30.9731007  61.2671900  12.9344356  30.9181619
  71.6695690  40.0959110  55.2271938  71.8676186  39.7013688  56.0765123
  71.7855740  41.0357475  55.3668022  12.7120228  10.9890997  46.0503626
  12.2626324  10.3060353  45.5526686  12.0128270  11.4395022  46.5241814
  17.9791756  12.3985505  32.3415899  17.6340886  12.6320493  33.2033443
  18.8539620  12.7865541  32.3207283  71.8917274  69.4140911  65.1111031
  71.5368509  70.1756334  65.5697393  72.4229717  69.7849512  64.4064951
  47.1406555  14.6917701  34.5133567  46.9150925  15.6211245  34.5540214
  47.4627542  14.4848728  35.3906703  76.0063553  39.3477631  64.9768209
  76.9202089  39.0931106  65.1043272  76.0393906  40.2930450  64.8299217
  58.4381962  -0.0930416  47.2558308  58.5770512  -0.0503796  46.3097143
  59.0326309   0.5655984  47.6150894  48.2103980  65.3774170  21.6706109
  47.9195274  65.9956674  21.0002446  48.6731828  65.9182457  22.3105836
  59.8775946  66.8766543  17.2327535  60.3510987  66.7910501  18.0602185
  59.0073215  67.1847841  17.4855630  29.4434589   7.0328860   6.1281936
  29.8076099   7.6025252   6.8057935  28.5660356   7.3807387   5.9689586
  41.7678261  22.8624368  51.1904764  41.4155865  23.6995602  50.8881712
  42.6863813  22.8780055  50.9216928  56.9766426  22.2950697  42.9616880
  57.7697325  22.0814776  43.4532309  57.1021986  21.8757010  42.1104574
  30.6276573  62.7618031  48.8851309  31.1105741  62.2420100  48.2426071
  30.1225150  63.3825926  48.3600712  35.0913978  11.7501771  54.5450926
  35.0837016  10.8158505  54.3372297  35.7139802  11.8296432  55.2677965
  59.5673037   9.8885643  19.2557597  59.8209143   9.3554002  18.5023344
  58.7823963   9.4610506  19.5983768  43.0924511   0.4542207  59.0199471
  42.6683807   1.3007256  58.8791418  42.3755074  -0.1795774  58.9970970
  39.0589822  64.2147056  24.6081138  39.3553603  64.2355458  25.5180359
  38.6155856  63.3709947  24.5199037  30.3597225  54.8315279  42.3268080
  31.0618842  55.3442399  42.7272177  29.8883165  55.4584305  41.7781687
  59.3975067   4.3463790  50.1970625  58.7113094   5.0119799  50.1486778
  60.1832342   4.8304445  50.4511261  32.3987544  68.9175526  30.6725955
  32.9957879  69.5748256  31.0300517  31.8413318  69.4049666  30.0660133
  80.5547415  65.0227234  17.1860902  80.7429730  65.5463454  16.4072244
  79.7522914  65.4037282  17.5426595  70.1656996  51.5433857   6.2619941
  70.3503405  51.6119549   7.1987073  70.4043709  50.6443867   6.0360066
  15.3833587  63.0077407   5.3071515  14.5786435  62.7117917   5.7326810
  15.2783305  63.9559647   5.2292411  60.1900434  21.3462710  39.3185902
  59.9561882  21.0105395  38.4532428  59.4808149  21.0511684  39.8896837
  26.4764901  35.8797622  32.7308488  26.1343594  36.6861415  33.1167698
  25.9259243  35.7296562  31.9623542   6.1554982  58.9630933  65.0017914
   5.8783747  58.0470355  64.9853046   5.4853465  59.4067378  65.5217044
  21.0047300  63.2738993  13.6619393  20.3961379  62.5561067  13.8369195
  20.5261810  64.0618440  13.9195554  43.4249115  22.8845954  62.7829027
  43.0197620  22.5863314  63.5972214  43.8533831  23.7081385  63.0161858
  62.6425838  28.6795831  47.3471165  62.6054287  29.3290830  48.0492592
  63.5772705  28.5157847  47.2215748  53.7416840   8.9333689  53.5633755
  53.5236788   9.8455924  53.7545633  53.0231714   8.6262017  53.0105448
   3.4308930   6.5385127  37.3980737   3.6712189   6.6931319  38.3116198
   2.8862305   7.2898024  37.1632457  72.1407509  17.0531237  43.7527514
  72.5178194  17.0704055  42.8731203  71.3160324  16.5781283  43.6505222
  68.2295799  48.4283829  50.3193092  68.5330248  47.9611301  49.5409536
  69.0321493  48.6709023  50.7811546  23.4310062  31.6881421  10.3622691
  24.1674335  32.1145835   9.9240272  22.8613717  31.4008900   9.6486632
  78.8200127  60.7396576  11.2248961  79.2936837  59.9485490  10.9679620
  78.5618149  61.1438891  10.3965489  24.4394392   1.4133410  43.3924405
  23.8093132   1.7222981  42.7415006  23.9505524   1.4079957  44.2153565
  74.6304369  29.8658895  49.3761921  74.9788380  29.5031023  48.5618019
  73.9017248  29.2882657  49.6032715   2.2919900  45.3759035  12.1465461
   3.1445844  45.5472299  12.5465028   1.7312772  45.1191273  12.8785960
  20.2213430  15.8162677  49.7231579  20.4761767  15.8625388  48.8016653
  20.6485701  15.0246513  50.0503492  54.9532951  69.4692342  50.4675245
  54.1290344  69.7837655  50.8388615  55.2917255  68.8564644  51.1203766
   5.6750889  33.7720490  41.1460686   5.2643605  34.5218444  40.7155561
   4.9948521  33.0986762  41.1548042  15.4917873  68.3194856  61.7283535
  15.4526485  67.9384128  62.6055527  16.4254630  68.3426873  61.5187359
  60.2104044  35.2839637  44.7727633  59.2716503  35.3104067  44.9578905
  60.2652073  35.2440238  43.8179684  51.9264806  67.8274850  52.0075893
  52.2040714  68.7332432  51.8705606  51.0481036  67.7863626  51.6294384
   8.8238663   4.1408448  25.8287160   7.9849857   4.5531850  26.0348336
   8.5983342   3.2379394  25.6048219   3.6085244  43.7612534  35.2824283
   4.3499489  43.7586451  34.6770215   3.5621090  42.8623724  35.6081414
  75.4854237  56.2282142  11.3314979  75.9076869  57.0373246  11.0429399
  76.0265004  55.9220502  12.0593230   6.3958283  39.5678091  45.3503942
   5.6312867  39.2913795  45.8556604   6.4250870  40.5181646  45.4608631
  62.8128338  20.9416318  43.3291578  63.5452652  20.6977487  42.7632093
  62.5302172  20.1167202  43.7239742  56.7258549  45.2008390  55.1950788
  56.8479824  44.7594070  56.0355854  57.4754620  44.9241161  54.6680593
  36.3042021  10.8705235  43.1102610  36.1685729  11.0464466  44.0413284
  35.6227708  10.2373838  42.8843927  50.1842403  36.2130237  45.2297831
  50.6645584  35.7404304  44.5499420  50.2154493  35.6341481  45.9914684
  60.6286192  24.0561247  36.1188459  61.4586210  23.6118197  35.9458518
  59.9832582  23.5642028  35.6111550  35.7980306  49.0103909  14.2508523
  35.7423837  48.5583696  15.0927655  36.0641153  49.9021468  14.4749181
  73.7019777  55.1106167  46.6383600  73.0993652  55.7587528  46.2736607
  73.1389380  54.5039272  47.1191359  27.2939218  73.0071549  45.7434654
  28.1374896  72.5551585  45.7254457  26.6647304  72.3521532  45.4412699
  46.5338326  30.1155782  62.8393936  46.6413879  31.0385203  62.6095152
  45.8499908  30.1136875  63.5091639  20.3044625  13.6364746  32.0233941
  20.7713242  13.0741525  31.4052844  20.9889527  14.1729569  32.4232459
  64.0955305   4.8818555  57.4390650  64.1549015   5.0204229  58.3843184
  63.1733036   4.6773514  57.2844315  47.0870113  53.1377363  46.7722082
  47.7096987  52.5920391  47.2525311  46.5950155  52.5201702  46.2311077
  66.2700176  52.3983431  57.4320745  66.1592627  52.7856541  56.5637684
  66.8420172  51.6446877  57.2869730  22.5249119  37.1948051  30.8003831
  22.2411366  38.0774641  31.0383296  23.4408207  37.1553135  31.0756731
  67.2551107  16.8281698  53.5437298  66.8593645  17.6668251  53.3065128
  68.1494284  16.8814826  53.2067060  51.2030602   1.3162501  63.1560469
  50.8982468   1.5210569  62.2720909  50.4393339   0.9369341  63.5908747
  41.6273779  13.4100156   8.7381618  41.7321342  13.7253528   7.8404872
  40.8614677  13.8792281   9.0690009  69.6364969  13.1114821  15.2690331
  68.9271540  12.5417714  15.5665128  70.4346746  12.6772313  15.5699842
  27.6106949  19.0408313  54.7045565  27.3423214  19.7278988  55.3145933
  28.3911534  19.3923759  54.2761517   9.0591122  41.4907811  59.1855677
   8.5782458  42.1150724  59.7289433   9.9267270  41.4424432  59.5869918
  52.4763298  10.2579308  61.3764906  53.1189060  10.9079731  61.6606998
  52.2077322   9.8180896  62.1831036  33.9642042   7.4945502   6.5503804
  34.2682070   7.1779161   7.4010007  34.7285551   7.4181943   5.9792630
  11.9260331  21.8455625  54.1859102  11.2707444  21.9848895  54.8695898
  11.7312165  20.9739900  53.8414717   7.1302052  14.2813051  40.9054184
   6.9259949  13.3550429  41.0341454   7.6826497  14.2984140  40.1239157
  33.6901017  50.6928253  61.6073895  33.9297600  51.3309717  62.2793722
  32.7385827  50.6163883  61.6781569  63.1861782  13.2584548  55.3996563
  63.6720181  13.3108246  54.5765829  62.8444910  14.1426289  55.5327654
  11.5057106  29.1004419  66.7963362  10.5629178  28.9349937  66.7934847
  11.5815945  30.0542092  66.7680073  50.2550173  34.7100019  47.6745749
  50.2443218  34.0138888  48.3314943  50.8893871  35.3444338  48.0081940
  61.1615133  50.6834841  40.8865166  61.3679695  49.7500515  40.8384418
  62.0147133  51.1160278  40.9209633  54.5080757  22.0499849  57.8278875
  53.8706923  21.5116405  57.3586798  55.3276825  21.9216251  57.3503971
  46.0583591  35.2145052  48.2947206  46.6185522  35.8836889  47.9015255
  46.5300894  34.3937564  48.1530333  49.1323805  43.2491350  42.3824883
  49.0366983  44.0698910  42.8656435  48.3795881  43.2298946  41.7915821
  16.4130838  74.0644142   9.6424644  16.7155702  74.9722311   9.6179406
  17.1508414  73.5759160  10.0075881   5.1347644  65.2149031  37.0375554
   5.4333837  64.5748135  37.6835744   4.1803558  65.1999852  37.1090619
   8.4826107  28.8237834  42.5275326   9.1972657  29.3859029  42.2283316
   8.6881085  27.9619026  42.1653652  21.9697440  67.8830026  41.5484858
  22.6339067  67.2209219  41.3567209  22.4584401  68.7043963  41.6006517
  52.0951462  36.2053442  48.5003281  52.8127956  35.9693909  49.0881491
  52.4618721  36.8857265  47.9356909  65.5090857  20.3764558  58.9132404
  66.3238335  20.3112078  58.4150791  65.5435991  19.6419871  59.5261002
   0.5518742  38.9466143  50.2523136   0.2047940  39.5588636  50.9010935
   0.8313675  38.1878304  50.7645273   7.8048821  51.5917158  61.9534111
   7.7133103  51.6111469  62.9060221   7.8801175  52.5120211  61.7012024
  70.5981016  39.8856330  38.1055236  71.4921618  39.5446730  38.1307101
  70.3994799  39.9683118  37.1728158   6.2664134  75.5498812   8.1875388
   6.1006744  75.3739259   9.1137139   7.0071656  74.9858090   7.9653995
   4.4598980  48.7382984  37.7123046   5.0940819  49.3575382  38.0736613
   4.9667283  47.9421186  37.5527406  13.1300278  64.2771578  35.7292843
  12.2493096  63.9540339  35.5391550  13.6584874  63.9827824  34.9874544
   4.3327446  48.4295368  33.6046767   3.7139531  47.7942085  33.2445693
   3.8222523  49.2336226  33.6999178   1.1235244  65.0442693  10.1026074
   0.2247913  65.3736374  10.0972859   1.2634761  64.7157380   9.2145173
  72.4932146  50.7774019  45.5037451  72.4987459  50.1224947  44.8056793
  72.0727539  50.3367949  46.2421989  31.0837384  10.7979834  66.4443254
  31.0469742  11.5682995  65.8773232  30.4422875  10.1941657  66.0699224
  31.5767308  30.6100035  54.0263462  30.6664677  30.7624459  54.2801762
  31.5855713  30.7382393  53.0778170  65.3652811  30.7449102  63.2654095
  65.7122231  31.1591363  62.4752951  64.5358467  30.3562140  62.9875851
  44.7184236  61.3425729   2.2395436  44.8955590  60.7458541   2.9667203
  45.5128820  61.8711993   2.1645324  11.8369872  63.7971041  12.2322194
  12.2201402  64.4944498  11.7001168  11.9299419  63.0089328  11.6970746
  77.2496080  32.1292210  27.5359631  76.6151333  32.7951431  27.2709680
  77.1714973  31.4456916  26.8704438  47.1335303  41.7021441  -0.0740226
  47.9911267  41.6016534   0.3390901  46.5807640  41.0526553   0.3605382
  25.6098290  10.4070902  41.7578697  25.0127812  11.1449504  41.8816805
  25.5904694  10.2387977  40.8157825  57.7405119  43.1708717  44.2541218
  56.8747520  43.2855320  44.6459723  57.7172518  42.2923803  43.8747215
   1.3011761  32.3777103  67.0769739   1.0327263  33.0436921  66.4440155
   2.1674843  32.6607561  67.3695707  54.1122866  44.5242310  34.3382502
  54.0356493  44.7790861  33.4187889  55.0245953  44.7077322  34.5624185
  70.7389832   1.8263161  53.6876154  69.9504089   2.3680186  53.7181854
  70.9662819   1.6821435  54.6061945  16.9231148  37.1721482  32.2880435
  16.5861531  37.9291153  31.8087864  16.3926049  36.4376569  31.9793129
  39.7987437   7.9495710  16.0831368  38.8671041   7.7401662  16.1496723
  39.8377323   8.9012164  16.1784422  62.2757959  31.5116334  48.5572672
  63.0548048  32.0607185  48.6460304  61.8313694  31.5881324  49.4015789
   7.2534390  51.4387321  34.8930621   8.1667824  51.1666059  34.8037720
   6.9871636  51.6787291  34.0055203  44.7222853   9.4121933  53.6726999
  44.4659567   9.0143234  52.8407001  43.9747620   9.9575090  53.9177847
  77.0077133   2.9147381  25.7024145  76.8713903   2.7407458  24.7710848
  76.1665010   3.2538506  26.0083580  19.3255580  76.5910087  45.0211239
  19.3730081  76.9472080  45.9083128  19.4130243  75.6449879  45.1378536
  17.2934688  59.6284751  55.9757948  16.4757694  60.0820975  56.1803055
  17.9733766  60.2892010  56.1077118  46.0494287   2.9292496  44.7969246
  46.3090665   2.3233708  44.1028595  45.4013974   2.4444349  45.3080416
  59.5934391  19.8658073  47.7707052  60.0245857  20.0597072  48.6030197
  60.3102446  19.7961485  47.1401739  45.4821819   9.6018510  15.7032983
  45.4221767   9.0263276  14.9407975  44.8805088   9.2179065  16.3411061
  61.1757421   1.5145937  44.9893045  60.7504892   2.3637106  44.8693371
  61.2658072   1.1644777  44.1029978  47.0071888  49.3664503  62.0930767
  47.6767254  48.7507772  61.7949200  46.9315815  49.2014647  63.0329132
  14.3733426  22.7877617  23.1879950  13.7155648  22.8476930  23.8808012
  15.2061863  22.7147722  23.6541200  69.9744797   0.9779392  36.3303161
  70.7856846   0.5445614  36.0650611  70.1989937   1.4290994  37.1441197
  41.8356860  74.0335382  42.4972582  41.1883844  74.4653923  41.9398165
  42.2604621  73.3970640  41.9221973  15.4277170  42.1742725  33.4987211
  15.9346676  41.7096329  32.8328800  15.6027317  41.6966581  34.3095779
   3.1971570  34.4869089  28.4577918   3.7933655  35.0660324  28.9325380
   3.1144352  33.7160182  29.0191460   3.0855008  34.8888087  20.2382541
   2.8981133  35.5062747  19.5312512   2.3318596  34.2987323  20.2469158
  61.9138622  42.4910307  21.1981010  61.3605213  41.8846989  20.7057476
  62.0233536  42.0749092  22.0531392  49.1778797  24.8750834   3.7210910
  50.0319666  24.8071961   3.2942836  48.9847130  25.8125882   3.7225644
  20.4174829  28.8440514  38.0105066  20.7577920  29.0170574  37.1327305
  20.4165459  27.8896189  38.0832124  13.0523927  11.1290749  30.1292539
  12.9952438  11.9799908  30.5638981  12.4153335  10.5821045  30.5888271
  63.5373402  47.3225594  42.7379513  63.5871983  46.3699675  42.8174496
  64.3439674  47.6393700  43.1444168   9.9263818  67.4332949  16.6030519
   9.1522271  67.1393725  16.1229150  10.4155500  67.9589078  15.9700601
  70.1069689  32.4475455  36.7287374  69.7691870  32.1668911  37.5792480
  69.5463514  32.0059586  36.0908151  54.2104721  38.5595417  53.4277678
  53.6155796  39.1389060  52.9516649  53.6562157  38.1303358  54.0795469
  14.7638817  28.4578109  28.9334512  15.4776021  29.0736890  28.7675357
  13.9875622  28.8889289  28.5760856  26.2696321  66.3268754   2.5386731
  27.0567567  65.8998272   2.8767602  26.1509950  65.9536049   1.6652743
   2.9723187  29.3787456  38.0144262   2.5817414  28.7569880  37.4003410
   3.7863560  28.9599514  38.2940412  49.9167442  59.9072838  56.8912554
  49.5557165  60.7760096  56.7146015  49.6517515  59.3800020  56.1376047
  19.5381661  40.1500130  57.6840305  18.7084599  39.7493696  57.4246025
  19.7771092  40.7071018  56.9432259  26.4998239  23.4405999  20.8746259
  27.0813984  23.9968400  21.3928906  26.6893095  22.5513845  21.1739938
  56.9998407   2.1794568  19.8386967  57.2902346   2.9820618  20.2719736
  56.4498663   2.4827458  19.1163576  24.4817181  24.6457553  55.3781700
  25.2756043  24.7682095  55.8987284  24.7909089  24.2668056  54.5553541
  40.6690080  33.9993155   2.5357072  40.0445611  34.1434088   3.2467191
  40.7718713  33.0484751   2.4963061  73.0372906  37.8615189  61.6858292
  73.5628366  38.3571768  61.0578537  73.6277199  37.7072549  62.4232769
  18.5617215  66.0134932   4.3788497  19.1196878  66.7814609   4.5018451
  18.3239038  66.0362050   3.4519403  38.9291644   6.7714077  40.4608250
  38.4623241   6.0687965  40.9131861  39.5769477   7.0763302  41.0961437
  60.6020117  27.1025729  56.0185623  61.0967684  26.8747807  55.2314425
  60.9553480  26.5284300  56.6980791  20.7388599  67.3930022   9.1709678
  19.8037059  67.5737116   9.0757529  20.9464223  67.6688501  10.0637500
  71.4761877  31.0251522  40.7576799  71.1318064  31.5506601  41.4798117
  70.7363510  30.9278798  40.1581669   8.9276654  64.2457721   5.2126090
   9.7910888  64.1883323   5.6217973   8.3154781  64.0169761   5.9119765
  51.0890293  55.0619507  40.5556631  51.8899775  55.5266094  40.3131628
  51.3955784  54.2399406  40.9384966  61.8011761   7.9432762  28.9086008
  62.1070814   8.6169976  28.3013511  61.8021202   7.1372324  28.3923411
  63.0162382   5.2731484  60.1217413  62.8664255   6.2050235  60.2811003
  63.8294935   5.0782359  60.5874252  79.7996855  21.1912918  24.2364812
  78.9685678  20.7171321  24.2110562  79.9847221  21.3004422  25.1692605
  36.8778725  33.9623761  63.5972643  35.9493180  33.9613485  63.3648252
  37.1624299  34.8631620  63.4428453  69.1963285   0.5977254   5.7467811
  68.6944670   0.7066445   4.9390046  69.4443125  -0.3267808   5.7518689
  73.9813662  77.5663328  42.7831841  73.8914824  76.6138649  42.7522564
  73.8105536  77.7934790  43.6972189  39.3421596   2.7430968   1.8169515
  38.7331766   3.2511144   1.2809579  39.3781656   1.8863015   1.3916986
  55.2925205  66.2466908  65.6838465  54.7326612  65.4708719  65.6539774
  55.9210968  66.1159325  64.9739027  41.9620097  67.9646949  30.1855564
  42.8403104  68.1148372  29.8358774  41.3770116  68.1473849  29.4502783
  67.7091122  12.6425779  39.0406322  67.2065544  11.8307638  39.1086674
  67.0541334  13.3366585  39.1146970  49.2495775  56.5738964  41.7628050
  49.4947386  57.3641348  41.2814999  49.7198343  55.8678436  41.3194323
  21.8532677  58.2255268  65.9561872  22.0580597  59.0683889  65.5513620
  20.9212704  58.0957270  65.7807922  48.9702839  24.6721940   6.3746898
  48.9553350  24.7363143   5.4197566  48.0503982  24.5806890   6.6230218
  62.3845053  71.5746880  40.0999117  62.6283026  72.1343327  39.3626213
  61.8281603  70.8983612  39.7135282  -0.0936489  28.5297728  59.9312687
   0.6638737  29.0342116  60.2278090  -0.1176910  28.6680150  58.9844084
  14.9035400   1.1562638  16.2020986  14.1585153   1.2190681  16.7997758
  14.6856588   0.4253416  15.6237237  25.0545699  60.6486985  17.9845731
  24.1282422  60.7385203  18.2083623  25.0530011  60.3202078  17.0855062
   8.6538179  61.3779971   0.9339826   8.5801751  62.2981498   0.6807439
   9.2962081  61.0128042   0.3255384  18.6671181  21.0501051  20.7748127
  18.5180016  21.1861277  21.7104888  19.5168038  20.6117415  20.7289314
  80.5076021   6.5544181  17.0897405  81.4643759   6.5379291  17.0661752
  80.2452368   6.5504842  16.1692063  65.2783489  20.4947019  63.4059429
  64.6439981  20.9239697  62.8318691  65.1586771  19.5598865  63.2385254
  54.1950285  41.0177508   7.1705119  53.9576327  40.6289841   6.3286464
  55.1512133  41.0587449   7.1542708   7.7688427  55.4765654  61.1746550
   7.7645226  54.6533251  60.6863022   7.0331974  55.9722614  60.8150101
  42.9508823   7.3210912   8.3519570  42.9091305   8.1015973   8.9044921
  42.4174684   7.5397639   7.5878303  82.1876621  23.6210561  52.1589756
  82.4695301  22.7172327  52.0179510  81.2382698  23.5619831  52.2657156
  20.8628315   4.4027190   9.7513454  21.0709614   4.4183736   8.8171784
  20.6617445   5.3133206   9.9672191  62.1866322   7.5202507  63.6082697
  62.5242949   8.1137484  64.2790699  62.6910639   7.7340901  62.8233814
  14.2526443  55.8402511  12.7386491  13.8863237  56.6746113  13.0317037
  15.0809629  56.0759029  12.3208110   0.6724282  32.1143627  29.0721130
   1.2488862  31.8396378  28.3590531   0.4619904  33.0264688  28.8720894
  76.5760899   9.3816423  38.3542085  76.1166906  10.2188396  38.4196615
  76.0949802   8.8961893  37.6840615  12.3005021  67.0666472  59.8511505
  13.1708539  67.3939322  60.0783014  12.3487938  66.1246506  60.0140762
   0.0225945  33.6337423  47.5105858   0.5568715  34.2832637  47.0535183
  -0.0118045  33.9454699  48.4149504  73.3873034   0.6427393  53.0944633
  72.4408340   0.6814650  53.2320309  73.4995317   0.7974554  52.1565390
  25.8441658   5.3848261  38.9811730  24.9804039   5.7858586  39.0777183
  25.8356495   5.0064462  38.1019759  31.1812633  18.9755588  28.5159795
  31.2110657  18.6896329  29.4289891  32.0336050  18.7260442  28.1589143
  41.8372250   2.3955713  56.6894007  42.3283672   3.1555176  56.3771677
  41.4054298   2.0516592  55.9074116  74.3864107  34.2826462  54.6575546
  75.0738764  34.1921926  55.3174305  73.9643478  35.1165628  54.8641443
  56.9713688  40.5973196  43.6340380  56.3519049  40.6475115  42.9060459
  56.8711329  39.7077417  43.9729166  12.0569557  17.5125937  13.6835782
  11.8233389  18.3769231  13.3450715  12.8825230  17.3000102  13.2482831
  53.7847293  71.0896073  41.7772532  53.0585540  71.6457270  41.4950609
  53.9265025  70.4905538  41.0442686  69.1664934  67.6817465  60.6568575
  69.5791483  68.1186485  61.4018869  69.8966169  67.4366617  60.0884533
  21.0549088  16.0443687  36.3152075  21.7825051  16.2851501  36.8886685
  21.3018532  16.3894641  35.4572082  64.8426056  61.0007095  40.7151079
  63.9119005  61.2180996  40.6625319  65.2004337  61.6296244  41.3417339
   9.2468567  50.8243990  52.9140186   8.4772892  50.2617693  52.8276968
   9.2187901  51.3887930  52.1414232  57.9233170  72.4746275  39.4973850
  57.1658421  72.0434856  39.1016817  58.3849859  71.7733622  39.9570775
  10.8605404  44.8283052  30.7776618  10.6306000  44.9239492  29.8534274
  10.0403519  44.9840927  31.2459016   9.8774071  41.4790964  44.3904209
   9.0105362  41.8406153  44.5750141   9.9710865  40.7540751  45.0083256
   8.0958762   2.7233224  22.2567479   7.8731646   1.8458133  22.5675694
   8.9808192   2.6346355  21.9028489  25.6745358  35.3914070  37.1591520
  26.0795136  36.0312963  37.7446127  25.8471508  34.5455575  37.5726390
  46.7341036  13.2909684  14.6533887  47.4924177  13.8732963  14.6990029
  46.6211170  12.9742103  15.5495660  14.5093162  71.3047025  22.4254624
  13.7256343  70.7941005  22.2220819  15.1991899  70.9062049  21.8948857
   1.1213227  25.4196310  44.1578102   0.5950661  25.0667286  43.4403515
   1.2446900  26.3418961  43.9332294  65.2306128  67.0112181  57.8276062
  65.3173876  66.7823362  58.7529802  65.7663107  67.7977037  57.7241564
  76.3843584  49.5188856  43.7650919  75.8225965  48.9548254  43.2335949
  77.2602892  49.3985415  43.3983564  56.6719103  39.3224525  64.5172691
  56.7017984  40.1858044  64.9295330  56.6553545  39.5060062  63.5779810
  58.3489656  18.3305275  52.7926350  58.3791924  17.4515855  53.1704998
  57.5500727  18.3372378  52.2654247  55.8544397  47.5192165  37.1137094
  56.1546993  48.4231281  37.0187068  55.3831100  47.3367119  36.3008285
  31.8851812  68.8974878   7.3298518  32.6128442  68.3482644   7.6215665
  31.4095456  69.1111037   8.1325738  19.9499722  64.5101500  51.8310404
  19.1323967  64.8042727  51.4294195  20.0387307  63.5983896  51.5534735
  66.5982103  57.6722670  58.7425804  66.8107605  57.2162342  59.5568848
  67.3108387  58.3007908  58.6270189  55.7871056  11.6081381  54.6503258
  55.0301743  11.8448603  54.1143703  55.4397774  10.9943604  55.2975273
  36.7211718  25.7780509   8.8415353  36.7754120  25.4515986   9.7397105
  36.5933603  26.7218595   8.9370410  78.1417418  52.3349285  46.9900179
  77.7804852  51.6165018  47.5092363  77.4243259  52.9648209  46.9208765
  73.9072514  23.5577917  45.7544565  74.4046497  23.2216954  46.5000200
  74.3658876  24.3592191  45.5022573  45.5522025  67.4081038  40.1608896
  45.7923330  67.0253233  41.0047197  44.8584092  66.8386463  39.8283148
  70.3164517  64.7252437  31.0543363  70.2057111  64.5385405  31.9866006
  71.2506329  64.5930430  30.8929078  58.7013340  21.0808706  58.6390257
  59.5136118  20.5959773  58.7850332  58.0178022  20.5182385  59.0029716
   7.1815320  34.5165062  49.5950651   6.6880627  33.7042499  49.7088957
   6.5545578  35.1248312  49.2038155  66.1609936  57.6275635  53.3835602
  66.0760355  57.1420193  52.5630379  65.8887911  57.0061827  54.0588522
  11.3166733   9.9645126  52.4765301  11.3606377   9.2006922  53.0517483
  12.2229596  10.1139820  52.2071838  62.2354269  14.1861928  61.9337988
  62.9265594  13.9943612  62.5676489  62.6170063  14.8471475  61.3560724
  44.3301201   9.4875205  40.5753851  45.1790953   9.1067594  40.3506804
  43.9906025   8.9228576  41.2697268  77.6124747  53.0870342  54.8712111
  76.9215779  53.6000824  54.4520760  77.6267893  52.2624683  54.3852854
  26.7922933  68.8811609   7.1676032  26.1311586  69.4752523   6.8123643
  27.2699697  69.4093034   7.8072278  31.2711163   8.2359833  19.2354965
  31.1821671   7.3687005  19.6306431  30.4193326   8.6504155  19.3731797
  38.8871360  27.5308394  60.3870296  39.4707012  26.7765236  60.3052473
  39.2743301  28.0585980  61.0854483  68.0449533  14.8041153  28.1612420
  68.9481020  14.9915195  27.9054403  67.5768423  14.7050989  27.3322058
  51.3310427   1.0025125  15.4423444  50.5112595   0.7454472  15.0203244
  51.1037678   1.1012917  16.3669126   8.5631295  60.5363750  42.1669340
   9.2011185  60.2285624  41.5231562   8.7582894  60.0328016  42.9572248
  69.0969324  19.7077620  38.4896374  69.5652914  20.0642586  37.7347994
  69.7876883  19.4029689  39.0780115  49.6119738  57.6897335  37.6445937
  48.9866447  57.2067499  38.1848907  50.2129984  57.0203829  37.3175359
  60.7107782  36.7776227  50.4345560  61.6160870  37.0581985  50.3006744
  60.6044722  36.7573285  51.3856173  53.1661177  24.2342520  58.9800215
  53.7319183  23.6151195  58.5187483  53.2027960  23.9562130  59.8952150
  22.1693237  39.2077438  16.7919271  21.7730529  39.7739097  16.1296098
  21.9233424  38.3212926  16.5274827   9.3601049  64.4511823  58.2163382
   9.6406377  64.5898930  57.3117447   9.1755141  63.5134117  58.2687330
  50.1692581  23.0174208  54.7674417  50.7475424  22.2563028  54.8176527
  49.6526575  22.8738236  53.9745140  56.1438370  35.5668569  55.7963610
  55.2325678  35.6480789  56.0778284  56.6465998  35.5623436  56.6108799
  67.4947882  32.8836870  51.6529274  67.1201658  33.7356949  51.4293861
  68.2917452  33.0928445  52.1401119   1.0486527  61.8028879  53.7803316
   0.3839703  62.4886751  53.8446045   1.8706818  62.2770405  53.6551142
  18.9445134   8.3588600  40.8795881  19.6932717   8.8785481  40.5871534
  19.2377301   7.4510658  40.8010817  22.6870270   9.0882063  62.3719025
  22.0477887   8.3809167  62.4575758  23.4225102   8.6911178  61.9053984
  18.0366571  75.2339598   1.6413085  18.2467897  74.7284242   0.8561246
  18.8819940  75.3785154   2.0664470  56.4272547  44.2862797  66.2966824
  56.8573189  45.1366091  66.2060452  55.7719469  44.2737389  65.5990791
   6.8095990  44.4820547  28.8119006   6.2302227  44.5798635  29.5675397
   6.3747235  43.8328028  28.2591033  67.8942299  27.3740697  47.8731298
  68.3204937  28.1836486  48.1544065  67.8353596  27.4526930  46.9209862
  37.3806203  73.7713314  65.8056164  38.0157197  74.0043176  65.1284170
  37.2753967  72.8238378  65.7194996  42.8898449   9.4270104  12.9068518
  42.8767033   8.5533649  12.5159526  42.2642727   9.9314988  12.3868597
  71.7951155  67.2044992  50.8811474  71.5327120  68.0295849  50.4729700
  72.3477411  66.7782974  50.2260256  64.0779495  36.6096473  44.3923903
  64.3717670  37.0210910  43.5796070  64.1339302  37.3057127  45.0470591
  11.2738759  64.2077419   6.8085258  11.0101087  64.0777132   7.7194325
  11.8221528  63.4493563   6.6073482  68.2610750  13.8555264  53.5274267
  68.1213617  14.0282476  54.4584942  68.4129286  14.7192216  53.1437588
  35.7503265   3.8638549  25.7765119  36.5988726   4.1743474  26.0924165
  35.8045620   2.9104476  25.8421723  73.5872454  43.7143807  21.1234967
  73.8510603  44.4996457  21.6030614  72.6755804  43.8767247  20.8811299
  72.0788097  56.7059183  56.9802856  71.6154003  56.6007948  57.8112078
  72.5825310  55.8978081  56.8830633  62.5956869  32.9735708  59.5798254
  62.3791504  33.5598564  60.3048182  62.0761299  32.1867418  59.7447109
  17.8742714  62.2215176  47.6293898  17.2803517  62.8539944  48.0336952
  18.1360932  62.6317835  46.8051577  23.5463518  19.0768485   4.8885123
  23.9935917  18.2660728   4.6459214  22.9059547  19.2151599   4.1906659
  30.2936573  54.5085335  54.6053934  29.5749684  54.0167665  54.2080545
  30.3530236  54.1670561  55.4976368  21.5779156   5.0881677   1.7388789
  22.0307726   5.6890254   2.3305909  20.6492561   5.2156930   1.9326703
  72.8181076  38.8014984  53.1158400  73.2463455  39.4037127  52.5074148
  72.2231340  39.3549752  53.6217117  71.1818361  42.7428961  43.5303164
  72.1300650  42.6900530  43.6498737  70.8770657  41.8411493  43.6313486
  79.5321512  62.2199965  42.5892401  78.9487648  61.7651224  43.1966782
  79.6373034  61.6119623  41.8574810   1.4040000  59.0449569  11.6850154
   1.4637429  59.0514895  12.6403253   1.0448129  59.9036261  11.4616220
  70.7886887  41.6336441  52.4701262  70.6633091  42.4418259  51.9727850
  70.9447384  41.9266605  53.3679152  49.0006351  47.7734804  50.0229025
  48.1343699  47.9236460  50.4014063  49.2183399  46.8752193  50.2718258
   2.3904629  59.9648476  42.0561028   3.0334588  59.2903423  41.8373919
   1.5800782  59.6659994  41.6435432  17.4309369  31.6811919  44.2995596
  17.0780583  31.2069774  45.0524473  17.9473992  31.0289025  43.8262653
  12.9544087  26.7648530  19.8127329  13.3742352  26.0700202  20.3198624
  13.4129639  27.5631499  20.0748086  56.2747431  46.4699602  52.6851845
  56.4897156  46.0213804  53.5029840  57.1131516  46.5553856  52.2313118
  79.4877291  71.4058161  45.0561714  79.0232277  72.2366047  45.1574469
  80.4140663  71.6467762  45.0644588  25.1381703  51.3294268  32.4987030
  25.9134312  51.7009687  32.0777988  24.9084301  51.9624186  33.1789804
  23.9133889  11.8071850  53.6344957  24.7228725  11.9739159  53.1516171
  24.0715654  10.9795769  54.0886784  71.2287092  10.0127149  50.2187157
  70.7790565  10.8241820  50.4544401  70.8347321   9.7538793  49.3856382
  82.0178890  49.5843697  56.4593744  81.0668850  49.4756508  56.4614010
  82.1535301  50.5103970  56.6601229  50.9341676  73.0205461  23.7206571
  51.2078626  73.1943104  24.6212880  51.7178018  72.6726195  23.2950990
  27.8825910  72.9268524  30.7737367  27.8599794  73.5313579  30.0319211
  28.7412221  72.5078651  30.7152001  17.9418488  52.2460175  28.0827117
  18.2143517  51.3817644  27.7744246  17.7768250  52.1256781  29.0178680
  19.7108311   2.6842408   3.2734172  20.2088779   3.4985738   3.3444612
  20.2878851   2.0918279   2.7914588  19.9287148  76.7891979  31.4421368
  19.6442528  77.5781250  31.9035602  19.2770215  76.1277246  31.6744971
  56.7752737  24.2950254   8.6030213  56.0774320  24.9442201   8.6913507
  56.7767328  23.8296371   9.4394700  80.8277321  31.5721321  63.0728531
  80.8322048  31.9448447  62.1912098  81.7346764  31.3067055  63.2252789
  57.1465302  50.8269739  30.3844786  56.2432671  50.8987808  30.6930065
  57.4678993  50.0127506  30.7717609   3.0651875  46.2339067  34.8171902
   3.4117432  45.3426600  34.8597574   3.7495347  46.7759943  35.2096605
  37.0622213   8.0224522  59.4518757  36.6136129   7.3800095  58.9021063
  37.5416810   7.4966343  60.0920916  43.4045649  25.6477237  59.6050310
  42.8561831  24.8678923  59.5191813  44.0127087  25.5952263  58.8677120
  50.6349714  15.9432610  56.2475824  50.2918393  15.4808434  55.4829502
  50.2614648  15.4782589  56.9962454   9.1642495  43.5327959  52.9690981
   9.7968312  43.8141775  53.6300802   9.4981022  43.8951969  52.1484661
  20.3201158   3.4625347  50.7176590  20.0611551   4.2305001  51.2269783
  19.9423940   3.6115082  49.8508453  18.3388730  72.3787498  66.7470503
  17.5597020  72.6902914  66.2865400  18.4513398  72.9945421  67.4711943
  75.9774542  63.4648037   7.1593332  75.6976891  63.6278486   6.2585676
  76.9044828  63.7030411   7.1690518   8.5150357  26.1401486  41.4029169
   9.4085713  25.8264446  41.2635803   7.9808159  25.3459358  41.4105082
  64.0125942  18.1157935  49.6967745  63.8052988  18.1462097  50.6307602
  63.7877274  17.2243190  49.4304323  30.7418115  62.3742458   1.3139932
  29.8754651  62.7806041   1.2908809  31.3203103  63.0203602   0.9088819
  59.2705428  65.3071400  51.2847249  59.3363916  64.4408223  51.6864602
  58.6827528  65.1816365  50.5397527  66.5036964  67.4019241  62.1608496
  67.0730066  66.7011070  62.4786139  65.8509398  66.9545937  61.6223001
  13.8577475  22.0962052   3.9326493  14.0228762  22.4707179   3.0673711
  14.5436491  21.4378123   4.0435330  63.1987095  37.1185732  59.7784472
  62.3638344  37.4375558  59.4357204  62.9543161  36.4930725  60.4605436
  13.0547257  27.4087906  65.1383305  12.6214524  27.9601431  65.7898808
  12.3677655  27.2019577  64.5046616  68.6702204  39.5437503  65.0138092
  69.3075323  40.1344442  64.6123838  68.9886808  39.4196510  65.9079075
  29.7169133  59.0635347  23.9744163  29.7580166  59.6654510  24.7175455
  29.9731274  58.2160378  24.3381882  70.0551462  23.8950253  50.0746489
  69.9655247  22.9436517  50.0190926  69.3527412  24.2345548  49.5200491
   0.6798478  44.7457504  63.8546896   1.3689538  44.0914488  63.9698410
   0.9546872  45.4818153  64.4014168   0.8959790  66.5403986  16.5365410
   0.7614727  67.1419716  17.2688329   0.6585999  65.6813097  16.8856084
   5.3165741  41.6936636  61.2349224   6.1286183  41.7681503  60.7336426
   5.5315896  42.0559978  62.0944071  57.0429373  44.4052696  41.6169071
  57.0696163  44.0527439  42.5064230  57.8459978  44.9203348  41.5392113
  53.5163301  42.0004182   3.0949370  54.2789549  41.5294461   2.7590768
  53.3936113  41.6573052   3.9800612  69.4703007  35.5100083  53.6466122
  70.3881550  35.7121873  53.4652424  69.5010996  34.8893690  54.3746853
  35.6318910   1.4004286  26.5702701  35.7318551   1.3998039  27.5222349
  35.6061322   0.4738339  26.3315415  66.6600418  12.9290807   4.4565666
  66.0234928  12.4391615   3.9359736  67.4731350  12.8741157   3.9544788
  16.9195767  51.1927271  62.0118093  17.6499386  51.7146587  61.6795731
  16.5745659  51.7027521  62.7446651   7.0052678  70.1419708   0.2087991
   6.2382323  70.4823109   0.6692998   6.9689281  69.1958877   0.3496425
  25.3434201  39.0847301  29.5859122  25.0293179  39.9646974  29.3779969
  25.6501217  38.7359166  28.7489557   2.2368737  57.8709126  50.9685993
   2.2830124  57.6262760  51.8928576   1.3016530  57.9794884  50.7959747
  13.6516686  62.1886063  60.0388145  12.9367943  62.7554321  60.3284740
  13.3703061  61.3060522  60.2799940  49.1371775  59.5735788  53.6584949
  49.6580601  59.5200109  52.8572178  48.8769579  60.4930544  53.7139893
  51.6244698  70.4444647  59.3789387  51.7658472  71.3903856  59.3405628
  50.9068155  70.3346682  60.0027609  73.3643627  73.7695360  28.1559181
  72.5548315  73.2618046  28.2116413  73.2658625  74.4510889  28.8207626
  72.5208753  28.2289939  20.2057473  73.2055658  27.6061254  19.9618642
  72.4771494  28.8377194  19.4683377  44.2941135  29.9290757  15.3437345
  44.6408934  29.4384818  14.5985620  43.5538286  30.4183297  14.9847905
  61.4366526  39.9098306  14.3829839  61.1492342  39.1030078  13.9555947
  61.5550417  39.6655707  15.3008954  77.4673510  39.4757652  61.6288233
  77.7381182  40.2942276  61.2128496  77.4973726  39.6626019  62.5671291
  78.4571791  43.2617092  65.2870750  79.2213964  43.7687635  65.0130224
  77.8295851  43.9184952  65.5887175  18.7948269  16.3404279   1.1115043
  19.1971725  16.4293914   0.2475421  19.0208048  17.1521430   1.5656821
  58.7359333  73.1045628   1.7680095  59.3850231  73.7222052   2.1048088
  58.7931871  72.3521042   2.3568705  16.5549202  11.6766298  57.0061159
  17.2630711  11.8282211  56.3801908  16.3523598  10.7452989  56.9176674
  74.5052236   0.3219276  31.0851686  73.7982649   0.2241306  30.4473130
  75.2143282  -0.2218313  30.7420461  76.5747738  53.5998631  43.7151766
  75.9891844  53.3912802  42.9872990  76.2061834  53.1279182  44.4619322
  80.6298345  27.9590325   5.1294629  79.7887415  28.4000402   5.2490775
  81.2740702  28.6669784   5.1327245  79.0160418  37.9600000  20.7252145
  79.3314934  37.8078389  21.6160369  78.0784130  38.1230164  20.8277297
   5.0919158   1.3665159  65.9922266   5.6415326   0.6277283  65.7307911
   5.7129771   2.0465573  66.2531042  58.3937168  70.3513098  41.3405895
  57.7063227  69.7327662  41.5878344  58.9893961  69.8407650  40.7921886
  27.3387296   2.3401745  26.8879366  28.0327089   2.7772148  27.3815227
  26.9159658   1.7658385  27.5263977  38.6517865  19.6301087  52.1241140
  37.7479989  19.6370991  52.4393320  39.1688688  19.3663605  52.8852224
  63.1607533  62.5504923  38.5739398  63.7704897  63.0974913  39.0691662
  62.6553011  62.0889807  39.2430854  77.8060102  35.1856685  58.7654877
  77.2596264  35.8635950  59.1631222  78.2447672  34.7667980  59.5059395
  79.0849733  53.4384918  51.4515877  78.4801006  53.6911917  50.7540941
  79.6802521  52.8135633  51.0376453  63.3029932  33.8740735  18.1247823
  63.6401171  34.5372539  18.7270848  64.0505690  33.3001094  17.9576795
  60.8895493  72.7116680  41.9172335  60.4185820  73.2748127  41.3029957
  61.5281391  72.2478724  41.3756275  14.8642928  54.7212216   2.3987262
  15.3561027  55.1041910   3.1251542  14.4953830  55.4736826   1.9361941
  56.7739099  12.4274211   2.9871146  56.2794203  11.8250136   2.4314086
  57.5827593  11.9572978   3.1895558  53.8148737  58.2360411  50.2520037
  53.9163065  58.1632614  49.3029785  53.4861803  59.1243362  50.3903246
  68.6851918  20.1982983  61.4426565  68.8689028  20.2104862  60.5033302
  69.3631827  19.6324738  61.8119812  32.8168768  19.6654420  38.9149491
  33.6876100  19.9107509  38.6020867  32.8042311  19.9437194  39.8307244
  59.1907877  37.4442344  20.6793992  59.4851393  37.9433827  19.9175374
  59.5878023  37.8915267  21.4267556   6.4704909  14.3021112   8.1950728
   5.6416811  14.1923242   7.7289741   6.2143053  14.5260053   9.0897624
  50.5245638  32.3850131  18.2189000  49.6973944  31.9285893  18.3728480
  50.2683163  33.2186532  17.8244197  55.9033865  16.6765933   2.3646419
  56.5623278  16.8051629   3.0469148  56.2949270  16.0356526   1.7712466
  47.6435089  64.9952269  66.3994169  47.7918196  64.3236542  67.0651722
  46.9602394  64.6290588  65.8378983  59.1796834   5.8760174  57.5845242
  59.2854268   6.7790039  57.2850943  58.3682592   5.8854874  58.0921936
  71.0030985  59.7217941  56.9261456  71.0659981  58.9172220  56.4114189
  71.8215227  60.1849651  56.7475796  79.7132874  59.6409464  55.2872705
  80.3105164  59.0779257  55.7797623  79.0794611  59.9443436  55.9372282
  25.4539258  66.2124917  28.0922524  25.5098588  66.5008137  29.0032784
  26.3291700  66.3684890  27.7374951  63.1410265  39.2640471  38.3650208
  62.5621176  39.8032451  37.8261685  62.6600456  38.4457040  38.4883451
  66.4171213  52.1626859  14.9522130  66.7976183  52.8550344  15.4926888
  65.9749407  52.6285749  14.2425267  72.3718834  21.5990353  63.7489891
  73.2982397  21.5050197  63.9709330  71.9144249  21.5017128  64.5841455
  71.5524912  47.3154402  30.2460957  72.2948694  47.9059505  30.1180029
  71.9258738  46.5541172  30.6901789  63.7434244  57.5388765  39.3189907
  64.2121840  57.3974514  38.4964967  63.0793142  58.1946421  39.1064811
  11.7825337  65.5474949  37.8008747  12.4037858  65.1689148  37.1788144
  12.2667428  66.2588644  38.2200694  36.2702936  28.2504611   8.9001386
  36.4547199  29.0454106   9.4004075  36.2797636  28.5349851   7.9862515
  60.1699442  33.0247264   3.8053147  60.4526609  33.4650044   4.6068494
  60.7753271  33.3383756   3.1334750   5.5662652  11.4779103  48.9818192
   5.7827969  11.3122988  49.8993778   5.3146477  12.4011409  48.9579725
  78.5915613  73.8162088  37.6276326  77.6990652  73.5640097  37.3908401
  78.5453844  74.0095329  38.5639691  68.0074167  59.5955467  61.7851496
  68.8618851  59.2798233  62.0791483  68.2045317  60.3833914  61.2785149
  14.1394444  40.0482035  53.5538387  14.3313809  39.5214224  52.7780247
  13.9817639  40.9285069  53.2126093  17.8075142  24.7093678  39.1116571
  17.5023480  25.4727864  39.6018529  17.1865387  24.0164876  39.3364501
  26.3633306  51.6602179   3.9207570  27.0194585  51.0884198   3.5223023
  26.8698365  52.3795208   4.2979638   1.5695591  49.8290205  61.2185001
   0.8291264  50.0723076  60.6628084   1.3749810  50.2296782  62.0657539
   1.6012021  52.7645779  52.6588488   1.8494530  52.0301485  53.2202911
   0.6531067  52.8392172  52.7673578  63.4433270  38.2736015  46.4960003
  63.4543037  39.0528917  47.0517111  62.6202011  38.3365011  46.0115004
  33.7640149  72.9907533  25.8211057  33.8635404  72.4336335  25.0491349
  33.5545499  72.3825952  26.5299813  56.7197514  55.0054598  55.7778358
  56.8732166  54.7166920  54.8782253  57.2896147  54.4488525  56.3085604
  34.2322976  71.4994284  12.4863355  33.8002450  71.0497758  11.7601268
  33.5341127  71.6515490  13.1232183  20.7282849  59.1839790  55.9660339
  21.0207482  59.6225691  56.7649937  20.2910824  59.8704910  55.4622602
  31.7963845  67.6784655  16.0533063  32.4205644  68.2642195  16.4817063
  32.1530111  67.5498721  15.1743714  67.9974073  60.5869489  14.8986165
  68.8596529  60.9867196  14.7848241  68.1256479  59.6689229  14.6598546
  71.7110205  51.4417124  50.6448603  71.9685936  51.8502808  51.4712763
  72.5019360  50.9962320  50.3411722  69.4160938  44.2084169  45.0232172
  69.8080635  43.5499525  44.4496155  68.9251089  44.7792053  44.4321489
  68.4566962  60.6414601   3.2704179  69.3531071  60.5929157   3.6025683
  67.9623496  61.0595295   3.9754502  58.1815147  57.5171089  40.1337099
  58.8080978  58.1612730  40.4633808  58.7228060  56.8537045  39.7057700
  45.1342577  57.7736001   4.2756001  45.8721775  58.2458215   3.8899629
  45.2845377  56.8587594   4.0374248  58.1897062   7.5120311  10.6924359
  57.9008669   6.7110639  10.2551143  57.8943056   8.2184224  10.1179950
  20.3945561  37.6471400  60.4336119  19.9861927  36.9108438  59.9782658
  21.0032769  37.2397947  61.0498571  17.1513005  29.1924262  57.2238255
  17.1516247  29.7755408  57.9829121  17.3673935  28.3318114  57.5828171
  22.0502288  71.8017289  24.2341153  22.5318820  71.7938539  23.4069650
  21.1400706  71.9540188  23.9798467  75.7329798  15.7284915   5.9917378
  75.1805639  15.8047116   6.7697209  75.7089090  16.5991139   5.5946612
  50.9375531  38.8797389   1.2408750  50.5800588  38.0023247   1.1045615
  51.8855340  38.7503569   1.2694232   3.9036389  41.5993500  40.9539652
   3.2315369  40.9355640  41.1085796   4.7257729  41.1654329  41.1820793
  14.8713513  18.5613871  60.0822735  14.7743721  17.6096976  60.0488997
  15.4276772  18.7718964  59.3323278  61.6960716  45.3853178  40.8440447
  60.8702374  45.6109810  41.2721920  61.8849087  44.4954395  41.1418390
  78.5215521  47.0515060  36.5564108  79.4779968  47.0208883  36.5790105
  78.2599974  46.1707640  36.2878728  11.1911447  72.9200360   8.9760129
  12.0348937  73.3336207   9.1584126  11.4148242  72.0314452   8.6992375
  51.4331722  58.0853033  34.3883038  50.9849405  57.2563314  34.5560169
  52.2472525  58.0227661  34.8878980  69.8637295  41.4932632  63.6651325
  70.5087328  42.1833038  63.5100508  69.2852402  41.5305662  62.9034281
   7.4890633  46.7871237  46.5325594   6.7645092  46.5252686  47.1006060
   7.9804154  45.9793282  46.3833237  50.0698900   3.4525758  56.8636370
  49.8446035   3.6397776  55.9523582  49.9367952   4.2839837  57.3189163
  73.6359072  45.3807211  31.0801220  73.6208820  44.4296646  31.1873174
  73.9127970  45.7136250  31.9337869  41.6507585  48.5428682   4.4970290
  40.7282598  48.5565224   4.7520558  42.0786245  48.0183968   5.1738565
  57.5685167  45.4792452  32.4867892  58.2171154  45.2973938  33.1668520
  57.8839684  44.9999285  31.7206454  66.9629478  49.5686102  41.7852163
  66.9333935  50.4725933  42.0985413  66.7101431  49.0435362  42.5445652
  60.9591764  43.5829453  14.5825974  61.5832037  43.1644349  15.1756207
  60.5333704  44.2531972  15.1170938  17.3030587  64.9830103  40.3043842
  17.6543637  64.6624517  39.4736862  16.3793488  65.1563120  40.1228523
   9.0374012  61.7868996  58.2951832   8.4826203  61.5897274  59.0498829
   9.7206326  61.1169195  58.3186102  16.2568671  76.2493011   3.3291499
  16.8088109  75.7810566   2.7027862  16.5229804  77.1649238   3.2451837
  13.0093044  26.7017703  26.1151521  13.0180878  27.1574693  25.2734391
  12.6240820  27.3315244  26.7244546  49.7724050   5.3049855   9.3739478
  50.0532049   4.9970775  10.2356736  50.3626198   4.8685365   8.7596242
  55.5053997  53.0266094  24.8938084  56.0402727  53.2155895  25.6647992
  55.6700611  53.7608862  24.3022370  80.1402664  33.9917850  57.7234173
  80.0670910  33.0507922  57.8828192  79.3208408  34.3558884  58.0584002
   7.5490863  72.1870920  18.8557450   7.8630693  73.0814144  18.7221925
   7.3986346  72.1244141  19.7989671  24.0347214  42.7597380  19.5165753
  24.7246190  42.1979666  19.1634655  23.3226033  42.1576309  19.7324169
  39.7008842  26.0279613  25.8678166  39.4966596  26.3174396  26.7570416
  40.6354565  26.2080722  25.7659928  23.0226381   3.5167225  39.3131542
  22.1512325   3.5738667  38.9212132  23.5458810   3.0440434  38.6658382
  44.5765585   3.7158208  26.1426179  44.6204466   2.8154998  26.4646832
  45.1298946   3.7180333  25.3615682  55.0051267  44.5645335  10.7718436
  55.7049138  45.2115139  10.8610312  54.8778588  44.4780740   9.8270909
  44.1406918  59.9628925  26.7650175  43.6749744  59.1886950  26.4488554
  45.0002909  59.6343613  27.0284224   3.8436051  39.9436045  49.9886322
   4.6390744  40.0528336  49.4675493   4.1481038  39.9559569  50.8960247
  44.3340826  36.7227221  59.7803450  45.0306654  37.3395228  60.0052071
  44.5198965  36.4709663  58.8757324  23.1113835  58.6579847  51.7082596
  22.8372975  59.1350651  52.4915266  23.1159134  57.7392244  51.9767523
  81.1726856  35.7963324  52.6464176  80.4430294  36.4141417  52.6001501
  81.1811447  35.5034781  53.5576820  10.5062123  67.7081013  33.4919000
  10.4838391  67.3271799  32.6140428  11.3950844  68.0518293  33.5812521
  42.1756513   1.8438919  39.6923304  41.3316972   1.4606817  39.4533396
  42.7844007   1.5135439  39.0316248  29.0929658  13.0107983  45.3384018
  28.5373933  12.9249485  46.1131239  28.4931619  13.2781037  44.6419668
  13.3735902  73.9186332  19.5912282  13.0309684  73.1530020  19.1300885
  13.7686832  74.4551775  18.9040200  61.0538668  33.1626897  15.1601426
  60.1580614  33.2752757  14.8421876  61.6044802  33.4459453  14.4302003
  69.4721842  35.2806473  26.2604594  69.4515657  35.2476168  25.3040528
  68.6091805  34.9660063  26.5296412  37.6725334  27.9864936  13.9950768
  37.0360845  28.2271533  13.3218400  38.4237427  27.6512914  13.5056321
  68.8963652  51.2481356  38.1194282  69.0050220  50.5919886  38.8078284
  68.2461262  51.8571329  38.4694958  76.5960789  65.3171301  66.7684031
  77.1407986  64.9034643  67.4380255  77.1068573  65.2395630  65.9626007
  75.2379990  27.3579335  62.3036385  75.9128094  27.8503966  61.8363714
  75.0688648  26.5970230  61.7480850  74.2038666  15.0424011  35.8474255
  73.7308490  14.2565830  35.5735993  75.0759494  14.7267063  36.0841608
  53.5233492  68.9710240   2.8595273  53.3695883  68.4674649   2.0601384
  54.0000242  69.7473149   2.5656192  64.2812246  43.2028871  15.0479905
  63.8164038  43.1245332  14.2148988  63.6089987  43.0518060  15.7124536
  34.8363228  73.6802101  51.4128780  34.5988102  73.6372614  52.3391438
  35.7864399  73.5644102  51.4036274  66.8175364  21.5885448  49.9786806
  66.4433098  22.2860074  49.4404125  66.7551517  20.8049011  49.4325686
  11.5886040  70.6251860  58.2826710  12.1796628  70.5063057  59.0261459
  11.7238923  71.5332842  58.0119562  50.9525150  25.0843673   1.3240211
  51.3001341  24.2218499   1.5508620  51.7238706  25.6494288   1.2798326
  34.8892415  76.5850223  28.1407213  35.5457176  77.1804538  27.7791500
  34.3566669  76.3297399  27.3874426  32.6099838  62.7947311  37.7829432
  32.3156560  63.1867866  36.9608116  33.0123533  61.9661407  37.5226212
   5.4604013  15.8715054  15.3277318   4.7589738  16.1215803  15.9291379
   6.1709649  15.5772707  15.8975999  15.0134446  34.5455618  50.2766426
  14.4875170  35.1872976  50.7539351  14.5377709  33.7214078  50.3802700
  34.3304408  59.6051769  50.1408386  33.7969268  59.1672901  50.8040476
  34.8030484  60.2835397  50.6232262  26.4607251  73.1518794  18.7396955
  25.5648959  73.3111833  18.4424651  26.4869560  73.5132782  19.6256614
  54.3572235  17.9984236  59.6920443  54.8230648  17.3451769  59.1700363
  53.4410048  17.9042351  59.4314623  18.1145012  24.2469978   9.7232884
  17.4860787  24.4124222  10.4261053  17.8188598  24.8024821   9.0019935
  34.4956220  77.4242787  36.9956946  35.2454580  76.8306722  36.9555736
  33.9211810  77.0401040  37.6580071  56.6364527   6.2562960  25.6029391
  55.7973194   6.5835285  25.9269857  57.2454214   6.3999456  26.3273358
  80.1283360  12.5315464  23.1233454  80.6472588  12.1294487  23.8199544
  79.3993139  12.9515934  23.5797668  63.6779070  17.7033460  57.5618172
  64.3470573  17.7278709  56.8778086  63.0224514  17.0877552  57.2337055
  52.4071134  70.9694485  21.0589647  52.4944270  71.6259293  20.3678489
  52.8087199  71.3754956  21.8271255  62.6656628   9.5643282  26.8863654
  62.5841761  10.4129612  26.4511466  62.4200249   8.9267802  26.2159729
   0.3374875  71.8236045  43.9657640   0.9057678  71.6510634  44.7164392
   0.1835883  72.7679316  43.9939165  47.7518810  56.3479654   7.7473032
  47.1758426  56.6629545   8.4438598  47.3304046  55.5488889   7.4309683
  81.1377399  71.4123736  41.5598631  81.7181008  71.4973799  42.3162937
  80.6720417  70.5890719  41.7066002  29.7309697  77.2940451   9.8672187
  29.8736871  76.4340381   9.4719321  28.8017715  77.3008341  10.0969505
  72.7214186  56.1763040  36.6975212  73.5404878  55.8132164  37.0344567
  72.9534083  56.5369050  35.8417296   0.8769954  70.5981938  57.5431108
   1.1094917  70.0410042  56.8003321   0.8276451  71.4802537  57.1746445
  38.6041225  66.7167811  29.5857286  39.1767991  67.2465805  29.0311241
  37.7833236  66.6592852  29.0966368  24.3629289  10.9683633  29.0872884
  23.6848116  11.3628304  28.5388494  24.7207069  10.2593338  28.5529637
  33.9662123  23.5541940  43.0627441  33.8248992  22.7773046  43.6037683
  33.6591244  23.2992673  42.1927214  18.5866655  49.4467847  36.5819716
  18.7006868  50.2924363  37.0156837  18.5845340  49.6551196  35.6477213
  69.0020978  36.3748610  13.9222161  69.2171799  37.2421303  14.2654531
  69.3681323  35.7658857  14.5636193  30.2891267  58.7643711  18.3773947
  29.8209441  59.1294495  19.1282296  29.7187055  58.9426486  17.6296842
   6.4260884  18.5566783  49.1963816   7.1479912  18.9970350  48.7478495
   6.8309327  18.1558621  49.9655914  53.5736049  59.7292427  53.2895231
  53.4410156  58.7863294  53.1917191  53.3782829  59.9043659  54.2100763
   9.0278168  33.5792232  19.0834999   8.9411946  32.6977086  19.4463539
   8.3752270  34.0973330  19.5545828  43.2548202  60.9159462  65.2689934
  43.4849370  61.2002937  66.1535406  42.3500217  61.2056164  65.1520824
  42.2163868  21.5713859  35.5745149  41.6899109  21.1692595  36.2654185
  42.5562191  20.8315992  35.0710654  40.8397722   6.5170860  14.1015196
  40.4667759   6.9885719  14.8463714  41.2230539   5.7282424  14.4849932
  19.6329553  26.4142165  12.6656262  20.5162246  26.7792115  12.6122872
  19.7688968  25.4814383  12.8319852  60.6468916  17.7785528  30.2244663
  61.0457277  18.1791461  29.4520116  60.9848928  18.2888234  30.9604073
  22.8480387   6.4163560  37.8276205  22.6889658   6.6402888  38.7445617
  22.3435163   7.0617265  37.3324561  42.1797807  44.6128014   6.0981528
  42.0820577  43.6865035   5.8775775  41.2924535  44.9673447   6.0417764
  58.8058376  20.4223752   0.1162676  58.8619661  19.4988203   0.3614812
  58.2059336  20.8042693   0.7569765  52.7252531  14.3282378  29.9256229
  52.3780632  13.4376729  29.8747706  53.2590675  14.3321931  30.7201409
  52.5339044  69.5468841  65.6902122  53.4014571  69.4472615  65.2982235
  52.6357139  70.2615796  66.3187647  53.0957092  65.9780888  31.3941884
  52.5798667  65.2858559  31.8076539  53.1624759  66.6592268  32.0633841
  42.2033037  70.6101952  59.0895176  43.0644573  70.3027258  58.8064861
  42.1900094  71.5373377  58.8518953  45.5585874  75.0245921  13.3892727
  46.1568178  75.6779916  13.7517929  45.2431262  75.4148002  12.5741327
   3.5766877  73.5933219  54.7343254   4.0503205  74.0130402  54.0161753
   2.6680220  73.5606370  54.4351816   1.7661591  39.7728562  41.2538004
   1.7245789  38.8187599  41.1889601   0.8507081  40.0513220  41.2791348
  51.3738537  17.2122467  47.4466753  51.8382931  17.7597928  46.8136501
  51.4485264  17.6871431  48.2743979  45.1091623  14.3356013  49.4554138
  44.9319077  13.3949828  49.4483900  45.2906179  14.5519698  48.5408163
   9.6876819  55.7489678  28.8641278   9.0989120  55.7372484  28.1095140
  10.3224332  55.0556549  28.6834542  47.0116956  62.4054262   2.3235814
  47.0101220  63.3389851   2.1121566  47.8658349  62.0935652   2.0245378
  16.0099990  15.7893965   4.1378324  15.3008563  15.3925082   3.6320416
  15.7672841  16.7127344   4.2068736  55.2003956  17.9512036  31.0871410
  55.7662392  17.6805151  30.3641057  54.3838739  18.2184970  30.6651497
  15.7301636  16.8938255  32.2869515  15.9240933  15.9947884  32.0217085
  15.9258194  17.4198127  31.5115261  55.1680613  31.1469579  65.0243855
  55.6999683  30.6625676  65.6557894  54.4132280  30.5809283  64.8629379
  31.9953084   0.4778432  35.4705834  32.1355724  -0.2771033  36.0420847
  32.0209670   0.1157935  34.5848680   6.4388485  22.1627522  45.6209946
   6.4232178  21.5175653  44.9140882   7.3220654  22.5304651  45.5901718
  31.8846191  65.4540531  19.5171916  31.8121112  64.9439971  18.7104595
  31.2643350  65.0412766  20.1181030  70.0800037   6.0795951  17.8243339
  69.8564768   6.8919170  18.2786500  69.6598482   6.1606306  16.9680989
  73.6226445  72.7112843  46.0590839  74.5465868  72.7377395  45.8103609
  73.2406359  72.0425717  45.4906416  69.5389551   3.5631328  18.7672631
  69.2494005   3.6985402  19.6695153  69.4676203   4.4267421  18.3606641
  21.9068356   4.2057091  24.7636294  21.4653893   4.9447790  24.3451381
  21.7020913   4.2999753  25.6939101  77.0274067  46.1094475  43.0646753
  76.6612434  45.2321196  43.1762457  77.9137611  46.0460806  43.4204721
  75.3274953  70.1097628   6.3547771  75.6824147  70.0722215   5.4666011
  75.4581057  71.0181853   6.6266982  10.8037110  14.0720046  53.2963800
  11.7478962  14.0982747  53.4514952  10.4750939  13.4313846  53.9271355
  10.6333817  52.4403755  16.1454225  10.7590354  52.3500006  17.0900249
   9.8583902  51.9117467  15.9552312  36.5156031  14.2636561  32.5650024
  36.0003233  14.1975260  31.7610478  37.2622991  13.6827326  32.4193740
   6.9900204  42.0503051  53.7824519   7.7972437  42.0949916  53.2699843
   6.3376214  42.4945412  53.2409163  79.7542524  14.3899655  52.7368593
  79.8032856  15.2825892  52.3947334  78.8436604  14.1297996  52.5976706
  76.8912220  24.2385793  35.4299521  75.9966516  24.5541477  35.5579567
  76.9933605  24.1870999  34.4796109   5.0492198  68.3880064  23.8348691
   5.4480655  67.6134822  24.2314355   4.1818721  68.4427664  24.2360322
  71.8878555  24.9388719  48.0415869  71.5658712  24.3524742  48.7262011
  71.3242102  24.7604513  47.2887945  32.8592885  70.9704010  51.1478329
  32.5254310  71.4718292  50.4039669  33.2555927  71.6269032  51.7207050
  25.0115360  73.0217634  36.3038325  25.1269973  72.9927273  35.3540659
  25.5393947  72.2936634  36.6316509  67.2449970  19.8743367  29.9539638
  66.3907957  19.4426394  29.9395895  67.0906925  20.6951618  30.4215813
  51.9451237  14.8852360  23.1571960  52.1100330  15.8189976  23.2880616
  51.3698626  14.8484039  22.3930287  55.7574224   4.6108568  33.2336879
  56.2502575   5.3285873  33.6314440  55.0245190   4.4634029  33.8314700
  71.1771362  70.0937001  46.5857649  71.4454131  70.6721900  45.8718967
  70.5738836  69.4729255  46.1771631   6.9007226  23.2831240  31.2550950
   7.4594136  23.9250398  30.8168793   6.9918843  23.4826779  32.1868134
  59.0289783   8.8215148  34.1581941  59.7775888   8.2362330  34.2733312
  58.8016701   8.7402713  33.2319307  11.8828465  48.9476199  58.3433284
  11.3333775  48.1658931  58.4001126  11.8222453  49.2169137  57.4267914
  52.6221336  76.1591241  38.7959456  52.5633586  77.0896458  39.0125275
  52.4897588  75.7100616  39.6308422  61.6639614   1.2319147  16.6377628
  61.3699627   1.3467067  17.5414324  62.1130610   2.0503205  16.4262116
  23.4396900  58.9785055  46.0488939  23.6233724  58.2487599  46.6404724
  22.6829589  58.6890094  45.5392027  23.2435573  61.4148692  37.9270840
  22.5705159  61.0116879  37.3787332  24.0653480  61.0359899  37.6150870
  69.4137716   4.9552366  25.4752016  68.6747694   5.5607241  25.4161072
  69.7217131   4.8644328  24.5734501   5.0648709   8.9340937  55.5539894
   5.3285428   8.5329497  56.3821173   5.2156182   8.2525492  54.8990059
  63.1417084   4.5393890   9.8697126  62.8139496   5.4046369  10.1149678
  63.4316301   4.6412063   8.9631736  54.6890415  50.7812301  31.2400532
  54.4749130  51.4958708  30.6403303  54.3350089  51.0623805  32.0837617
  74.2171574   5.3663892   8.7525457  74.7728586   4.9652287   9.4207525
  74.6328974   6.2089449   8.5695374  71.5471411  15.5305922  53.9313793
  71.3979197  15.2026236  54.8181725  71.2304640  16.4336181  53.9535332
  37.0863683  68.6437699   3.8301627  37.6293809  69.4317433   3.8085858
  36.7366273  68.5695240   2.9422442  73.2501745  25.3050542  55.6154108
  74.1233444  25.4970050  55.2734184  72.7758932  26.1330271  55.5395699
  13.5714455  45.2076292  45.5483723  13.6962624  45.5755568  46.4231730
  13.5832806  45.9666967  44.9653578   2.7216705   9.5869258  54.0789218
   2.7172264  10.5198291  53.8646539   3.5163387   9.4642451  54.5982404
  36.7828393  18.2703257  33.4597993  37.2062659  19.0495777  33.0996466
  36.0946012  18.6134899  34.0297103  21.0966321  25.7718253  21.1207891
  21.8726750  25.7239008  21.6790867  21.4307709  25.6364584  20.2340746
  52.7719177  59.9584023  56.0147381  52.0445646  60.0926010  56.6223478
  53.1817592  59.1445343  56.3077831  41.7698956   4.8759753  33.7808037
  41.0135603   5.4543960  33.6827278  42.5172377   5.4694319  33.8551092
  48.5640252  60.9812300  63.5625458  48.3034814  60.8766476  64.4776487
  47.7805627  61.3174621  63.1273794  81.1155128   4.8351794  35.1243877
  81.0666370   5.6403804  35.6396484  80.6779957   5.0509131  34.3008161
  66.9078302   3.5673761  56.4234257  66.0701656   4.0288985  56.4627790
  66.6921997   2.6606566  56.6415882   9.3607541  18.7047887  35.2486706
   9.5261116  18.2959819  36.0982370   8.4483738  18.9906752  35.2939630
  22.9724086  72.0202987  47.2077274  22.4930442  72.5115706  47.8748846
  22.4271215  71.2521432  47.0379353  75.5407381   6.4393848  40.1328659
  75.5526066   6.8061882  39.2488122  76.1422062   6.9935668  40.6302071
  63.8496351  31.1796355  55.1076317  64.2863512  30.5296421  55.6581020
  64.3765974  31.2101555  54.3091249  79.5016861  22.7248049  28.9061332
  78.7523746  23.2451534  28.6163163  79.4868183  21.9499230  28.3443761
  78.3280980  62.5681350  23.7037103  77.5545632  62.2193214  24.1466538
  78.7274586  61.8063590  23.2836549   8.4488984   8.1536460  55.3874350
   8.7145348   8.9941192  55.7606316   9.0339203   7.5149989  55.7950068
  75.4743671   8.5336548  51.0881615  74.8688269   8.9537930  51.6989279
  76.2196445   9.1323692  51.0398483  42.8647006  74.1382934  53.5747480
  43.5600484  74.1486649  54.2324781  42.0688785  74.3463634  54.0642405
  58.7591887  18.2003629  27.4014473  59.0418053  18.9272285  27.9564476
  58.0779648  17.7610826  27.9105687  14.6030541  14.8305595  21.9394541
  14.4256993  15.3689539  22.7107596  13.8083382  14.3099010  21.8229222
   9.9657460  16.7267179  45.0045586   9.8762341  17.0506942  45.9008074
  10.3080578  15.8383739  45.1040602  24.1185630  64.0645496  32.0791936
  24.4095529  63.3862535  32.6886773  23.7169135  64.7310678  32.6365662
  25.5532224  50.8161947   7.9686944  26.2579114  50.2360198   8.2568805
  24.7680480  50.4671964   8.3905093  55.6157494  22.4848151  24.8882651
  54.8544407  22.7613807  24.3782163  55.4968786  21.5421033  25.0040150
  72.9059982   1.0723305  59.3752384  72.7631998   1.1098289  60.3209829
  72.0629549   0.7951421  59.0165234  54.6748543  19.8398542  25.0988531
  53.9192820  20.3994727  25.2782178  54.7490883  19.2821932  25.8732796
  73.4529543  20.1863694  39.8255825  74.2669201  19.7965658  39.5066166
  73.6975384  20.6134582  40.6465626  75.7432508  17.1344686  35.0229692
  75.2696705  16.4953899  35.5554509  76.1873770  16.6093683  34.3571973
  55.2229214   0.9919992  56.1170721  56.0136414   1.2793614  55.6605434
  54.8410034   1.7978102  56.4649725  78.1458855  29.4113636  22.5802755
  78.5030222  29.6335459  21.7204356  78.5157156  30.0681782  23.1702352
  75.7918692  18.4804821  20.1127052  74.8609018  18.4636545  19.8907721
  76.1222553  17.6296532  19.8243189  18.0293156  42.2794713  58.7472876
  17.2230174  41.9195805  59.1168709  18.3648612  41.5839363  58.1817164
  54.8931599   6.2281847  11.7160666  55.4989767   6.9234079  11.4593875
  54.4700480   6.5595615  12.5081491  55.1641798  35.0452638  60.1747036
  55.4670191  34.8627186  61.0641956  54.5234394  35.7486224  60.2794552
  38.2104171  57.1964471  27.5649810  38.3958305  56.7952291  28.4140253
  37.5232089  56.6483776  27.1860409  11.1705990  24.9088359  32.5843930
  10.4456254  25.5288100  32.5052142  11.8490525  25.3925681  33.0554986
  75.7216263  30.2558804  52.0032930  75.2953911  29.9352360  51.2084675
  75.1885509  31.0025263  52.2763920   0.3995521  31.5503994   2.8671090
  -0.0812714  31.5398666   2.0395057   1.3144262  31.6674754   2.6111094
  31.4368451  70.3144101  18.3160317  31.0750879  70.8580111  17.6161301
  30.7437003  70.2801995  18.9752841  20.3866351  67.6664315  39.1912413
  20.5980981  67.6552288  40.1247215  21.0949529  67.1716801  38.7792492
   3.1351204  41.2081480  35.9997797   2.6945515  40.9910154  36.8213558
   2.4523659  41.1287403  35.3336191   5.3564704  72.3308013  32.2411108
   4.7422636  72.8693558  32.7400517   5.3139103  71.4702527  32.6580954
  31.4758486   2.5591950   1.4962403  32.2045463   2.0327382   1.8249957
  30.8184713   2.5185018   2.1908109  73.0761480   5.4585201  57.6670408
  72.1604776   5.1827884  57.6251602  73.1161165   6.2408090  57.1168947
  70.6318700  60.8768079  12.8233926  70.9445130  61.4856479  13.4925763
  70.2354085  61.4371177  12.1562354  35.7433367   7.3133421  36.5892792
  36.0080028   7.0092708  35.7211089  34.8095322   7.1092486  36.6401601
  63.2277441  27.2434211  15.3301144  64.1508865  27.0259571  15.4595363
  63.0916023  28.0321646  15.8550727  45.4981219   9.3238732  11.2415235
  45.4238736   8.3995268  11.4788119  46.1778795   9.6662971  11.8219630
  44.6662194  62.7571389   5.7740848  43.7236745  62.5905821   5.7638185
  45.0542314  61.9217917   6.0346095  59.6448959  57.2665040  33.5739708
  59.1898692  56.7431776  34.2337561  60.5125774  56.8676607  33.5085440
  34.2205834  16.2372398  66.1106443  33.5590649  16.9159150  65.9763813
  35.0250816  16.7207336  66.2983894  19.7550834  75.2702997  20.4545760
  19.8476947  75.7747845  21.2627530  19.7597373  75.9284325  19.7595429
  33.8939584  75.7482634  49.7204781  33.6570991  75.3970547  48.8621187
  33.9256252  74.9814890  50.2925682  53.0727291  14.3997860  54.9716711
  52.1543694  14.4072545  54.7018623  53.5435534  14.7785366  54.2293072
  15.9332009  53.4277105  35.3772187  15.1659508  53.9315033  35.6487823
  15.5978508  52.5442982  35.2243924  46.2838364  39.0986013  15.9525800
  46.2563562  39.6672392  16.7220795  46.7625237  39.6057868  15.2969468
  23.4946203  13.2297778  37.7865577  23.9262295  14.0615952  37.5915599
  22.5951338  13.4723985  38.0063081  66.9435835  36.2456942  43.1002235
  66.2701178  36.5915036  42.5144815  66.4781237  36.0560894  43.9148569
  31.7426294   4.2268996  22.0091264  32.4198479   4.3786864  21.3499085
  32.0640940   3.4808259  22.5153558   5.5495091  12.1962261  34.4156575
   5.4844399  13.0561459  34.8310351   6.4476414  12.1563077  34.0870404
  79.2105055  23.1897354  52.1239996  78.6365318  22.4424839  52.2925329
  79.0869331  23.7622166  52.8811169  67.2082043   9.4598973  50.0095367
  66.4450741   9.6115798  50.5670881  67.4467564   8.5474420  50.1730919
  81.5438080   2.2529182  31.8152761  81.1825371   3.1388822  31.8432879
  81.1692524   1.8664411  31.0237122  81.2047577  17.7379978  48.3779860
  81.9236279  18.0356932  48.9355183  81.3101006  18.2339835  47.5661182
   7.6926429  71.5286872   9.6732299   6.9821698  71.5553424   9.0323321
   7.3985488  72.1023127  10.3808276  38.3014692  45.5525247   4.7571614
  38.5392106  45.0117032   5.5103016  38.3861078  44.9664013   4.0051466
  56.7076015  16.8067551  28.9115787  56.7631292  15.8573544  28.8030076
  56.0842562  17.0883512  28.2419682  75.3029060  55.6166792  50.6252527
  75.3631353  55.9900188  49.7459221  75.5861950  56.3233566  51.2054110
  65.1657200   6.9583952  56.1329746  65.3312778   7.6726156  56.7483664
  64.9203539   6.2171698  56.6867018   0.6102391  11.3613701  24.7127295
   1.3014527  12.0233583  24.6973872   0.9793492  10.6185782  24.2349696
  31.4414514  71.8214897  49.0500593  31.3124431  72.7127407  48.7256241
  30.5703462  71.5399031  49.3295479  38.6247838  76.6925485   7.4686462
  38.9602960  76.3471792   8.2959205  38.6224473  77.6421606   7.5889087
  77.4301399  57.7524058  34.9180365  77.6201118  56.8154303  34.8709106
  78.1468452  58.1162528  35.4378295  36.1009574  20.7781792  13.5454798
  36.0075831  21.2624502  14.3658435  36.0905290  19.8577845  13.8081491
  53.3036613   9.8505968  12.7300131  54.2463732   9.7554499  12.5941110
  52.9072523   9.3776977  11.9982636  48.8281310  50.4685156  43.1891108
  49.1911042  49.5945374  43.0454254  49.1379798  50.7162992  44.0602207
  64.7935832  67.1668391  40.6391048  64.0392268  66.9463639  40.0926924
  64.5188678  67.9451350  41.1238956  64.0502363  41.5901957  55.4704996
  64.9316841  41.9461430  55.5826719  64.1674691  40.8391104  54.8888131
  56.5491533  34.2715573  43.0490780  56.3107109  35.1630497  42.7948761
  57.4628258  34.1815495  42.7782774  47.0647478  17.0233762  18.8511324
  47.5389862  17.0890665  19.6799970  46.9121265  17.9315007  18.5898864
  48.2412624  19.5230258  46.3429928  48.8995552  19.8482573  46.9570827
  47.6577520  18.9863515  46.8794012  76.2560892  27.1351004  64.8649549
  76.1169147  27.0096350  63.9262772  76.6636801  27.9984784  64.9333620
  73.1086397  63.1600189  30.7320786  73.7298155  63.0610752  30.0105643
  72.4668074  62.4636936  30.5927396  63.6231804  25.6196761  38.1754899
  63.4947252  25.9473968  37.2853613  63.0128193  24.8862052  38.2510853
  79.6339941  43.9933872  42.8266668  80.1393318  44.4802713  43.4776783
  80.2595329  43.3724546  42.4533319  44.8556674  49.9797313  47.1850443
  45.3336442  50.6778995  46.7374563  44.1933645  49.6997301  46.5532303
   3.7349816   5.2923381  32.3654819   3.4256859   6.1552906  32.6409483
   3.0038281   4.9225882  31.8705821  40.6977701   2.6529965  46.9802904
  40.6155014   3.0986649  46.1371756  40.8734131   1.7400411  46.7524862
  22.4647392  69.0060286  30.7216311  22.3837293  69.8548464  31.1565781
  22.6724685  69.2216329  29.8124599  59.1291488  66.9098083  43.5615015
  58.9556945  66.0078100  43.2921648  59.0768684  66.8887119  44.5170403
  10.0239010  29.8491502  54.3647766   9.0966721  30.0316572  54.2125463
  10.3168698  30.5585217  54.9367857  51.7343807  16.3516629  52.7645445
  51.8066168  17.2903693  52.5917912  52.4725628  15.9640908  52.2943211
  77.1109581   4.6932206  10.2855134  76.9090557   3.7577659  10.2656734
  78.0587006   4.7310179  10.4142940   5.6467743  27.7731872  58.6317682
   6.3018914  28.2556200  59.1360664   4.9201794  27.6468182  59.2419434
  35.3302205  63.4100894  32.1723628  34.8411001  64.0806774  31.6955972
  35.6055129  63.8433902  32.9802585  39.1317762  46.0486738  21.3468027
  38.4685291  45.4435412  21.0149193  39.9383939  45.5336229  21.3647270
  13.1904609  36.3928562   0.8568303  13.2574231  37.0188206   0.1357762
  13.8232476  36.7043544   1.5039651  53.6684275  11.4832771  10.3149414
  53.6965513  10.7968807   9.6483815  53.3202887  11.0475636  11.0928774
  -0.0656681  23.4881330  25.0530982   0.7602234  23.6057782  24.5837402
  -0.0162296  22.5996757  25.4058433  50.2465499  61.0195009  18.5271454
  50.4136670  61.7850785  17.9774249  50.4778112  61.3043694  19.4112265
  74.7304869  17.4250853  23.8355660  74.6209288  16.6650403  23.2641101
  74.9500275  17.0528984  24.6896791  63.5440636  28.3104873  44.2764807
  63.7817526  29.2358279  44.3354750  63.3848953  28.1630492  43.3441925
  41.0956914  65.7107469  10.2990644  41.9402654  65.9605762   9.9242179
  40.4547555  65.9618589   9.6339433  72.6651573  39.0032721  32.4019718
  72.6120043  39.7600484  32.9856658  72.2844553  38.2844353  32.9065204
  26.4168663  35.7125664  27.9420257  25.5673047  35.6494904  27.5055599
  26.7950745  36.5281105  27.6132727  20.6291790  34.0482712  60.3559971
  20.5328389  34.8788524  59.8900747  21.4819642  33.7147427  60.0771570
   1.1329289  41.4849186  55.1761198   0.8409901  40.9872055  55.9398508
   1.1442299  42.3947811  55.4731941  30.8066613  35.5980620   1.4773910
  31.3005120  36.3823070   1.2380044  30.3265340  35.8489579   2.2665374
  59.7926807  11.3772917  59.3092585  58.8721657  11.1796808  59.4819784
  59.8357677  12.3335147  59.3055582  16.9736977  55.5475092  37.1380019
  16.5157147  55.1735783  36.3852310  17.6654263  54.9160242  37.3353934
  67.0982838  19.4242203  36.3434553  67.4316120  19.7812283  37.1666622
  67.2938013  20.0988889  35.6932020  52.0381177  62.3066477  46.2039375
  52.3076452  62.0644800  47.0899057  52.6901878  61.8975858  45.6349850
  40.5405868  73.4054930  13.9566350  39.8167766  73.4915779  14.5770538
  40.6473554  74.2831762  13.5898852  68.5877323  13.2272434  45.0031853
  69.3308830  13.0893171  44.4158745  68.1301546  13.9839709  44.6368265
  39.8967797  24.3305406   1.0101144  40.5322797  23.7468061   0.5958383
  39.3003995  24.5760152   0.3027885  31.0454579  41.8903589  17.1770835
  31.3689919  42.7892876  17.2360969  30.3088208  41.8603706  17.7875781
  77.4114418  39.6897674  51.1558390  76.9752645  38.8377190  51.1569357
  76.8763828  40.2319908  50.5762386  55.6285906   8.9396590  24.5411658
  56.0225964   9.0058923  25.4109955  56.2207413   9.4311577  23.9719439
  61.9694328  13.5657144  48.3061790  62.0657158  12.8725231  47.6531458
  61.9587469  13.1047416  49.1449976  36.7764814  51.5525863  14.3090074
  37.7071244  51.3505158  14.4054143  36.4994580  51.8282089  15.1828019
  27.8941304  75.7680055   1.4735763  27.3020894  75.4386279   2.1497695
  28.7003762  75.2668783   1.5963285  73.1677580  17.9390168  63.6021757
  74.0193319  18.2314682  63.9270306  72.6127434  17.9057264  64.3813276
  39.1612870  55.6710777   5.3509395  39.0949590  56.4454457   4.7922055
  38.6710794  55.9022972   6.1399047  55.0958072  75.7748768  15.7711904
  55.4556596  75.9966204  14.9123685  54.3508279  76.3662168  15.8786695
  40.1112360  27.9948955   5.9703223  39.8046535  27.1245103   6.2246339
  39.3142647  28.5217385   5.9111611  46.7590100  25.4139087   0.4457204
  47.0704038  24.6202704   0.8809249  47.5571115  25.8888373   0.2139585
   9.7756250  61.0207125  21.2433164  10.5796201  60.5844137  21.5252034
   9.8421962  61.9037077  21.6067998  50.5805219  68.5871802  27.0458460
  50.8044494  67.8880934  27.6601481  49.7593845  68.3007161  26.6459632
  49.9931192  16.5527141  60.4115534  50.3118944  15.9348571  61.0694790
  49.5376778  17.2264278  60.9164429  73.3404541  24.2677712  28.2756329
  74.2315102  24.0999889  27.9688764  72.9730225  24.8683882  27.6271844
  65.4641056   8.9642370  33.2529259  65.7551098   9.8640054  33.4011340
  66.2084246   8.4247619  33.5197330  49.4976425  35.3147769  50.9255552
  49.2232943  35.9108591  50.2286673  49.9490595  34.6045995  50.4693699
  12.0483358  50.1469049  -0.0551255  12.7592475  50.1175424   0.5851666
  11.4733035  49.4227073   0.1920621  78.1700182   5.5648440  32.6852918
  77.2445297   5.6608027  32.4605751  78.4402943   6.4392114  32.9657626
  24.8907913  54.6360056  38.0730653  25.5521644  55.0950758  38.5908175
  25.2500881  53.7573187  37.9503965  36.7769349  64.9627058  64.3604565
  36.3512624  65.7656996  64.0600634  36.2829507  64.7067086  65.1393509
  66.6565895  50.4013777  17.7311897  66.8855095  49.5793581  17.2974730
  67.2024250  51.0594082  17.3007298  59.1106129   5.6144577  32.4313068
  59.3059206   4.9778286  31.7437124  59.7092962   6.3417423  32.2614098
  11.6387196  25.9299731   1.1279123  10.9352894  26.5207958   1.3968942
  12.2019310  26.4664650   0.5700600  52.5622571  58.6895613  45.0956392
  51.8405116  59.2715208  45.3336239  52.1362699  57.8699509  44.8446321
  24.8447247  39.2300820  59.2041349  25.0361462  39.1626024  58.2686996
  24.8279496  38.3236170  59.5111752  79.7798818  11.5977292   8.3378951
  80.6683153  11.9518619   8.3767716  79.7602648  11.0885148   7.5276153
  54.0724503  73.1940100  16.7061345  54.4139301  74.0643021  16.5006845
  53.5753071  72.9419395  15.9279744  20.6984444  27.1231532  43.9419889
  19.9804898  27.6958537  44.2117977  20.4393311  26.8055344  43.0769968
  61.6271400  12.2469509  35.5128050  62.2430325  11.8470716  34.8987961
  61.2014151  11.5050101  35.9423518  29.3027175  72.7853529  56.9789982
  28.8159145  73.2089094  56.2719965  30.1364816  72.5364749  56.5800858
  69.1184282  63.4101105  15.1487935  68.7340450  64.2835140  15.2239537
  70.0552845  63.5697556  15.0345945  65.4598522  10.7159114  39.0816903
  65.2280188  10.3385758  39.9302793  64.6188688  10.9178877  38.6715841
  58.8122047  66.7440061  39.1602612  58.5697425  66.0607700  39.7852659
  59.6610416  66.4645795  38.8172865  10.7642670  31.6665888  14.0443349
  10.6469269  31.5808225  13.0982339  10.8024712  30.7650280  14.3636465
  18.4095593  21.5266776  47.1158171  18.2373066  22.2061491  47.7676439
  18.9587517  21.9570899  46.4605570  37.9843343  66.3338939  41.7886686
  37.3604072  66.7241160  42.4007750  38.3767856  65.6094949  42.2759628
  76.4026880   9.4459009  30.6179142  75.8170509   8.9035231  30.0896239
  76.6718864  10.1511669  30.0293875   5.0147899  73.1393541  48.9120054
   4.6898636  72.2710679  49.1501951   5.8740886  73.1964503  49.3298435
  80.2465630  48.6788702  15.7228994  79.6221781  49.3493080  16.0001850
  80.2892685  48.7703705  14.7710395   0.9577198  63.7964869  13.5375559
   0.2659436  63.5822010  12.9116559   1.2979813  62.9470873  13.8185775
   2.9186459  29.7938442  11.4160335   2.6974698  28.8655901  11.4912558
   3.8359852  29.8440218  11.6847301   0.9551449  27.3489475  63.4292936
   1.6001149  27.9921889  63.1352091   0.1340695  27.8384495  63.4787989
  54.8955310  10.3249648  64.9727608  54.2183364   9.7689727  64.5873849
  55.7118572   9.8491290  64.8197037  76.5405846  39.6655536  46.2801456
  76.6114092  40.1274300  47.1155405  76.6408968  38.7413406  46.5081930
  79.8420620  33.1147456  40.6170368  79.0010166  32.8962111  41.0184240
  80.1481724  32.2905660  40.2385473  81.2959003  12.3439288  29.3297577
  80.4876137  12.7401257  29.0042949  81.5646458  11.7428279  28.6350012
   0.6557293  41.8100309  10.1494980   0.2501984  41.2251806  10.7895947
   1.5763779  41.8474674  10.4088140  37.3884452  54.8324506   9.9602550
  36.7033780  54.2847363   9.5769513  37.9558862  55.0572984   9.2229056
  79.8419094  38.0088162  23.3570528  79.4419861  37.5903487  24.1194010
  80.7384014  38.2009149  23.6320662   1.8799134  26.8958259  53.3939552
   1.5280076  26.6369629  52.5422621   2.8268643  26.9351196  53.2599258
  70.5064678  23.7923598  37.0599413  70.5913639  23.6209059  36.1220551
  71.3715649  23.5947514  37.4188161  59.3673862  63.2170085  48.2687950
  59.5314945  62.9908149  47.3532963  58.6094440  63.8008515  48.2391024
  70.9452343  31.6258574  49.6381712  71.1139107  31.8292499  50.5581760
  71.7224455  31.9410062  49.1768074   2.8116913  21.8838120  34.2487931
   2.6322861  22.7860427  34.5134115   3.1106015  21.4541006  35.0501895
  50.0554241  75.8627185  27.5555396  49.4238962  75.7972419  26.8392181
  49.6328319  75.4158620  28.2890034  69.5663309  26.4944434  41.5191412
  69.3569374  27.3746085  41.2065792  68.8160038  26.2474298  42.0597219
  71.8998098  13.2138419  30.2221656  71.1597633  12.8064525  30.6722736
  72.5114393  12.4940801  30.0669789  75.0177759  14.4645171   1.1855189
  75.7050699  15.0413899   0.8522384  75.2525419  14.3166547   2.1016233
   6.1118514  58.7377831   3.9172189   6.9578511  59.1855738   3.9163224
   5.4750974  59.4284293   3.7334125   2.4856778  29.1232324  14.9848711
   3.0984421  28.4062719  14.8214412   1.9438477  29.1595864  14.1966259
   7.9659291  51.2951946  10.1339948   7.0724030  50.9639502  10.0439036
   8.4590836  50.8432341   9.4493377  13.6724682  39.8606706  48.3978987
  13.0236264  40.5491066  48.2519627  14.0055104  39.6563125  47.5240850
  76.2226343  28.6860371   0.4052372  75.3055429  28.5430455   0.6391744
  76.3450623  28.1849718  -0.4010994  59.0393114  14.6806896  44.7562742
  59.1071177  14.2942023  43.8831997  59.8800325  15.1181924  44.8904848
  17.8133596  68.3044831  44.8135900  17.8370775  67.4917410  44.3084955
  16.9952596  68.2553778  45.3080893  60.5463457  46.1460257   4.1141984
  60.1780033  45.9593153   3.2506639  60.0797606  45.5561209   4.7062635
  65.3429461  13.1623435  53.6134100  66.2855291  13.3272302  53.5893536
  65.2441311  12.2834206  53.2474041  72.4789762  28.9371824  58.9538908
  72.7690887  28.0270290  58.8931656  71.5476847  28.8780022  59.1670322
  72.7407551  13.1860960  34.3847132  71.8742752  13.2678020  33.9862514
  73.3419561  13.1327140  33.6417866  55.2285147  65.3294849  43.0510235
  55.4599047  65.2765894  43.9783287  54.6569824  66.0949039  42.9900646
  71.3918734  16.9520628  25.0005126  72.1945286  17.1446466  24.5158601
  70.9386015  16.3014507  24.4643402  10.6140252  35.0511384  37.4796295
  11.3007565  35.4556537  36.9495296  10.7634755  35.3882360  38.3629560
  73.9963675  21.2537575   2.6316899  74.4635963  21.5923595   1.8679664
  73.8616562  20.3260541   2.4381620   0.2618046   7.3062050  51.6681147
  -0.2828578   8.0198205  51.3359642   0.3423233   6.7026371  50.9295654
  56.2819862  28.0431485  43.7409639  56.1259222  27.8489637  42.8167534
  56.6914368  27.2499537  44.0865421  69.5735121  38.3178163  58.7778521
  68.6848068  37.9952478  58.6282301  69.9131823  37.7659607  59.4823456
  59.0008402  33.8932133  53.7419558  59.6672153  33.6116195  54.3687630
  58.9227676  33.1610918  53.1302929  10.2274342  36.3635659  16.1993861
   9.3439980  36.0913658  16.4477527  10.7012005  35.5431938  16.0624206
  26.2538929  28.4605098  26.8032598  25.3204079  28.2802534  26.9143629
  26.4245530  29.2045522  27.3807621  26.3732571  20.3176646  18.8126390
  27.0940727  20.4673581  19.4244020  26.7971033  19.9944596  18.0175797
   7.0711918  14.6649313  61.9703054   7.7678128  15.0142908  62.5260973
   7.3550148  13.7749445  61.7614985  71.0439301   9.7241741  39.8489738
  71.0793972  10.3039670  39.0881753  71.1887932  10.3025174  40.5978155
   2.1642418  53.5208035  49.6961594   2.1800538  53.3588457  50.6394243
   2.0818444  52.6510000  49.3051481  77.8089046  33.1592536  45.8709145
  77.9707956  32.4921679  46.5380144  77.4117851  32.6795912  45.1439667
  77.8612852  60.2083015  43.2603645  77.1802759  60.0300837  43.9089727
  77.4036503  60.1848888  42.4199724  58.2448101   0.5027395  36.0107636
  58.2071209  -0.2318556  36.6232824  58.4358454   1.2630263  36.5600371
   8.1495209  10.2071249  14.4019258   8.5297604  10.3678620  15.2655292
   7.2230454  10.4250336  14.5038235  62.0549202  43.4895325  55.0902319
  62.0844412  43.6344099  54.1445208  62.7288103  42.8294182  55.2525663
   5.9112950   7.2711724  64.3471909   5.9396096   6.5209126  63.7534380
   6.8300362   7.4610752  64.5371675  21.9946118  24.3394566  56.2867832
  22.9110165  24.5270014  56.0836601  22.0327969  23.7157917  57.0119143
  28.8408780  16.9829106  30.5752516  28.5262036  17.8393865  30.8644986
  29.7940207  17.0699275  30.5619025  12.8324814  50.1948166  50.2115011
  13.7876530  50.2467012  50.2457952  12.5673409  50.0562572  51.1207485
  53.6260557  13.8116014  37.9257321  52.8043795  13.5701442  37.4982071
  53.7930727  14.7080564  37.6346922  71.6456127  11.7131555  61.1778402
  72.4377251  11.6487396  61.7113543  71.8320465  12.4168217  60.5562878
  58.4146690  18.7232077  61.4141846  58.4377241  18.1604135  62.1881151
  57.9004526  19.4833970  61.6860771  52.8680385  65.8935086  53.7051010
  52.4910415  66.6819755  53.3146811  53.6120475  66.2116687  54.2164278
  46.7773784  53.2012932  22.8427839  47.3808397  53.9330665  22.9715419
  47.3453534  52.4377052  22.7399850  13.7144871  12.6550341  18.6226749
  14.2338009  12.6280570  17.8190470  13.1413765  13.4136891  18.5121417
  65.0770426  35.3759813  58.1613922  64.4060802  35.9617496  58.5119820
  64.6894073  34.5030355  58.2241249  11.5100266  48.4656472  65.8991284
  12.1196629  48.2538278  65.1922289  10.6521823  48.2095875  65.5603592
  15.5803032  22.9457355  33.8725471  14.7976799  22.3962617  33.8298488
  16.0252686  22.7940011  33.0387521  66.7016220  24.8894119   2.1730089
  66.8488121  25.7147121   2.6350093  65.7511139  24.8372483   2.0727855
  62.4709606  48.2701635  40.3566551  62.6826191  47.8586054  41.1945438
  63.2732105  48.7277222  40.1051283   0.7241113  46.8018350   7.8499000
   0.2311237  47.5618407   8.1590764   0.0653846  46.2376282   7.4449508
  39.5204856  50.4409714  62.7143677  40.3265978  50.0873215  63.0903290
  39.4498087  51.3210936  63.0839937  64.7277832  23.2062697  22.0159864
  65.6359577  23.0329037  22.2637558  64.7346592  24.1086984  21.6969156
  22.0870597  71.0741422   8.5240762  22.7133233  70.4628441   8.9118211
  22.6197440  71.6412446   7.9665153  33.6480291  55.6702337  20.5635087
  34.2210729  55.5291125  19.8098962  33.0239637  56.3335773  20.2689759
  60.9531355  15.8743286  24.2953944  61.5564394  16.4977443  23.8909054
  60.7577324  15.2451432  23.6010051  18.1336136  15.1561451  51.4157581
  18.4487744  14.2531300  51.3774586  18.8245888  15.6689692  50.9964752
  80.5399132  26.0593987  25.0212502  79.7604895  26.2500310  25.5431604
  80.6362534  25.1084757  25.0731921   3.2856579   5.1782423  64.0514851
   3.3853837   6.1301965  64.0598536   3.0045243   4.9747047  63.1594276
  24.7716542  22.5982547  18.9709032  25.3480835  23.0913949  19.5546532
  25.2311917  21.7717862  18.8225651  39.5858438  50.1642737   9.5191590
  40.0532300  50.4118761  10.3169553  40.2724225  49.8685226   8.9213483
  23.7194272  23.2851887  37.1387482  23.5353775  22.3708367  36.9235373
  23.8402577  23.2881093  38.0882883   5.4415818  35.2667236  59.9040270
   4.9109574  35.0879645  59.1276836   4.8242493  35.6338882  60.5367374
  70.4824591  58.1088209  40.5938768  69.5650291  58.3446932  40.4563284
  70.9057903  58.2946491  39.7557282  68.7024975   1.9626668  43.7606049
  68.0432463   1.3557965  43.4239626  68.6886263   1.8297376  44.7084284
  20.9420701  26.6367674  61.9112730  20.2232476  26.6657567  62.5426960
  21.5902634  27.2498679  62.2579479  40.5916119   9.5603055  49.4346428
  39.8931623   9.7577184  48.8106012  40.2352476   8.8580024  49.9787092
  25.4626580  44.5079899  30.7019973  24.9332161  43.7132978  30.6358099
  24.9206944  45.1905155  30.3061891  66.1801875  69.5609955  63.4902239
  67.0653785  69.6898447  63.8309145  66.2482894  68.7851362  62.9337740
  37.5089502  39.8596287  25.3240943  38.1744480  40.1449251  24.6980357
  37.9523563  39.2046022  25.8631349  24.9948604  55.1135299   0.9824578
  24.5064075  55.3631040   1.7669122  25.3613145  55.9356615   0.6568162
  81.8783188   6.3121611   5.4677022  81.7580032   7.0785487   6.0284209
  80.9894466   6.0429329   5.2360821  59.8713160  27.1152806  48.1869125
  60.4855728  26.7376947  47.5573492  59.9907637  28.0610490  48.1003809
  33.9544030  20.5145025  65.5620909  33.2770272  20.9006929  66.1172962
  34.2227002  21.2264657  64.9812651  43.7675107  76.0976380  26.6211796
  44.4327701  76.4253603  26.0159850  43.3508361  76.8861033  26.9689369
  56.4195681  17.9343855  35.3822041  56.4284706  17.8185928  34.4320750
  55.6964827  17.3844278  35.6837463  40.8881105  76.8455715  45.7333803
  40.8442081  76.4866831  46.6196632  41.5879834  76.3496533  45.3085566
  64.9822283  13.2467449  41.7464018  64.5168304  13.3743596  40.9197521
  65.7703018  13.7835908  41.6629362   8.9714547   1.4080815  58.1129313
   9.0501328   1.2565991  57.1710730   8.9150448   2.3597726  58.1985712
  45.8244133  22.0264578  55.6424761  45.5145073  21.1652732  55.3622103
  46.5403175  22.2308421  55.0408602   6.9388349  46.7271784   8.5199754
   7.1250684  47.1504000   9.3580882   6.5006931  45.9096989   8.7565915
  71.2413692  31.0996151  52.6586723  71.3330936  30.1938629  52.9543543
  70.8026791  31.5449476  53.3835602  15.2456971  39.4546628  10.5128479
  15.2790184  40.2274084   9.9489450  15.2797528  39.8058343  11.4026511
  53.4967470  22.6176524  50.5031872  53.6098576  23.5237193  50.7903814
  52.6452684  22.3591328  50.8558798   0.6336899  51.0433865  63.6264324
   0.7962723  51.9237661  63.2877064  -0.1133708  51.1476612  64.2157125
  53.3204616  69.7045604  25.9574771  53.7026180  70.5757449  26.0634112
  54.0368331  69.1026167  26.1592484  71.0167313  64.0828943  37.8812480
  70.4052973  64.3455458  37.1932125  71.7506742  63.6871815  37.4111700
   3.7370511  32.5498891  23.8764358   3.0268021  32.4248195  24.5058250
   4.0587254  31.6658902  23.6995101   9.5905228  48.0856657  17.5788844
  10.1919480  47.3418045  17.6134527  10.0431366  48.7819386  18.0548871
  18.7629910  38.7830114  33.9726806  17.8255673  38.7297845  33.7865949
  19.0436478  37.8712940  34.0516233  76.9885015  22.8943038  56.4260483
  76.8718719  21.9462347  56.3644123  76.4256859  23.1580353  57.1540022
  68.9775038  49.2835236  39.9168921  69.6332884  49.7383547  40.4453850
  68.1673050  49.3625116  40.4204464   4.7572823  17.0645642  21.7773819
   4.6835251  17.9661310  22.0903826   4.4975110  16.5288198  22.5268650
  43.7386608  10.7024014  46.0445786  43.7426901  10.7155621  47.0016813
  44.3775892  10.0288057  45.8116150  61.4578724  44.9204874  38.1569147
  61.5245342  45.4645014  38.9416695  60.8284950  44.2383814  38.3910894
  12.1326739  68.5254523   8.9729230  11.4355619  69.1418025   9.1973702
  11.7322547  67.9319593   8.3375804  58.8038540  44.2316294  27.4278069
  58.2497978  44.8917627  27.0113063  58.6772919  43.4441757  26.8985343
   7.5524445   6.8676764  52.8005266   7.7384968   7.4841350  53.5087585
   6.6352768   6.6255087  52.9285479  39.2113610   7.9322189  28.5908532
  40.0033589   7.5257105  28.2391262  39.4808503   8.2889169  29.4372416
  55.5781031  16.8498027  40.2288628  55.2124357  17.2855580  39.4590354
  55.2297306  17.3432088  40.9714365  12.1046664  58.6239572  46.0993631
  12.1685387  59.5669384  45.9479149  12.2611405  58.2322342  45.2401193
  35.4826571  68.0141563  61.2741514  35.4060294  68.9597292  61.4016421
  36.4044215  67.8757567  61.0563846  58.6288023  42.0670748  41.0547924
  58.1256056  41.7066622  40.3246355  58.0903721  42.7864027  41.3847780
  11.8912240  45.2903271  35.7765245  12.1154995  44.5408154  35.2250075
  12.4762269  45.2164221  36.5305400  15.1692887  64.3435860  49.0491533
  14.6909256  65.1547623  49.2205858  15.2639027  63.9349222  49.9095440
  21.3145085  50.8621597  45.8351755  21.0761757  51.6991472  45.4365730
  21.1898251  50.9999275  46.7741680   1.8857117  52.7578545  46.1830044
   1.6109868  52.8278208  45.2687454   2.7785416  52.4155474  46.1392832
   9.0277024  14.1962314  38.8648105   9.7298069  13.6125684  39.1522431
   9.4653817  15.0293136  38.6897540  57.8460741  29.2413187  40.2291059
  57.5913095  29.8476934  39.5336699  57.7331209  29.7422338  41.0369158
  65.8905268   1.6639759  41.5603781  65.8888435   1.4459899  42.4924231
  65.4257774   0.9382165  41.1438274  78.2513809  47.6971531  28.6123705
  78.1567097  47.3327303  27.7323341  77.6066160  47.2238874  29.1382265
  75.6792259  45.3755188  60.4283857  74.9802685  46.0082912  60.2631855
  76.4659882  45.9101486  60.5351925  51.7124552   2.5142436   0.2331416
  51.4680857   3.1765561  -0.4132731  50.9313434   2.4102407   0.7765357
  72.3711967   0.4639735  32.6168704  72.8629827   0.2670354  33.4141111
  73.0172157   0.3954769  31.9138765  75.3294563  21.5676045  12.8301060
  76.0086775  22.1770835  12.5412703  74.5122337  22.0566154  12.7339625
  80.9373856  26.4611340   7.5228333  80.9343052  26.8556929   6.6507405
  81.6894054  26.8578219   7.9625368  15.1678200  60.4734707  39.2215705
  14.6453019  60.0158024  39.8801637  14.5326539  60.7475662  38.5600042
  13.2390519   3.1380081  59.2732763  13.5038586   3.0936453  60.1920462
  12.3638363   2.7507389  59.2573023  73.4129667  26.4418793  58.8782167
  74.2879105  26.2609935  58.5347223  73.2934618  25.8007479  59.5788622
  23.9275475  40.7634544  54.4964170  23.0940171  40.2991962  54.4194126
  24.4113369  40.2778578  55.1645279  19.0851899  13.0807841   0.0236055
  18.7329026  13.7914324  -0.5122146  18.7197705  13.2340002   0.8949393
  59.8966497   2.9478650   8.7724940  59.6467108   3.5534816   8.0746476
  59.6862596   2.0813756   8.4244077  31.0990293  11.2664410  22.9233377
  30.7120378  10.6220886  23.5160272  30.3747136  11.8504378  22.6984994
  48.7435830  75.6726342  30.0334668  48.0185474  75.0646759  29.8887587
  49.2039073  75.3195406  30.7948208  80.3868675   8.9211160  12.8186274
  80.2252293   7.9776704  12.8148508  81.2298489   9.0179181  13.2616091
   8.3475800  25.0707817  25.8775258   8.5378380  25.4349732  25.0130033
   8.5922928  25.7652593  26.4891243  29.3946183  64.9510471  24.3660545
  30.2529777  64.7123305  24.7160006  29.0448106  65.5795101  24.9976420
  26.3863099  55.2375619  10.8033717  26.0720743  54.8322074  11.6115654
  27.2288574  54.8154370  10.6355727  77.1766329   6.5423453  28.2115889
  77.0220089   5.7007241  28.6405373  76.4675426   7.1042877  28.5240722
   1.7913743  11.9727218   6.0253245   1.6793175  12.4711668   5.2158630
   1.6730423  11.0598588   5.7628161  75.0564814  23.3717394  39.6353602
  74.9249983  22.8653836  40.4369497  75.8042669  22.9539847  39.2081213
   4.3503113  16.8456066  19.0941942   3.4206124  16.8668175  18.8674009
   4.3686600  16.9769573  20.0421619  65.9895420  35.1029277  12.1813154
  65.9311628  34.4186354  12.8480732  65.6961870  35.8974862  12.6272416
  12.0663554  40.5170032   5.9254567  12.5535543  39.6971121   6.0069768
  11.1869914  40.2476992   5.6600730  55.4959631  21.2952995  27.8473425
  55.0858068  20.8953238  28.6141682  54.7657728  21.4926028  27.2607207
   3.9849682  20.7305861  18.4440398   4.0938111  21.5751839  18.0069542
   3.8643857  20.1049924  17.7296710  20.2807732  30.5458379  25.7966757
  20.4240723  29.6554422  25.4759073  20.6555481  31.1079288  25.1185703
  45.9058679  68.6950759  22.2942114  45.4046739  69.4990043  22.1573329
  46.7761482  68.9967958  22.5546122  63.7305069   5.7852572  49.0062046
  64.4009399   5.8651680  49.6847057  62.9255247   6.0852486  49.4283867
   4.5450230  23.9396119   4.3710321   5.0130101  23.3046126   4.9132448
   5.2331658  24.4951177   4.0048328  71.1961794   7.3813373   7.5139308
  71.4319038   6.4797097   7.2954506  71.1550903   7.3931539   8.4701753
  78.6577749  32.8080034  19.3586469  77.7295780  32.6188326  19.2211771
  78.6806965  33.7350512  19.5959044   3.8902207  11.0116076  18.0750680
   4.2076321  11.7785609  18.5517907   3.7067051  10.3650165  18.7565899
   5.0786378  53.9210017  66.1755852   5.0628974  53.2968051  65.4500763
   5.0867631  53.3746262  66.9614861  15.6370529  69.2948483  32.0232511
  16.1868461  69.9190728  32.4968481  16.0585102  69.2048184  31.1685586
  38.1647702  30.4147506  15.2860332  38.0472966  29.5956135  14.8049438
  38.4741993  31.0369086  14.6276951  30.7121964  23.8349056  24.3728733
  30.9660454  24.1901064  25.2247095  30.5173417  24.6060061  23.8402677
  15.1903273  64.1523881  64.2396142  15.5332066  64.8773069  63.7169667
  15.0042607  63.4638710  63.6012153  27.7843972  43.0347204   7.5489104
  28.6066552  43.1511927   8.0248845  27.6282425  43.8810539   7.1299028
  19.6792813  33.4689379  20.2028632  19.8313351  34.2690468  19.6999335
  20.4606553  32.9376721  20.0497651  16.7715378  23.2571626  31.4493203
  16.9150658  24.2035389  31.4478183  16.1725350  23.1045938  30.7184625
  22.9470082  42.4545479  34.6300721  22.7586289  41.6619301  34.1275740
  22.4111863  42.3710823  35.4188418  62.2573519  27.0261788  60.3249121
  61.4042997  26.6898322  60.0503206  62.6741123  26.2879419  60.7693768
  43.7850154  64.2825012   1.8466368  42.9699338  64.5305375   2.2829354
  43.8382209  63.3335344   1.9600555  29.5495809  52.6798908  40.5139160
  29.6949065  53.3042733  41.2247324  29.2427314  51.8858496  40.9516096
  15.9353276  21.8883061  11.0676157  15.6847020  21.0160613  11.3719225
  15.3588791  22.0567441  10.3222537  58.4550762  40.4866505  16.6190135
  57.5022078  40.4211235  16.5558898  58.7056303  39.7747159  17.2077441
  35.2296127  62.5733487  35.9723401  35.3108085  62.3723916  36.9046783
  36.1267913  62.5377182  35.6406283  67.9460608  70.0673625   7.5091378
  68.4537541  69.3550703   7.8978793  68.4794509  70.3678200   6.7733066
   1.0752386   9.7295098  14.3310277   0.2586168   9.9383454  14.7846238
   1.7630476  10.0042682  14.9373834   3.3291450  12.1030331  56.5568686
   3.7767875  11.9535184  55.7241106   3.8757727  11.6596699  57.2056055
   3.9356786  34.6820736  57.6086140   3.5385427  34.6742964  56.7377186
   3.5111293  35.4122758  58.0589390  18.7308204  43.4876585  32.0983982
  18.7768388  42.8835058  32.8394175  18.4847009  42.9368734  31.3552356
  21.6286760  69.6259090   6.2128083  20.7339650  69.6657750   5.8749692
  21.5995222  70.1271269   7.0277659  42.6601027  26.5057712  28.7644975
  42.8331469  25.6200748  28.4453885  43.4826313  26.9752889  28.6258142
  64.1488032  24.2972426   2.2052876  63.2441615  24.6042733   2.1454064
  64.1108517  23.3835654   1.9224660   0.9651059   8.2776980  18.5138719
   1.1733002   9.1675859  18.2292954   1.2340540   7.7229838  17.7816216
   0.1502664  60.7215354  18.6031453   0.7451636  60.6905267  19.3523900
  -0.4527657  59.9919864  18.7457768  12.0368230  47.3258352  48.1563377
  11.8758905  48.2684183  48.1996298  12.9905844  47.2451115  48.1636858
   4.9683866  23.9440608  59.6505165   4.2745194  23.5636401  60.1890898
   5.3326762  23.2010818  59.1693592  11.4623153  29.8103333  30.0113821
  11.4473689  29.9967051  29.0726209  11.8891597  30.5737042  30.4003549
  35.9756231  62.9942414   5.9976165  36.2155210  62.7272126   6.8849580
  35.8308630  62.1712658   5.5307261  11.4269590  70.8888528  18.6159341
  11.0637700  71.7710873  18.6933152  11.9393241  70.9108087  17.8077046
   3.3290163  46.8186045  45.2289963   2.9282618  47.6589251  45.4514647
   3.6266205  46.4657116  46.0675240  13.8692021  38.0932069  43.1656885
  14.1649258  37.3110652  42.6998234  14.2180467  37.9908156  44.0511560
  61.1067478  23.1221490   5.2040164  60.9222321  23.9828496   4.8280112
  60.4136227  22.5576596   4.8617284   9.8615211   5.4771190  32.7501695
  10.7711262   5.3150229  33.0003087   9.3686742   4.7710519  33.1682603
  19.0265369   7.8710258  53.1304932  18.2653308   7.9419512  53.7064838
  19.4300175   8.7385684  53.1588602  46.6665952  12.6878362   4.9243419
  47.0874004  13.0450349   5.7063691  46.1974166  11.9142919   5.2369706
  48.1995140  26.7219739  14.0587441  48.5984175  26.0130458  13.5542314
  48.7869213  27.4668555  13.9309232  61.3142918  15.7947783  16.5106122
  61.3797055  14.9242835  16.1179463  61.5855984  16.3927131  15.8141248
  70.6483351  47.9201703  14.4765298  71.0859047  48.7547975  14.6443669
  70.5744134  47.8759389  13.5232179  69.6452652  16.8164020   7.9021518
  69.7410653  16.4449697   7.0251719  69.5062409  16.0581307   8.4695403
  26.1063039  63.9353344  25.0373666  26.3503031  64.8441645  24.8621003
  26.4907722  63.7448713  25.8930223  62.6688468   8.4846695  66.6256189
  62.2816669   7.7309044  67.0707798  63.5753142   8.5044296  66.9324732
  63.4397982  34.0714269   8.8219945  64.0899162  33.3704429   8.7750594
  63.9276873  34.8294168   9.1439406  41.7065977  58.7904744  14.0007607
  42.3643874  58.5404973  13.3518712  41.9745706  58.3374410  14.8002450
  21.0237575  44.0011454  62.9638004  20.6032038  44.8372746  63.1644344
  20.5741882  43.6892891  62.1783924  54.5261370  74.8305961  23.0709664
  55.3705537  74.6597955  23.4881227  54.3292891  75.7407615  23.2925050
  31.3460677  63.0816743  26.3540856  31.8152758  63.0087635  25.5229680
  31.2425595  62.1775338  26.6508119  57.4037246  33.2573562   4.5086448
  58.3085559  33.3294349   4.2048089  57.3514678  32.3857455   4.9008052
  57.4188506  77.3014066  24.7235600  56.4752018  77.2909138  24.8837201
  57.8020012  76.9482443  25.5264966  62.7996027  76.5337846  21.3381497
  62.2582447  76.8038198  22.0799367  63.1367957  75.6735799  21.5883176
  35.7991104  33.6205387  52.9562044  35.1323823  34.2998815  52.8552198
  35.3091602  32.7985954  52.9318953  73.9151990  62.1889207   2.2622649
  74.3766534  63.0049226   2.0687882  73.2549607  62.1178743   1.5728728
  61.0840909   7.4842649  34.9001042  61.4914535   7.0231299  34.1668622
  61.2052225   6.8992524  35.6479852  69.7326563  21.4874892  47.1497743
  70.1174544  22.0946221  46.5176694  68.9878796  21.1017232  46.6885488
  67.0058487  24.8426394  25.0611894  66.9768332  24.2939525  24.2773931
  66.8472455  24.2358785  25.7843225  71.2564187  71.2930059  59.9717522
  71.7511324  70.9055185  59.2497110  70.3952174  71.4807081  59.5984793
  52.3542230   7.0885854   2.6405446  52.0544089   7.6915698   3.3208100
  53.1101634   6.6472678   3.0278747  59.1003995  13.5562329  12.6505916
  58.9824815  13.3648400  13.5810201  59.0187038  12.7058177  12.2189014
  21.5291834  68.1442213  59.9179459  21.1187434  68.4213400  59.0988159
  22.4682975  68.2408142  59.7599459  34.0854680  59.6246049  36.5729730
  33.2228708  59.3540427  36.2584035  34.5677661  59.8568889  35.7794587
   4.0722337  62.4072170  63.3602333   3.5699648  61.7021418  63.7686729
   4.9669874  62.2769642  63.6743689  52.8094839  26.3220553  19.9996202
  53.2334880  27.0954375  19.6276967  52.9150557  25.6458907  19.3303792
  56.1258303  51.7468139  35.6331651  56.4183866  51.2860104  34.8468415
  56.1200606  51.0758302  36.3157861  48.3273184  68.6169073   2.3234193
  47.9885828  69.1833851   3.0166642  47.6587879  68.6498281   1.6391532
  54.3748469  10.8460336  29.6039979  53.8256854  10.0624566  29.5782773
  53.7579435  11.5735774  29.5243756   0.7554481  48.0398226  51.5462923
   1.2908588  48.8312387  51.4895201  -0.0025982  48.3004999  52.0694017
  75.7046210   2.5233610  64.0011168  75.5414855   1.8370875  63.3540821
  76.3972460   3.0583199  63.6134148  45.8380639  64.8510739  28.3483712
  45.4868471  64.2647192  27.6782434  45.3064048  64.6737072  29.1243283
  27.0991796  49.0184598  28.1924645  26.8850464  48.2323270  27.6900975
  26.3955969  49.0894990  28.8375680  63.8119338  20.6953101  16.5091435
  63.1733613  20.5197053  15.8180444  63.4682123  21.4648252  16.9629495
  11.6442687  55.8976111  22.2671334  11.8073280  55.4400822  21.4423196
  10.7619245  55.6268260  22.5208585  81.0839342  22.2561889   4.8038833
  81.9278096  21.8835359   5.0592916  80.5033992  22.0609288   5.5394666
  57.2410421  39.6344066  52.0733309  56.3376026  39.9496865  52.0482397
  57.2537570  39.0007710  52.7906704   8.7017030  17.7491384  32.6495854
   7.8708166  18.1257443  32.3597161   8.9899057  18.3227401  33.3596246
  18.8825226  26.1876845  63.5035276  18.3384776  25.4535985  63.7887764
  18.9682472  26.7387533  64.2814779  58.5001554  44.1102700  30.3152101
  58.5351358  44.0530400  29.3603627  58.8134812  43.2579427  30.6178777
  79.0083216  18.4313350  31.6788499  78.7005208  18.7599282  30.8341519
  79.0958331  17.4867635  31.5509336  70.1269923  24.9650435  25.0639359
  70.4760049  24.9692493  24.1726415  70.0425945  24.0372520  25.2837293
  58.4244871  31.4809084  59.2566347  58.9337063  30.7240820  58.9665747
  58.1439495  31.2551689  60.1435232  27.4454747  64.3524477  33.8208406
  27.3656945  65.2386257  33.4679048  28.2078829  63.9844701  33.3741204
  27.3066854  68.8998318  60.5583954  27.1429873  68.5233355  59.6937084
  27.7267718  69.7407579  60.3778505  24.3113845  76.9701263   0.4741876
  24.5461320  76.9091532   1.4001529  24.4622441  77.8880998   0.2488009
  39.5920156   6.2733130  37.8608148  39.6048544   6.5130620  38.7874143
  39.1971718   5.4014974  37.8444306   2.5381154  20.2195840   8.8926188
   3.3856219  20.1677566   9.3345229   1.9751209  19.6208720   9.3833415
  21.0520834   5.7914500  53.0983369  20.3341621   6.4108043  52.9671113
  21.6054624   5.8988290  52.3247258  30.9520267   0.4975824  28.2827489
  31.4023803  -0.3374310  28.1556146  30.0754593   0.3536682  27.9261701
  52.0932161  71.3413283  54.1139237  51.3400399  71.2599561  54.6990125
  52.7690255  71.7565033  54.6497743  62.1735393  69.7509810  47.9982583
  61.8012082  70.4296920  48.5612409  61.5182697  69.6226141  47.3124234
  54.5683646  14.1115623   9.9541108  55.4127663  14.1168790  10.4048793
  54.2215732  13.2323318  10.1055066   9.9628293  14.4943817  62.6986837
   9.5143162  13.8765724  63.2760811  10.7092964  14.8033436  63.2120609
  19.9855506  52.3806715  65.3493166  20.9390092  52.4536562  65.3919888
  19.6721721  52.9007864  66.0892582  78.6003707  19.6457200   2.9435842
  77.8345750  19.2087369   2.5709788  78.2373713  20.3602462   3.4669559
  14.2358708  35.3132439  57.2962809  13.7759948  34.5891738  57.7210999
  13.8166106  35.3934956  56.4395380   0.4454726   6.2756925  38.0527513
   1.2607449   5.9729581  37.6528565   0.0739044   5.4935317  38.4606568
  60.7532595  21.6986709  15.0599401  60.6055264  22.6341300  14.9209420
  60.2363716  21.2705569  14.3774621  44.3964766  45.0717931  12.7939193
  45.1730727  44.5247178  12.6762836  44.6010826  45.8817678  12.3266904
  59.1871949   0.5286269  15.3483598  59.8500137   0.6673150  16.0248773
  59.4846918   1.0591273  14.6092431  27.8064054  14.4168143  23.3290689
  27.7950186  15.3721385  23.2702462  28.0081839  14.1245084  22.4402062
  10.2414864   1.8434672  45.0242154  10.7150072   1.0539250  44.7622315
  10.8883351   2.5454240  44.9529664  16.9337570  69.8485872  15.6916539
  16.2109887  69.3567201  16.0814111  16.9713604  69.5416352  14.7857873
  51.9041453  18.6674361  25.5409829  51.3499834  19.2132192  26.0988824
  51.6436897  17.7701764  25.7491128  10.2964729  47.1170526   4.8031871
   9.5799631  46.7488294   4.2862098  10.0915641  46.8716626   5.7054250
  57.9424809   6.5190177  23.1188600  58.5549863   7.2497468  23.0345456
  57.5442053   6.6386037  23.9810197  16.2238573  55.9444043   4.8874108
  16.2155222  56.8773028   5.1015632  16.9550943  55.8451363   4.2777602
  13.4833092   6.7022233   9.2376296  13.5698837   6.8910222   8.3032386
  12.9110283   7.3939137   9.5697276  42.6453780  16.2715061  52.4264240
  42.0591950  15.7925995  51.8405342  42.1486425  17.0499619  52.6783991
   4.6311611  30.8119874  20.7654206   3.8782686  30.3008084  21.0622041
   4.2964310  31.3274531  20.0316064  63.9820246  28.7040715  12.9274003
  63.4983109  29.4127564  13.3516805  63.9932476  28.0000358  13.5758130
  53.7270652  65.1611134  21.1247460  53.7660538  65.7344815  21.8902223
  53.4449588  65.7332370  20.4110734  52.1482073   3.1972702  53.1017351
  52.0718896   3.2444771  52.1487522  52.3559224   2.2800835  53.2802343
  56.0991799  76.6849157  13.1654279  56.4327490  76.1217520  12.4669902
  56.8088781  77.3050997  13.3325498  45.5433678  69.4269869  42.7411477
  46.0533261  68.6294100  42.5995748  45.5240273  69.8540899  41.8847386
  23.3964133  40.7354689  61.0643053  23.6744046  40.1244879  60.3819180
  22.4463677  40.7923651  60.9623051  75.8825253   7.5822883   2.7556293
  75.1289676   8.1518750   2.6008622  76.5032767   8.1312184   3.2347648
  63.5974507  43.2074742   6.0199992  63.2152246  42.7669244   6.7789762
  64.1691838  42.5497537   5.6240813  34.1017085  71.8110391   2.3887984
  33.6599021  71.0459873   2.0203797  34.2853164  71.5677187   3.2961671
  33.6111639  23.8471799  18.2806985  34.4763468  24.2563968  18.2653348
  33.4080909  23.6817222  17.3600404  23.4401703  63.5133314  58.2979250
  22.6419687  62.9859781  58.3296442  23.9902234  63.1574869  58.9958143
  67.3802195  25.7362084  13.2626168  66.6509210  25.5184035  13.8430612
  67.5749503  26.6531425  13.4563748  80.2629858  28.1993818  63.2397461
  80.1098850  28.6043358  64.0934467  79.7660780  28.7399530  62.6256609
   4.4803757  44.1086488  15.3320615   3.7069339  43.7080197  15.7289521
   5.1939577  43.9008527  15.9352605  74.7923253  32.2779136  11.5523498
  74.1097377  32.4062638  10.8936898  75.3655218  31.6099219  11.1762301
  60.2939283  73.4788129  21.6950910  59.7572576  73.1803223  20.9608380
  59.7622120  74.1498157  22.1231858  42.8876232  73.0131003  26.8980901
  43.4187924  73.8084170  26.8585507  43.3225202  72.4669382  27.5529210
  80.2477702  63.2519245  48.8376331  79.7354127  62.4703264  49.0445709
  80.0144137  63.4586048  47.9326153  69.7982679   9.2397170  13.2943360
  69.0522097   8.7143569  13.0051486  69.4096492   9.9378400  13.8214318
  27.3167801  65.0326777  65.6512403  28.0140877  64.6930790  65.0902843
  27.6296687  64.8779774  66.5425301  48.5828585  14.6608119   2.7339284
  48.4041208  13.7340169   2.5747602  47.9959911  15.1240115   2.1362130
  53.7756157  66.9543886  50.0378704  53.3633089  67.2418118  50.8524990
  54.3296909  67.6901388  49.7772789  69.1276966  34.5990233  23.4695928
  68.4227191  33.9593797  23.3691136  69.8960374  34.1697269  23.0933110
  38.4361815  24.7119236  53.3204842  38.1185436  25.1763487  54.0948534
  38.0581713  25.1902008  52.5825214  24.2837954  65.9498405  41.5745544
  24.0551162  65.8855867  42.5018120  24.4789028  65.0499535  41.3130665
  69.7091047  53.8967133  53.0505037  69.6243028  53.6730909  53.9773417
  70.6126503  53.6694527  52.8309822  25.5436987  18.7484698   2.2444980
  26.2074894  19.4377475   2.2220628  24.9724811  18.9417558   1.5011374
   4.9546370  64.3171787  59.1805506   5.4606241  63.9093065  58.4778070
   4.7382545  63.5948801  59.7702122   3.9420504  13.9418988  37.7404325
   4.8347706  14.1670756  37.4785535   3.8125914  13.0528741  37.4101178
  79.6632598  15.3414350   5.0995080  79.6067785  15.8346801   4.2811219
  80.0449108  15.9576421   5.7246987  27.0843863  75.6044814  15.0385682
  27.6876226  76.1704633  14.5569055  27.5112339  74.7477338  15.0424020
  20.2310371  35.8015537  58.2850885  19.7494221  35.0287867  57.9899454
  20.3915811  36.3033867  57.4859524   1.3614339  22.6965575  12.0377032
   1.0959023  23.0735784  12.8764979   1.2637347  23.4135966  11.4111678
  52.0676424  18.2416682  20.3294484  51.4311646  18.6772256  19.7625081
  52.0941232  17.3394065  20.0109403  17.5735402  18.6449194  61.4194250
  16.6227329  18.5916960  61.3226557  17.8369653  19.3409681  60.8174658
  27.8266949  25.9809356  19.4814031  27.8880161  25.2372651  20.0809209
  28.4068865  26.6417890  19.8594014   2.5089735  18.1835895   6.6894023
   3.1905145  18.2086377   6.0177581   2.5836319  19.0259080   7.1379106
  31.9467402  70.0507593  44.8222637  32.1854949  70.7606554  44.2262125
  31.3278079  69.5173311  44.3236589  71.0581080  59.5229387  64.3070173
  71.7984919  59.6275711  63.7094259  70.6209974  60.3744602  64.2981958
  14.4899845  28.4040999  32.1257281  14.5501626  28.2648802  31.1806202
  15.3967690  28.3727193  32.4306655  62.7283322   1.2381323  62.8009415
  63.6445963   1.0952576  63.0381632  62.3895084   1.8114527  63.4884977
  81.2276696  76.0368447  25.0020997  81.5976118  76.7062764  24.4265668
  81.5582655  75.2099519  24.6511380  70.6259750  51.9172292  27.7080934
  70.2051328  52.0379453  28.5593049  70.4304050  52.7218728  27.2279565
  45.9014856  74.3160793  36.1869733  45.4845142  73.6478087  35.6431214
  45.2148711  74.9660894  36.3362424  43.1100535  15.5753239  55.4171848
  43.8187706  15.8260258  54.8246479  42.6476037  14.8761185  54.9551535
   6.4744204   4.8380857  21.6326062   6.9455880   5.4885297  21.1118810
   7.1631569   4.3118482  22.0387475  16.4576620  20.2919440  29.0748899
  17.0889229  19.9357276  28.4497087  16.8521017  20.1303678  29.9319474
  14.7059917  61.7574167  53.5606956  14.8153317  60.9683800  53.0299425
  15.3601241  61.6720772  54.2542791  28.6152834  28.2989364  16.0041635
  27.7231211  27.9791074  15.8700578  28.5379118  28.9324622  16.7175309
  19.8077530  12.9677920  62.1957700  20.1347727  13.4650140  62.9454724
  19.0219969  12.5299745  62.5230901  69.7543167  59.2822652   5.6057374
  69.3668114  58.6743646   4.9760358  70.4578756  59.7134309   5.1206224
  46.9107676  48.2692766  64.4776678  46.8773508  48.7831163  65.2845621
  46.2748194  47.5670624  64.6143770  50.5305503   4.6629195  28.4367005
  50.9505413   4.9504285  29.2473714  50.2600495   5.4740195  28.0063741
  40.2057165  31.5915828   0.2628867  39.9499124  31.8106132   1.1588876
  39.4030470  31.2625699  -0.1417144  67.8016423  48.0682092  16.7165677
  67.5115381  47.2253995  17.0654695  67.4735163  48.0809693  15.8174531
   4.0109366  31.5634923  41.5323941   3.2970995  31.7596345  42.1391885
   3.5722584  31.3193707  40.7174127  32.7114862  30.0192695   9.0094583
  33.3117479  30.1869302   9.7359626  31.9966215  29.5169549   9.4004552
  68.2340424  35.1416492  39.5599461  68.0063705  35.3977585  38.6661863
  69.1883401  35.0675869  39.5521426  79.7665237   7.3833232  33.6868016
  80.5273984   7.8267722  34.0618436  79.4339393   7.9935985  33.0286424
  81.5871762  23.6791043  17.1463315  81.7810462  24.5661120  16.8432443
  80.6669305  23.7111096  17.4077813  67.8592776  14.9410968   6.1612861
  67.2336696  14.2287402   6.2931745  67.5265680  15.6556706   6.7043464
  75.4671381  24.8300891  -0.2983745  74.8258685  24.9604325   0.4002063
  76.3083504  25.0423102   0.1060454  67.1939014  33.3403020  41.6091935
  66.9658421  33.7770371  42.4298493  67.4706756  34.0497069  41.0292165
  12.8709167  28.5174613  11.6912429  12.6916355  28.6163383  10.7561938
  13.4948868  29.2154222  11.8905990  20.8389086  10.7866530  15.5450837
  20.0072664  10.3267913  15.4304902  21.3208240  10.2556663  16.1791532
  37.4376768  15.8559518  34.6445004  37.1598905  16.7671065  34.5503633
  37.1694130  15.4380136  33.8262097  78.6926745  25.6933265  11.0877387
  78.6854766  25.1456075  10.3027694  79.5965026  26.0007911  11.1569802
  40.9390735  70.8544823  16.7250363  40.3361141  70.6782767  16.0027997
  41.5051018  71.5542480  16.3991944  80.9606861  35.3344255  41.5770356
  80.7022355  35.3363566  42.4986856  80.7617496  34.4484000  41.2743585
  62.4270616  30.8655410  14.1767900  61.8226068  31.3661819  14.7247140
  62.0994662  30.9873538  13.2856862  32.0934862   1.6770415  23.2193582
  32.4794382   0.9037809  22.8078572  31.4354128   1.3258438  23.8192193
   5.0481862  36.2103705   7.4247281   4.6208924  36.8965106   6.9120328
   5.2484292  36.6271787   8.2628219  28.9450926  35.4290872  22.0815961
  29.2587656  34.9363523  21.3232820  29.7373337  35.6352906  22.5776498
  33.1497383  56.4490128  65.0521326  33.3600831  56.3834429  64.1206360
  33.6327767  55.7291651  65.4580021  78.4684323  17.2181563  23.8821427
  77.8226136  17.6200585  24.4631974  78.3530544  17.6704793  23.0464761
  11.9708354  11.5570935  55.3944254  12.7309425  11.0071190  55.5841303
  11.2192352  10.9767349  55.5148649  52.6398399  22.2487979  24.2887704
  52.2185758  21.5444665  23.7961404  52.5821431  21.9696765  25.2025525
  55.9628509  11.9683938  16.7660157  56.1932914  11.0440545  16.8594567
  55.0305641  11.9620709  16.5491406   3.1088123  37.0820880  58.5555077
   2.3874593  37.5170398  59.0101480   3.2683417  37.6258898  57.7841043
  21.9028282  75.3591394  65.8524847  21.8940592  74.5001125  65.4303122
  21.8896198  75.1655102  66.7898035  16.6920984  51.9605017  64.7638512
  16.2344289  51.7607594  65.5804729  17.5343919  51.5132141  64.8457623
  40.7970852  24.6807294  44.8264424  40.0928491  24.0760617  45.0602452
  40.6242079  25.4634862  45.3495423  68.4496056  16.9504457  20.5093781
  67.8043543  17.2267823  19.8585908  69.2810295  16.9452481  20.0350968
  61.2869559   7.9023795  25.1185243  61.8679957   7.7147918  24.3813436
  60.6747441   8.5560327  24.7806375  67.9953884  28.6094241  13.8331716
  67.9939721  28.9557986  14.7254960  68.7980066  28.9556794  13.4431188
  25.9917492  34.3621783  21.1934678  26.5925592  33.7669950  21.6418187
  26.5426678  35.0937562  20.9150426  75.0657974  48.4027815  28.2898688
  75.7202087  48.7643909  27.6921892  75.2979337  47.4774313  28.3677721
  51.1085211   9.0162285  52.6731348  50.2247178   8.6493405  52.6505470
  50.9762775   9.9493511  52.8405476  50.2738613  36.1413484  14.4637601
  49.4472355  36.4202600  14.8576276  50.1140970  36.1776357  13.5206811
  24.8090144  12.3215206  47.1283436  25.7495532  12.2622116  47.2959757
  24.5927548  13.2383259  47.2984457  64.1936181  37.7551227   7.6172130
  64.6088909  37.2962146   8.3474080  64.5734076  37.3542933   6.8353383
  29.9915880  14.0882354  18.6756627  30.1855940  14.5824914  19.4720952
  30.6502956  14.3807988  18.0457894  69.9974535  23.5665040  22.6754014
  70.5582379  22.7909427  22.6916234  70.4206239  24.1550117  22.0502488
  72.3053573  27.2332482   6.9154517  72.7550076  27.8500180   7.4930732
  71.3956867  27.2460132   7.2130553  69.6267627  38.4153752  16.2626569
  70.1102470  39.0682797  15.7565038  69.5916925  38.7767844  17.1483056
  53.6065017   2.4632700  61.2156153  54.4948327   2.6452120  60.9090233
  53.7279641   1.9081600  61.9858980  18.1286848  65.9507990  60.3931761
  18.1262076  66.9070101  60.3497601  18.0674124  65.6694317  59.4803190
  34.9625473   7.8316982  61.5566063  35.4259383   6.9982918  61.6398811
  34.4000518   7.7174862  60.7905865  13.0081982  24.6184163  34.9217240
  13.4077925  25.0129991  35.6968801  13.7105698  24.1016488  34.5269410
  17.2177643  34.3270640  10.7823150  17.8024048  33.8960462  11.4057319
  17.1158165  35.2152686  11.1242597  12.7641291  31.3279491  10.6618039
  13.5418981  31.0197072  11.1268727  12.9677433  31.1898093   9.7367684
  81.0356425  48.1701665  25.5420510  80.1217245  48.4035878  25.3792493
  81.4655946  48.2798486  24.6939103   0.4378933  25.6625180  32.3871820
   1.0718435  25.4620271  33.0757634   0.8338803  25.3143744  31.5882985
  55.3612339   6.3820561  53.4091330  55.0515305   7.2826393  53.5054255
  55.7278907   6.1620148  54.2655087  75.6423257  45.8558469  29.0313737
  74.9182318  45.7570748  29.6495740  76.1664651  45.0634198  29.1478364
   3.9972419  14.7947459  34.9356191   4.6840233  15.2659516  35.4073541
   4.0743011  15.1006322  34.0318887   3.4398121  56.5608792   7.5370090
   3.8701815  55.8576398   7.0507257   3.0322045  56.1213784   8.2832925
  76.9631790  46.1550622  17.9986970  77.0826291  46.7999177  18.6959283
  76.3876079  46.5879159  17.3681561  46.6613626  58.6608109  27.0729463
  47.1401452  58.2755813  27.8068368  46.4383935  57.9157433  26.5149133
  20.1276153  41.1551051  14.2406194  19.8820824  40.3305106  14.6601216
  20.4102367  40.9019094  13.3618371  18.9818519  50.6819444   3.3254735
  18.8050455  51.2104516   4.1037099  19.4992393  51.2547689   2.7594249
  76.5767859  20.4288583  18.5237615  76.5800951  19.7076707  19.1531388
  77.4198888  20.3597264  18.0758492   4.1520828  28.7911754   8.8231294
   3.9640325  29.6337466   9.2365710   4.2327970  28.9943652   7.8912322
  73.5837983  16.7814784  11.7267005  73.3484982  17.4313169  12.3889510
  72.9806827  16.9484382  11.0023992   1.4184231  27.7156405  28.5622518
   1.1417669  27.0688729  27.9131143   1.8140692  28.4183793  28.0466382
  10.2464837   9.1933875  21.5622918   9.5217532   9.6096616  21.0956971
  10.3327578   9.6988301  22.3705785  32.4748468  75.1204538  64.9796772
  31.9941163  75.7941961  65.4605150  33.3138299  75.0534344  65.4355812
  78.1660969  57.9219770  66.0460567  78.8768573  58.3978844  66.4756680
  77.3679365  58.3363247  66.3739157  32.6515125   7.4373918  37.2958009
  31.9905303   7.2186093  36.6389386  32.8850602   8.3462768  37.1070973
  24.8845959  63.8123035  65.5417681  25.7285953  64.2632961  65.5640793
  24.9350858  63.2476187  64.7705269  31.8022513  76.5779734  55.3039503
  31.9774866  77.1870518  56.0212708  31.5868545  75.7524395  55.7379198
  28.7341189  57.6431751  37.7039242  29.4351149  58.0686522  37.2101545
  27.9398942  57.8335524  37.2047305  12.0004362  10.5863099  18.6812608
  11.8575996  10.6911998  19.6219079  12.6440019  11.2595038  18.4601991
  37.3680902  65.4997015  33.7774158  37.7600884  65.4338455  32.9066515
  37.1506476  66.4269924  33.8726830  25.7481760  40.9103637  18.2011907
  26.1578363  40.5307965  17.4238030  25.0606197  40.2878289  18.4377400
  67.8981463  67.8175184   1.6314713  67.9268662  68.4896848   0.9505860
  67.3289791  67.1368930   1.2722652   7.0750827  24.5223718   3.6516349
   7.7478212  25.1710849   3.8585774   7.1663469  23.8568072   4.3334929
  69.7595738  52.3280816  30.3350369  70.3601991  53.0679135  30.2448289
  69.4720875  52.3628240  31.2473790  61.2980127  56.8900442  42.6327467
  62.1358871  57.3521471  42.6583815  61.4878702  56.0754919  42.1672487
  38.8015699   1.0471781  60.1125717  39.4845282   1.4888294  59.6078491
  39.1420721   1.0235270  61.0068464  22.2265463  26.1579049   9.7543208
  21.8930607  27.0165551   9.4940488  21.5206056  25.5500425   9.5343511
   5.6366622  76.6485167  25.7553077   5.4862732  75.8203411  25.2995157
   6.4631844  76.5192461  26.2204766  10.5653328   3.7252574  14.6432607
  10.0628966   3.7257056  15.4579942  10.8657879   4.6289306  14.5466535
  14.9587149  38.0725055   1.8083493  15.0086874  37.9985337   2.7613799
  14.8942322  39.0133147   1.6441934  37.8328907  63.1445762   1.2448852
  38.7250327  62.8164527   1.1324088  37.5165378  63.2888433   0.3530662
  45.9946702  53.2992940  15.1575868  46.9258098  53.4895616  15.2716462
  45.6038986  53.4964280  16.0088651  13.0706918  33.2224035  58.3579493
  13.6002159  32.6772738  58.9399052  12.1661770  33.0119395  58.5898781
   2.1578316  62.5403595  34.8066998   2.4166512  62.9853821  33.9997315
   2.8772831  61.9355965  34.9880362   1.3233060  32.1649365   6.5943543
   1.1940259  32.6492934   5.7789342   2.2373194  32.3278050   6.8273465
  41.3416195  48.1193352  60.0392199  41.7469311  48.9674568  59.8585510
  40.7469893  47.9763317  59.3028831  24.2817825  51.0053258   5.6011312
  24.9174971  51.1000543   4.8918168  24.8014301  50.7172303   6.3515965
  75.0416838  66.8628356  19.3068521  74.9621569  67.6240656  19.8816888
  74.7019326  66.1340401  19.8261373  41.9041920  49.5194769  63.8771391
  41.9710588  48.5933590  63.6446095  42.1140337  49.5478010  64.8106289
  17.6649422   2.1372848   4.9781768  16.8669266   2.2966056   4.4741694
  18.3630413   2.5247531   4.4501988  24.8145771  54.7684193  17.9615116
  24.2631269  55.5311012  18.1360173  24.3763852  54.0475130  18.4137452
  33.4486633   0.5020197  30.7927823  33.3603489   1.2644442  30.2208161
  33.1873762  -0.2390281  30.2461505  69.9804114   9.3878655  30.3958718
  70.8358119   9.6651845  30.7239167  69.6582447  10.1408868  29.9004952
  32.0236635  72.4221849  66.5176868  32.6847363  73.0124331  66.1559916
  31.2445784  72.9688549  66.6197014   5.3629393  45.3924565  12.1524350
   5.0273723  45.3906922  11.2559812   6.2886733  45.1664262  12.0620935
  28.5426426  71.4328289  49.3618584  28.0375910  70.8261395  49.9032259
  28.4024286  72.2887564  49.7667742  51.3829791  75.6232354  13.6045854
  50.6712639  75.2336451  14.1124360  52.1628248  75.1377508  13.8736169
  44.7433507   8.2059582  45.1771021  44.1829442   8.2255848  44.4013500
  44.2754006   7.6459702  45.7965183  26.1249775  40.9832864  21.1768453
  26.7533201  41.0670333  20.4596345  25.7980293  40.0864987  21.1053578
  20.0412411  61.9821267  41.0987966  19.1809601  61.7135053  40.7763116
  20.6172937  61.2484269  40.8841340  73.2289933  69.7367578   3.6313741
  72.6654123  70.1372628   4.2933480  72.6320074  69.2223935   3.0879895
  71.0266171  27.6603942   1.5752666  70.9733389  26.7144685   1.7117230
  70.8025072  27.7822928   0.6526868  16.9280374  65.0892782  65.9347057
  16.2496972  64.4810486  65.6412125  17.4557364  65.2546883  65.1534224
  51.5181250  20.7987599   6.8010633  50.9266514  21.1637454   7.4592225
  52.0666260  20.1830201   7.2871081  13.7699789  37.8451686   5.8091323
  14.2919153  37.7343040   6.6038148  14.3753666  38.2328277   5.1771037
  54.0337478  27.8492268  60.2653456  53.7187468  28.5593899  59.7061777
  54.4406449  27.2298535  59.6595049  62.9210119  59.9471383   9.8028724
  63.7614189  59.4894795   9.7806088  63.1542735  60.8750634   9.8307578
  67.9029357   4.5111092  66.0229635  67.6830899   4.1287907  65.1734161
  67.0764052   4.8710068  66.3447523  67.4178611  69.2972474  50.2605741
  67.1269010  70.0108628  49.6928327  68.3021341  69.5486455  50.5272023
  77.2427009  54.1179566   4.7721021  77.5702165  53.3458810   4.3107430
  76.7832611  54.6215444   4.1001241  26.5212917  57.2190523  51.3637209
  26.5586448  56.9716215  50.4398060  26.6849327  58.1621552  51.3659048
  23.4107345  40.7409434  24.5668141  23.5326570  40.9001308  23.6308496
  22.4854034  40.9293799  24.7232739  78.8714693  29.7053437  34.9759023
  79.3577336  29.8324161  34.1612641  78.0168222  29.3774896  34.6960370
  10.8531959  14.6041687  46.4094210  10.0668485  14.5190628  46.9485331
  11.5779788  14.4709213  47.0202971  54.2420321  22.4182134   7.2312657
  53.5223432  22.1126227   6.6790978  53.8110959  22.8331380   7.9785077
  80.8383153  39.7339778  35.2233617  80.6484531  39.9792056  36.1289231
  81.7403005  39.4143729  35.2458493  66.3132954  73.2218075  66.6504097
  66.6623449  72.7298212  67.3936081  65.4816866  72.7929401  66.4486027
  69.9498068  16.7354112  41.6339414  69.7692798  15.8064227  41.4903276
  70.7200514  16.9158225  41.0950486  72.0874082  22.1115403  15.7759778
  71.2927149  22.2958093  16.2767140  72.3022722  22.9429822  15.3531663
  57.0819330  76.1083031  62.1748590  56.2203741  76.1115074  62.5919151
  56.9069862  76.3369656  61.2619829  37.3167777  76.0535383  50.6764984
  36.8405318  76.8741608  50.5499983  37.0026302  75.4836416  49.9745274
  10.9204161  24.8856783  58.2737732  10.0164354  24.9411750  57.9639816
  11.0828245  23.9474678  58.3718348  53.4910230   9.9253398  32.5624609
  54.2817955   9.7919428  32.0398593  53.1986694   9.0413201  32.7844310
  20.0105309  22.6772094  44.8939133  20.6597042  21.9799757  44.8007917
  20.3009796  23.1743264  45.6585979  10.1976669  15.9677827  30.9665108
   9.9722582  16.3828337  30.1339531   9.7575057  16.5022123  31.6274762
  75.2232961  21.4330626  33.7777615  75.5818729  20.5811715  34.0266275
  75.0424526  21.8692923  34.6103668  58.8803279  52.9668013  51.0927296
  59.5475568  53.4494535  51.5806675  58.1034218  53.0016343  51.6507912
  13.0215490  39.5570683  27.0594239  13.4773493  40.2003193  26.5165591
  12.8239763  40.0252390  27.8706050  58.3490717  70.2015564  15.4703824
  58.2477342  70.8813640  16.1365811  59.2783152  70.2265498  15.2420918
  74.2685251  11.1943030  62.3625183  74.5874636  10.6766880  61.6232061
  74.8247664  11.9732809  62.3671961  21.1447144  37.0110822  46.1821604
  21.8091607  37.0492291  45.4942036  20.3314114  37.2612596  45.7437754
   6.6318750  39.4856167  28.3160377   6.9824088  40.3158474  27.9934263
   5.7753760  39.7119641  28.6785412  27.0105886  18.4442616  63.7247086
  27.9499483  18.4096479  63.9053679  26.6246319  18.7912023  64.5290136
  33.0922263  61.3924000   8.7438409  33.4830867  62.2041985   9.0670173
  32.7811419  60.9462115   9.5314757  49.9222545  20.8886600  49.6556187
  49.0901713  21.2292719  49.3272114  50.5120496  20.9306192  48.9028788
  18.1813610  19.0451407  44.7757864  18.9037991  19.5447648  44.3954039
  17.3958337  19.4160795  44.3738127  18.9853275  55.6476402  32.2577286
  18.3674753  55.7930756  31.5412521  19.8353899  55.5591249  31.8266964
   4.5805109  39.2752187  65.0789070   5.2901614  39.5968978  65.6349182
   4.0536655  38.7242333  65.6577730  37.2083788  61.7310998  14.8277680
  37.3345547  62.4616334  15.4332654  38.0931877  61.4961407  14.5482366
  74.3450063  74.0557094  52.3848820  75.2425115  73.8534776  52.6491117
  73.8121431  73.3873196  52.8156281  31.9653737  30.9210709  13.3739965
  31.2440627  30.3368267  13.6076657  32.6977407  30.6256303  13.9149110
  78.8086908  74.1588451  59.4472933  79.5544808  73.6374960  59.7443151
  78.5375898  74.6519337  60.2216291  50.9399497  52.2613463  25.8923451
  51.8815219  52.1265158  25.9995477  50.8710896  53.0206737  25.3136270
  26.1686707  36.6772723  57.4256754  25.3327417  36.2619710  57.6377630
  26.6172338  36.0416436  56.8680048  62.6384102   2.2699456   3.2894055
  62.9410045   3.1727462   3.1913058  61.7464994   2.3516421   3.6271207
  18.6908090  18.2599723  50.0404739  18.3449268  18.6608946  49.2430687
  18.9213371  17.3683047  49.7796726  80.2712735  22.3878884  54.9385881
  79.4851903  22.9306698  54.8778248  80.6518246  22.6117182  55.7878923
   0.0872175  28.7947893  57.1250439  -0.4106208  28.9744782  56.3274860
   0.8821094  28.3587241  56.8180799  19.2230368  46.5973186  59.3963718
  20.0089264  46.3989496  58.8871956  19.5413196  47.1140957  60.1365519
   8.3047879  10.4276383  49.0399599   7.4991620  10.9053838  48.8425827
   8.3051991   9.6942973  48.4247828  64.1911612  10.9635215  21.5722100
  64.7835694  11.1675077  22.2958676  64.7687779  10.6898217  20.8597009
  68.2723939  44.2778143  10.6047170  67.4470269  44.3528655  10.1257865
  68.1098067  43.5961920  11.2567822  72.3490702  24.7465047  17.9039876
  73.2603442  24.8887977  17.6479356  71.8443238  25.3065452  17.3142259
  21.1648560  49.2634726  56.7535257  20.5743146  49.6654320  56.1164045
  20.6009912  48.6934757  57.2763920  23.5241556  32.3027134  36.2907553
  23.9082575  32.5441694  35.4479051  22.5794268  32.3233080  36.1381340
  60.4700784  19.7213578  50.4419661  60.4875903  19.8968935  51.3827705
  60.3055005  18.7806630  50.3768587   2.6472712  25.8178711  17.1916759
   3.5033092  26.2460017  17.2033131   2.1379411  26.3181067  16.5540397
  14.4388640  32.7303410  54.6918869  15.3601515  32.4781227  54.6298695
  14.0977752  32.2138643  55.4220533  18.5297596  55.1670837  43.1281710
  18.0983090  55.2831984  42.2816515  19.4649363  55.2047873  42.9275322
  19.5682292  73.6605403   5.4627292  20.1822834  73.1635591   4.9221961
  19.9365508  73.6171696   6.3451640  55.8351123  54.5939884  35.5199830
  55.7825052  53.6794004  35.7974545  55.1010930  55.0209162  35.9617726
  46.1859595  38.6181653   6.5381066  45.4304587  38.0305514   6.5507428
  46.1150920  39.1169419   7.3520057  31.2840605  17.7975166  47.8523493
  31.3891935  18.3629608  48.6174965  30.4816365  18.1084299  47.4332094
  27.7833962  40.6114435  55.6707287  27.8982496  41.3969183  56.2055826
  28.4941530  40.0306845  55.9423494  31.5322568  74.8850509  26.2763803
  30.8510640  74.4353148  25.7764356  32.3210337  74.3629357  26.1298959
  30.6516767   5.5221796  60.3413296  30.9046888   6.4164913  60.5702877
  31.4320707   4.9985290  60.5230045  25.1902914  50.7363129  63.4966183
  24.4714999  51.3369322  63.2995701  24.8161697  50.1102686  64.1165638
  67.9766826  22.8725266  56.9486713  68.4118645  22.5655794  57.7440500
  68.2309298  23.7925053  56.8763542  43.0692339   3.5584515  65.0025368
  44.0023279   3.3584505  64.9278831  42.9906654   4.0282920  65.8327818
  66.0813581  60.6206915  22.6725976  66.3983499  59.8271343  22.2413079
  65.1302230  60.5160472  22.6976411   2.5667972   4.8198419  10.8219020
   1.8430942   4.2739873  10.5144469   2.6663393   4.5878177  11.7452065
  12.9742813  25.9564471  59.8935843  12.1863604  25.7136345  59.4073200
  13.6724138  25.9465051  59.2387962  31.6969236  49.9233767  11.2306611
  32.5507145  49.8778829  10.8003060  31.5192377  49.0240011  11.5059487
  42.1218132  46.2271503   1.4000623  41.9138610  47.1607760   1.4365403
  42.8483807  46.1194417   2.0138471  77.1710501  51.5748024  64.1749620
  77.8881736  50.9853315  64.4083929  76.4663409  50.9933424  63.8894415
  16.1148226  17.3330128  23.9371729  15.2446198  16.9423318  24.0168333
  16.6967070  16.5905893  23.7745380  52.7173523  43.8871861  60.0278807
  53.5955696  44.2237711  60.2058744  52.1707062  44.6697521  59.9571705
  14.2926991  35.7812834  54.4727278  14.7351456  36.2892699  53.7927103
  14.4532442  34.8687053  54.2326117  17.0840406  12.7963841  63.0120373
  16.4099181  13.3411920  63.4182072  16.8680644  12.8035331  62.0795488
  29.9393320  41.9658566  65.7664824  29.7315025  42.1653795  66.6792965
  30.8362174  41.6324520  65.7924032  53.7382412  49.9943590  64.9795532
  54.5627451  50.4673672  64.8669052  53.8882113  49.4286489  65.7369947
  16.7962545   7.8827958  20.4325883  16.5821356   7.7678638  21.3584249
  16.5526527   7.0514636  20.0254361  24.7385096  59.4707057  22.3035447
  25.4510496  58.8390323  22.4010579  25.1700603  60.2766725  22.0199792
  19.5578074  33.1996226  38.5532475  19.5497274  34.0683627  38.1514335
  19.9027574  33.3463001  39.4340014  53.2937609  63.1936285  30.1346318
  52.8175675  63.3810160  30.9435479  52.8375041  62.4417612  29.7567956
  30.6303525  25.8054638  22.5545406  30.9299636  25.8439279  21.6462541
  30.9066439  26.6399336  22.9334283  50.8976590  69.8331043  24.5313565
  51.2421118  69.4117424  25.3187768  51.6536342  70.2769849  24.1470353
  74.8788731  68.6723660  52.5705910  74.9637168  68.7902902  53.5167027
  73.9856952  68.9543406  52.3732233   4.4539234  20.3145361  65.4109192
   4.1071779  20.1131272  66.2800741   4.8215690  21.1940527  65.4976225
  32.7471995  46.3837004  36.2622166  33.6321616  46.6842937  36.4688969
  32.5624156  45.7129860  36.9196606  48.4859610  14.3908024  63.0748653
  49.3588400  14.7611105  62.9437494  48.1383371  14.8597193  63.8334894
  29.7583318  50.1257467  41.8255615  29.0586090  49.8670244  41.2258244
  30.3276134  49.3578196  41.8749189  60.8815221  19.2046344  32.4687624
  60.9561138  19.4546795  33.3897114  60.4497199  19.9505067  32.0522857
  38.7835002  35.2220345  57.7728415  39.1114974  35.2334404  56.8736649
  39.1018558  36.0401797  58.1543159  76.1223773  16.6613805  57.9499388
  76.5146659  17.3860478  58.4369707  75.3198580  16.4568710  58.4299088
  15.3552806  20.6759095  32.3833561  15.1264930  20.1699758  33.1630468
  16.0662580  20.1806593  31.9765759  11.0090507  71.0558997  54.8554087
  10.4011238  71.7692731  55.0497150  11.2681115  70.7214216  55.7140398
  33.4399777  73.1878826   6.4521806  33.6278670  72.4798962   5.8359973
  33.0509054  73.8770553   5.9137599   4.4665069   1.7971854   9.1396062
   5.1962966   1.4677529   8.6150901   3.9932627   1.0110145   9.4120137
  36.6557668  11.9555001   3.6842029  35.8969448  12.2677951   4.1770427
  36.3879000  11.0999780   3.3487050   8.1829380  51.6139528  16.9029061
   7.7151298  52.1568844  16.2683885   7.5226568  51.3886997  17.5582807
  34.0383148  31.4467216  48.7032557  34.9762392  31.2589216  48.6677408
  33.9879870  32.3975182  48.8016796  31.4268327   2.0636420  58.5752249
  30.8084345   1.4935096  59.0321302  32.1485162   1.4852558  58.3284998
  16.9334602  16.6913831  65.5283785  16.0962474  16.5446675  65.9685850
  16.9409454  17.6286495  65.3341913  53.2224850  40.7902861  48.4731102
  52.5911765  41.3971233  48.0865479  52.8221159  40.5230045  49.3004560
  41.0610115  64.9771711  16.8072431  40.7054674  65.5252907  17.5068109
  41.3845944  64.1960546  17.2560040  49.4931399  74.4458625  -0.0402625
  49.6500885  75.1607987   0.5765550  50.3590953  74.2377016  -0.3910144
  15.5722845  42.5202703  62.4585867  15.8354688  43.2695818  61.9242668
  14.8344719  42.1358824  61.9851828  73.1749902  26.8913126  64.4383764
  73.8160781  27.3666453  63.9098930  72.5630568  27.5647092  64.7355413
  11.4848912   5.5212820  18.2186687  12.1502256   6.0160518  17.7403748
  11.3923669   5.9862125  19.0502405  11.1853379  12.2035365   4.8745172
  10.9342879  11.6553121   4.1311090  10.4147762  12.2045522   5.4423778
  50.3493166  27.3132038  66.3122082  50.5639458  26.6565061  65.6497049
  49.9261808  28.0182910  65.8222675  17.7630186   8.7691009  57.6531887
  18.1959808   9.5133340  58.0713892  18.4584486   8.1216884  57.5371456
  81.3656072  50.8365250  59.6275806  80.4826520  51.1964273  59.5433712
  81.9432214  51.5589190  59.3811274  75.9471033  30.8254075  61.0232925
  76.0590891  30.2267671  60.2848339  76.6283123  30.5689812  61.6449261
  31.9011045   7.7322924  64.6979189  31.3216949   7.4812800  65.4172993
  32.7813601   7.5403070  65.0212193  15.0325048  52.3459148  29.0374994
  15.3945303  52.3320389  29.9234867  14.9993896  51.4251995  28.7778497
   8.2017326  39.5649815  57.3701715   8.8458049  38.8587189  57.3192167
   8.4955072  40.1045418  58.1042051  25.5346346  34.0458775  34.5001268
  25.9899712  34.5950484  33.8619184  25.8607101  34.3446064  35.3490496
  59.9956714  52.2693067  10.1427428  59.2996787  52.2409635  10.7992665
  60.7961999  52.0854573  10.6342570  65.7247798  46.2083292  56.4737463
  65.0306038  45.9916353  57.0961571  66.4811210  46.4176130  57.0218134
  57.9241192  65.3810093  10.9437625  57.9468285  66.3029095  11.2003057
  57.3999225  65.3680846  10.1429574  53.8285034  76.5844862  62.1898937
  54.1924305  75.9394370  62.7962780  54.1518808  77.4256516  62.5125408
  29.6410153  49.8641810  14.3575685  30.1921874  50.5414316  13.9654367
  28.8069082  49.9357817  13.8934915   8.2459277  34.1182332   3.8364045
   7.6529926  33.6160331   4.3953816   9.0908212  33.6774640   3.9264838
  15.0646019  54.3366385  56.7117977  14.1554117  54.1986847  56.4461374
  15.0845909  55.2357912  57.0394564   2.5547755  37.6720214  48.4211636
   3.0855045  37.8417230  49.1994715   1.6513385  37.7750540  48.7201929
  42.7605235  60.5853268   0.1849334  43.5560106  60.5496570   0.7161204
  43.0768871  60.6349322  -0.7171090  47.3903100   6.1805062  22.1346681
  46.8187414   6.4387755  21.4115922  46.9227706   6.4608769  22.9214494
  74.3489848   4.2877440   4.9750726  73.6389826   3.8414340   5.4365222
  74.2054723   5.2166896   5.1559035  13.1549358  71.1078548  45.9061813
  12.7586818  70.2608013  45.7019520  13.8288236  70.9067011  46.5555239
  75.6854294  16.6621125  55.2189779  75.1940231  15.8446217  55.2993631
  75.9966449  16.8426967  56.1059761  78.7700008  24.1245370   5.7974164
  79.5847486  24.3234353   5.3360526  78.5960506  23.2061391   5.5912177
  21.0545492  22.0308542  63.2974577  21.7341161  21.8003845  63.9309406
  20.9135151  21.2284780  62.7949286  13.1550145  25.9589767  56.7680407
  12.4443626  25.8695292  57.4030256  13.6547816  25.1469231  56.8519211
  73.3086024   5.1208739  17.7762048  74.2300568   5.2658753  17.9909818
  73.0634628   4.3467956  18.2831018  17.8172010  14.0398078   2.3861234
  18.2927030  14.7858624   2.0207040  17.3869127  14.3890338   3.1665866
  70.1890676  62.6841354  48.0109024  69.3415062  62.2445011  48.0786657
  69.9717776  63.6136961  47.9406357  79.0824584  30.2007389  32.0143604
  79.7919193  29.6270490  31.7249155  78.4414954  30.1659584  31.3042974
  57.1040165  74.1405842  24.1051213  57.7184354  74.6784541  24.6045320
  57.2060262  74.4374368  23.2008473  21.9545232  57.0717797  21.4529149
  22.9010426  57.1301410  21.3228051  21.6692661  56.3968477  20.8370130
  69.3700091  14.1193521  41.2318039  69.8539869  13.3808959  41.6015053
  68.6928670  13.7146091  40.6896830  39.1216373  48.2872438  65.2843571
  39.4115162  47.9577923  66.1350441  39.0657520  49.2356443  65.4011965
  11.2406492  28.4526372  56.5837526  12.0650327  28.9259934  56.6958189
  10.8766210  28.7955260  55.7675743  44.8011994  60.2348158   7.4617688
  45.5499183  59.8708722   6.9893329  44.0364885  59.8763010   7.0113055
  21.2038231  55.2022219  63.9300299  20.5565000  54.7480059  63.3906841
  20.8348799  56.0754776  64.0624857  55.6724393  60.2566835  37.2719399
  55.1308858  60.0011441  36.5251748  55.9115850  59.4288680  37.6887910
   0.9249226   0.9185636  47.3940325   0.3668829   0.8197623  46.6226339
   0.3543897   0.7025267  48.1316328  61.4909915   3.6644614  56.5528393
  61.8272953   3.3337212  55.7199287  60.8018760   4.2808759  56.3050795
  13.3704841  20.8961892  63.8719845  13.7316668  21.0566759  63.0001926
  12.7836430  21.6361165  64.0280485  42.0004368  12.6553845  58.2236958
  42.5739527  12.1242332  58.7761402  42.2496033  12.4251187  57.3286390
  27.0798353  63.4994623  54.2173688  27.7122612  63.4040663  54.9295251
  27.0266922  64.4436166  54.0691106  50.9579217  59.1380617   5.0317161
  51.5592205  58.3948645   5.0799577  50.3575336  59.0084431   5.7658593
  50.6865703  11.3582619  37.6988530  50.6458627  11.0316094  38.5976696
  50.4767715  10.5971249  37.1576643  20.3902221  46.9438791  51.7684793
  20.6344438  46.0449219  51.5483427  21.1995125  47.3395157  52.0921278
  22.0021224  64.9055719  54.6913910  21.8300271  64.1526031  54.1260099
  22.8399682  64.7052383  55.1086617  57.7160384   6.6994338  49.2582242
  57.2954424   6.6406589  48.4003942  57.7165048   7.6348739  49.4611661
  50.7723220  53.1051354  12.4845616  50.7855679  52.1986775  12.7917974
  49.8664059  53.2527642  12.2129886  24.2554283  24.3187451  22.3235583
  24.9851704  24.2100668  21.7137241  23.5705471  23.7435746  21.9824553
  40.8869194  70.7290742  22.8027551  40.4327869  71.5691754  22.7377336
  41.0624611  70.4808280  21.8951242  27.6277161  43.1109428  56.8621826
  27.1402073  43.7111330  57.4263954  27.6241183  43.5334539  56.0032845
  53.2732784  46.8289700  16.4602487  53.8129031  46.8626389  17.2501294
  53.8865625  46.6039959  15.7606141  44.3886308  46.3674736  58.6378002
  44.1701726  47.1733189  58.1696939  44.9095730  46.6588688  59.3860912
  32.8982329  24.5462871  63.4731865  33.4663749  23.9415479  63.9504051
  33.0967164  24.3840957  62.5509453  19.5215130  17.9354227  66.7911911
  19.2478263  17.8494680  65.8779860  19.2749226  17.1030915  67.1944904
   5.8880085  33.6095905  26.2885380   5.0101835  33.7944055  25.9546232
   6.3972080  33.3821177  25.5105901  80.7918571   2.4640183  13.5767285
  81.4953779   2.9467683  14.0105931  81.2118839   2.0589213  12.8179757
  37.2555518  31.7990613  61.0975695  37.9912829  32.0305800  61.6644287
  37.5589395  31.0314298  60.6128740  81.5264367   3.4031396   1.3238160
  81.2653302   3.2842069   0.4106299  80.7059620   3.3607345   1.8149917
  16.7515171  39.4779897  40.4942942  16.2013710  39.3972468  41.2734270
  17.5947189  39.1090345  40.7571888  76.5022181   4.7737269  44.4411962
  75.8831523   4.0451055  44.4870584  77.2693370   4.4088368  44.0000455
  33.2171440  49.2128134  24.4733047  32.7209115  48.7426281  25.1433110
  32.5887871  49.8303890  24.0991354  13.0504715  27.8510451  49.0513754
  12.6157343  27.6564074  49.8816442  12.9304063  28.7933135  48.9332724
  63.7066113  71.5470335  13.5076730  63.9192187  71.6734502  14.4323556
  63.1052744  72.2622892  13.3002202  79.3103872  58.8128567  36.8991160
  80.1870607  59.0901804  37.1651363  79.0673323  58.1422329  37.5374103
   7.5767434  36.9611931  59.4884348   7.3237032  37.8754020  59.6165943
   6.8783814  36.4583635  59.9075842  22.9142213  35.6518364  37.1180296
  23.7961626  35.3757834  36.8686128  22.3353267  35.0256157  36.6833353
   6.1489016  55.4940844  22.1211052   5.3256452  55.1162577  21.8117118
   6.0823828  56.4238787  21.9036484  77.5441597   1.4500920  50.3981447
  78.0709691   1.2323447  51.1670971  78.1571446   1.8800209  49.8017883
  80.7736824  18.0306392   6.6428391  80.9381889  17.5915580   7.4773280
  79.9320005  18.4697871   6.7651002   1.7403385  30.5832934  40.0831652
   2.0437278  30.4336143  39.1877389   1.5409812  29.7089386  40.4178095
  78.1007659  64.4797656  19.6459023  77.2547042  64.4900319  20.0934522
  78.0994784  65.2748915  19.1129796   8.4395659  24.3263483  37.9237962
   7.9421163  25.0589991  37.5604844   9.2823607  24.7076631  38.1698227
  80.3028619  64.4482800  25.1127259  79.6029841  63.8882944  24.7768514
  80.3418624  65.1790330  24.4957082  59.2808735  71.1385676   8.0483787
  59.1328608  71.4687201   8.9345662  60.1685607  70.7811782   8.0710856
  65.3790550  42.4610901  63.6988831  65.5603795  43.3263445  63.3318901
  66.0193007  42.3607445  64.4033337   2.1738452  22.9752755  37.7813673
   2.7710235  23.1179690  38.5157013   1.3838029  22.6126790  38.1821036
  78.9775108  46.4812803  44.8471832  79.6633158  45.8386850  45.0287724
  79.4504718  47.2986794  44.6910000  55.6237160  37.7672031   1.0580508
  56.0252654  37.1137121   1.6307132  56.3643729  38.2337557   0.6707685
  27.5517297  39.7507310  51.9263935  28.0245948  39.5101380  52.7231026
  28.1798220  40.2677393  51.4219761  45.9752285  73.3655617   9.6692483
  45.2005004  72.8840133   9.3791787  46.4784848  73.5142180   8.8687055
  12.3579180  33.4474111  43.5802507  11.5271854  33.5323334  43.1123781
  12.1574485  33.7199306  44.4756699  26.0374594  60.7522440  42.8280640
  25.3828502  60.4770708  42.1861982  26.3900471  59.9334764  43.1766748
  30.7051032  46.3556465  10.3533570  31.5200441  46.5748843  10.8050601
  30.0317662  46.8501517  10.8205955  21.5303927  46.7052820   9.0474526
  21.2534641  46.2246767   9.8275582  22.3819243  46.3293686   8.8242595
  39.7861087  70.5573198  43.1028859  39.0966415  70.1203033  43.6027734
  40.4775511  70.7238433  43.7435262  75.9419154  30.5455689  25.3692262
  75.0608824  30.4148011  25.7198159  75.8001326  30.8631568  24.4774453
   0.7897910  10.2335632  33.0041432   1.6351449  10.4877388  33.3742833
   0.3482947   9.7667408  33.7136436   2.8686330  74.5428371  44.7638130
   3.1610471  74.0983534  43.9680958   1.9720696  74.2342329  44.8948431
  38.3971405  14.5051956  19.8656011  38.1125998  15.4138899  19.9632978
  38.9675045  14.5141387  19.0969419  28.7001009  65.1377103   3.2842891
  28.6271163  64.5106336   2.5647895  29.3482139  64.7517702   3.8735501
  19.6491075  10.6532931  58.5688734  19.8515058  10.5514705  57.6388741
  20.4356670  11.0501468  58.9431238  28.1280416   7.6248603  36.7122380
  28.5644144   8.1937985  36.0781114  27.1987623   7.8369622  36.6245954
  28.9035177  39.1202140  62.3331928  28.7513590  38.5986304  61.5451431
  28.1356859  39.6882558  62.3964024  50.6053834   7.0685153  27.1670358
  51.3935532   7.1268802  26.6270272  50.2120326   7.9393964  27.1115987
  78.8871454   5.2554565  37.9288022  79.7535013   5.0235753  38.2632939
  78.9745067   6.1666017  37.6487748  80.1490207  41.6306353  41.2314939
  80.6727671  42.1052742  40.5860138  79.2749469  41.5851450  40.8439922
  40.7680845  35.5643749  60.9854794  40.2606583  36.1400962  60.4133844
  40.2083397  35.4333401  61.7508221  46.9753646  66.4620373   4.7436683
  46.3928854  66.3373157   3.9944045  47.2982835  67.3581836   4.6494405
   2.4318702  64.9348614   2.7343432   2.3935563  65.3620049   1.8785922
   3.2100446  65.3042266   3.1517713  64.8781001  60.1462147  18.1371610
  63.9975464  59.9639174  17.8090970  65.3212177  60.5779025  17.4067323
   3.3303264  47.6892090  54.6936417   3.5822296  46.8414688  55.0598669
   4.1609037  48.1131411  54.4776535  65.9166716   8.1823115   5.2837722
  65.7305084   8.8625197   5.9309880  66.7974912   7.8781514   5.5025689
  41.4294910  10.2858973  44.5296907  42.1719980  10.3718805  45.1276255
  41.2760735  11.1746264  44.2089844  26.6845560  32.8926563  43.6408997
  27.5288272  33.0709457  43.2265949  26.8593836  32.1645999  44.2372179
  18.3321607  49.5566845  64.3920422  18.9491296  49.4591665  63.6667299
  18.8834095  49.5769501  65.1743126   1.6557807  34.5549970   4.9546926
   1.0301227  34.8904758   4.3126361   1.7953462  35.2854018   5.5574052
   7.2315223  62.6399395   9.2620103   7.1222646  63.1660268   8.4698455
   7.2874744  63.2817575   9.9699466   8.2667619  25.7008028  64.6526384
   9.1077578  25.2563429  64.5458126   7.7213925  25.3544426  63.9463520
   4.8538804  54.2059994  50.1642942   4.5250884  53.3384848  49.9286032
   4.1614690  54.8072481  49.8898888  16.4107478  36.8256235  46.6848278
  15.4803395  36.6872168  46.5075827  16.8131840  36.8862462  45.8184528
  37.4888349  35.9583759  65.7464266  37.1328330  36.4105368  64.9815464
  38.4248233  36.1579657  65.7285118   2.0599312  20.4036813  20.8689611
   2.6633924  20.2316766  20.1461331   2.4103230  21.1875062  21.2921445
  28.4319687  21.0703301  43.7420034  28.6210632  20.1476312  43.5714102
  27.4798083  21.1369729  43.6700249  10.1593673  51.4647341  64.4532681
  10.4873979  51.2167549  65.3176403  10.5766296  52.3067522  64.2712498
  18.2790846   4.9595885   2.1201579  17.4437422   4.7254901   1.7156426
  18.5352892   4.1781812   2.6100509  42.7043151  71.6691086  12.5850694
  42.2724556  70.8149072  12.5768106  41.9884204  72.2986004  12.6714866
  78.9447068  14.0920453  18.2631986  78.1043480  13.6892610  18.0445878
  79.3095802  14.3580632  17.4191968  52.7780962  59.8078394  64.2593861
  52.4614429  60.4328775  63.6072493  51.9983101  59.3174696  64.5195818
  59.9889099  60.3921935  23.2513444  59.8779618  60.1255700  22.3387448
  59.1141235  60.3136012  23.6318700  28.4603828   3.1893449   3.1196944
  29.1346687   3.8681083   3.0905263  28.4610504   2.8899913   4.0288798
  12.6669037  57.5623894  62.9817581  11.8648660  57.1169519  62.7087164
  12.6605344  57.5029516  63.9370918  61.7539118  11.6111474  22.6985280
  62.5730900  11.2042956  22.4163072  61.1508040  10.8775001  22.8179185
  13.4175932  75.6751156  39.1093516  13.4980261  75.6669950  40.0631332
  14.0802646  75.0536919  38.8078070  70.0982998  15.6275754  22.6982705
  69.2959569  15.2527289  22.3349969  70.3655325  16.2873559  22.0583455
  41.6040217  74.1576955  45.4349725  41.5559422  74.1825578  44.4793050
  42.5236034  73.9707014  45.6237428  55.0838744   0.3747233  66.0862494
  55.9700977   0.6976660  66.2491894  54.6238386   0.5091913  66.9148111
  38.3233523  14.9355876  64.2302132  38.5177350  14.1334581  63.7454081
  37.8159976  14.6412647  64.9866533  60.3503774  12.4760108  27.6818101
  60.4282026  12.5126033  28.6351411  59.8475896  13.2575469  27.4523751
  15.0182712  31.8303037  59.4319725  15.2178836  31.0132933  58.9749384
  14.5983279  31.5528560  60.2461624  81.9760167  73.0763313  56.2780683
  81.7827069  73.3421943  57.1770589  81.1194503  73.0256531  55.8538548
   3.2793182  23.0273252  16.2993924   4.2124337  23.2330184  16.2426679
   2.9016084  23.7602716  16.7855565  77.8184150  24.1964631  13.4588830
  78.0488156  24.4150882  12.5559108  78.4659265  23.5414128  13.7193982
  73.3759009  76.6662332   4.8958509  73.2742392  77.5669548   4.5882861
  74.2640340  76.4227793   4.6347301  15.7193369  26.3973193   8.6814229
  15.4714579  27.2224717   8.2644002  16.2414163  26.6595178   9.4396607
   4.5723459  43.1965399  66.3826847   4.4897416  43.9031124  67.0231199
   4.8335481  42.4342823  66.8993711  72.0082573  73.3056211  38.0168200
  72.1713732  72.5894117  38.6305547  71.3454418  72.9616308  37.4180055
  42.6011156  35.8198457   2.8276937  41.8297504  35.2777009   2.6624553
  43.0953275  35.3375392   3.4905402   5.5945969  57.4003744  59.2809343
   5.3660905  58.3282328  59.2253399   5.4714388  57.0696449  58.3911705
   3.4894383  19.8621249  60.9283876   3.3881044  20.8054495  61.0552788
   4.4129917  19.7484887  60.7039642   5.0417137  53.1118107  59.0857649
   4.9048045  53.6385727  59.8731709   5.9691978  52.8767443  59.1131306
  34.0230179  50.2267551  65.4435682  34.9710655  50.3388929  65.5133057
  33.7448812  50.9118176  64.8356533  34.6263390  60.9626672  13.4814279
  34.2798185  61.3130447  14.3020265  35.5761623  60.9705397  13.5997693
  59.1081416  76.2920448   9.8476235  58.2482373  75.8743879   9.8962037
  59.7106229  75.5767915   9.6435182  77.3195742  18.7619770  44.9122953
  76.4919869  18.8360071  45.3875351  77.6809619  19.6482909  44.9211454
  53.0342018  60.4907152  14.5781819  53.9091050  60.3599617  14.2125623
  52.9198443  61.4409611  14.5917527  61.4533024  11.6707616   0.7690875
  61.7427604  10.7716374   0.9240882  61.9149910  11.9373279  -0.0259049
  12.4687302  42.0278740  63.3457422  11.8721187  42.3056841  64.0407991
  12.8509450  41.2123728  63.6699295  25.2354455  42.3001099  39.3161416
  24.9359274  41.7321396  38.6062622  25.9693193  42.7863932  38.9403868
  20.2107406  45.4358959  38.9735603  20.9116793  45.7422352  39.5489502
  19.6639895  46.2083340  38.8299203  44.1616176  14.3902068   9.3653218
  43.9202772  15.3151565   9.4148509  43.3346949  13.9350991   9.2062394
  30.3799129  19.4213831  59.6917057  30.0341845  18.6525810  60.1451874
  29.6118593  19.8287797  59.2912626  26.1463018  74.6030876   3.3598725
  26.6063459  73.9024588   3.8221614  25.4739670  74.1519591   2.8493039
  82.1046589   9.9864869   1.6771476  82.1226786   9.8434978   0.7308595
  81.6732906   9.2077451   2.0288817  54.6654808  61.1825010  10.3148667
  54.4566309  60.2529618  10.2222745  55.4523455  61.1980745  10.8596913
  74.4794868   0.6849818   4.9127786  74.1301011  -0.1857848   4.7232406
  75.3592990   0.5213194   5.2524440  61.7264020  67.9188916   5.1492183
  62.3046958  67.3522875   5.6598775  61.4775049  67.3877498   4.3927972
  32.5543541   5.5472188   1.0120503  32.0292944   5.0887923   1.6680924
  32.2004742   6.4365296   1.0007922  16.1467302  57.7056026  33.0656195
  15.5256116  57.8470516  32.3511696  15.6612897  57.1848154  33.7054300
  53.9980116  22.3268085  12.9266850  53.4942105  21.7470698  12.3554437
  53.3381294  22.7714734  13.4587209  34.9497694   8.5913758  42.4074761
  35.0079912   8.8072925  41.4767663  34.9683803   7.6346974  42.4330346
  65.2161430  29.0049033  22.3020761  65.7461368  29.4420295  21.6355435
  65.5965458  29.2873912  23.1337754   5.6144303   7.2260242   3.0322234
   6.4447564   7.6024966   2.7405755   5.0220388   7.3489766   2.2904746
  37.1423006  48.5273838  59.2120790  37.8378797  48.0546045  58.7550449
  37.1922660  48.2131195  60.1148415   1.0422375  73.9497375  53.7306070
   0.5353447  73.9403772  54.5425177   0.6907530  74.6909380  53.2373381
   3.6986930  15.6129654  57.8520775   4.2485292  15.6762512  58.6330462
   2.8176267  15.8227356  58.1618309  64.9911527  56.0271978  55.6341410
  64.2012875  56.0646009  56.1735344  64.9015836  55.2158594  55.1342058
  26.3550896  53.1951242  24.6951882  25.8190102  52.4114804  24.8166673
  26.1471027  53.4926705  23.8095014  21.9930005  21.2308717  35.9355354
  22.6706529  20.7778978  35.4337025  21.5715241  20.5400681  36.4467883
  68.0973254  20.9711747   2.1078937  68.3314680  20.3167443   1.4497678
  68.1169806  21.8035035   1.6355865  34.1768765   2.7967560  42.3052645
  34.7784662   3.1502861  41.6500282  34.2359233   1.8475096  42.1972084
  32.1769089   4.0535169  31.9936673  31.4938969   3.7883048  32.6096074
  32.0944494   3.4382110  31.2650792  51.3780069  48.7609482  59.2000532
  52.1454239  48.6401987  58.6408329  50.8139896  48.0146599  58.9971590
  22.8694820  53.0753708  63.7026453  22.0782924  53.5996628  63.5786724
  23.5885906  53.6798477  63.5190105  64.6530668  27.9105973  60.5255413
  63.7488632  27.6011181  60.4719687  65.1731495  27.1138120  60.6298542
  74.1367529  39.6241145  14.1127793  74.7243188  39.5864968  13.3580701
  73.3526193  40.0638585  13.7841622  27.9316215  65.7572505  30.8795850
  27.3331349  66.4832327  30.7035272  27.3634362  64.9901649  30.9501473
  37.7028071  46.4352879  29.2060201  37.9514229  45.8379254  28.5006253
  37.1280193  47.0753995  28.7863652  14.4867271   8.7294297  26.8340127
  13.5867781   9.0537839  26.8674867  14.5305246   8.2281690  26.0197370
  39.3266439  60.3876731  43.2932488  39.3173515  61.3386890  43.4014813
  38.4302866  60.1666138  43.0404489  72.1567939  26.2015824  30.5151574
  72.0016955  26.3612418  31.4461152  72.5127529  25.3137069  30.4804627
  14.9805474  40.6022406  56.5333033  14.2113078  40.3323412  57.0349598
  14.7186577  40.4978752  55.6185579  22.0432115  45.0681639  42.4938059
  21.4598298  44.4394827  42.9188490  22.6461625  44.5279932  41.9830227
  22.7091908  43.5238171  59.5885563  21.7527342  43.5615253  59.5894337
  22.9349756  43.1511068  60.4408121  34.5824491  71.0753557   5.1170222
  34.5052146  70.1707646   4.8137395  35.5248868  71.2416121   5.1370589
   4.0435678   4.0254897  44.7439957   3.7432894   4.6391916  45.4143953
   4.9300075   3.7881914  45.0162935  65.5771767  52.5884530   9.9792354
  66.1659514  51.8367025  10.0459401  65.4724085  52.7278516   9.0380542
  28.7797809  17.3254001  60.5549383  28.7845874  16.9806552  61.4478874
  27.8550625  17.3379588  60.3080177  56.0321891  70.8583209  23.1109349
  56.9026410  70.8109805  22.7155797  56.1996733  70.9395620  24.0498559
   0.8297593  69.4827601  11.1035172   0.3251655  69.2244169  10.3322379
   1.3179643  68.6956331  11.3450210  65.5441666  40.7760382  39.2544222
  65.6285429  39.8253584  39.1815090  64.6038818  40.9262562  39.3520260
  22.4862528  38.5605311  65.0026846  21.6270566  38.1393075  65.0268412
  22.4490523  39.1369057  64.2393732  66.8785737  10.5325942   6.1394660
  66.4167450  10.7570462   5.3316514  66.9625102  11.3640170   6.6062896
  12.2533965  37.3603225  48.3827972  12.9728854  37.9915118  48.3957052
  11.5003347  37.8487134  48.7153721  53.8916671  62.2670743  17.7357308
  53.0611526  62.2972462  18.2106702  53.6457788  62.3705766  16.8164651
  48.0854511  74.3570709  64.7033072  47.5983906  74.8047018  65.3951406
  48.8357258  73.9674568  65.1522160  25.3862471  25.5588012   8.5707633
  24.7195524  25.1278024   8.0359857  24.9061340  25.8937173   9.3280952
  23.9596581  69.2499921  23.4027307  23.5964530  69.0785930  22.5338571
  24.7023334  68.6503860  23.4744184  56.5371501  53.0090460   5.6245915
  56.3872301  52.1594498   5.2099340  56.8673097  52.7947804   6.4971272
  16.4693451  20.8549070  63.0239582  17.1149015  20.4409003  62.4511719
  15.7986271  21.1877966  62.4276733   2.1098870   3.0177693   1.6494863
   2.2083134   2.1050029   1.3785712   1.1849922   3.2136588   1.4997212
  17.9722399  10.0039201  24.8831193  17.1312517  10.2792506  24.5182054
  17.7910751   9.8458533  25.8096330  35.6049728  48.1785700  11.3782088
  36.3708102  47.6121947  11.4727799  35.4955059  48.5793337  12.2405498
  66.6906403   6.6883616   0.0449292  67.0476209   7.5628667  -0.1101192
  67.0385574   6.4358096   0.9001510  20.4605079  50.0376892  52.8334618
  20.4864073  49.2401028  52.3048687  19.9768162  49.7876787  53.6207151
  33.8715339  68.9686537  39.7237921  32.9814529  69.3179131  39.6790123
  33.8861179  68.4527540  40.5299377   6.9383544  23.9299464  41.4787626
   6.6812062  23.6340761  40.6055117   6.4465189  23.3671999  42.0767975
  49.0985357  71.7514154  13.9522855  48.3446919  71.4727256  14.4721715
  49.4308960  70.9438607  13.5603349  46.1155044  70.6596395   0.7433097
  46.6853391  70.9691331   0.0392262  45.5854403  71.4222166   0.9751336
  70.5531327  64.4887161  61.0081100  71.2315325  63.9769268  61.4486599
  70.2282481  65.0859880  61.6818666  48.8139705   6.1996226   3.8327662
  48.6791997   6.9228129   4.4451921  47.9536264   6.0561757   3.4384791
  19.7459483  34.8603654  49.1874075  19.9461806  34.4555140  48.3434677
  18.8146198  35.0751209  49.1350746  47.1620201  71.8396947  15.8165090
  46.7448258  72.6198408  16.1819570  46.4624106  71.3965508  15.3365056
  26.9425608  44.8692402   1.0296218  26.1611432  45.4195902   1.0819070
  27.1844141  44.8840347   0.1035993  10.1897472   7.3423104  23.6316506
  10.5840701   7.5917583  22.7958791  10.3722400   8.0809073  24.2125146
  78.8901423  27.9939847   1.3644521  78.0929349  28.2550006   0.9034030
  79.6021984  28.3394294   0.8260552  55.8537828  71.5239236   6.1905019
  55.9915983  70.9362289   6.9333713  55.8095013  70.9433243   5.4307811
  13.1920350  51.4650249  58.5208082  12.7878714  50.6009769  58.6002207
  12.5782430  52.0573807  58.9550972  13.6775470  28.2970595  36.9437504
  14.4496882  28.8617516  36.9097805  13.6015379  28.0504489  37.8655076
  63.1406295  72.7267238   9.1339318  63.2679474  72.7518985   8.1855695
  63.1081521  71.7940018   9.3465535  25.2972126  46.9635725  41.0248756
  26.2209702  46.7137861  41.0474539  25.1588297  47.4434471  41.8414497
  24.7083988  49.0698573   2.3169629  23.8939138  49.3753406   1.9175546
  25.3674843  49.7021565   2.0305411  12.0961368  42.3680258  50.3353596
  12.1932995  42.4043369  49.3837929  11.6680038  43.1930256  50.5640554
  61.4785866  62.1794987  54.1990137  61.9002847  61.7682791  54.9535322
  61.7808728  63.0874443  54.2210531  21.0658592  15.0047355  23.4443967
  21.2869018  14.3721919  24.1279618  21.9003910  15.1965098  23.0166070
   3.2758898  47.8828340  17.1666734   3.9181751  47.2754388  16.7995660
   2.6308054  47.9996781  16.4692132  21.4354229  36.0753751  51.5116358
  22.0436692  36.3778090  50.8372402  21.1785960  35.1984096  51.2266731
  40.8837318  34.0711236  64.6485853  41.0863352  33.7633228  65.5320120
  40.6706190  34.9975348  64.7607231  16.6624588   2.2272162  12.2185866
  15.7350153   2.3812919  12.0387618  16.7821497   1.2888746  12.0722167
  68.4622692  28.6612182  10.4660909  69.0419529  27.9646211  10.7742373
  67.5835191  28.3627658  10.7005183  14.6221422  60.4549000   8.5818688
  15.3544854  59.9436018   8.9260785  13.8437723  60.0345489   8.9474885
  44.0176605   7.2716956  19.9407880  43.4441780   7.5629144  20.6496923
  43.4510778   6.7481618  19.3741052  46.4557664  16.0651355   6.3422601
  46.3454787  15.9872727   5.3946273  45.5791275  16.2664752   6.6696708
  35.9265291  48.2049730  33.2924287  36.6112816  48.7873825  32.9635732
  35.4451536  47.9355916  32.5101583  36.0868782   4.3883185  29.1222493
  35.8507675   3.5892539  28.6511056  35.3108591   4.9445729  29.0543382
  42.5983858  45.2124786  65.0454950  41.8004847  44.6840620  65.0264311
  43.2569027  44.6675348  64.6146536  24.3527102  67.6795816  56.0945082
  24.4391465  66.7278814  56.1495686  25.2295280  67.9867887  55.8641958
  19.4164586  11.3820279  39.8158288  20.1941133  10.8790421  39.5739794
  18.8218594  10.7355750  40.1963329  56.0359036  56.5546331  46.5986077
  56.5060245  57.3669061  46.7868344  56.7039334  55.9679243  46.2440030
  10.7888460  37.3136067  42.5758219  11.4830160  37.9698300  42.6368999
  11.1502206  36.6350484  42.0055580  76.3569473   2.9229312  16.8994252
  77.2424148   3.2695727  17.0090596  75.9183119   3.1202703  17.7270047
  18.8973629  49.4434834  55.2627993  18.1878924  48.8215685  55.4243708
  18.5884178  50.2642250  55.6464243  38.7937377  36.4645772  23.5754411
  38.4105347  36.7005258  22.7306191  38.1212388  36.6953664  24.2163102
  52.9735994  15.0439835  47.0844889  52.5308180  14.2748594  47.4431324
  52.2935534  15.7166266  47.0481682  69.8720859  38.7681918  12.2287242
  70.1860474  39.4161897  11.5980451  70.0793575  37.9239707  11.8280236
  23.4003109  15.3176980   4.1178386  23.2754463  15.2155118   3.1743352
  24.2409653  15.7678657   4.2008178  38.1701279  26.8969536  32.6777172
  37.6452303  26.9415450  33.4769201  38.9233756  26.3563991  32.9157329
  20.5105776  14.0048318  12.8862969  19.6382707  14.3534904  12.7026050
  21.0305733  14.2440467  12.1190898  77.0444654  44.8775678  25.9950940
  76.8719839  44.8079305  25.0561444  76.3524578  44.3584828  26.4048688
  63.1009012  76.4019202  54.4761181  63.4948163  75.6112842  54.8448467
  63.8308453  76.8626211  54.0623951  75.6544785  36.1980748  60.3596640
  75.0803540  36.5632367  59.6864128  75.5235790  35.2518368  60.2985954
  20.3851104  39.8387194  63.6936760  19.8217535  39.1005683  63.9260435
  19.8098886  40.4389811  63.2192945  70.8994453  77.1305653  57.9785395
  70.8294015  77.3535064  57.0503044  71.8386047  77.0226033  58.1287289
  52.6086103  61.6561219   0.8495347  53.3971798  61.8042943   0.3275840
  52.8781497  61.0250232   1.5168397  21.6417432  28.4613228  50.7394361
  22.5529456  28.4423447  50.4468918  21.6118121  29.1683102  51.3840294
  20.4342079  72.0017815  53.5303450  21.1813664  71.6133118  53.0752897
  20.0763369  71.2869358  54.0568018  64.2675637  47.0611959   0.7982461
  65.1518165  46.9982247   0.4371850  63.7434022  46.4758115   0.2516047
  10.1668906  48.0705166  41.5924978   9.7718483  47.3993683  42.1490288
   9.6709007  48.8656569  41.7873812  65.3968798  52.7126118  18.6800019
  65.5592906  51.8085238  18.4107701  65.9183132  53.2400533  18.0748956
   6.4990395  28.1749778  23.1427114   6.8296546  28.8699822  22.5735967
   6.6557759  27.3684316  22.6516358  23.0921125  15.2965140  18.8840199
  23.3418179  16.1745691  19.1719401  22.6155567  15.4391003  18.0662215
  52.0940478  14.0315204  11.7916266  51.5446831  13.2480149  11.8150727
  52.7972355  13.8127809  11.1801402  72.0840542  60.7408428  54.1335535
  71.3786344  60.7924938  53.4886122  72.5439434  61.5764475  54.0529346
  42.8131527   7.7467113  47.5757806  41.9021505   7.7027802  47.8662602
  43.0540699   6.8363147  47.4044053  26.3764286  35.7988691  61.3912344
  26.7287493  35.7285881  62.2784567  26.4146399  34.9065375  61.0469723
  75.5107306  32.6952410  66.8484783  74.8429696  33.3805060  66.8756151
  75.0329105  31.8875933  67.0372343   2.4343287  74.2566988   7.1978538
   1.5395509  74.5878741   7.2748391   2.9200350  74.9721429   6.7874114
  76.7115329   5.3326325   4.0411918  76.3756679   6.0195117   3.4653251
  75.9339736   4.9845605   4.4776361  35.4043841  23.1761360  57.3714495
  35.8674622  22.9055023  56.5786409  35.7740664  22.6280332  58.0636549
  49.2708731  51.0026407  62.6360083  49.3088818  51.3686037  63.5196686
  48.4470272  50.5158091  62.6136160   3.7489718  32.8101735  30.4370038
   2.9981798  32.3307805  30.7873170   3.9179367  33.4959178  31.0830895
  38.0067132  34.1776614  16.2718122  38.4567903  34.0586000  17.1081655
  37.6067184  35.0448756  16.3364045  64.4316511  42.4446969   0.8509748
  64.6180861  41.5919023   1.2436788  64.9325965  42.4474435   0.0353257
  20.9888315  11.3986361  43.8330221  21.1788321  11.2334025  44.7565079
  21.4058924  12.2404432  43.6495781  81.2686513  14.8653560  10.7652156
  81.1721133  15.6587701  10.2385203  81.6004465  14.2096286  10.1518933
   9.9741453  48.7240601  45.5712891  10.4241514  49.5089769  45.8837509
   9.5607990  48.3577442  46.3530779  43.2640886  10.1722896  30.4540658
  43.8415480  10.6790423  29.8831224  43.3004093  10.6267512  31.2957168
  48.6731946  68.2575747  22.9794709  49.1257798  68.4133360  22.1505372
  49.1676366  68.7668082  23.6216943  23.9802975  41.5959172   5.3749291
  24.0435547  42.2804265   6.0410230  24.4644016  40.8571868   5.7439105
  15.1782459  19.2490773   2.2478692  14.5412487  18.5561328   2.0738093
  15.4770464  19.0807776   3.1415240  55.2823269  64.9876997  29.6479527
  56.0473143  64.7948739  30.1900308  54.5664846  64.5078465  30.0645368
  26.5041870  14.2371182   5.0814931  26.2865394  15.1486402   4.8865859
  27.3867506  14.2751460   5.4500882  24.2797607  24.1137462  34.5053021
  24.1318268  23.6986976  35.3550546  24.2874998  25.0519137  34.6950833
   8.6532873  42.6440530   9.4206635   9.1931957  42.9961591   8.7130229
   8.9056415  41.7225366   9.4786565  79.5320915   1.5242629   2.5329082
  79.0767620   1.3298993   1.7136828  80.1214932   0.7810884   2.6614873
  81.7425059  11.2609630  18.1917207  81.5545367  10.7686000  18.9907662
  81.3120054  10.7630687  17.4967401  81.1946931  66.3086081  52.4365950
  80.4436524  66.6972017  51.9880772  81.1919933  65.3926420  52.1586800
  55.4617432  45.8222203  15.0250833  55.7831219  46.4056973  14.3376939
  55.0725897  45.0865655  14.5522229  19.6687216  19.2184358  10.0235431
  19.0081924  19.8162990   9.6735494  19.8473925  19.5479636  10.9042899
   6.0203117  23.5266452  16.8435208   6.7247027  23.5679441  16.1967198
   6.3685268  22.9722075  17.5417916  15.4916883  50.2347660  50.5095148
  16.0979295  50.8991575  50.8370590  15.6095767  49.4908905  51.1002588
  64.2853832  49.3815041  62.7144575  64.3993568  50.2857494  62.4219084
  63.3485460  49.2132759  62.6131678  80.0800775  34.0667491   9.0899579
  80.2922963  33.1668906   8.8420693  80.3277467  34.5899444   8.3276193
  59.1896009  48.8364124  59.7263145  59.7740602  48.2365561  60.1897955
  58.7292385  48.2827568  59.0956306  17.4065358   4.5740422  53.4772444
  17.0333726   3.7082489  53.6427116  17.4320037   4.9923332  54.3378353
  17.3885483  44.3777280   6.0050027  18.0786842  44.9233537   6.3821332
  17.8575844  43.6720948   5.5596702  31.5858412  49.6569395  66.5582991
  32.4647069  49.5924282  66.1845779  31.7077875  49.4745350  67.4900150
  39.2824745  71.0386372  59.1360474  38.6120296  71.7180729  59.2074490
  39.8577452  71.1900616  59.8859596   6.5669102  21.1864667  25.6240670
   7.4289268  20.8549123  25.3726022   6.4522427  20.8940463  26.5282647
  25.0512213  23.8243918  29.3549745  24.2649263  23.6298661  29.8650090
  25.0669474  24.7795205  29.2940156  58.8983202  53.4337950  56.6993523
  59.6771288  53.0287790  56.3177156  58.8045359  53.0138445  57.5543833
  43.3282370   3.1550651  10.5410878  42.4897760   2.8007464  10.2449815
  43.6550754   3.6542039   9.7925775  71.5696907  71.2724972  44.0226936
  70.6269407  71.4296961  43.9703035  71.9409037  71.8061495  43.3200884
  55.5813789  57.6945877  60.3001404  56.4739799  57.4895811  60.0218058
  55.6916809  58.3155251  61.0202074  67.9405915   2.5566443  60.1147509
  67.5240647   2.1318205  60.8645916  67.2995984   3.2031925  59.8192406
  77.3659824  40.3148603  57.5644159  78.0225675  40.3834629  58.2575417
  77.2190051  41.2180281  57.2834921  52.2595024  46.2052679  49.1024303
  51.8760586  47.0474100  48.8574982  53.1072712  46.4304733  49.4855785
  11.7431754   8.3391862   1.4290587  12.5394458   8.1509786   0.9323041
  11.1380524   7.6384549   1.1860864  18.7106699  53.9237981  39.6618859
  17.8266615  53.8763337  40.0259034  18.8445801  54.8536782  39.4785325
   4.8946113  53.6576371  30.8680932   4.1135830  53.5244756  30.3309743
   4.9663371  54.6081834  30.9549634  13.3539242  31.5287881  30.8405320
  13.6114401  30.6787400  31.1973588  14.1407293  31.8528276  30.4021565
  29.9094194  50.6663327  28.7084786  30.0876755  51.1541181  27.9044072
  29.1597694  50.1121907  28.4912412  37.2521585  14.5867066  11.2077586
  36.6408199  14.3357616  11.9002358  36.8411106  14.2758374  10.4011409
  75.6961571  68.9430925   3.8589732  76.0142647  69.2696235   3.0172984
  74.7638356  69.1598627   3.8630883  76.4376090   8.8448911  11.3558881
  75.5071114   8.9454513  11.1551587  76.8872093   9.1606717  10.5720632
   2.4867791  28.7058454   4.5126597   3.1266946  29.1718059   5.0508229
   1.6376561  29.0119748   4.8312633  68.2314526  15.0780495  50.3372097
  69.1270243  14.8073967  50.1349020  67.7587592  14.2573460  50.4758930
  61.6225635  70.1829526   6.5742223  61.5153848  69.3062136   6.2053411
  62.2420584  70.0656912   7.2944371  40.3569216   2.6618009  26.9936196
  39.7533173   2.7903943  27.7252976  40.9068483   1.9261889  27.2632329
  65.6667089  47.3302746  66.9593334  65.3487825  47.2020912  66.0656214
  66.1278105  48.1686354  66.9315815  42.4864149  38.7865949  60.2569818
  43.0060816  38.1014395  59.8365784  43.0973434  39.5146060  60.3710079
  13.2769483   5.4065518   3.9216105  13.0929893   4.5970254   3.4451072
  12.4649471   5.5980639   4.3908708  81.1290442   7.1016796  42.9292870
  81.9129693   7.5697621  43.2166767  81.1738288   7.1237953  41.9733906
  26.1456579   1.7623668  12.3831145  25.7599253   1.4060216  11.5828292
  25.7417625   2.6247268  12.4802749  66.1100637  76.8317196  14.7978227
  65.9310471  76.1753246  15.4711263  67.0644938  76.9022247  14.7798268
  37.1919823  39.5965433  61.5004683  37.9454970  39.7380471  60.9273863
  37.2858334  40.2569342  62.1869850  79.6353649  30.0794368   7.4804656
  80.3579830  30.4228168   8.0059592  79.8088263  30.4008012   6.5956656
  41.9529289  19.1764407   0.3418176  42.2917217  19.5406585  -0.4759820
  41.6543955  19.9386554   0.8379428  52.5045486  10.4071479   6.6815679
  52.8985521  11.0605435   6.1035840  51.9834648  10.9182601   7.3008124
  49.5434189  74.5309258  54.8060989  49.3977308  75.3928995  55.1959705
  48.7343979  74.3435287  54.3300676  27.9784727  49.2205286  40.0405598
  27.0571017  49.3911648  39.8451352  28.3367801  48.8752127  39.2228770
  17.2054851  41.6438913  52.2437286  16.3984740  41.7679930  51.7441654
  16.9448841  41.7729092  53.1556892   7.0210213  22.7754550   5.6564586
   7.6674932  22.0769696   5.5543868   6.8582481  22.8153091   6.5988748
  37.0602012  71.0219574  65.8001232  37.3674750  70.6482887  66.6260672
  37.2540879  70.3501129  65.1464653  67.0521158  17.4991422  22.9004209
  67.5398344  17.2821240  22.1059052  66.4467043  16.7669921  23.0173318
   6.6553420  30.1489739   2.9995267   7.3434419  30.3441672   3.6356513
   6.6391462  30.9124379   2.4223821  34.2682785  28.1579022  15.1403443
  33.8569063  27.5866132  14.4917886  34.3196863  29.0111690  14.7096269
  34.9735498  44.9355412  57.2805119  34.6058536  45.8179331  57.3297215
  34.2833710  44.3689013  57.6251841  72.4675821  31.8257194  27.5339143
  72.6906596  31.4534860  26.6807382  71.5107535  31.8136745  27.5576989
  11.1517805   4.7184758   6.8166940  11.6002649   3.8993697   6.6065566
  11.8189186   5.3943639   6.6969602  28.8821505  20.1285415  19.8672978
  29.1710471  19.9432139  18.9737527  29.3627904  20.9182410  20.1154725
  70.2145707   6.5174397  53.3136845  69.5626866   6.9592961  53.8577795
  70.6095015   7.2189148  52.7958202  42.7423833  17.7595525  17.2449033
  43.3141111  18.5181718  17.3626248  42.3223279  17.9054551  16.3972585
   8.1353110  24.2248778  14.9058167   8.6488146  24.1023259  15.7042710
   8.2619375  23.4142213  14.4128243  33.1763058  60.6664392  17.9279820
  33.9330774  61.2496301  17.8695218  32.8511112  60.7847688  18.8204400
   6.6934437  35.1192098   1.7531650   5.9375280  35.2926831   2.3141734
   7.3512000  34.7526650   2.3441236  65.4596793  66.2613246   0.8955495
  65.0551283  65.7004401   0.2337472  64.7987019  66.9284841   1.0805909
  46.5686560  41.1918306  59.4885731  46.6379690  40.3205872  59.0982389
  47.2344398  41.1998463  60.1762533  38.4312719  16.7414289   9.0303294
  39.1058010  17.4167113   8.9579455  38.8344854  16.0563140   9.5634906
  82.0541417  25.6006726  48.2462597  82.0376002  25.0494583  47.4638748
  81.7470729  26.4552887  47.9436779  27.5832456  24.9003320   6.3300530
  27.0359987  25.2111630   5.6088464  27.0178026  24.9547868   7.1004645
  52.1168655  28.5976176  11.8238275  52.6907820  28.2833200  12.5224463
  51.4519638  29.1172366  12.2756402  13.5366928   1.7641075  31.2143779
  12.9066812   2.0911129  31.8565488  13.6790835   0.8505877  31.4622450
   2.3311860  12.4756821  29.7672749   2.3187263  13.4270771  29.6627092
   1.4091212  12.2199162  29.7425842  57.2770882  25.9142685  60.5773735
  56.8812943  25.1676726  61.0270119  56.7069197  26.0701895  59.8244953
  53.3985697  14.6887215  60.7267618  54.1482388  15.1813610  61.0607386
  53.6263262  14.4929035  59.8179102   6.9507116  36.8500810  15.6881349
   7.3381037  37.2350030  16.4742581   6.5548486  36.0331159  15.9916036
  67.1267460   2.3264937   0.4755561  67.6590942   2.9219775   1.0030381
  66.4619468   1.9991164   1.0814445   3.8585514  18.2667260  28.9202325
   4.2117757  18.9426522  28.3418004   4.6064228  17.7009587  29.1121499
  54.6034729  70.3403565  29.5135133  54.8351037  70.4058787  30.4399507
  54.8376381  69.4445226  29.2708604  14.1351783  71.5638781  56.2350798
  13.2703161  71.7850780  55.8896589  14.0651286  70.6422663  56.4839983
  63.2702290  73.5857102   3.8677661  63.7517821  72.9826471   3.3015029
  63.7171971  74.4251010   3.7587945   3.8602728  60.6659894  35.5096738
   4.5447773  61.0996537  35.0001447   4.2376298  59.8184209  35.7451932
  36.5887868  72.0830223  32.7587621  36.5846603  71.9454309  31.8115060
  37.4086832  71.6874954  33.0546681  79.6808933  40.7148223   4.6341292
  80.0094198  41.0586267   3.8034074  79.7447751  39.7642140   4.5419518
  72.1862494  71.9656989  18.8586061  72.6793229  72.6313707  19.3381803
  72.2383725  72.2418877  17.9436032  48.0262839  76.5437338  11.6413085
  48.3159816  75.6383535  11.7535417  47.9520928  76.8837544  12.5329988
  27.9552770  50.6810427  63.3349323  27.0155048  50.8235645  63.4478378
  28.2430720  50.3095102  64.1688204  58.6740541  64.2012739  56.2906647
  57.8663826  63.9002132  55.8744192  58.8584900  65.0433254  55.8745337
  25.1308102  36.7897706  10.5378644  25.8617538  36.4247613  10.0391404
  25.1432508  36.3106637  11.3664405  58.4607609  32.2090726   8.1631486
  57.9391994  32.8858380   7.7316491  59.0648656  32.6942401   8.7252013
  57.1403491   7.6920422  46.5038729  56.3877927   8.2521256  46.3136292
  57.7538215   7.8643902  45.7896042   6.1886710  42.4682241   2.1876399
   5.8228439  41.8038087   2.7715508   6.4370197  41.9843297   1.3999860
  24.6711820  23.4627585   3.9766328  24.5162481  24.2507272   4.4975345
  25.5605406  23.5697131   3.6392419   7.6144046   9.0218215   2.3764388
   6.9888491   9.7363954   2.2568576   8.0378455   9.2117744   3.2136075
  80.8447598  36.2618451   0.8453910  81.4887212  36.0083823   0.1841037
  81.1474584  37.1135335   1.1604039   7.7624869  48.3789968  44.2659521
   7.5664246  47.7898550  44.9944496   8.5531670  48.8437605  44.5399094
  53.2352781   1.6368728  26.9952695  52.4777997   2.2074943  26.8654744
  53.6537420   1.5950065  26.1354081  67.1722746  56.9042635  64.0341377
  66.4495087  57.5240326  64.1327763  67.8750229  57.4173641  63.6352539
   3.0371422  31.5576272   1.7813031   3.3837479  30.6666236   1.8282525
   3.0610675  31.7751365   0.8494489  75.2424138  47.4902156  63.4917776
  75.5050772  47.0989421  64.3249299  75.9368246  47.2424701  62.8813307
   5.3255195  17.0634084   5.6839149   4.6635312  16.3932567   5.8539073
   5.6988543  17.2549634   6.5442388  10.6921309  24.5581441  17.5926702
  10.5510849  25.5007892  17.6807038  10.9911531  24.2788653  18.4580152
  11.2830991  25.1261907  50.3176705  10.5792326  25.7563548  50.1637189
  12.0021075  25.6513314  50.6690805  29.9112219   7.6928668  10.5183475
  29.8380417   6.8640285  10.0451676  29.0967506   7.7566152  11.0171573
  31.8400282  25.3964667  19.7991101  32.0900005  26.2813764  19.5332448
  32.4285120  24.8234754  19.3075864  30.7454580  50.3578763  36.7467420
  30.8695406  49.6617322  36.1016004  30.6098884  51.1479001  36.2235562
  63.7845802  45.3647900  58.0913877  63.2717323  44.5998096  58.3522034
  64.2122746  45.6527185  58.8978624  30.9339023   2.3791544  54.4951868
  30.2217484   1.8831353  54.8989582  31.6182613   1.7291416  54.3359137
  33.7577099  15.9719138   3.3878343  34.3672270  15.9504180   2.6500909
  33.0061478  15.4578643   3.0926339   6.3820475  31.6398053  31.9011037
   6.7562956  30.8292203  31.5559499   5.4728168  31.6301875  31.6020410
  15.7175821  42.1961980   6.5055434  14.8535580  42.5256543   6.2582604
  16.3291735  42.8499131   6.1666696  38.2749981  43.7753110  18.4350125
  37.4345344  43.9079385  18.8734834  38.3806557  42.8245263  18.4022538
  22.7989096  50.9978299   0.8100240  23.6152023  51.4590745   0.6172912
  22.4016661  51.5008645   1.5209310   1.8489570  17.4900394  26.8522660
   2.3037094  17.9258971  27.5729959   2.4658317  16.8246799  26.5473191
  17.8207964  31.7635732  25.5014913  18.0875439  32.6136117  25.1514737
  18.6316961  31.3740735  25.8285443  78.4858917  23.1521087  21.6355912
  78.7225507  22.4483018  22.2396485  79.2677329  23.2795959  21.0982816
  17.6588625  35.3017859   2.2612206  17.1158689  34.5949655   1.9122331
  17.7233595  35.9312253   1.5429704  25.1253265  18.3662181   7.2037713
  25.9553999  18.7749724   6.9585578  24.5074266  18.6580377   6.5334956
  40.7431316  41.4546251  62.2190142  41.3747597  42.0470810  61.8112421
  41.2488413  40.6673622  62.4207544  75.4227017  45.7908535  48.2180643
  75.8117251  46.2338781  47.4639940  75.6180934  46.3638258  48.9595222
  67.1922099  64.5694587   2.8819482  67.8341138  64.1592571   2.3023574
  66.7368757  65.2016136   2.3258178  72.3966847   9.2695098  26.9882123
  71.4573453   9.1385417  26.8589036  72.8072344   8.7774711  26.2771718
   7.8423637  21.5149884   2.6073138   7.9301685  22.4168687   2.2988717
   8.3769626  21.4800220   3.4005420   6.0875148  37.5883918   9.7658174
   6.7643660  37.1540980  10.2849404   6.2792558  38.5219245   9.8551766
  47.7253615  15.7917031  50.0502634  48.1379830  15.5879791  49.2109346
  46.8241059  15.4836090  49.9551296  47.7782101  23.2940154   1.5022199
  48.6395162  23.3840470   1.9099919  47.4198479  22.4884133   1.8748014
  23.2224888   8.4292369  20.5405252  23.1770033   9.2538552  20.0566213
  22.3106522   8.1506591  20.6252877  64.6875572  24.1867566  55.8633852
  65.1205730  23.3609724  56.0797405  64.5696354  24.1538286  54.9140501
  81.7545937  28.6245780  15.9366338  81.8782257  28.9836316  15.0579850
  80.8978842  28.9518838  16.2107675  55.9719276  31.2372112  52.2708845
  55.2688932  31.8570566  52.4652100  55.8877945  30.5611277  52.9432392
  20.9045261  33.8627963   4.8790233  21.4099640  33.0708985   5.0624864
  21.0764593  34.4352489   5.6266658  73.2968067  49.1914945  30.1141755
  73.8400863  48.8493447  29.4042413  72.9397534  50.0099664  29.7694222
   1.0645162  47.4474955  38.4706521   1.0854974  48.2677460  37.9777241
   0.1854204  47.1000004  38.3200884  52.0417153  46.2033179  35.4870431
  51.7367899  46.7330071  34.7503774  52.7921616  45.7206145  35.1405446
  52.7130671  11.4174037  16.9087617  52.0211707  11.9629960  16.5348069
  52.6792257  10.6064801  16.4013211  10.2644622  40.5080318  51.3336325
  10.8798242  41.1964130  51.0812569  10.2290261  40.5568981  52.2889233
  21.8573952  30.2479649  61.2905645  21.3389254  30.4171038  60.5039167
  22.4381280  29.5279598  61.0444450  27.2456449  21.0368733  21.9511239
  27.6052803  20.7901816  22.8032033  27.8082365  20.5934386  21.3162343
  45.9229183  42.0395994  62.8967333  45.4160452  42.7387905  62.4838877
  46.4739323  42.4893808  63.5372925  78.3467816  57.4514966  16.8586843
  78.7863420  57.8103261  17.6295678  78.4972428  56.5078549  16.9147412
  17.5381321  33.5904985  21.8970887  18.2292026  33.4284978  21.2549035
  16.8512577  34.0372233  21.4022462  17.4541008  65.4275084  57.7209949
  16.6053092  64.9955606  57.6250505  18.0727041  64.8387146  57.2886944
  71.9113242   5.9408863  20.4212713  72.0929801   6.5283497  19.6877038
  71.6420542   5.1197823  20.0095558  48.5229492  68.3271837  60.8585548
  49.2920685  67.8476238  61.1663103  47.7941036  67.7208138  60.9902096
  10.7605607  31.9487675  55.5804062  10.5489118  32.8673561  55.7466507
  11.3715179  31.7135723  56.2787247  32.1023601  33.3118110  22.3754422
  31.2565082  32.8655200  22.3355596  32.1299309  33.8442807  21.5804879
  12.5665290  15.0264080  57.3924255  13.4242685  14.7684868  57.0547867
  12.4125201  14.4367989  58.1305838  44.7322554  68.5508542   4.2383830
  45.6797117  68.6769967   4.2898910  44.3829149  69.4259934   4.0700881
  16.4639133  53.0289178  51.5603463  16.8562740  52.3274236  52.0801560
  16.8093962  52.8949742  50.6777780  70.6120776  22.9869084  12.1029822
  70.0429140  22.9392104  11.3348643  70.0288974  23.2424407  12.8177087
  79.1712796   8.0964192  49.9231339  78.5204827   7.3945816  49.9125195
  78.8273131   8.7325485  50.5502415  76.2274550  52.4831014   0.7497518
  77.1032546  52.2448831   0.4456775  75.7897256  52.8290181  -0.0280412
  44.5475292  56.9009781  60.9952116  43.7102222  56.4484787  60.8932829
  45.0819492  56.3014364  61.5159559  34.3454671  63.7067366  62.8889132
  34.9850965  63.3238029  62.2885227  34.4777513  64.6513939  62.8091860
   5.5155993  57.6055098  40.2017021   5.8649200  56.7198849  40.3010654
   5.5518430  57.7730179  39.2599678  40.0803179  26.0880570  13.4889524
  40.8191532  25.8872275  14.0634267  39.9862951  25.3103404  12.9389112
  10.2647073   9.1219719  35.1397562  11.0133989   8.9150437  34.5804048
  10.3701837   8.5521515  35.9016037  49.5808882   2.3670201   1.8785588
  48.6409611   2.5472503   1.8956344  49.6868366   1.5948730   2.4342458
  42.3201841  27.4787240   9.2211358  41.3729757  27.5145154   9.0879170
  42.5435490  28.3357863   9.5841567  67.7260135  46.5714936   5.9379355
  66.9572626  46.0853868   6.2361829  67.4693178  47.4910836   6.0064284
  22.0783615  69.1874838  46.5911674  22.9974484  68.9970112  46.4034653
  21.6244817  69.0136433  45.7665443  45.5283541  38.5125070  12.5966279
  46.2928575  38.6994700  12.0518271  45.0957340  37.7794509  12.1587913
  78.3167493  12.3620136  55.9583330  78.4055316  11.4382466  56.1928606
  79.2037951  12.6364048  55.7257605  78.3553670  38.2515340  34.9590890
  79.0198515  38.8784270  34.6732537  78.3661865  37.5685935  34.2884843
   2.5458820  77.1819016  10.3525559   2.4024970  77.8094241  11.0609977
   2.4360711  76.3253400  10.7654445  43.8314629  68.8721132  36.2327528
  43.1299400  69.3038940  35.7452488  43.8627195  67.9856682  35.8729339
  56.5892410  64.4947720  52.7199268  56.1829615  64.6660662  51.8703175
  57.3631954  63.9705515  52.5139761  80.7391690  23.3762651   2.4423997
  80.9234856  22.8785186   3.2389609  80.6696700  24.2840486   2.7379148
  76.6760872  37.0366149   6.7047946  75.7712005  37.1097522   6.4013783
  76.6048740  36.9717555   7.6571385   7.4098057  24.3123965   0.9812943
   7.4627084  24.6700196   1.8676059   7.3973268  25.0823216   0.4127090
  58.4873581  52.1053314  62.4085665  58.7139130  52.0759296  61.4790297
  57.7442503  51.5079212  62.4929857  43.9256090  27.8290801  17.8959958
  43.6974472  28.2706075  17.0779340  44.4862884  28.4532456  18.3567445
  13.8668865  40.3949742  21.7004983  13.6003107  41.0815911  22.3118226
  13.6590237  39.5774941  22.1529881   3.6226982  55.3541093  12.2941606
   3.1956548  55.9990411  12.8580110   4.0818280  54.7727017  12.9002969
  48.7150192  43.3178759  60.5285311  49.3777752  43.9744425  60.7427931
  47.9695606  43.5390091  61.0867643  45.2496529  71.9428349  57.7994251
  45.5801392  72.4122334  57.0334768  44.8378468  71.1572218  57.4396086
  49.2267513  64.7746277  59.4145393  49.6319103  65.6341219  59.2990160
  49.8824501  64.1556311  59.0933895  24.0178919  57.9454708  31.9434428
  23.4670591  58.1317329  31.1831021  24.2702031  58.8078356  32.2734380
  40.4184526  44.1351323   9.5728795  40.6165260  44.1998868  10.5071179
  40.8724827  44.8803811   9.1795651  68.6251388  23.4696679  10.5473105
  67.8993271  22.8457408  10.5595176  68.4287308  24.0512280   9.8128430
  46.4080143  73.9934206  56.2186432  45.5744362  74.4185972  56.0171413
  46.9421148  74.1305208  55.4362297  41.8383545  43.6691957  27.4527661
  41.2504190  44.4125562  27.3187177  41.3035864  43.0203061  27.9101483
   4.9389905  35.7592111   3.6380498   4.3368119  35.0197940   3.7209909
   4.4701404  36.4952140   4.0313832  13.9681810  47.3049741  26.7141072
  14.2441362  47.8089337  27.4796788  14.5456976  47.6020341  26.0109250
  69.4174134  18.8296517  28.3931804  69.3487965  17.9481610  28.7599373
  68.8773381  19.3712338  28.9687133  52.2084326  40.5502658  10.9538190
  52.2776884  41.4071279  10.5328290  51.8852323  39.9701362  10.2644603
  42.5432002   1.0633047  28.6494827  43.3282923   1.5614517  28.8768840
  42.6748978   0.8129605  27.7350354  23.3194250  20.2719693  32.9525487
  23.8598579  20.2026610  32.1655576  22.5072569  19.8188643  32.7260415
  46.1106962  29.5620637  10.8118455  46.1965364  30.4718452  10.5269496
  45.9292120  29.0754132  10.0078122  40.6455647  22.4816139  47.7392340
  39.8270916  22.2120770  47.3224831  40.7331430  21.8993672  48.4939241
  65.8127378  25.9290700  15.9242742  65.4168461  25.1142507  16.2334172
  66.1145435  26.3659530  16.7206971  64.9367619  64.1723919  63.0484629
  64.5867538  63.3944750  62.6142216  64.1626644  64.6420813  63.3589458
  39.9512529  60.0030708  24.0291882  39.1290832  60.4889965  24.0935540
  40.5796576  60.5289793  24.5239162  61.0287546  58.1198506   9.2884080
  61.6973536  57.5025086   8.9915959  61.5246503  58.8589482   9.6406190
  80.7187627   5.2517085  19.8167340  81.4814161   5.6006961  20.2780358
  80.8118843   5.5755429  18.9208047  17.7305228   7.3200520  48.6737585
  16.8382318   7.5954254  48.4634829  18.2645662   7.6754769  47.9633331
  15.3415960   6.9887214   6.9627444  15.3711075   6.1010127   6.6059081
  15.7623285   6.9165807   7.8194873  26.6696930  64.4927740  59.6316385
  26.8617678  63.6162281  59.9648142  26.0777092  64.8716068  60.2814674
   4.0978712  28.9562469   2.1639077   3.6818546  28.7593751   3.0031983
   4.9082011  29.4085317   2.3985021  68.0710220  28.3513212  56.5341663
  67.3774147  28.7857509  56.0377693  68.7908411  28.9822149  56.5423632
   4.6255916  45.1389031   6.8445031   5.4384917  44.6868329   7.0704476
   4.6996802  45.3100209   5.9056394  42.5263213  39.4464215  63.0881166
  42.4444126  38.7519367  63.7417364  42.2700428  39.0315541  62.2644424
  33.0435318   9.8692565   6.2121932  33.5582680   9.0623193   6.2006871
  32.1867174   9.6020703   6.5449302  52.9154788  20.9378963  19.3485086
  52.2807924  20.8544879  18.6368577  52.6958139  20.2263932  19.9499623
  75.9330117  28.3851727  31.4884067  76.4952122  28.8591679  30.8756423
  76.5363490  28.0290325  32.1406150   6.1121720  40.9831004  10.5011479
   6.3073462  41.6925721  11.1133496   6.9574970  40.7671599  10.1074140
  17.6004941  15.0298222  56.2816286  18.3274467  15.4770859  55.8483553
  17.7115686  14.1086872  56.0462523  78.2456540  56.8527322  20.4181973
  77.3518918  57.0060449  20.1117341  78.5360597  56.0804181  19.9329869
  16.2967056  46.1127954  51.7656438  16.4281839  46.2466245  50.8270089
  17.1788353  46.1347299  52.1365850  45.3407764  54.4389200  38.2115245
  46.0540819  54.9079752  38.6444330  44.9896479  55.0668478  37.5801420
  60.7057082  18.2437905  56.5401840  59.7568571  18.3373554  56.4555550
  60.9187757  18.6937245  57.3577404  67.1779536  22.8096681  23.0059258
  68.0746506  23.0390458  22.7618997  67.2005485  21.8618255  23.1374948
  18.5214956  14.0787228  44.5738888  18.3389814  14.3546780  45.4720879
  18.4540755  14.8822315  44.0580797  60.5022632   3.1633766  40.1719332
  59.7722565   3.3222874  39.5735455  60.4557668   3.8819321  40.8026123
  22.0592546  54.5731974  66.8169308  22.1263885  55.4861784  67.0965528
  21.8265224  54.6231508  65.8898020  55.0588083  56.5420866  30.1481032
  54.6426439  57.3370266  30.4814291  55.8394003  56.8542433  29.6904302
  33.4782791  55.4199982  47.0446491  34.0499735  55.5746174  46.2926579
  33.6060691  56.1860418  47.6041842  27.7570891  67.2642994  47.8574181
  28.2708359  68.0522490  47.6801348  27.3453045  67.0532942  47.0194817
  57.3993431   8.2204156  19.7655599  58.0473481   7.5389104  19.5870225
  56.7265426   7.7808719  20.2855317  60.7943521  48.9367108  14.3274610
  60.7202737  49.8850827  14.2209546  59.8992549  48.6443620  14.4994084
   1.3294227  23.4761437  45.9094143   2.2294433  23.3748539  46.2191486
   1.3642080  24.2237194  45.3126240  53.5756636  76.0293150  55.8862400
  53.5397387  75.1938581  56.3520145  53.3753252  76.6848326  56.5543652
  25.6810039  30.4582839  19.3142430  25.6282324  31.3666110  19.0169351
  25.1740402  29.9652820  18.6691205  35.8226831   4.4400318  63.1531525
  36.1937387   3.6295231  63.5018969  36.0606057   4.4328984  62.2260237
  75.7406365  19.2289932  39.0249944  76.4257514  19.8856934  38.9001107
  76.1678492  18.3961209  38.8248682  54.7823226  11.9403752  43.3919907
  54.7700917  12.4720295  44.1878700  54.2511665  12.4332340  42.7665377
  74.2306423  59.0378952  51.4798880  73.3473396  58.9310741  51.8328619
  74.2503405  58.4717321  50.7083273  61.4361477  56.8773937  64.1290569
  60.8916378  57.2085905  63.4148788  62.2244692  57.4195766  64.1004658
  16.9386858  73.5631757   4.8694865  17.8572935  73.7553029   5.0578420
  16.6123051  74.3530278   4.4383876   6.0727757  55.7818418  24.9205987
   5.8820337  55.1462369  24.2307775   6.5733999  56.4692216  24.4811456
  37.5958593   9.6447571  48.6150742  37.8509576  10.3758724  48.0523825
  37.0709665   9.0787228  48.0490923  62.1046650   2.2086104  47.8478193
  62.0764815   1.5797194  47.1267509  62.5910937   2.9543312  47.4963617
  33.5265726  15.7186942  32.1419160  33.7571615  15.3295426  32.9854886
  34.0290541  15.2159171  31.5008561  54.4947731  76.7866370   2.4485080
  53.9987694  76.2095353   1.8678491  55.3116285  76.9545934   1.9786469
  73.4848595  49.7589254   6.6003436  73.6709690  50.5546522   7.0987517
  74.0693903  49.0997267   6.9745272  15.4719156  31.9376950  19.2328183
  15.0388760  31.4022450  19.8976533  16.3893122  31.6667180  19.2672841
  76.6990398  36.9346767   9.4321410  76.9833516  36.0780196   9.7507827
  75.8013009  37.0233970   9.7521798  45.8129692  61.7773724  35.8021402
  46.5648174  62.0536995  36.3261604  45.4202938  61.0634565  36.3044977
  30.6476712  67.6723194  58.7631464  30.7872725  67.0842600  59.5053959
  31.4424348  67.5863266  58.2366610  69.7930609  63.6437993   1.8019025
  69.8902069  62.7695088   2.1792810  70.5872486  64.1082768   2.0660226
  41.8059240  29.6053271   4.7439305  41.2227176  29.0072589   5.2112786
  42.1336935  29.0920024   4.0054862  11.4281339  22.0321803  58.4616963
  10.8615536  22.0669847  59.2324178  11.5697163  21.0976605  58.3105104
  58.6528837   0.1386841  65.9799814  58.9647495   0.9727247  66.3311863
  58.1206643   0.3817995  65.2224398  54.0345669  52.7258062  29.3128061
  54.1878128  53.5128832  28.7900710  53.1651831  52.4268198  29.0463352
  17.3370880  24.2981868   2.7944152  18.0764192  24.9039702   2.8458516
  17.0550388  24.3415408   1.8807427   3.8550396  52.3411512  64.1207361
   4.7508641  52.1116495  63.8736343   3.6552926  51.7655420  64.8589802
  72.7390038   1.1041315  62.1902943  73.1372582   1.9477185  61.9758558
  73.3367907   0.7119330  62.8267384  27.9280800   7.4968629  16.7145268
  28.4353250   7.6884894  15.9257237  27.5362772   8.3358579  16.9570367
   1.0592598  47.2649961  33.1099622   0.1965541  46.8552308  33.0462091
   1.5552801  46.6895776  33.6922757  10.4006666  35.7864718  31.3118379
  11.1483401  35.2236609  31.5129773  10.5230469  36.0283093  30.3938119
  14.0037067  71.9924542  27.3320214  14.0999992  71.7735383  28.2588689
  14.5087678  72.7981517  27.2225015  27.0914024   9.0290504   6.4486854
  26.6474718   9.5998006   5.8214681  26.7063230   8.1653028   6.3007657
  41.6295087  27.1276482  62.9367065  42.2012161  27.1982010  62.1722412
  40.7448947  27.2236737  62.5839043  80.0029109  17.3857884  35.4747884
  80.8148359  17.1855216  35.0090615  79.7495364  18.2510381  35.1532666
   0.7972820  16.8557652  40.5810261   1.4870031  16.8375691  39.9175644
   0.8502013  15.9992607  41.0050821  25.2087587  39.4231229   7.3873870
  24.4961208  38.8138061   7.5800340  25.7052082  39.4769435   8.2040088
  67.2200499  40.7090144   6.1935298  66.5441214  40.6911998   6.8710534
  66.9031797  40.1037412   5.5231063  34.7616005  38.3276558  60.8630562
  35.6875777  38.5653615  60.9109688  34.3531609  38.8092446  61.5824175
  29.9703973  10.5488880  31.1595917  30.1956972  11.3169487  30.6346464
  29.6669554  10.9089859  31.9929481   9.0576238  58.2855325   2.6838176
   9.1535777  57.4976163   3.2188098   8.5944814  57.9883103   1.9006221
  20.2116722  41.8545442  16.7682664  20.0720400  41.6820817  15.8371465
  20.6358189  42.7123170  16.7920033  37.4616932   6.2553986  43.3535862
  36.5246551   6.2528618  43.1581736  37.5938391   5.4828842  43.9031363
  26.9113898  68.4031725  63.1505871  27.0560384  69.2364836  63.5987997
  26.7859364  68.6435843  62.2326040  54.4106399   8.0128105  59.9177027
  53.5382497   8.3916577  59.8098278  54.7971617   8.5041149  60.6425810
  25.7474131   5.1141934  27.3096387  25.9376806   5.1702981  28.2460610
  25.8848757   4.1922240  27.0921151  68.2833242  76.0669756  31.4632869
  67.7295828  75.8119822  30.7253337  68.5537767  75.2377367  31.8575573
  34.0698952  20.7398324  41.4804666  33.4087938  20.5542569  42.1473519
  34.7981495  20.1574378  41.6965596  80.8530281  51.4319615  11.7868773
  81.2861393  51.0052018  11.0476081  81.5436195  51.9466977  12.2044436
  77.1718191  33.6729722   9.3884532  78.0999397  33.6390309   9.6201293
  76.7709635  32.9716878   9.9020164  44.4370651  64.0603828  60.7778692
  44.2237806  63.1417036  60.6142473  43.8323689  64.3269873  61.4703274
  62.2314750  17.8543671  35.1760077  61.9603335  16.9754036  34.9111533
  62.9243314  17.7074345  35.8198977  14.2972702  52.1613603  41.2373368
  13.5526365  51.6421990  41.5410249  15.0147909  51.5318780  41.1656301
  47.1933543   6.2183102  28.3063817  47.4703800   5.3514870  28.0095530
  46.3543510   6.0657700  28.7411666  62.5927078  23.5457237  44.0390921
  62.3775446  23.3375748  44.9482727  62.7199685  22.6936348  43.6219740
  76.4920948  42.2838597  17.9081456  77.1552800  42.7415948  18.4247701
  76.3193701  42.8672700  17.1692006  13.5977197  65.0203180  66.4624262
  12.8466320  64.5758915  66.0692549  14.3171847  64.8606491  65.8516026
  74.7584569  13.5347279  42.0335102  74.4110715  13.4048660  41.1510754
  74.5481002  14.4449146  42.2421741  14.7758205  65.4994866   1.6419332
  15.6382520  65.8143517   1.9126718  14.5318229  66.0678431   0.9114043
  65.8586471  67.4811172  21.1516762  66.4762048  66.7582130  21.0409403
  66.0596292  68.0800962  20.4326081  48.3568894   4.0848168  46.1784077
  47.5255644   3.9175804  45.7343769  48.6077177   4.9637230  45.8940887
  62.9071461   4.8493489  21.0628295  62.1369564   4.5001991  20.6143522
  62.6820385   4.8086651  21.9922948  48.2212210  51.6329908  40.7130051
  48.8441133  51.3438034  41.3797903  47.3619509  51.4890862  41.1094666
  56.5728083  55.5348020  40.8224790  57.0701770  54.8466878  41.2644593
  57.1960948  56.2543778  40.7226674   0.7719630  33.3812718  32.2863214
   0.0080770  33.6954932  32.7700345   1.1303896  32.6818471  32.8327386
  10.9107298  25.2249866  38.6811082  11.1394209  26.1430364  38.8264195
  11.0126656  24.8139911  39.5395486  73.9892995  76.1826894   7.8101079
  73.9279114  76.2995240   6.8620507  73.5035025  75.3764698   7.9840295
  69.4434357  20.6033158  58.9020824  69.6363020  20.1386285  58.0877733
  70.1939011  21.1834788  59.0302944  22.9512066  30.3813891   2.1616666
  22.2043413  30.9115272   1.8834989  23.4896749  30.9794717   2.6799171
  70.2282476  69.5937538  56.6767836  71.1555624  69.5974016  56.9140768
  69.9472809  70.5011654  56.7946625  52.5587559  48.6077881  56.2609482
  53.2957697  47.9970169  56.2584352  51.9844675  48.2930326  55.5628395
  62.7241646  76.2570068  25.3581254  63.3763301  76.2446520  26.0586659
  62.4298345  75.3488204  25.2888505  73.5092246  72.0658061  35.2215879
  73.0173384  72.6177117  35.8296029  73.0840956  71.2100145  35.2774159
  81.7812478  22.4508866  38.9900541  81.1292636  22.2964104  39.6736383
  81.5195786  21.8717869  38.2742333  65.2488041  39.7452426  20.4930544
  65.8435917  39.0073180  20.6269431  65.6952953  40.4891634  20.8973551
  79.3494557  62.6287465  13.6378686  78.4870051  62.2450643  13.7965982
  79.9660514  61.9831185  13.9831273  17.9807943  20.9434133  14.6334474
  18.1630176  20.0791411  14.2645757  17.3351520  20.7792001  15.3207700
  43.9782333  34.0393567  63.8452864  43.6997414  34.7001934  63.2112789
  43.4674692  34.2316294  64.6316624  63.3578454  21.9105296   3.9384334
  64.1255616  22.4446778   4.1422145  62.7032308  22.1756988   4.5844953
  11.5670890  32.7605443  18.4746377  10.7649344  33.1638055  18.8065450
  11.7728299  32.0766883  19.1120164  20.5133909  37.9076819  20.0411908
  20.2642006  38.5178046  19.3470113  19.7099203  37.7766089  20.5446736
  15.5785138  44.7548493  55.1944351  15.1165874  44.9901970  55.9990883
  14.9121673  44.8136910  54.5097780  35.6246656  56.1130433  11.6256635
  36.1398119  55.7536130  10.9033982  35.0964111  56.8024259  11.2232511
   7.4955423  11.7369564  61.0312271   7.1461017  10.9128006  60.6922817
   8.1232412  12.0220860  60.3671980  53.9023066  76.9235563  48.8921404
  53.6133194  76.2284422  48.3009291  53.3097458  76.8624783  49.6413851
  23.0966711  56.0188341  40.5548811  22.9144049  55.1149559  40.2979469
  23.0969858  56.5065336  39.7312403  10.3034742  19.3615730  50.6995535
  10.4535110  18.9390381  49.8538685  10.3792007  20.2979954  50.5162144
  56.2510777  62.0809364  63.3375835  55.5262375  62.6489258  63.0763865
  56.2488127  62.1143103  64.2941999  61.0617161  72.9054213  51.7360306
  60.9677935  72.6400375  50.8211660  61.3554764  73.8153887  51.6925049
  37.0694250  70.2583509  18.7051599  37.4830955  71.1106305  18.8419644
  36.6439432  70.0618939  19.5397870  80.4649579  25.4202946  63.3987665
  79.7227465  25.1823815  62.8431129  80.4853999  26.3769730  63.3744383
  65.1300984   1.8316568  25.4147641  64.6650820   1.2872995  24.7794168
  66.0476475   1.7818559  25.1467053  27.0264810  55.1999097  19.7349565
  26.4001030  55.0137429  19.0355126  27.8126949  55.4999356  19.2787950
  46.7570399  67.8877112  19.5963208  46.3564061  68.2974335  20.3630368
  46.2829327  68.2579157  18.8517396  16.2952179  59.7584634  18.2844274
  16.6205591  60.6021886  18.5982720  16.7414659  59.6257691  17.4480741
   0.3954858  24.7304397   9.9552457   0.5757493  25.1021867   9.0917985
  -0.0290972  25.4398923  10.4375712  19.5727594   3.3231457  61.9369364
  19.6658141   3.4314640  60.9904480  18.7622983   3.7846668  62.1522951
  26.1143930  25.9998139  64.6504068  26.6209275  26.2011059  65.4372549
  26.6374452  25.3433808  64.1902494  12.7617760  45.8467674  60.6153297
  12.9666539  44.9382210  60.3944206  11.9435616  45.7944822  61.1093187
  25.4811287  60.3862429  36.5457368  25.2749920  59.5673466  36.0950208
  25.9394884  60.9117413  35.8899975   1.6176040   3.9531143  35.5561781
   1.7330224   4.7827538  35.0929284   0.6687505   3.8405522  35.6130767
  13.9514024   7.5493820  37.7432847  14.8517854   7.7266129  37.4710083
  13.5310228   7.1907337  36.9616961  23.9754325   4.4344724  10.0077168
  23.8052087   4.0976060   9.1280715  23.2603198   5.0493730  10.1712482
  18.6499524   9.7209394  43.6397648  19.4478631  10.2473402  43.6895084
  18.7056863   9.2810947  42.7914381  63.9333879  15.0349566  26.0205380
  63.2093894  14.5782778  25.5921666  63.6723458  15.0884315  26.9398992
  50.5051279   7.5166172  30.0508118  50.2272558   7.4388248  29.1381407
  49.7240067   7.8191066  30.5140448   3.3550689  22.7226114  40.5528259
   3.7094957  21.8389893  40.4536963   2.7046341  22.6428962  41.2505484
   2.3925400  56.1843204  31.0206246   1.9130129  55.7253838  31.7103100
   2.4647802  55.5442905  30.3125453  30.6832671  66.0207928   6.8223826
  30.8541346  66.9299353   6.5764205  29.7287321  65.9562768   6.8528955
  49.9237585  11.9320071  42.3664570  49.2683172  11.9569492  41.6693163
  49.6081209  12.5617027  43.0146027  42.1946859  23.0139598  16.9181077
  41.3773774  22.5389907  17.0685880  42.5918674  23.0881032  17.7858560
  47.4476861  73.6957295  53.2943630  47.9391914  72.8767107  53.2322168
  46.7736744  73.6224363  52.6186657  12.6368928   1.6103749  66.1246490
  11.7418742   1.6990198  66.4522362  12.7483332   0.6701924  65.9836864
  58.9516096  10.0012982  45.3484678  58.4160904  10.7804179  45.4982138
  59.2032222  10.0571656  44.4266176  80.5898949  34.6916413  33.5223484
  80.6814587  34.6783113  34.4750643  79.9029223  34.0508604  33.3387685
  50.7736217  63.2478401  16.9663541  50.8007013  64.1997525  17.0631234
  50.3200542  63.1043383  16.1357419  56.1190664  39.3580834   3.9349095
  56.6926252  40.0182125   4.3241279  56.7161309  38.6868159   3.6045329
  54.4880687  63.9340469   6.7604892  54.2850935  64.7537896   7.2111051
  55.3763091  64.0581557   6.4260404  33.7420321  11.4288938  60.7343197
  33.6025858  11.1913502  61.6510344  33.9780641  12.3561692  60.7604170
   3.8054092  48.8317868   8.5658614   3.2764919  48.4502795   9.2665307
   3.7302596  48.2090273   7.8428428  11.7127693  50.1943509  55.6581163
  12.3102058  50.9343592  55.7662344  10.8598650  50.5969874  55.4948092
  13.3130277  56.3890330  51.3015556  14.1539491  56.8085591  51.4834309
  13.4990371  55.7792513  50.5875540  59.5583319  76.5000938  41.6821718
  59.7227143  75.7403729  41.1235714  59.2156898  76.1296613  42.4955654
  43.0755257  67.0725366   1.0651032  42.4863922  66.3187668   1.0337178
  43.9380919  66.6953179   1.2380712   6.7269289  22.0031309  62.1194124
   6.3742632  22.8858542  62.0068979   6.5154094  21.7742682  63.0244637
  51.0242178  72.9010395  56.4628744  50.4825585  73.6299802  56.1604118
  51.8546354  73.3068634  56.7117643  11.3740909  33.9164162  45.9461737
  11.1940396  33.0283403  46.2546110  10.6465149  34.4391489  46.2832451
   5.4602104  77.2494448   0.8078258   6.0531843  77.6441992   1.4471881
   6.0244960  76.6967286   0.2671592  29.7803140  31.8069172  28.3464742
  29.2920732  32.5222325  28.7541246  29.6035242  31.8992662  27.4102855
   0.8889005  38.4887981  59.8255301   0.2237506  39.1770649  59.8156118
   1.4568307  38.7151694  60.5620384  62.7897708  17.3567891   5.0830418
  63.6790363  17.0163751   4.9852806  62.7306168  18.0611098   4.4375458
  35.8598267  29.6128032  17.2084157  35.4977142  28.9573547  16.6121881
  36.4874893  30.1007453  16.6753308  11.7162550  65.8363489  44.4707012
  12.4789394  65.6002931  44.9987364  12.0095599  65.7307808  43.5656834
  63.7757843  16.8963234  41.3680410  63.1395178  17.2684566  40.7573700
  64.4972449  17.5253526  41.3750839  34.0519433  37.9129989  23.3185021
  33.3701687  38.5847440  23.3053414  34.1969954  37.7371377  24.2481629
   3.8474467  20.7826400  36.6937160   3.2818350  21.3891029  37.1717525
   4.6857584  21.2396979  36.6261673   8.9170540  42.2244350  18.6286485
   9.6437062  42.4222128  19.2194903   9.2107762  41.4581816  18.1358862
  74.1899989   6.0321242  22.4987912  75.0554119   5.6371742  22.6051259
  73.9535634   5.8496749  21.5893722   5.7640094   1.2926854  34.6369100
   4.9968770   0.7441076  34.4731975   5.7851082   1.9014522  33.8985395
  48.8427929   2.2292553  20.0289583  48.2083158   2.0521028  20.7234287
  49.1105322   3.1365871  20.1748967  30.3405142  28.3004022   9.3930387
  29.4684577  27.9703903   9.1766059  30.9394908  27.7217412   8.9212209
  28.3196786  28.8611497  60.6879176  28.2594976  28.1278641  61.3002105
  27.4101714  29.0729762  60.4777797  26.0255504  17.2190988  59.0138960
  25.4850864  16.4530456  59.2070103  25.4703712  17.7712727  58.4633398
  44.2909145   8.4661353  33.8726830  43.8040590   8.7241727  34.6553826
  44.2910242   9.2489088  33.3217788  53.3263241  45.6025425   5.0320022
  53.9050447  44.8638913   5.2209727  53.2135998  46.0404381   5.8756701
  22.8118420  20.2375245  39.5570731  23.3671260  21.0163879  39.5925999
  21.9560266  20.5394340  39.8614812  63.5532962  21.0889869  20.2347867
  64.1892843  21.7374854  20.5367867  62.7119081  21.4091496  20.5600469
  79.4151156  71.2127487  56.2291956  79.8594635  71.1151962  57.0713758
  78.7704819  71.9046764  56.3772392   1.9751538  71.4227084  46.0246086
   2.3782075  71.9210772  46.7355299   2.5290716  70.6476472  45.9314108
  30.7937241  35.6474876  44.5930767  30.8910775  36.3738632  43.9773369
  29.8925996  35.7194090  44.9077797   3.1146825  64.2050294  27.3488474
   2.8030957  64.6743409  26.5749669   2.6223362  63.3841674  27.3455262
  80.6185610  74.9237956   1.2534635  79.7559528  75.3380717   1.2761466
  80.5661061  74.3008603   0.5285947  44.4472075  18.5970330  19.7624958
  44.9645042  18.6138964  18.9572942  44.8946810  19.2083991  20.3475022
  65.6756269  31.7967907   1.1774318  66.0876404  31.2958381   1.8813626
  65.3012835  31.1328706   0.5983703  13.4309936  10.2046287  37.3870134
  12.4918413  10.3070629  37.5410652  13.6305344   9.3228883  37.7015758
  57.9324810   2.3042922  10.8854930  58.5881247   2.6334624  10.2706687
  57.8812613   1.3663249  10.7015817  12.1658576  40.5949354  29.4151044
  11.6344213  41.2801790  29.8203754  12.0117879  39.8207068  29.9564600
  67.0687500  48.0285010  24.1116921  67.6242176  47.5703815  23.4809701
  66.7940203  48.8238952  23.6555116  17.4989093  62.3600249  64.4959164
  17.0617021  61.8573694  65.1832485  16.7838825  62.7381281  63.9840555
  19.6567500  61.5503423  55.3173113  19.5987809  62.1216206  56.0831547
  20.1981796  62.0370631  54.6958685  52.1699762  44.8053026  57.1223307
  53.0125189  45.0026131  57.5314999  52.0622253  43.8613796  57.2390842
  80.8705561  76.7430062  44.2100573  80.5349653  77.4760733  43.6940908
  81.5415423  76.3463764  43.6544561  53.8608920  55.3810868   3.6827485
  53.4894478  54.6223709   4.1328733  53.7884819  56.0947236   4.3165557
  72.6588362  70.0718967  57.9403448  73.2153385  70.5303482  57.3107767
  73.2729297  69.6083216  58.5097456   7.4494225  12.0669436  30.8389401
   7.1715635  12.9671121  31.0084224   8.3714020  12.0485365  31.0955453
  65.3053271  32.8342232  14.4516103  65.7983314  32.8856996  15.2704732
  65.6231605  32.0355567  14.0304868  42.7001143  22.7182984  59.3644810
  43.3427954  22.2467184  58.8345766  42.8592110  22.4163675  60.2587748
  36.5339494  15.4628515  53.7524128  35.7737088  15.0847256  54.1943264
  36.2872910  16.3730049  53.5880613  39.3896734  35.4409993   8.0283086
  40.0479244  36.1336368   8.0847947  39.6835553  34.8898616   7.3029725
  62.0767860   9.6313375   3.5204470  62.4907760   9.9524724   4.3215191
  61.6398553  10.3992712   3.1522080  27.3150468  28.4607816  49.4138765
  28.0030179  29.0586090  49.7063303  27.5732780  28.2146430  48.5256386
  22.7998114   8.0974364  59.1907310  23.1069374   7.5022548  58.5068703
  22.9173946   8.9713067  58.8182306  48.8190591  47.8957251   8.7334506
  49.4531762  47.3000291   8.3343617  49.0033852  47.8483245   9.6715371
  13.6467779  15.2524817  50.9969759  13.4365892  16.0500300  51.4827442
  13.4350550  14.5410895  51.6014004  53.2557560  69.4460438  32.8368568
  52.4915954  69.7719203  32.3613620  53.9288572  70.1112692  32.6931834
  49.5065057  21.4507410   9.1761891  48.7198888  21.9956788   9.1987435
  49.2203962  20.6339619   8.7672297  26.4923596  15.8874905  39.4600940
  26.9956255  16.6898942  39.5983076  26.2070489  15.9378636  38.5477948
  42.3631001  12.6779115  26.2743831  41.8311548  11.8843424  26.3336444
  41.7773914  13.3308029  25.8910990  41.0355711  14.5528889  65.6019497
  40.5967522  15.1163828  66.2392473  40.5085421  13.7540114  65.5856800
  57.9102411  57.5288157   1.9507219  58.6026361  57.3044721   2.5724056
  57.2848927  56.8072621   2.0180413  26.1299467   6.1675376  46.3421011
  25.9022141   5.2950299  46.0210085  26.9601512   6.0442460  46.8023109
  31.5068889  34.4848609  54.6515751  31.7280865  33.9083672  55.3829861
  30.7409453  34.0766048  54.2479801  37.8864813  22.6717234  41.9490147
  38.8073277  22.5797963  42.1935987  37.4031734  22.4035859  42.7305222
  33.2610440  27.3195362  62.4117279  32.7308965  27.9467154  62.9034853
  33.1435299  26.4907074  62.8759098  12.0022249  22.9872632  37.3503160
  11.5664673  23.8388324  37.3160386  11.3622808  22.4071813  37.7628756
  64.2795812  44.0955999  27.0377652  64.1395485  43.2622993  26.5880601
  63.4069025  44.3605187  27.3284165  36.6839021  75.5023453   2.9508893
  37.3537373  75.1870939   3.5576598  36.1056929  74.7506878   2.8208320
  60.0571792  55.0761430  52.4398613  60.4799669  55.1231615  53.2973433
  60.7711070  55.1971785  51.8138504  40.4492426  13.0602729  37.4678135
  39.7375154  12.9878497  38.1037617  41.1945772  13.3777690  37.9776192
   5.4795373  63.7229411  32.2533321   4.5333589  63.7714915  32.1168804
   5.7940782  63.1546668  31.5502238  65.5940931  34.5227949  55.2568483
  65.3673225  35.3718702  54.8775387  65.9872775  34.7358696  56.1031580
  52.9883305  68.3678846  22.1843147  52.3995215  67.7312772  21.7790151
  52.8900311  69.1575835  21.6523886  35.3987945  59.0240006  54.4639492
  35.7205642  59.7714667  54.9679232  34.6264137  59.3575696  54.0074492
  37.3889028  57.8547487  22.3621003  36.6832482  57.2595641  22.6151483
  37.5931548  58.3381399  23.1626241  29.7953809  64.9455206  64.1910267
  29.1848386  65.3664104  63.5857821  30.4743112  65.6031088  64.3422365
  31.1820269  27.8996682  50.5236340  32.1383905  27.8970909  50.4836607
  30.9310794  27.0002675  50.3130770  31.6240096  19.3733597  42.7377892
  30.9588933  19.5998037  43.3878469  31.5818429  18.4191954  42.6743507
   3.7099266   8.3398539  45.0391626   4.0470949   8.9176428  45.7237864
   3.1234750   8.8946658  44.5248795  75.3111581   6.0559160  59.9361849
  76.1449568   5.7478994  59.5810270  74.7505782   6.1679810  59.1684437
  48.0780327  30.9610864   8.2971112  48.5684025  31.4028916   8.9903466
  47.3741161  31.5707865   8.0757586  76.7336057   1.6773601  41.0411882
  76.5763430   2.5463325  40.6718826  77.0024513   1.8459795  41.9442511
  36.8908453   9.6080881  63.1715727  36.1869335   9.9085957  63.7464094
  36.4400458   9.1696656  62.4499130  40.6644372  47.7808905  12.8096163
  41.4272670  47.5524473  13.3407748  40.8899908  48.6240911  12.4167144
   1.2404478  62.3143296  26.3155437   1.6096557  61.6753856  25.7058978
   0.5120529  61.8542449  26.7326713  22.9986966  62.7877156  21.4352584
  22.5832856  61.9998709  21.0845971  23.9358104  62.5937311  21.4147282
   4.3009365  74.0440856  62.3704338   3.6341012  73.3857841  62.5658846
   4.1760433  74.7174207  63.0392027  49.6757542  30.2188834   4.0649669
  49.8184859  30.9591427   4.6547763  49.0429007  29.6660200   4.5233027
  59.6527921  76.7589231  51.9129419  59.1147505  77.3842865  52.3983955
  59.7391205  77.1436660  51.0407305  45.9002375  57.5151226   9.3931119
  45.8111083  58.2634303   9.9832980  45.0025641  57.2160658   9.2482726
  39.8305559  16.1663139  46.1455345  40.1748991  16.1529756  45.2525139
  39.9491119  17.0711327  46.4344597  55.9705289  75.2736131  33.8158751
  55.5947436  74.4854579  34.2080855  56.7990654  75.3996005  34.2783546
  18.1997454  50.8124208  14.3332195  17.3973906  50.8972740  13.8181853
  18.0203700  51.2987471  15.1379204  63.7710594   9.6559005   1.1501042
  63.3880357   9.5502191   2.0209424  63.6554675   8.8024287   0.7324235
  16.6418898   1.8203843  41.0896492  17.4746168   2.1789850  41.3965797
  16.3696539   1.2195578  41.7832851  72.1739899  46.9810072   3.3173244
  72.2738206  46.1051103   2.9444043  71.2275969  47.1202615   3.3516662
  81.1916998   6.0400355  60.3214979  81.7084869   5.2422845  60.4344463
  81.6918980   6.7161590  60.7785463  36.1133766  30.8829236  25.0771880
  36.5140605  31.0369492  24.2216420  35.9615231  31.7589664  25.4317570
  57.8186237  57.7135560   6.0475699  58.4400880  58.2570168   6.5319936
  57.1619140  57.4633726   6.6974704  12.0098782  32.1191740  24.4796395
  12.7931094  31.8376064  24.9523997  11.8545270  33.0131316  24.7844982
  17.3489881  24.0268731  22.9578876  17.0728874  23.5445786  23.7372398
  18.3042061  24.0485406  23.0155325  55.4926062  24.6228695  13.2156849
  54.9079514  23.9442492  12.8782189  55.2019787  24.7629428  14.1168773
   3.7086985  17.3754489  62.3918486   3.8244626  17.6474571  63.3022547
   3.4306225  18.1708646  61.9377327  64.0206121   5.9305100  35.9191529
  63.5132347   5.1194100  35.9494607  64.9142872   5.6469302  35.7263867
  54.9322939  34.0015554  65.2816153  54.9706841  33.0451488  65.2750349
  53.9968014  34.2038083  65.2682924   2.5621137   3.5457733  47.9706144
   2.5838503   4.2159235  47.2874880   2.3514938   2.7362141  47.5053358
  36.8712711  16.6933131  50.9667444  36.4509106  15.8350480  50.9127998
  37.3107696  16.7982149  50.1229048  48.0024397  28.5550865   5.8745734
  47.1842217  28.0593213   5.9056775  48.4335648  28.3581600   6.7061917
  30.1754212   6.8012559  54.3605852  29.7435284   7.4083501  54.9615335
  30.9022713   6.4391106  54.8673105  44.0489578  32.5407553  55.0891685
  43.7634850  32.5661373  54.1758823  43.2454348  32.6630807  55.5947590
  33.2221532  22.7152514  61.1954403  33.8753772  22.1602726  60.7693720
  32.6241064  22.9651713  60.4910851  34.4027281  16.3228810  56.9015360
  33.8784266  17.1204352  56.8290949  33.7774634  15.6117022  56.7618942
  45.1272392   5.9810835  40.7082367  44.8798227   5.0610548  40.8007812
  45.4472971   6.2313783  41.5749264  24.4531965  36.6023707  65.4601192
  23.6838770  37.1583867  65.3367233  24.9099708  36.6355133  64.6195889
  18.1820083  31.7613578  62.8124475  18.0186546  32.3526859  62.0776844
  18.3887446  32.3413777  63.5452986  10.7799888   2.2448803  38.7077045
  11.6412771   1.8325292  38.6415172  10.9610367   3.1268814  39.0325546
  53.9111029  42.7571121   0.0802485  54.3519842  43.2431385   0.7771270
  53.6531150  41.9315442   0.4902665  25.5544055  72.8384368  60.0913620
  25.4378236  73.7778814  59.9496412  25.1775420  72.4300573  59.3119812
  19.3630159  58.1911993  62.8591681  18.7352931  57.6474953  62.3831558
  19.0703988  59.0888166  62.7014112  63.3617651  74.7837795  49.2649984
  63.0327617  75.1729242  50.0752783  64.2861073  75.0310212  49.2386341
  41.3217639  66.2775990  24.3062417  41.8284320  65.6984040  24.8754899
  40.6848931  65.7011983  23.8838784   8.8189834   1.5752273  26.6615979
   9.4348520   1.0201626  27.1399705   7.9833955   1.1120491  26.7206685
  48.6195040   8.1235635  62.9739857  48.3487701   8.8963044  63.4697771
  48.7412262   8.4431326  62.0799589  33.7610960  19.8346758  31.8816924
  33.6478209  20.3469563  31.0810876  34.7047210  19.6843696  31.9383669
  12.4688929   8.0629354  33.0966966  12.5689525   7.2707801  33.6246316
  13.3340019   8.4722762  33.1126897  69.1834603  11.3193612   8.0212895
  68.9915357  10.4285722   8.3143632  69.9907409  11.5534692   8.4792439
  52.8754031  59.6475741   2.4775855  52.4862062  58.7732193   2.4937264
  52.8426110  59.9411866   3.3880536  34.5239830  13.3686900  52.0066881
  35.1243448  13.0508506  52.6810598  34.4022369  12.6203442  51.4224052
  58.3837377  43.0783641   2.3071353  58.7832247  42.3675367   1.8057696
  58.9163744  43.8462612   2.1000974  21.0437989  22.1565676  60.4110670
  21.3129258  22.3623562  61.3063049  21.7582893  22.4842739  59.8648596
  49.1915464   6.6482079  45.0908756  48.5178709   6.9489670  44.4810057
  50.0184488   6.8690884  44.6623087  19.2823684  27.0602942  57.8125668
  19.8277020  27.1312237  57.0291042  19.7523069  26.4461732  58.3766985
  71.9426446  63.5181193  53.2063437  71.5421253  63.0679099  52.4626160
  71.2113409  63.9521937  53.6456680  10.4767526  65.0775997  47.1367931
  10.2025164  64.4638423  46.4553785  11.4276064  65.1322846  47.0413160
  35.0890731  53.0221352   9.4709985  34.7110479  53.0436477  10.3501241
  35.6573915  52.2519144   9.4734399  14.9706650  28.9943719  59.8109913
  15.5055249  28.2441139  59.5516253  15.2049541  29.1507149  60.7258129
  14.1436488  56.9879505   1.0033290  13.2812364  56.7759392   0.6462209
  13.9581353  57.4167046   1.8387858   5.1814294  20.1966858   6.2815851
   4.8038712  20.9873343   6.6670173   5.2371812  20.3895879   5.3456831
  21.1914717  60.0369498   2.5694482  21.2965428  59.9504587   3.5169236
  20.4715734  59.4443104   2.3532121  56.8118980  50.8277575  45.5373812
  56.3650755  51.4938609  46.0597658  56.4214713  50.9044282  44.6667957
  41.1203121  46.4585796  26.9439523  41.0587239  46.6420868  26.0065286
  40.2826416  46.0508612  27.1637361  78.0759781  62.6301770  38.4785342
  78.3815782  63.1523244  39.2202902  77.1649163  62.8973250  38.3567548
  70.1531260  22.3979807  55.4589272  70.6688957  21.6881132  55.8414221
  69.3918423  22.4775147  56.0336924   4.5595466  74.6716353  18.1203954
   4.9736487  75.3862497  17.6365773   3.7156712  75.0279066  18.3982007
   0.2994564  33.1935692  51.0977316   0.4440622  34.1084242  51.3393116
  -0.6346855  33.1442070  50.8948183  54.6546852  27.3260674   3.8541190
  54.9300968  28.1766030   3.5121123  54.1829526  27.5336143   4.6607272
   2.4600060   9.1384917  36.3207054   3.2917115   9.1671127  35.8477569
   2.3149362  10.0409281  36.6049528   1.5770459  43.8097954  27.6533794
   0.9679295  44.4502401  27.2859025   1.3419521  42.9846859  27.2289300
  75.6213246  53.2707119  47.8227186  75.0613950  53.9391184  47.4278164
  75.4591809  52.4841642  47.3018694  78.1757724  18.9557192   8.0196445
  78.3154141  19.1684601   8.9423959  78.0954158  18.0020401   8.0032222
  80.8973398   7.7294683  56.3416386  80.5568401   7.7741122  57.2351170
  81.5637935   7.0431250  56.3733244   5.3979558   5.2779180  58.0113506
   5.2755654   6.2265587  57.9748440   5.7568312   5.1161230  58.8838530
  70.6156336  44.3195906   4.8001163  71.1074530  44.4219890   3.9853398
  69.8786341  43.7555590   4.5657413  10.6311357  47.7581692  36.4571500
  11.0409188  46.9270992  36.2170792  10.4798424  47.6871681  37.3996472
  24.6065354  24.1685629  44.5825052  25.5400753  23.9789915  44.4886971
  24.4381022  24.0840816  45.5209780  36.0461950  16.4218879  62.8787088
  36.4321518  16.7940199  63.6716700  35.4949307  17.1220744  62.5293112
  37.9556632   9.4591033  36.5313363  38.2249689   8.9805907  37.3153853
  37.0913458   9.1060317  36.3203239  35.3389072   2.1529865  38.6141086
  34.7356129   1.5035775  38.2528114  35.7127786   2.5857353  37.8465271
   6.5484864  51.1954400  18.9942090   6.9265802  50.3160950  18.9885537
   6.7952830  51.5567931  19.8455350  44.7559166  10.5914974  37.7887034
  44.3162823  11.4113212  37.5632262  44.3989086  10.3559160  38.6450195
  23.8344634  65.8489553  47.3070049  23.5745252  65.3125207  48.0559397
  24.3451417  66.5626041  47.6892900  37.0024681  25.7302046  55.2862597
  36.4066601  26.0815191  55.9479380  37.7704215  25.4462004  55.7820654
   5.2689756  71.9588248  67.0777893   5.8895076  71.2343762  67.1574450
   4.5584310  71.6076527  66.5410995  12.6290096  75.0288988  53.6821032
  12.2633756  74.2783291  53.2139254  13.4316886  74.6939964  54.0818262
  72.0255392  73.6690209  58.4923410  72.1143084  72.9729183  59.1433382
  72.6429015  74.3430031  58.7766695  36.2330747  26.5074015  49.0496778
  36.6155076  27.2804880  48.6345720  35.9099746  25.9788632  48.3199596
  24.2429948  41.3928175  51.6446924  24.4369769  41.4838600  52.5775957
  25.0804567  41.1525631  51.2482500  64.3849074  53.6953363  32.9643933
  64.2891084  53.5163543  32.0289723  65.2566110  53.3659777  33.1832234
  22.1844149  16.1016834  53.3505869  22.6378584  15.9355509  52.5241375
  22.7873445  15.7838809  54.0226793  15.1786876  14.0195107  56.8616199
  15.8748364  14.5173919  56.4329910  15.4040253  13.1036091  56.6985893
  31.5063858  20.4825449  50.6376028  30.8185744  19.8263681  50.5254459
  31.5263605  20.6499386  51.5798426  28.9819860  35.2075887  31.8523645
  29.3835187  34.4164205  32.2116065  28.0905509  35.2032542  32.2010159
  42.3957968  14.4193125  50.4715729  43.1734324  14.3605065  49.9165440
  41.6861725  14.6372986  49.8673010  24.8846633  68.1180856  14.9194257
  24.9708135  67.3576400  15.4943482  24.9651105  67.7602455  14.0352838
  38.1851697  10.9481466  55.3410769  37.6436949  11.5438247  55.8589602
  38.2847452  11.3878787  54.4967127  20.6747699  35.7588315  34.7786260
  21.3256550  36.4570665  34.8496914  20.4558682  35.7293391  33.8472581
  20.9458494  30.0231671  54.9636555  20.9229827  30.7630277  55.5705452
  20.0302649  29.8830724  54.7221851  12.1887207  45.2553368  24.9774289
  11.9652426  46.1022663  24.5914221  13.1073773  45.3429174  25.2316570
  40.7630170  64.5042412  63.2565880  41.5242780  64.9531452  62.8888941
  40.3603757  64.0634803  62.5083637  57.2281825  47.2565296   3.1235568
  57.5254022  46.6476378   2.4474351  56.5807735  47.8066704   2.6826064
  46.4038992  14.4192755  60.5643225  47.1400928  14.1530252  61.1151028
  46.5824270  15.3354752  60.3523397  14.8128141  71.5975587  53.0239391
  14.1255821  71.9016002  52.4310589  15.6273473  71.7510752  52.5451946
  73.0253779  46.1630508   5.7086627  73.7420022  45.5871203   5.4422395
  72.6025092  46.4147517   4.8876493  40.9717523  57.9403612  19.3357293
  41.5966915  58.6331233  19.1218011  40.6866228  58.1418583  20.2269761
  22.3357868  31.8389344  45.4072714  21.9989300  31.0366678  45.8061838
  22.3892212  31.6377115  44.4729900  50.0992828  64.6366612  56.2614584
  51.0484581  64.5553283  56.3546419  49.8664527  65.3782682  56.8200636
   1.4581242   5.2620584  31.0031223   0.7656285   4.9163482  30.4399467
   1.2373080   6.1868095  31.1140633  46.5420198  19.5442402  51.0500956
  45.8597326  18.8731086  51.0673094  47.3598385  19.0569925  51.1500502
  57.6744639  54.9840042  23.3908097  56.7561566  54.8418400  23.1611745
  58.1096994  55.1393124  22.5525491  31.3963652   1.3037163  44.9485350
  32.2308278   1.2904598  45.4172802  31.4603305   2.0613155  44.3669987
  31.9707244  45.0240800  21.1875932  31.6866826  44.9656990  22.0998113
  31.1604368  45.1400486  20.6913964  73.2125794  63.2697174   5.1691930
  73.7570035  63.2067892   4.3844144  73.1536137  64.2087600   5.3451221
  17.4943066  15.7640171  46.7637300  16.9593990  16.5291500  46.5523577
  17.0146120  15.3226709  47.4646902   8.9108431  37.8037167  53.5738277
   9.7396767  37.7191973  54.0451241   8.3491027  38.3047628  54.1651249
  46.5743923   5.8112627   2.3102544  45.6610680   5.8456194   2.5946653
  46.6214657   5.0374478   1.7488042  57.0876705  67.7336618  24.5500485
  56.9451510  66.8425915  24.8692910  57.1590816  68.2638904  25.3437726
  62.3692917  64.9405686  44.6049213  63.0695640  64.3249146  44.8213005
  62.5700515  65.7222180  45.1196527   3.5975444  42.1052027  52.7624321
   4.0555590  41.2726307  52.6471853   2.6812410  41.8589830  52.8889036
  31.3522840  17.3867881  53.7559748  30.9797907  16.5530539  54.0429688
  32.1887660  17.1501315  53.3553171  74.5188246  62.0679426  55.2880096
  74.7879438  61.1522722  55.2148104  74.4370018  62.2189903  56.2296677
  80.5021435  10.6785369  53.2916975  81.1100850  10.4235029  53.9856672
  81.0617432  10.8511281  52.5345373  39.8495531  17.2692561  51.1132908
  39.6347404  16.6657293  51.8245173  39.2936516  18.0324352  51.2706614
  42.5026142  55.9581861   0.6922309  43.1497704  56.6441616   0.5283467
  42.3625385  55.9822699   1.6388194  75.6517403  62.3753182  20.7474303
  75.5744903  61.4590077  21.0132122  75.0531428  62.4607484  20.0053954
  32.7868366  24.9983740  51.9876051  32.2306871  25.4057431  52.6516676
  32.2381830  24.9639201  51.2040091  13.7404335  26.9796443  42.7562237
  13.9875150  27.4968600  41.9896269  14.2634737  26.1811423  42.6851273
  29.8818029  72.6690010  27.8324938  29.9374259  72.6751224  26.8769312
  29.0949214  73.1770323  28.0298638   9.0787513  60.0573680  18.8787095
   9.4172580  60.7383701  18.2974355   9.4931419  60.2353784  19.7229974
   4.9904665  47.0125580  59.9687767   4.2932647  46.3857269  59.7758389
   4.6153715  47.8643370  59.7451496   9.4431681  22.1913295  13.0751912
   9.5200461  22.4414783  12.1544568   9.1758961  21.2724881  13.0522363
  32.4440575  35.5977845  34.4065523  33.3891535  35.6026864  34.5582151
  32.1099067  34.9242568  34.9989486  23.7160516  35.0125170  49.4318438
  23.5288429  35.9498143  49.3803072  23.4065866  34.6602249  48.5973692
  61.1537587  51.5767452  29.0950124  60.4543411  51.5811369  28.4415452
  61.9601905  51.5213188  28.5823457  46.9034599  49.4450208  28.0939214
  45.9976613  49.6089432  27.8314511  47.4180638  50.0675878  27.5802819
  22.9185390  11.0410655  48.9997578  23.6373448  11.0652936  48.3681250
  23.0125213  10.1948798  49.4372177  10.3318727  18.6104774  43.0940723
  10.3307307  17.9551220  43.7917423   9.4091111  18.8355339  42.9753590
  48.6335993  18.2765138  62.3509741  48.4118986  18.6077869  63.2212257
  47.7983761  17.9842067  61.9860220  27.0203447   4.0747717  64.3246651
  26.9179034   4.1081622  65.2757788  26.8804288   3.1546828  64.1008520
   9.2244374  18.7391910   2.6923005   9.5214104  18.6713478   1.7848699
   8.4536611  19.3052110   2.6503818  14.2967236  20.8156681  56.1914968
  14.4923151  21.1156130  55.3038025  13.6069322  20.1619935  56.0769081
  17.4157166  26.3510847  54.8384905  17.3482370  26.6085172  53.9190340
  18.3568430  26.3230228  55.0109100  26.2160989  26.8928716  16.0260980
  25.6183951  27.1958932  15.3426091  26.7114688  26.1848053  15.6144158
  38.7880421  12.9850709  32.0420432  38.7272143  12.6468575  31.1486554
  39.7281384  13.0503929  32.2099257  15.8845514  37.5108485  19.5094125
  16.3627523  37.3158269  18.7034814  15.6571955  38.4376483  19.4347016
  37.7149820  33.2544661  66.0939312  37.3806405  33.1225824  65.2067709
  37.5255466  34.1725993  66.2872553  19.9123513  41.1409959   6.2746303
  20.2453684  40.2804144   6.5290515  20.4197215  41.7592210   6.8005626
  28.9007115   7.7419215  46.0682535  28.0908036   8.2475442  46.0002232
  29.2273021   7.6907712  45.1699448  29.7178721  25.5598092  37.2300529
  29.0219784  26.0007763  37.7174044  29.9009514  26.1429572  36.4934039
  66.0152256  57.0030758  28.0391233  66.6356980  56.8063447  27.3373048
  65.4513108  57.6859006  27.6758210  51.4875161  64.6830532  13.4276883
  52.3532998  64.2751428  13.4437673  50.9167611  64.0184686  13.0419461
  75.8798812   2.6202779  23.2871739  76.1853002   3.5197883  23.1695859
  76.2088321   2.1533017  22.5190846  66.1434083  67.8418742  24.0775704
  65.9120231  67.9659907  23.1570888  65.7883578  66.9811944  24.2998338
  67.9712998  55.5294761  25.1420133  67.8200995  56.4046332  25.4990403
  67.7984082  55.6199428  24.2049138  38.1243086  17.4097455  19.7781849
  38.9247513  17.8911018  19.5688522  37.4868822  18.0891025  19.9981642
  17.6921463  42.1137142  64.2602110  18.1167209  42.0128202  63.4082794
  16.8147492  42.4359512  64.0538931  22.1573472  31.3019109  52.1952868
  22.4028158  31.7910004  51.4099407  21.5524292  31.8810797  52.6588249
  52.9856908  70.3688595   0.1270692  53.5043036  70.7877800   0.8139293
  52.8704392  71.0502288  -0.5352672  47.6621591  61.9376609   5.0336377
  48.4256255  61.4230034   4.7719590  47.1101450  61.9616648   4.2520158
  33.9197850   2.8392455  56.1883450  34.1048670   3.0028483  55.2635670
  33.5742831   1.9468194  56.2092257   6.5172113  66.4467291  56.6615105
   7.1847285  66.9804208  57.0925903   6.5394557  65.6117408  57.1289873
  58.1529856   7.0358539  38.8949227  57.4579430   7.5364596  39.3221736
  57.6929998   6.4625829  38.2817292  20.2338111  65.7218882  22.8709142
  20.2286404  64.7730133  22.9967801  20.9363835  66.0352322  23.4405057
  74.8217396  31.3371444  38.3545113  74.9449108  30.9206724  39.2075109
  74.1820864  32.0305324  38.5166502   0.1313318  74.9488732  34.3850136
   1.0747517  74.7871939  34.3922830   0.0137032  75.7062696  34.9583793
  77.1976061  29.8289871  44.8745775  76.4983211  30.3484249  44.4778204
  77.9694651  30.3934002  44.8309469  74.5360492  29.7799397  55.6840658
  74.3148498  28.9833689  56.1665344  74.6747051  29.4842672  54.7842979
  40.1077938  21.0573912  50.1076794  39.7770476  20.5950570  50.8778000
  40.7835293  21.6419148  50.4511070  76.8992035  21.7519522  44.4087029
  76.2851278  22.3157001  44.8791599  76.9069879  22.0983768  43.5164261
  65.5975543  25.3815751   5.6914489  65.4458462  24.4409375   5.5996911
  66.3903259  25.5472140   5.1812427  74.1373097  42.7412292   8.5107772
  73.3869111  43.0023688   7.9769771  74.8884045  43.1577566   8.0881755
  27.6162923  70.4974107  64.5127010  28.2091344  71.0588626  65.0122404
  27.1809877  71.0921381  63.9019299  59.9766814  68.3340165   0.1096217
  59.1318332  68.6381623   0.4412238  60.5924761  69.0251586   0.3532426
  47.4227489  75.6048071  34.3423772  47.9120982  76.2548359  34.8465919
  46.7552484  75.2841548  34.9488902  29.1463857  51.6050574   7.6496903
  29.3898442  51.0965940   6.8761079  28.1941183  51.6845939   7.5940768
  22.9036975  35.3587747  57.1353388  22.2476077  35.9472561  57.5087929
  22.6770473  35.3057098  56.2068748  49.4724976  34.2870784  16.6538636
  49.5725667  34.6442014  15.7714383  48.5899102  34.5463642  16.9185178
  43.5356236  21.0867023  53.6287785  43.9165211  20.3718519  54.1388130
  42.7640915  21.3530707  54.1287947  22.3706079  31.0922933  39.2548323
  21.7295980  30.6811976  38.6748838  22.2069836  32.0311618  39.1654801
  36.7335296  22.5277925  55.2012491  37.3384476  23.2535481  55.0476694
  36.0513616  22.6404095  54.5392847   5.1321310   8.8368523  26.5318966
   4.2587540   8.5053438  26.3232183   5.0498134   9.1868871  27.4189878
  39.7307456  76.9827040  36.2850046  40.6727994  77.1523175  36.2847900
  39.3453611  77.7710296  35.9025764  34.3363762  27.7940512  52.6329231
  35.0768209  27.3200870  52.2543335  33.8252115  28.0830169  51.8769836
  33.0460262  33.5649577   6.4084355  32.3046797  32.9639843   6.3344829
  33.5180699  33.2683888   7.1865432  17.7084720  19.3449831  31.3803816
  17.9577470  18.5248351  31.8063521  17.8365028  20.0131536  32.0537233
  20.4996360  67.5363467  51.6209316  20.4284395  66.5877477  51.5145206
  20.9759677  67.8294222  50.8441114  75.4411119   7.4999433  17.5568406
  74.7589106   7.7896695  18.1625573  75.8498377   6.7538219  17.9955689
  10.9765876  58.7396006  50.3626108  11.9167603  58.8396184  50.2132607
  10.8500040  58.9997486  51.2750435  25.4059267  13.3579123  64.8866415
  24.8315167  13.2107973  64.1352129  24.9369502  12.9710412  65.6259823
  16.4904464  59.1644530  59.1407681  16.2214626  58.9552454  60.0352621
  17.0842326  58.4543828  58.8969517   3.0670650  74.5938060  11.7991559
   2.2996146  74.7633764  12.3455064   3.1180341  73.6393687  11.7473571
  27.4507380   1.6738304  51.9585752  26.9107032   2.3038951  52.4356604
  26.8208838   1.1118037  51.5073109  22.1343207  16.3095891  31.8480921
  22.3873043  15.5043244  32.2995138  22.3407865  16.1435270  30.9282947
  25.7246423  21.7731786  34.0168166  25.1569557  21.4802599  33.3039618
  25.2732635  22.5322676  34.3859696  20.4833031  57.4080038  13.5155332
  21.2644267  56.9094133  13.7552977  20.7288337  58.3218622  13.6597919
  34.4794811  77.1278724  22.0245957  34.2283357  76.2726180  22.3734450
  33.7731612  77.7140824  22.2960782  20.8597768  74.0766526  45.3167534
  21.7200197  74.4419686  45.5235386  20.8463872  74.0214790  44.3612385
   3.5382278  72.8089592   3.0811994   2.7235467  73.3108947   3.0569999
   4.1787488  73.4101507   3.4613721  61.1580781  10.4903305  62.4604750
  62.0279102  10.3710902  62.8417969  61.2410597  10.1589251  61.5663195
  36.5700674  11.2995315  30.1310849  36.1553574  12.0328593  29.6766877
  37.5001645  11.3825250  29.9206972  40.9742260  15.9142864  40.5534124
  41.1888695  15.0600183  40.1787329  40.0411987  16.0276914  40.3722382
  18.3377374  52.6990001  60.0521946  17.5312627  53.2106082  59.9882746
  18.9579166  53.1576959  59.4854403  34.0435672  44.7713184  65.1161528
  33.1794930  45.1512003  64.9571037  34.6384120  45.2968645  64.5811844
  52.3614060  43.2105642  10.5923383  52.9108917  43.5254672   9.8746125
  52.9540145  43.1574383  11.3421552   3.0226976   6.0366535  46.2705135
   3.0387408   6.3987809  47.1564245   3.2019261   6.7857873  45.7022667
  74.5699554  43.1851713  27.5011802  74.6487372  42.6756064  28.3076358
  74.4388240  42.5300233  26.8157482  18.4937227  29.1334295  45.6802797
  18.5924482  28.4332561  46.3254499  17.7237356  29.6213651  45.9722900
  25.5797505  17.2638869  54.6984434  26.5328002  17.2839940  54.6116924
  25.3295660  18.1816065  54.8053455  40.8836842   2.7362722  35.6168866
  40.0359154   3.0032000  35.9722281  41.2184572   3.5202351  35.1815009
  61.3324404  16.8537951  27.3495007  61.1772633  16.5004361  26.4735508
  60.5309105  17.3328364  27.5599766  36.6779017  27.5398731  61.9458818
  37.4086142  27.4192762  61.3394594  35.8990359  27.5173163  61.3899231
  72.5058680  58.4027509  20.2536464  72.6314371  57.4586539  20.1580191
  72.2118109  58.6939041  19.3905175  26.2981987  44.5888567  58.5902405
  26.0229421  43.8169146  59.0847826  26.4726472  45.2516985  59.2584038
  49.6740007  18.4219909  44.3421173  48.9719820  18.9787662  44.6788645
  50.4478168  18.6843324  44.8407316  39.9979782  35.2796626  55.4446554
  39.1988134  34.9830341  55.0092506  40.4204893  35.8529878  54.8051119
  79.1133205   2.9595816  58.6951303  79.3718691   3.1761882  59.5909309
  79.2188980   3.7783936  58.2107401  18.6154091  16.0159397  40.5266809
  17.8908205  16.5199363  40.1562881  18.2622790  15.1328588  40.6348467
  30.1015782  27.4675703  47.1454287  30.4079461  27.4119043  46.2402916
  30.5761909  28.2128739  47.5135279   9.3066270  40.8973443   4.9744622
   8.9228303  41.7703676   5.0566976   9.6731384  40.8791394   4.0903966
  33.7035221  22.5933747   2.9061334  33.6330789  22.3731523   3.8349883
  34.5405859  23.0516057   2.8314368  53.2507229   2.3728825  18.7858105
  52.4849844   1.9060780  18.4511971  53.7432671   1.7095636  19.2691731
  42.6960384  72.8849408  15.9026067  42.6048898  73.6154196  16.5144269
  42.1133982  73.1067440  15.1762692  26.3878250  73.8051367  48.2817888
  26.0972714  72.9252768  48.5219145  26.9492650  73.6718702  47.5180769
  12.9521763  35.9386921  36.1671901  13.5922861  36.6062641  36.4138412
  13.4022689  35.1076460  36.3188791  52.8772270  36.8634838   0.6807296
  53.7193762  37.3182525   0.6948916  53.1008302  35.9413579   0.8068959
  33.9964032  28.1623888  49.9361515  34.4608045  27.3682451  49.6717644
  33.9496160  28.6893058  49.1384077  23.6151314  10.7390594  38.8850856
  24.0185976  11.0472560  39.6965408  23.6276793  11.5016389  38.3066845
  38.5183263  21.8127584  37.7259707  38.0062699  21.9082856  36.9229102
  37.8733993  21.8772078  38.4303474  53.5035620   6.6163688  14.1031854
  53.8884054   5.7709889  14.3344037  52.5596520   6.4803653  14.1854589
  40.3244209  32.8858852  45.3499937  39.4139743  32.6980233  45.5780840
  40.7696104  32.9721880  46.1929560  65.9204483  29.0589666  65.6741190
  66.3043833  29.8521972  66.0477638  65.6775808  29.3076038  64.7822523
  74.3349801  22.3759079  66.0023451  75.0596289  22.7376819  66.5124798
  73.6915879  23.0836368  65.9649706  38.6170101  28.0726147  63.8069630
  37.8740478  27.8423810  63.2490826  39.1735911  28.6183715  63.2514477
   5.7885654  62.3490807  14.2737405   6.5332467  62.9503104  14.2881600
   5.7354552  62.0553490  13.3642690   6.3791961  13.6735635  13.3663766
   6.3247937  14.5928245  13.6275880   7.1117777  13.6423593  12.7510898
  76.7660987  45.4145905   2.0351474  77.0774733  45.1720121   1.1631219
  77.0636021  46.3166723   2.1533458  43.4242296  12.6613700  36.6454506
  42.7861691  12.9700935  36.0021758  43.7334490  13.4576845  37.0773053
  23.6791539  18.5403204  43.4878874  24.1676331  18.5286498  44.3109798
  22.7638316  18.4450626  43.7512207  67.0857441  73.8193151  15.7789247
  67.9396664  73.3870861  15.7637994  67.0601260  74.2695758  16.6232221
  29.8154014  26.8893819   3.0969827  28.9217276  27.1911960   3.2597367
  30.1134819  27.4133496   2.3534505  73.6093770   9.6799140   9.5431869
  74.0745495  10.4965453   9.7247331  73.0643581   9.5375829  10.3170936
  52.8111660  59.4969150   7.4931590  51.9071757  59.7454688   7.3001496
  53.3307563  59.9470851   6.8271224  34.7639108  19.7069490  59.7035313
  35.3317261  20.4509807  59.5029545  35.3459096  18.9474761  59.6769047
  33.2008123  31.5404630  43.7851524  32.9934144  32.3265076  44.2904758
  32.6103139  31.5767407  43.0326700  24.8385919  43.7445180  24.9373245
  24.5548452  43.0289118  24.3684387  25.0474942  44.4597379  24.3364477
  61.6345536  50.1885733   2.1621768  61.7696606  50.1499268   3.1090037
  61.6397011  51.1236152   1.9574706  66.8610393  61.3064715  33.1668202
  66.0329901  61.5459606  33.5830037  66.7141020  61.4623687  32.2338979
  82.1915577  14.9198346  28.9711587  81.8922208  14.0115123  28.9313905
  81.7913650  15.3375106  28.2085149  45.7306849  54.2929563   0.9803597
  45.0459134  54.7941908   1.4231746  45.2552652  53.7013432   0.3970925
  26.2434816  46.7235518  55.1029539  27.0274043  46.9379854  54.5972681
  26.1475730  45.7761288  55.0058842  27.9617181  63.7439272   1.0441749
  28.0362900  63.9413664   0.1105325  27.0415488  63.5105511   1.1668794
  20.4977036  26.6235828  55.4465485  21.0239649  27.3353791  55.0823689
  21.1277914  26.0742092  55.9128237  18.4145033   4.4016254  48.2426262
  18.4287953   5.1290900  48.8645744  18.3505118   4.8212355  47.3846817
  11.5706414  15.1445012   1.8818299  11.1729902  15.8312945   1.3466470
  11.0608596  14.3594842   1.6815869  15.0252938  24.6283722  40.3209972
  14.8674750  23.6843133  40.3122759  15.6770384  24.7558975  41.0103464
  30.0229836  28.0864525  58.3676100  30.6336927  27.6869035  57.7482319
  30.0327849  27.5011826  59.1249704  41.5649700  12.9701924  31.2184286
  42.2084951  12.2938132  31.4296556  42.0626211  13.7876952  31.2346697
   1.0781498  11.3138902  64.8275566   1.5965386  11.5447891  64.0567207
   0.3532334  10.7933164  64.4815254  25.2596617  48.9799786  56.4626408
  25.3403139  48.0878401  56.1252785  26.0947156  49.3945074  56.2456560
  12.6096427  16.5016890  18.1389976  12.2321332  15.8685327  18.7495959
  12.6710308  16.0275006  17.3097754  35.7942479  64.7890279   2.0990436
  35.8751696  65.0676009   3.0112283  36.5782791  64.2638966   1.9385306
  29.6811962  32.8984952  47.6370955  29.9805593  32.0639157  47.2764158
  30.0843835  32.9431319  48.5040903  66.1911106  39.7976184  66.9147587
  66.5661764  39.8917723  66.0391474  65.2966452  39.4935822  66.7607546
  29.4349980  15.4039490  54.6950579  29.7263646  14.6286583  55.1749134
  28.9548373  15.9200144  55.3426361  37.9785728  46.0826063  41.8519688
  38.1936073  45.2315474  41.4702797  38.0894208  45.9573174  42.7944374
  29.1107249  20.7350588  40.3928423  30.0131083  20.9368348  40.6402779
  28.6218786  21.5316463  40.5995035  38.4214777   6.0511308  12.4019591
  38.1873363   5.1898723  12.7478520  39.1743750   6.3233523  12.9266231
   8.1558716  44.6713877  43.2917976   8.7874317  45.3683329  43.4696627
   7.7189755  44.5242596  44.1306686  26.7362571  37.6512146  38.6643672
  27.5789428  37.9967928  38.9587998  26.1330390  38.3900356  38.7449932
  16.2551510  31.8022871  49.0255260  17.1717370  31.8944645  49.2855358
  16.0248113  32.6537991  48.6539078  23.4923697  30.1779819  25.9324431
  22.5589442  30.3789616  25.9999537  23.9307737  30.9635711  26.2593722
  12.2056270  14.8402715  32.5114751  11.5213597  15.0996089  31.8944216
  12.6101649  15.6648612  32.7809763  47.3922931  61.9536564  23.9858357
  47.8267585  61.3722703  24.6099011  47.1267842  61.3789365  23.2679002
  59.4145691  52.7622303  21.4067380  59.8890602  51.9574055  21.1985414
  58.8448774  52.9066655  20.6512086   8.5584504  21.2433800  33.4246366
   8.9580686  21.8784961  32.8303544   8.7723214  21.5667388  34.2998139
  59.8580085  64.1031644  20.3750340  60.1303159  63.2641599  20.0033490
  60.1734220  64.0785715  21.2784402  10.3730267  11.0270028  11.1538140
   9.5596117  11.2432056  11.6097180  10.9158653  11.8097119  11.2482898
  65.8874737  55.2240309   9.5275704  66.6726982  55.3543386   8.9959018
  65.8828818  54.2868611   9.7223060  62.2863345  70.3008394  58.1197929
  63.2282691  70.3924988  58.2632875  62.1271591  69.3582533  58.1690598
  16.7475688  36.0616708  65.7361412  16.8653011  36.9649744  65.4421806
  17.2431982  36.0092163  66.5533543  29.6499062  54.4019079  16.1178875
  30.4758501  54.2830086  16.5868306  29.1660190  55.0394344  16.6429102
  20.7460690  43.7084341  54.2007494  21.6894770  43.5467958  54.1914749
  20.5347776  43.9453888  53.2977295  37.6761627  32.3555636  51.0672712
  37.4988961  31.4702296  50.7494783  36.8205881  32.6886606  51.3379574
  32.5169618  67.1186420   3.3580701  32.8511483  67.8527328   3.8734929
  32.6051576  66.3605544   3.9357821  12.8545708   4.1795449  10.0210492
  13.2704920   5.0321679   9.8934714  11.9251913   4.3394761   9.8570315
   4.7541148  75.5679485  37.2002809   5.0218446  74.6799824  36.9634931
   3.8077457  75.5062243  37.3299233  77.0480512   7.2188764   8.9974372
  77.9022025   7.5911288   9.2167155  76.9700526   6.4495997   9.5616738
   9.7297376  42.3920870  56.5440655   9.5885098  42.1459961  57.4582481
   8.8731742  42.6946211  56.2423944  78.1738876   1.8838124   4.8898093
  78.2045339   2.6463561   5.4675834  78.9872788   1.9311194   4.3874280
  18.6990488   9.5432979  46.5959358  18.7358904   9.7524571  45.6625938
  18.0423260  10.1429379  46.9500256  48.6309516  59.2323634  29.1556756
  49.1512596  58.4326467  29.2329137  48.3734690  59.4383094  30.0542943
  33.0132866  29.1655421  60.4734850  33.4308887  28.6878324  61.1901665
  33.4684896  30.0072312  60.4493856  23.4435368  53.8944578  32.8256559
  23.6269641  54.1768169  31.9296312  24.2634606  54.0438366  33.2964420
  40.4544449  26.5526819  46.8297815  40.8482170  25.9749460  47.4835396
  39.6362448  26.8457437  47.2308969  22.1614122  52.3571014  55.7659912
  21.9036245  52.7582645  56.5959549  21.5769410  52.7505493  55.1180506
  28.1383681  34.5547485  39.9797964  28.0004048  34.5993233  40.9259510
  29.0736032  34.7238398  39.8658919  70.7942759  64.6605655  12.6010959
  71.3764178  64.4354698  11.8753736  71.1724602  64.2143318  13.3587758
  40.1084709  29.6802568  62.1788836  40.9896278  29.4660544  61.8724346
  40.1302385  30.6253624  62.3289824  60.4171240  54.9371943  12.8309838
  60.7038461  54.1489026  13.2920854  61.1331999  55.1355085  12.2275464
  11.0297871  52.5185823  19.2917347  10.5646110  53.2941055  19.6054375
  11.9207299  52.8254223  19.1235018  33.9896154  37.1697211  47.2693062
  34.9098301  37.4032354  47.3914051  33.5185862  37.9984045  47.3567486
  49.7496128  38.1430602  67.2780848  49.2510176  38.1966567  66.4627504
  50.4226017  38.8182807  67.1921062  23.7653399  25.7185078  58.6800337
  23.2923150  26.3817692  58.1774759  24.5826626  26.1475921  58.9332199
  24.1766691  32.4305940  47.3672438  23.8695431  32.3932886  46.4614201
  24.9618435  32.9769135  47.3316193  72.8137849  11.2815177  54.7045326
  72.1641122  11.8519890  54.2937803  72.9388057  11.6513121  55.5785227
  50.6971206  11.7007451  14.6514051  50.2973805  12.0910506  13.8741605
  50.3486399  12.2115235  15.3820912  12.5049125  75.4818579  11.2020318
  11.7545723  75.9959456  10.9038083  12.8585910  75.0891516  10.4039590
  62.2972147  61.7833090  41.1400509  62.2875933  62.7100515  41.3794088
  61.5103321  61.4223003  41.5483618  62.5407850  67.9743788  23.6402528
  61.7345344  67.5243708  23.8926236  62.3089062  68.9030454  23.6469667
  29.5145697  22.4464040  17.7961652  29.4635767  23.2297425  17.2484319
  29.9456114  21.7949586  17.2429482  68.1207024  74.7671387   0.9587590
  67.5737511  73.9878413   1.0576455  68.8973462  74.4571349   0.4929797
  57.4903261  60.7434913   7.0126025  57.7255642  60.0150749   7.5873248
  58.0915295  60.6677505   6.2716214  80.1763295   0.0391393  14.9860684
  79.9439453  -0.6211920  14.3332402  80.5783676   0.7451730  14.4799916
  34.4754148  21.4620018  47.5026560  34.6682286  20.5461907  47.3017883
  35.1124191  21.6985893  48.1768084  34.7820997  45.8533621  18.2750690
  35.0180793  45.1039648  17.7283072  35.3591919  45.7860088  19.0357661
  29.5920372  33.6529255  63.7451553  29.4186997  32.9307985  63.1412363
  30.5467558  33.7128615  63.7790823  34.2826486  15.2422059  44.1069269
  34.3311143  14.6097398  43.3900833  33.4901547  15.0006092  44.5863247
  64.2359220  74.7607896   1.4090459  64.5845901  74.7787377   0.5177896
  63.3353459  75.0727341   1.3202493  68.6492317  51.1823503  56.9794559
  68.6991637  51.0378687  57.9243708  68.5490232  50.3058306  56.6080999
   5.5697448  62.7481505   3.4272925   5.9522969  61.9053575   3.6713950
   5.9784515  63.3777305   4.0212791  10.2287448  73.5501910  19.2349494
  10.1404441  74.2305027  18.5674083  10.3409923  74.0318922  20.0544596
  52.3097610  19.3677700  45.3898001  52.7647209  18.5369527  45.2519941
  52.9030085  20.0280070  45.0314999  54.4348799  47.8533944  13.4041421
  53.7506353  48.4776112  13.6457936  54.5484292  47.9754803  12.4615781
  80.5656802  50.9368166  27.8815381  79.7444998  50.7755908  28.3461873
  81.2116753  50.4036018  28.3447949  33.0207586  39.1954160  66.6834211
  32.9730940  39.3811202  67.6212215  33.9165616  39.4273806  66.4385509
  43.4074402  56.5938568  18.7562883  42.6236868  56.7144394  19.2924047
  43.9647245  57.3406267  18.9753926  31.7017794  57.2032213  41.7998695
  30.9017086  57.5555182  42.1897507  31.5457535  57.2423697  40.8562851
   9.7285509  31.8236232  49.0043592   9.3963563  31.9035959  49.8985004
  10.1137424  32.6790953  48.8145494  43.5500526  10.1460612   9.4009298
  44.2416668   9.9353743  10.0282395  42.9095173  10.6439841   9.9088860
  79.9480484  26.0052209  50.2532403  79.7797893  25.3372436  49.5886151
  80.5505274  26.6172509  49.8305432  21.0424256  15.5946612  42.1427393
  20.1596618  15.5202031  41.7802238  21.5676260  15.9464777  41.4239788
  15.5705249   8.6978620  54.4824791  15.0114906   8.0267596  54.8740578
  15.4932272   8.5535824  53.5393763  41.8893242  20.4101944  57.7067375
  41.7745829  19.5941198  58.1936550  42.8254795  20.5986810  57.7723980
  81.8788908   0.9944801  19.5109098  82.5324438   1.4626889  18.9914052
  81.1908458   0.7701139  18.8844220  33.1829214  10.6102729  43.1362534
  32.2620606  10.3613114  43.2154131  33.6533499   9.7777164  43.0940914
  74.3983065  20.6315951  26.6550843  74.2848466  21.3470225  26.0293595
  73.5245286  20.4917626  27.0200364  54.9150461  12.2644954   0.3539102
  55.8281034  12.1620612   0.0854747  54.6980089  11.4379649   0.7851665
  30.2692509  35.9222746  48.7659502  29.8759699  35.4979658  48.0033731
  29.5320725  36.3315392  49.2190504  58.2133389  35.0996971  51.0695362
  58.0005121  35.4952264  51.9148111  58.9904594  35.5730557  50.7724762
  54.0239608  48.1720051  10.5545918  53.4172689  48.5522631   9.9193303
  54.8908745  48.4328219  10.2436797  65.3817784  69.4201562  17.6583974
  64.4802629  69.6103713  17.3989312  65.9173595  69.8133704  16.9693582
  47.5510025  16.3752961  44.8198986  46.8562794  17.0328927  44.8538971
  48.3623600  16.8826950  44.8417807  15.5401504  21.3627172  52.7011871
  16.2444222  20.7307887  52.8457594  15.9689784  22.2165585  52.7585602
  68.7307106   7.6387410   5.7862441  69.3021356   7.5382762   5.0249211
  69.3311964   7.7285819   6.5262286  71.0911608  52.7813053  35.6428885
  70.8290625  53.4692383  36.2546754  70.8411312  51.9660616  36.0777426
   7.5224610  29.5368338  64.2735147   7.1557541  30.4150510  64.1710854
   6.8976613  28.9631581  63.8299417  46.2163973  22.8496718  46.8931580
  45.8914471  23.7496567  46.9189787  47.1533012  22.9280591  47.0728731
  79.5612049  72.3666620  20.3343248  79.0506935  72.1551704  19.5527363
  79.0934849  71.9357967  21.0497427  67.3866224  42.3925161  37.9652834
  66.5205908  42.0324802  38.1565762  67.5821257  42.9565763  38.7135148
   8.1767674  25.0125241  44.3282413   8.2577725  25.9272361  44.5983744
   7.5334473  25.0281239  43.6196327  18.6974311  51.8517256   5.8000600
  18.6674857  52.8080702   5.8272642  19.1097343  51.6013908   6.6268432
  76.6620731  37.0606804  47.2997522  76.6369534  36.1342335  47.5391150
  76.2674618  37.5116873  48.0461454  64.3124663  12.3134335  18.3735096
  64.7310697  12.8640469  19.0351939  63.3899366  12.2926434  18.6279476
  78.3305788  44.0051508  18.8514841  79.2804956  43.9090300  18.7833083
  78.1625223  44.9117565  18.5944712  79.8259638   3.3925252  10.6843106
  79.9618958   2.6783423  11.3069598  79.4791959   2.9648833   9.9012963
  30.0369734  23.9947276   2.2660605  30.3354925  23.0920224   2.3767011
  30.6700319  24.3841224   1.6628711  67.2286987  51.9603348  61.2176657
  66.4941406  52.0883894  61.8178797  67.0770264  51.0964346  60.8343935
  74.3122040  51.7610583   8.7098567  74.0215193  52.6309416   8.9837901
  74.5257460  51.3114008   9.5274369  46.9647455  55.5928755  42.7880192
  47.7493954  56.0341024  42.4626398  46.2761068  55.8439255  42.1724081
  40.8194351  21.9650841  61.6570759  41.5399742  21.8133426  62.2686577
  40.3775930  22.7436590  61.9959450  73.0721474  73.2110453  55.6805992
  72.8498363  73.8000822  56.4016008  73.8824463  72.7851772  55.9603882
  13.5400909   7.1012120  19.7250669  13.4257883   7.7628808  20.4072396
  14.1761392   6.4868550  20.0914495   0.6493588  52.9968977  14.8472297
   0.7540436  53.4172869  15.7007790   1.3988038  52.4054766  14.7780025
  79.2601048  68.6001679   0.3944127  79.9106442  68.9749023  -0.1993878
  79.1425120  67.7020547   0.0848977  58.1137562  51.0143661  40.0608683
  57.7489185  51.7763090  39.6107888  58.8994789  51.3462973  40.4952621
  22.9110378  23.1602912  27.3715226  23.2075018  23.8414960  26.7679517
  22.2113985  23.5752540  27.8760449  48.0184317  33.9886403  58.6041784
  47.2195816  33.9469266  58.0785036  48.6765003  34.3517375  58.0114412
  54.4675970  52.0230055  47.2597790  54.3770695  51.2415266  47.8050566
  53.7241268  52.5737095  47.5051594  64.5864868  52.1743727  62.0217562
  65.0915909  52.9413652  61.7518997  63.9319420  52.5200367  62.6286459
  35.5272865  15.6313097  47.6690817  34.7810960  16.0918152  47.2851992
  35.1345754  14.9974692  48.2692957  62.6491022  46.2186813  49.2248154
  61.8467999  45.7438755  49.4418335  62.5852728  47.0355654  49.7196484
  20.3917837  23.2938838  34.4396877  20.7736754  22.6535082  35.0399446
  20.9355783  24.0745902  34.5446634  50.7452583  64.4747353  46.5105343
  51.2975931  63.7609959  46.1915731  51.3549995  65.0778055  46.9356823
  34.6265340  64.8201656  66.1191607  34.5332670  65.6764555  66.5366507
  34.2142129  64.9255466  65.2617693  39.2367339  63.5911512  53.7089729
  39.9326253  64.1975689  53.4555435  38.7928677  64.0265894  54.4367170
  22.9360622  22.7513890  10.2260797  22.1358198  23.2508426  10.0636308
  22.6318878  21.8592792  10.3929631   6.4386089  59.0450427   6.9746987
   6.4228780  58.9051244   6.0279099   6.1924417  58.1978866   7.3461310
  51.4112091  51.3537216  28.6313128  50.6820917  51.4549017  29.2431808
  51.0602140  51.6458416  27.7900648  80.4748534   7.9964452   2.8173034
  80.2423833   7.0736270   2.7143447  79.9240325   8.3032851   3.5374944
  58.6229207   1.6184430   6.5355269  59.0809567   0.8466821   6.8684213
  57.7198358   1.5077977   6.8328921  58.0875683  57.3457336  55.7418203
  58.0502176  56.4276075  56.0099316  57.5237036  57.3929262  54.9697733
  62.4078274  69.6406937  61.4105415  63.2245255  69.9779367  61.0424423
  61.8981504  70.4234552  61.6196966  51.5795898  62.0593739  37.5087547
  52.3963547  62.3670053  37.9018092  51.7799377  61.1754179  37.2009993
  47.2882933  32.7766757  14.2871682  46.4186520  33.0591970  14.0040795
  47.1596617  32.4679093  15.1840226  60.7461643  61.5087461  63.5112095
  60.3890133  60.6303596  63.6420250  60.1335001  61.9289684  62.9076481
  13.7223108   4.6162041  33.4168696  13.5692413   3.7218102  33.7215924
  13.2727010   4.6619995  32.5730753   7.0137078  58.8038942  13.5447328
   6.4456660  58.8079664  14.3151490   6.5245588  59.2940685  12.8839080
  11.7712969  24.4747548   3.5539262  12.5261897  23.8904576   3.6243550
  11.7130059  24.6793180   2.6206557  68.2740116  41.8312883  42.7766132
  67.4164677  41.5144682  42.4929285  68.4018898  42.6451588  42.2892809
  11.3424462  14.5295053   8.3498160  11.8304581  14.6396594   7.5337617
  10.5501574  14.0576081   8.0932538  51.1957598  18.5012197  50.0744343
  50.5064774  19.1351759  49.8763990  51.5299129  18.7702000  50.9301376
  50.9776592  70.1233912  31.4998913  51.2209749  69.8469591  30.6163669
  50.2618313  69.5373392  31.7455983  56.1893272  33.7234926  49.7943211
  56.8064308  34.2244196  50.3276920  56.6598225  32.9191232  49.5755672
  43.1942558  31.4434004  62.3720789  43.3449173  32.3255587  62.7116823
  43.1270504  30.8942795  63.1532192  60.8524227  74.7213411   2.8477257
  61.6457129  74.1856861   2.8459466  61.0117722  75.3830957   3.5207203
  43.2741499  52.3250484  41.5655375  43.4951878  51.5734768  41.0155249
  42.9199791  51.9395018  42.3668766  79.2928683   4.9375733  43.7057590
  79.3543708   4.5418461  44.5751572  80.0257909   5.5522068  43.6699772
  80.7418381  45.8597216  33.6907784  80.2474868  46.0675672  32.8979032
  80.8422505  44.9080786  33.6678617  51.8874264  39.6725321  53.1051493
  52.0966959  40.4477596  53.6261702  51.3911247  39.1107321  53.7003756
  53.3349657  57.0144415  53.1200647  54.1755629  56.6500378  52.8428745
  52.6825476  56.5009308  52.6437330  77.7120256  55.9007120  46.5822077
  77.5422668  56.8194580  46.3740587  78.6634541  55.8136797  46.5235329
  29.5436811  65.7916021  38.4898639  28.7897754  65.6558228  39.0638161
  30.0945115  65.0217581  38.6318350  63.6523438  59.8939085  37.0185637
  63.1423092  60.1654291  37.7816939  62.9993343  59.7447205  36.3347840
  24.8146152  37.2777748  62.8431129  23.9486027  37.3317719  62.4389601
  25.3115058  36.6959882  62.2679138   2.3154920   0.5097179   0.9399287
   2.5261086   0.5741935   0.0084130   2.8031343  -0.2560515   1.2432973
  17.4939305  75.0578138  24.0178792  18.1944949  74.6427080  23.5147588
  16.9316203  74.3322632  24.2891995  44.7215408  33.4122186  13.4236924
  44.3965858  34.1607099  13.9240853  44.0109486  32.7720265  13.4616773
  58.7595177  47.2204542  51.7520189  58.9998722  47.8250265  51.0499096
  59.5436907  46.6890144  51.8893862  57.0701742  62.3200846  16.7505717
  57.5671148  62.9304171  17.2953415  56.1658621  62.4133492  17.0501637
  53.5595465  37.9458547  56.1795187  54.5132542  37.8644156  56.1859226
  53.2451153  37.1048760  56.5113640  46.5469217  51.3968468  31.8340683
  47.3770571  51.2694120  31.3748693  46.0105658  50.6488466  31.5713000
  53.7420797  34.9921823  50.1596069  54.2069435  35.7533717  50.5070639
  54.4202852  34.4753218  49.7247219  33.5651422  34.9108267  52.9799223
  33.0840516  34.4967842  53.6964083  32.8886747  35.1627731  52.3513174
  23.5142940  11.6810899  14.0705220  22.6223606  11.3383489  14.1271798
  23.6267847  12.1899657  14.8734109  72.3935162  76.7725274   2.0353190
  72.1382367  77.6295683   2.3767011  71.7831217  76.1598250   2.4454944
  25.4855245   9.9787717  13.1545941  25.4888576   9.3066840  13.8361470
  24.6146673  10.3721290  13.2103650   1.9718094  37.3354483  28.9078593
   2.9149933  37.2607684  29.0529728   1.5778847  36.9082093  29.6684647
  31.3197303  54.0201664  35.8050752  31.4744139  53.2801151  35.2180290
  30.4239345  54.2963457  35.6114078  12.6721901  21.1169057  28.9311616
  12.3906392  20.2479844  29.2174165  13.0551857  21.5142922  29.7132222
  59.8739576  74.7037315  39.6531177  59.7481155  75.3597927  38.9675641
  59.6562004  73.8722754  39.2318249  41.2671518  25.4631972  51.2420130
  41.2702847  25.9200382  52.0831537  41.9038916  25.9389615  50.7086849
  47.4582386  47.5395060  45.0430489  47.9045105  48.3044100  45.4063606
  47.7176142  46.8169165  45.6147289  64.3023872  55.6730080  35.1533580
  64.3276501  55.1542997  34.3492842  64.3722343  55.0277615  35.8569264
  71.5024996  58.5458183  43.1771755  72.2865486  59.0862131  43.0798578
  71.1861753  58.4194279  42.2826433  31.9617885  26.5811162   7.9292981
  32.0479292  26.6398530   6.9777934  31.2395042  25.9682851   8.0670278
  65.7159853  45.8820343  60.0250864  65.4473019  46.7903614  59.8872995
  66.4908600  45.7751560  59.4733858  56.7484140  53.6321211  53.4287357
  56.0931015  53.2698107  54.0250015  56.2916088  53.7132263  52.5914860
  23.6580986   2.9781156  30.8791558  23.7615532   3.6596446  31.5432660
  22.7351803   3.0249457  30.6296460  46.8420309  15.2195888  11.9451825
  46.5294069  14.3257766  11.8051784  47.6365703  15.2812343  11.4149587
  29.5932913  35.2403831  58.4216499  30.2128625  35.9609985  58.5360193
  29.7584724  34.6620417  59.1662788  31.0599954  74.3299434  12.7138392
  31.0240037  73.9868304  11.8209712  31.6569001  73.7394521  13.1734578
  43.4899092  37.5035501  52.3886490  43.8937140  38.3611250  52.5218201
  44.1621923  36.9890213  51.9419622  59.7848368  44.9436665  45.1572132
  59.8661280  45.4978371  44.3809891  59.0996504  44.3144941  44.9316216
  45.0186872  59.5002890  37.4476862  44.8351097  58.5744381  37.2885394
  45.3597450  59.5266199  38.3416748  43.1000948  48.8889837  45.5244541
  43.7839508  48.6662054  44.8928356  42.6945639  48.0502367  45.7441950
  42.8758717  19.1835618  38.9319563  42.0938921  19.7030723  38.7452793
  42.6832008  18.7512028  39.7639275   6.3579328   0.7346113  27.2805238
   5.9382446  -0.0051348  26.8413544   5.9761007   1.5078076  26.8650675
  62.1277714  64.4182777  29.8738217  62.4915743  63.8776350  30.5749536
  62.8779888  64.9055815  29.5333242  67.9940462  56.0904551  44.1810846
  68.1688547  57.0288610  44.1098833  67.0404625  56.0203886  44.1363192
  44.4422388  32.1758246  59.9084473  44.2393923  31.6718197  60.6965256
  45.3917456  32.2934842  59.9371815  70.7361221  26.1319184  63.8400412
  71.6113949  26.3115668  64.1833305  70.5321932  25.2507162  64.1532946
  35.7632202   9.4773488   1.7053716  35.6969637   9.8503308   0.8263223
  35.3990644   8.5962682   1.6197793  49.5699263  63.9139986  61.9280005
  48.7491512  63.4795189  62.1599102  49.4621992  64.1539240  61.0076380
  80.5618572  42.2624302  48.4410763  79.8633957  42.9167318  48.4244728
  80.9043121  42.3002720  49.3341160   2.3792607  47.7823898  10.8278911
   2.1997888  46.9025984  11.1595361   2.0074041  48.3675936  11.4878099
  76.2759209  35.2013159  52.2444057  76.8059015  34.4757533  51.9143820
  75.6364965  34.7867632  52.8236389   4.8035377  29.4568114   6.2781636
   5.1172894  30.3561454   6.1833159   5.5965895  28.9217906   6.2456815
  70.1140547  49.5319271  17.2604835  69.3666315  49.0596294  16.8937051
  69.9991083  50.4331923  16.9592547  65.0774431  65.1684093  52.1935034
  65.2034473  66.0951281  51.9896841  65.9239960  64.7641134  52.0034504
  57.8002548  10.5007279  52.4419832  58.0269241  10.6272769  53.3633041
  58.5984564  10.7287896  51.9654369  26.1032719  17.5607734  32.8743951
  26.4096874  18.0500894  33.6378781  26.8497127  17.5597816  32.2751729
  38.4923738  22.3036103   6.7765061  39.1294521  22.1440797   7.4728648
  37.6719040  21.9461160   7.1160047  20.0439555   5.9068783  41.3066149
  20.9036452   5.8883770  40.8861113  20.2253825   5.7336338  42.2303581
  52.1763372  54.6243238  62.8403187  52.3294306  53.7317705  63.1503916
  53.0409193  54.9368954  62.5738192  44.7494841  64.0552568  52.3499823
  45.0704622  64.4682264  53.1516457  45.1536798  64.5583153  51.6430187
  75.4306126  55.1417255  33.7913728  76.1493444  54.7107697  33.3288455
  74.6806002  54.5611000  33.6625743  45.4908413   4.0264897  14.0431802
  44.7564548   4.2579465  13.4745519  46.2675947   4.1770701  13.5044686
  19.3048055   9.7529324  64.4812393  18.5881669   9.9285515  63.8714743
  18.8775832   9.6611126  65.3328753  18.7285704  21.8355947  11.8784062
  18.3288235  21.7636924  12.7451627  18.0359072  22.1953158  11.3242833
  77.7204119   9.9604901  51.7621469  78.4772622   9.9840744  52.3476791
  77.4535500  10.8759411  51.6786671  14.4069857  48.6664968   1.4316813
  14.5390648  47.7683930   1.7353265  15.2917427  49.0162282   1.3262145
  76.2372637  46.4035368  56.6158342  76.6201067  47.2668076  56.7721367
  75.5359221  46.5633345  55.9843206  82.0002077  16.6251903  31.2053124
  82.1336101  15.9668641  30.5233781  81.2155293  16.3335853  31.6695134
  67.1543074  72.5775433  62.0117807  66.8429852  73.1181574  62.7377605
  66.8837881  71.6886663  62.2419024  31.0033185  69.0900776  10.0115602
  30.1595552  69.0714237  10.4631726  31.5679319  68.5216543  10.5353276
  46.5816927  66.6132212  42.7995062  45.7330990  66.4183331  43.1971645
  47.1397638  66.8626165  43.5361099  59.7521673  13.7172132   1.3096969
  59.7738545  13.8438325   2.2582404  60.4149459  13.0471902   1.1422841
  22.7902120  43.4781747   3.0652730  22.3168653  44.1886716   3.4981458
  23.3357662  43.0990987   3.7544028  58.9169251   0.5003460  26.0925007
  58.6864697  -0.4176990  26.2350130  59.3120372   0.7791241  26.9185758
  77.2285080  54.1920328  62.8533220  78.1775284  54.0702057  62.8259802
  76.8878889  53.3516502  63.1598711  13.0324453   5.6624274  22.5011937
  13.8005680   5.1327710  22.2874562  12.5141448   5.1081805  23.0846326
  45.8602047  60.3767586  57.3255396  45.9945440  59.9384594  56.4852524
  45.7183933  59.6633816  57.9478073  75.3726470  29.1483029  46.9305992
  75.9887253  29.5094784  46.2932396  75.7288968  28.2864388  47.1462536
  50.5853796  48.9408302  52.5088501  49.7441196  48.4877777  52.4518204
  51.1533737  48.3326387  52.9818392   0.2084179  44.1640520  41.6577816
   0.8103104  44.8636484  41.9118118   0.4921170  43.9112902  40.7792282
  25.6664366  62.5448136  21.8181626  26.1601013  63.3513551  21.6698186
  26.0802931  62.1482472  22.5847737  75.9438561  18.6752801  63.9396207
  76.3207601  18.5386615  64.8088281  76.3983916  19.4461494  63.5999314
  48.5197687  65.2810764  45.5453062  49.4050741  65.0066280  45.7843447
  47.9467821  64.7489214  46.0973263  49.9720001  35.9311485  64.3876505
  49.8405170  36.8257976  64.7015715  49.8717928  35.9934735  63.4377527
  39.3779254  50.7119656  30.6985807  38.8959789  49.8879814  30.6278348
  39.5021343  50.9953213  29.7927594  35.2964163  69.9153328  52.8321695
  34.9737167  70.7148266  53.2479954  35.5844712  70.1965284  51.9637299
  80.1532923  39.6511181  43.3781624  80.2560984  40.3723534  42.7572870
  79.2646682  39.7532948  43.7189627  45.4656219  43.7368250  60.0540924
  45.9752703  44.4995594  59.7807360  45.9548283  42.9875565  59.7142220
  31.2756085  40.1905966  62.8366089  30.3874993  39.9444461  62.5779581
  31.7048407  40.4349041  62.0166683  68.8750219  20.0555563  53.9065647
  68.3506250  19.9717879  53.1101847  68.9059782  20.9973121  54.0749979
  48.3560753  27.9204106  58.4849310  48.2505178  27.2573924  57.8026581
  47.5536299  28.4402966  58.4398985  79.0388058  13.3371978  27.8596608
  78.4867547  14.0631537  27.5690381  78.7959813  12.6082187  27.2888200
  41.7666245  50.8694172  44.1436243  42.2971439  50.1229572  44.4221497
  40.8625031  50.5731535  44.2486238  42.5369215  37.7145982  65.4446507
  42.8017426  38.0520892  66.3003349  43.3567524  37.4502134  65.0272703
  54.9810553  42.9233313  37.3155236  54.8025465  43.4977865  38.0600834
  54.4646549  43.2924080  36.5990448  34.9033315  71.8099281  23.6009805
  35.4818780  72.3498103  23.0624215  35.4536397  71.0808012  23.8869206
  60.1474428  68.1882906  32.5896549  61.0978937  68.0953074  32.5246119
  59.8726034  67.4573517  33.1432056  19.6884131  63.0139732  36.1454201
  19.1258776  63.6993313  36.5060782  19.4001663  62.2127628  36.5826917
  19.0653712  23.7978085  52.1240807  18.2191522  23.6265381  52.5373793
  18.8756425  24.4527539  51.4523125  38.2902193  62.3680162  65.9516239
  37.5504494  61.8078136  66.1864662  38.3975744  62.9506636  66.7034435
  35.7412863  25.0433445  51.4053822  35.7443261  25.3845167  50.5110502
  34.8137999  24.9534583  51.6242886  33.8923353  18.8206487  16.0363023
  34.8464149  18.7712531  16.0956876  33.5888571  18.6781316  16.9328706
  11.9491870   4.1941746  51.1767578  12.7870042   3.9710148  51.5823412
  11.8873889   5.1455124  51.2626076   5.5317944  70.1533799  36.9429032
   5.9675330  69.3129067  36.8015782   6.2455362  70.7901959  36.9785802
  35.4643530  26.0129170  25.0193231  35.0737089  26.4110761  24.2414395
  35.1371712  25.1133733  25.0179212  32.7891690   9.1632946  54.5156145
  32.6880891   8.3047875  54.1045427  33.5379750   9.5567139  54.0675735
  67.5995064  42.2114325  65.0706387  68.4121799  42.0066833  64.6081734
  67.8835917  42.6606417  65.8667135  69.6116114  57.5807428  63.0846214
  69.8385239  56.8806076  63.6966324  70.1448107  58.3250475  63.3638000
  71.7309093  43.3448410  63.6617517  71.9743776  43.3235979  62.7362776
  72.4624729  42.9221582  64.1116285  50.4364967  59.3089294   9.7343582
  50.7076263  59.1457891  10.6377435  51.1173105  59.8805857   9.3794829
  57.1230316  35.7875657  58.3870220  57.7202320  35.1751375  58.8165712
  56.2728691  35.6173444  58.7925816  48.2063961  64.7029829  49.5923805
  47.7975368  64.5353127  48.7432909  47.5244093  64.4965839  50.2315378
  68.8806820  34.6063495  47.7918196  68.7559271  35.3859282  48.3330488
  68.4643841  33.9013624  48.2877207  15.4011196   8.9882474  10.9302394
  15.8052296   9.2949920  11.7419259  15.7397121   9.5777898  10.2564256
   0.8129616  37.3093009  65.3557873   1.6817208  37.0356178  65.6500578
   0.2915974  37.3538399  66.1573029  60.7059193  57.8490305  59.1120338
  59.7964525  57.8297949  58.8141537  60.7288408  58.5470676  59.7665977
  71.0551071  55.4856205  59.7146177  70.7412720  55.1052427  60.5350161
  70.7383394  54.8883009  59.0370464  30.0582552  74.1211319  42.1454430
  29.1901112  74.4943571  41.9929218  30.6294823  74.8810863  42.2568035
  36.8839210  41.7861085   9.8049991  36.9284529  42.6926522  10.1090161
  35.9602350  41.6491513   9.5945756  50.5247211  50.0058031  49.5349693
  50.1139259  49.1519213  49.6704817  51.0266018  50.1598692  50.3353500
  66.8625116  39.1859078  43.2862186  67.7104521  39.2432594  42.8458309
  67.0393515  38.6841512  44.0819550  77.3410463  47.1819735  31.0827231
  76.8707752  47.9554224  31.3939381  76.6527128  46.5479708  30.8815765
  35.0411219   4.3599229   5.2076594  35.4806084   4.1572814   6.0335032
  35.7510609   4.5931249   4.6094672  57.9211712  58.0087614  58.5547447
  57.8709936  58.8882971  58.9290810  57.4402428  58.0718756  57.7295399
  23.2594007  72.8132157   6.2656514  23.7268013  73.6404424   6.3816754
  23.0605406  72.7796655   5.3299396  53.8300133  62.7135944  49.9521208
  53.7826777  62.1550131  49.1762447  53.0578470  62.4762487  50.4655933
  44.2800188  65.0773859  55.1586342  44.3512249  65.1112270  56.1125851
  44.3035746  64.1435671  54.9496746  42.8282875  69.7801118   1.1430041
  43.3192009  69.9578481   0.3407304  42.6394695  68.8424687   1.1055057
   2.7138431  10.0068291  43.1601286   3.3947999   9.5020874  42.7154207
   1.9282443   9.8669823  42.6314402  50.8307362  56.1795616  44.4699287
  50.7237291  56.6786003  43.6601496  49.9367142  55.9865236  44.7522211
  31.0945244  70.7928610  58.5078430  30.6735535  71.0602427  59.3248606
  31.7784520  70.1809311  58.7798977  70.4585356  39.8206382   0.9106700
  71.2840551  39.3623309   0.7535235  70.3541273  39.8066001   1.8620555
  36.8033028  52.7455521  33.7881422  35.9249020  53.0516100  34.0139079
  37.3728418  53.4911108  33.9778733  23.8718885  44.5496564  12.4144856
  23.0071587  44.7971349  12.0870273  23.8548368  43.5928636  12.4365346
  61.6819191  48.2933950  62.6461077  61.3965368  47.7069235  63.3467102
  61.3090038  47.9147434  61.8500042  10.0038643  37.3838568  58.4558105
  10.4422875  37.7100945  59.2416763   9.1313382  37.1296835  58.7563562
  55.7071495  15.7971823  61.6028738  56.2593794  15.9825349  62.3624277
  55.5486631  16.6542101  61.2071276  71.8473905  29.9360805  17.9419915
  71.0470861  29.4209724  17.8399674  71.9301218  30.4158406  17.1178453
  62.7431202  55.0596952  46.2842083  62.0701599  54.7558832  45.6750679
  63.1601238  55.7940674  45.8336163  38.6894035  69.1112566  47.5781202
  38.4252095  69.1193533  48.4981012  37.9648232  68.6804867  47.1246290
  66.3641214  54.0556622  46.5510654  65.4507494  54.1749763  46.8113422
  66.8454599  54.7075939  47.0605135  36.8240428  53.8853264  36.9653273
  37.5015354  54.4384050  36.5762997  37.2173333  53.0133390  36.9998574
  74.8643373  25.8170943  17.2427670  75.1497243  25.0689750  16.7182557
  75.2435873  26.5773492  16.8018453  39.6314311  56.8812180  40.3571320
  40.2809477  56.4550686  40.9163809  40.1374435  57.5011349  39.8318839
  62.7787983  76.3794562  16.3269727  62.1091615  76.3155171  17.0079534
  63.5709535  76.6448423  16.7941968   8.9183058   3.4881978   7.5649659
   9.7051157   4.0231233   7.4599473   8.2143702   4.1220431   7.7025859
  59.4262648  56.9407845  46.5158129  60.3692722  56.9725370  46.6769648
  59.0367746  57.3401070  47.2936726  51.3766248   4.1178616  62.8417015
  52.0245511   3.9992817  62.1471834  51.0266549   3.2402428  62.9951477
  20.3578854  71.1831665  43.6547327  20.6064916  70.2990675  43.9245367
  19.8073971  71.5054750  44.3683958  39.5878983  76.2125826  19.4543743
  40.1744986  76.7738819  18.9473510  38.8940430  76.7999458  19.7540379
  33.8198322  34.7882800  17.2576062  34.1935486  34.9844270  18.1167333
  33.8719458  35.6156974  16.7791669  42.5243568  63.1782389  50.7316113
  43.2583666  63.7052155  51.0474682  41.7470598  63.6243963  51.0677433
  34.7263677  29.0944489  44.8074961  34.3521077  29.9509819  44.6013117
  33.9735372  28.5572346  45.0542259  35.5962938  27.2489648   1.3521449
  36.5149969  27.1051316   1.1251370  35.1068491  26.8641620   0.6250970
  81.3441264  12.6564320  47.1959591  81.3462865  13.5425671  47.5579119
  80.9118211  12.1255310  47.8649044  10.0884479  12.7813439   1.2453906
  10.5510944  12.0531755   1.6600768   9.1614956  12.5822978   1.3771836
  62.1564829   4.3063648  42.4827862  63.0597197   4.3813618  42.1749401
  62.0443427   3.3746727  42.6715040  27.6914079  61.3188168  14.1309564
  27.7207811  62.2748634  14.0943543  27.6677854  61.0446450  13.2141606
  44.2305088  66.7562819  64.6836376  44.9400568  67.3894835  64.7923660
  43.6230659  66.9524145  65.3969240  53.3690023  54.8942614  45.9320021
  54.1733265  55.0973177  46.4095640  53.5516882  55.1607037  45.0309658
  32.7654928  44.0030293  11.8703954  31.8859953  43.6269383  11.9060342
  32.9098553  44.1870599  10.9422128  59.4246960  69.9028826  58.8342762
  60.1634932  70.2621984  59.3254948  59.6975756  69.9559402  57.9183340
  16.1888307  10.6007772  14.6856515  16.8290275  10.4649978  13.9871232
  15.4648394  10.0151067  14.4641606  38.4185976   9.6916204  24.9463384
  37.8131670   9.7742991  24.2095582  38.5139221   8.7476687  25.0732533
  12.2005291  47.0484209  51.2396288  12.7119465  47.3340034  50.4825783
  12.1611996  47.8187227  51.8064785  14.5207711  67.8042555  64.9463701
  13.8971920  67.0863152  64.8370647  13.9816781  68.5530138  65.2012682
  22.2358806  11.2355812  46.2110090  22.0239074  11.5514572  47.0893717
  23.0564887  11.6758736  45.9896994  69.3974543  73.2281351  64.2771673
  70.1177168  73.3989382  63.6703110  68.7182808  72.8259754  63.7356663
  43.6331081  63.3333254  36.5003896  44.4101048  62.9649734  36.0798836
  43.9677954  63.7632704  37.2873878   5.4657895   8.5478981  50.1382399
   5.8356960   9.1566570  50.7776260   6.1811263   7.9429730  49.9417734
  74.0265322  45.1303148  50.9464645  73.4148550  45.5488634  50.3407478
  73.4676790  44.7283125  51.6115284  23.4175438  32.2964435   5.4357497
  24.0173239  32.6743417   4.7925679  23.5450930  31.3511567   5.3557364
  72.2785079   0.7718952  29.4468546  71.4025294   0.4379042  29.6401000
  72.1282517   1.5124472  28.8592887  34.7582334   3.4310584   0.2123038
  34.8570198   3.9563708  -0.5817492  33.8748306   3.6298566   0.5226438
  73.8838196  75.0029421  62.0846701  73.8881540  75.1473856  63.0309010
  73.3007240  75.6801319  61.7416811  31.1378139  40.3946357  30.4906098
  30.3637976  39.8325305  30.5248372  31.5061754  40.3490024  31.3729112
  40.1881981  71.5968609  53.2484007  40.7406235  70.9702492  52.7810574
  39.3144083  71.2065220  53.2294655  59.5740271  40.6652546  51.1010122
  59.2386198  41.1080885  50.3215027  58.8595104  40.0908518  51.3762522
  51.1441183  41.3819075  60.3609848  50.3271341  41.8780279  60.3097343
  51.8272638  42.0252752  60.1722527  20.5930752  32.3691134  35.8173387
  20.1406235  32.5873809  36.6321198  20.1920313  32.9385381  35.1607148
  54.5495558  72.6381588  55.2372837  55.0626278  72.9798698  55.9695530
  54.6950483  73.2657957  54.5293760  19.8258490  33.5502296   2.3876016
  20.3386921  33.6437564   3.1903951  19.1285986  34.2006164   2.4716727
  45.1372623  46.9885111  61.5113735  44.2273474  46.8515110  61.7750406
  45.2794123  47.9287338  61.6209602  60.0773668  33.7370968  48.5019493
  60.8350849  33.2275605  48.2147837  59.9726820  33.5105634  49.4260454
  26.6064829  10.0268416   8.9476792  26.7245335  10.9655957   9.0927379
  26.8747085   9.8892741   8.0391852  38.1899828  18.8173633   0.2917258
  37.4593061  19.1503577   0.8127515  38.9634174  19.2376285   0.6677644
  27.6429027  19.5135646  16.7846219  28.5088247  19.2231183  17.0710675
  27.6669878  19.4342427  15.8310143  58.7817060  23.8824471  58.7076712
  58.1246745  24.0157040  58.0244541  58.8118993  22.9334648  58.8291025
  59.3243027  45.6579256  47.8754234  59.6156979  45.3263617  47.0260811
  58.4162378  45.9235239  47.7301216  27.6824755  20.3933530   1.6981236
  28.3738941  20.6109004   2.3233001  27.6195377  21.1633973   1.1330525
   1.9562836  35.7928777  46.5386820   1.5397282  36.3900161  45.9172773
   2.4917908  36.3599420  47.0935678  72.8112936  37.6871109  39.4872832
  72.2515392  38.2211518  40.0509405  73.0951500  38.2851005  38.7958598
  55.6257486  61.7149734  28.9648199  55.0162601  62.3801088  29.2847300
  56.0176468  61.3482094  29.7573686  36.0426086  38.5430865  13.3341805
  36.6761774  38.9576201  12.7485339  35.3794283  38.1769614  12.7490441
  48.9676231  52.5359921   7.3730676  48.6739248  52.1706491   6.5385024
  49.9189180  52.5971036   7.2862355  45.2612877  47.5457048  52.7837992
  44.3856144  47.9228163  52.6988649  45.2703762  47.1557474  53.6579180
  58.5363865  31.7304492  52.1455193  57.5914621  31.5791321  52.1668530
  58.9207602  30.8606124  52.2544909  78.6020803  50.0550413  32.2061992
  78.9321089  50.2537012  33.0824685  77.8037739  49.5497131  32.3597956
   7.2781773  45.0869226  64.9546480   7.9328080  45.3837347  65.5867767
   6.8198891  45.8851147  64.6917868  21.1144537  45.8853822  11.8143241
  21.6053766  46.6017346  12.2168796  20.7009643  45.4348760  12.5507419
  64.7677517  74.8709869  42.3373461  64.8788261  75.6704664  42.8518629
  65.4574394  74.2862606  42.6514435  67.6316106  12.0848473  29.4489980
  68.0382001  12.5135143  28.6958933  66.7359149  12.4221905  29.4618583
  71.0242449  34.0832527  46.0746431  71.3252150  33.1969746  46.2750816
  70.6078135  34.3832405  46.8826151  30.4206800  74.4162703  63.2274675
  31.0208344  74.5250511  62.4897575  30.9731650  74.5171547  64.0025902
  75.8736706  48.8241720  25.2353597  75.8636236  49.0451002  24.3040586
  75.2181149  49.4021845  25.6257224  21.1095995  37.7394300   7.1382396
  20.1743359  37.9346137   7.1967141  21.4396614  37.8805738   8.0255811
  81.5598224  31.5718942   8.7936275  82.3067664  31.8528705   8.2650821
  81.9218110  31.4426904   9.6702687  77.1901178  64.2473507  55.6247997
  76.6634703  64.6979141  54.9645901  77.5349855  63.4778690  55.1718187
  71.8750464   2.3846110  66.2545061  71.4167058   3.1198796  66.6613674
  72.4415480   2.7894123  65.5976629  14.1374773  41.2289481   1.1320178
  14.7245640  41.8659596   1.5391747  14.0474314  41.5299516   0.2278487
  64.9112988  76.6215944  61.6928482  64.5480680  75.8127499  62.0534992
  64.8764038  76.4977789  60.7443333  42.4326754  66.6027212  47.1546793
  41.9700575  65.8248186  47.4662638  41.8573856  67.3320627  47.3856258
  50.4616272  13.1933792  45.6945086  49.6339046  12.7917202  45.4303551
  50.2471697  13.6845024  46.4876318   6.1450978  63.6490726  39.6611547
   6.5600033  62.8502274  39.3356872   6.6078492  63.8444328  40.4759741
  57.0113432  18.9982517  65.8357048  57.6748716  18.7675961  65.1855087
  57.4400937  19.6447094  66.3965178   0.5878061  40.3260331  21.8482224
   1.5150160  40.5206351  21.9847505   0.4361838  39.5219235  22.3448579
   7.6904924  76.2383172  14.6881501   6.8014724  76.5629646  14.8312490
   7.9284103  76.5659520  13.8208119  54.8318421  17.8527363  46.4120054
  55.0149905  17.4746712  47.2720957  55.0718295  18.7751969  46.4998341
  49.0828943  66.4537287  51.9383383  49.1170120  65.8984995  51.1593723
  49.4517612  65.9113073  52.6354361  43.8101422  17.4255188  57.2085190
  43.5176503  17.2368248  58.1001902  43.3135795  16.8182286  56.6600084
  20.5373997  23.0773311  31.6246812  20.5189747  22.1411948  31.4258306
  20.3702444  23.1255870  32.5659291   9.6420689  52.3016310  55.2116871
   9.5099850  51.8489647  54.3786955  10.5254002  52.6650381  55.1493597
  26.4527185  63.6781141  18.1969850  26.6572721  64.6131846  18.2026593
  25.5746705  63.6273119  17.8192441  65.8800946   2.3283916   5.4479758
  65.5323337   2.0167880   4.6123950  66.6325675   2.8689723   5.2075831
  29.9827236  76.8704324   3.5834376  30.0727981  75.9272389   3.4474103
  29.4597286  76.9484811   4.3813197  29.1628260   8.9585166  22.0839707
  29.9152130   8.3668857  22.0951097  28.6501783   8.7085490  22.8526990
  56.7575121  54.2311382  26.9713211  56.8541574  54.1646290  27.9213047
  57.5153351  54.7430754  26.6887355  29.0489811   4.3621879   6.8169848
  29.6378607   4.9728637   6.3736693  29.0443462   4.6532064   7.7288644
   0.2273865  46.0028791  26.4287019  -0.4381256  46.6853762  26.3420486
   0.4035874  45.7246637  25.5299330   5.8142109  51.8730927  45.0097275
   5.7280083  51.1464405  45.6267977   6.5865918  52.3520660  45.3101349
  21.5029199  11.1063393  60.8102894  21.7869289  10.3911217  61.3795280
  20.8990056  11.6165550  61.3499117  43.7390989  42.7552419  -0.1645501
  43.8877291  42.7843957   0.7805936  43.8138241  41.8280416  -0.3902753
  11.7246492  30.5064781  51.5232849  12.0571048  31.1092385  52.1884108
  10.9919793  30.0609120  51.9486046  28.4404612  52.8256321  66.0713816
  28.9955711  53.4349298  66.5580416  27.5474644  53.0644512  66.3198805
  46.7927742  62.6271296  51.0138512  46.3226986  61.9230127  50.5672169
  46.1341190  63.0365992  51.5748644  15.7485527  49.0847974  25.0864713
  15.6925672  49.8575501  25.6485765  15.1551622  49.2738729  24.3595902
  10.8707161  73.6433506  15.0912917  11.0092183  74.2255259  15.8383656
  10.0207253  73.9055109  14.7377038  24.2304081  16.6826205   9.1834609
  24.4880337  15.8727651   8.7430160  24.4340700  17.3734145   8.5529344
  69.7858423  34.8005157  16.1329953  69.0407461  34.7232251  16.7288892
  69.7865385  33.9785342  15.6425111  62.8969282   1.7287641  26.8118398
  62.2732061   2.2823529  26.3420121  63.7009710   1.7820649  26.2952058
   1.3755436  40.3116274  65.4610968   1.7467518  40.1000118  66.3176298
   0.8263417  39.5579576  65.2452517   5.8991212  25.3193574  14.3440644
   6.0860986  25.5641418  13.4377782   6.6632432  24.8118930  14.6176164
  59.7290611  59.2679024  41.1596107  59.5123577  60.0451183  41.6745901
  60.3106356  58.7601471  41.7254639  45.6021404  68.0217266  59.9379826
  45.9780502  67.1892405  60.2241421  45.8853340  68.1122398  59.0281248
  49.6997732  54.2472081  20.5593888  48.8175672  54.1475205  20.2016084
  50.2047771  53.5441594  20.1508443  66.9011116  75.1717710  58.4642982
  67.8051138  75.0086069  58.7333536  66.3708162  74.8074436  59.1730165
  70.2977894  41.1549716  10.6381194  70.1583265  41.3415055   9.7096841
  71.2197612  41.3637357  10.7884995  53.2872248  35.3285336  56.3130379
  53.6737061  34.4530368  56.3322592  52.9640770  35.4280806  55.4175472
  50.6961155  72.6042986  45.1236868  50.3176355  72.1638918  45.8846235
  50.1509619  73.3814716  45.0010443  44.8920101  34.3233066   3.4076373
  45.3680128  33.5031037   3.5377233  45.2978605  34.7157578   2.6346509
  80.4198216  57.1753602   0.7329719  81.1381744  56.9226174   0.1530377
  80.2796410  56.4087586   1.2887542  17.0472467  36.1441326  39.3919730
  17.9103661  36.4945865  39.6120620  17.1201086  35.2046967  39.5604467
   0.5007047   6.1725526   0.7479589   1.0651130   6.3465791   1.5012137
  -0.0836593   5.4741244   1.0428206   7.8515358  55.7481050  63.8591671
   7.4396058  55.8998251  63.0085611   7.9344769  54.7963667  63.9187622
  48.5392374  35.3973393   4.3295304  47.8566545  35.5805831   3.6839835
  49.2127556  34.9263577   3.8388268  65.4096508  55.9505224  42.9698086
  64.8422384  55.6909561  42.2439289  64.8311520  56.4218950  43.5692930
  62.3544073  75.8130312  51.9202900  61.5327787  76.2988901  51.8488264
  62.6389503  75.9551430  52.8231049   1.2705095  12.4891003  12.9694533
   0.9981353  11.9801243  12.2059190   1.2939555  11.8536766  13.6849344
  21.3765247  29.5756634  46.9328356  20.5067308  29.4506081  46.5532923
  21.7729337  28.7045868  46.9154596  39.3777609  54.9465847  36.4501905
  39.8405528  54.3107224  35.9045434  39.4047570  55.7596397  35.9457660
  20.2039713  42.5704293  24.5242993  19.2875952  42.5459962  24.7997777
  20.6709188  42.9323201  25.2774446  11.2199994  67.0337486  65.6073093
  11.0181828  66.4002132  66.2958860  10.6291790  66.8042326  64.8900270
  61.7994308  76.5474558  29.3006754  62.4886084  76.7870188  29.9202538
  61.8460703  77.2182322  28.6194158  59.8835182  36.2917614  47.6210976
  59.9119949  36.6733027  48.4985065  60.1010895  35.3691316  47.7539492
  17.8737062  44.1237550  11.9983785  17.8227133  44.3056588  11.0600059
  17.0097584  43.7780099  12.2226207  65.3856087  47.5613832  50.5107975
  66.3185692  47.7753925  50.5145025  64.9772787  48.2785892  50.0259113
  42.3106598  13.9938267  39.2861485  42.6201295  13.1178292  39.5165420
  43.0952012  14.5412548  39.3186545  13.4020960  67.2450399  39.5157528
  12.5670195  67.6927567  39.3800020  14.0131581  67.6960707  38.9331698
  61.1127949  37.7381563  44.9361563  60.7063532  36.8985534  45.1508665
  60.9407091  37.8556037  44.0019035  11.4972325  74.2387199  61.5956688
  11.5975876  73.3773613  62.0009089  12.3180600  74.3783426  61.1234522
  39.7598798   8.6452111  59.1235781  40.0441320   9.4470986  59.5622253
  38.8076074   8.6438664  59.2204762   4.0216453  15.2783402  26.6690111
   4.8712690  14.8634060  26.8180156   3.4130485  14.7808274  27.2152042
  44.3191106   6.3507374  65.7562065  44.1964109   7.1736439  66.2294960
  45.1065023   6.4918812  65.2305365  52.5778389  49.1172743  27.2656107
  51.7734337  48.8967180  26.7960167  52.3426867  49.8754025  27.8005624
  42.4705070   9.0295749   3.8942258  43.3320993   9.3639569   3.6450688
  42.1146149   9.6975760   4.4801824  16.7741115  16.9568833  38.6811543
  16.8816526  17.6200016  37.9992890  16.0148771  17.2515019  39.1841483
  19.4100625  10.8053883  52.9643583  20.2394397  11.2721737  53.0667305
  18.9987809  11.2122448  52.2017670  81.6612816  62.8454638  36.1866045
  82.0950508  62.6724529  37.0221543  82.3205853  62.6330614  35.5259705
  81.9781685  71.1397171  19.5565414  82.3798370  71.6929913  18.8866282
  81.4409733  71.7405605  20.0729036  18.5651595   5.6134041  51.1798525
  18.1526572   4.9742993  51.7608976  18.6788280   6.3930042  51.7234802
  17.5627156  59.1932631  53.2924700  17.7648564  60.1038313  53.0774450
  17.6134606  59.1557646  54.2475891  20.1222175  11.3375335   9.6217172
  20.8990616  10.9317021   9.2369525  19.5583528  11.5327125   8.8732545
  50.7793100   9.2368801  43.1657791  51.2375886  10.0734242  43.2457590
  51.3384206   8.6123474  43.6279249  58.5712528  49.4671345  53.6547184
  58.7160683  48.5854626  53.3113289  59.2470455  50.0009108  53.2368469
  33.0952877  26.9764237  12.4038951  32.3215288  26.6590505  12.8695218
  33.2559484  26.3169293  11.7289989  63.1657600  44.9360704  21.0406733
  63.2653761  44.8614979  20.0915956  62.6989317  44.1403103  21.2957597
  23.7963791  70.5057812  62.0685959  24.2528840  70.8964539  62.8137207
  24.2565938  70.8452129  61.3009930  66.8652140  17.4355801  64.2875814
  66.7484628  18.3709152  64.1210079  66.7165624  17.3394402  65.2282667
  81.0776043  42.3006821  64.1072273  81.1441040  42.0602369  65.0313473
  81.5334320  43.1400490  64.0447330  48.4919453  51.4845514  33.9779162
  48.4026051  52.3031235  34.4659662  47.6920843  51.4289141  33.4550786
  42.9221153  72.6019812  24.1777039  42.1330643  72.1959257  23.8188863
  42.8093767  72.5471067  25.1266551  76.4139497   4.5259674  48.7134743
  75.8211981   4.7498902  47.9960251  76.8895613   3.7567051  48.3999872
  16.8936438  45.7261281   0.6132333  17.1470302  45.3531175   1.4575593
  17.3461241  46.5688996   0.5782334  77.6992356   6.5275105  20.0691557
  77.0686471   7.2433575  20.1475835  78.5008990   6.9475659  19.7575212
  54.7331804   3.3861070  28.9795892  54.7459120   2.7379804  28.2753198
  54.1508669   3.0107121  29.6400563  52.4482584  35.5519080  53.7510014
  52.3410463  34.8074436  53.1589603  51.7102623  36.1269689  53.5487700
  62.7286619  29.3493466   2.3234622  63.5377973  29.3894057   2.8333013
  62.0480722  29.1584783   2.9689090  25.0690086  13.3558758  16.0224569
  25.3730161  14.2627629  15.9855521  25.7155091  12.9085835  16.5685332
   4.6374341  66.7729616  44.6339750   4.9651165  66.2035322  45.3301096
   5.4020806  67.2784042  44.3581581  47.7339411  42.8783512  65.3496838
  47.6442623  42.9669571  66.2985420  48.5401297  42.3761129  65.2311611
  68.5596275  71.8872213  53.8367319  69.1578722  71.1725616  54.0548992
  67.6924706  71.5513802  54.0636206  24.0648407  27.7920918  14.0999524
  23.8373131  27.7754312  13.1703393  24.6442264  28.5485415  14.1912095
  50.2846050  75.0010824  42.0368433  51.0976744  75.4897642  41.9089937
  50.0033855  74.7683430  41.1519814  32.9476446  50.7489972  20.3863351
  33.5707277  50.8233933  21.1091535  32.4020809  51.5321546  20.4588334
  56.2273359  49.9954271  51.4108038  56.7918777  49.5078135  52.0105982
  55.3383017  49.8024797  51.7084885  31.3911779   8.2108219  62.0778799
  31.5337426   7.9664143  62.9923010  32.0481927   8.8851174  61.9049597
  54.0506315  54.4015551  31.4737725  54.1811419  53.6995173  30.8363223
  54.2594337  55.2028799  30.9936547  45.6797546  39.4407849   1.2225835
  45.0477594  38.7341599   1.0903327  45.9427780  39.3584304   2.1392457
  42.0188469  61.6128163  52.8535382  42.7671427  61.0373406  53.0120008
  42.3531526  62.2812085  52.2554318   7.8771039  74.1123343  66.8682766
   7.3593731  74.3463945  66.0979509   8.7814351  74.2958307  66.6138458
  71.3643312  60.3427696  48.0355644  71.5844011  61.2430143  47.7960539
  70.5173397  60.4123354  48.4760094   6.6788776   7.8959091  57.4002552
   7.0936019   7.9184349  58.2626534   7.4080712   7.8113468  56.7859554
  48.4889883   0.7305388  28.3766572  48.3196730   1.5499358  28.8415734
  49.4434351   0.6628780  28.3503739   3.0723114  44.8396444  41.2491846
   3.9966794  44.6534872  41.4139128   2.9951115  44.8436117  40.2951145
  11.1633641   4.6618946  24.2668748  10.4127271   4.0713700  24.3305945
  10.7820804   5.5390080  24.3059158  69.5186186  74.8094559  59.1136742
  70.2108097  74.1717243  58.9392948  69.7729874  75.5827332  58.6101198
  24.5004314  61.6576963   4.7649591  23.9126676  62.1013265   4.1534392
  24.4578737  62.1845632   5.5629794  10.3842790  30.6772145  41.7273998
  10.8618028  30.7329186  40.8996916  10.1255471  31.5793141  41.9158268
  53.5881376  56.7392492  36.5554261  53.4257317  55.9270811  37.0352578
  54.2742538  57.1802950  37.0563793  53.8896894  62.0335054  24.5523620
  53.4007120  61.9974327  25.3744507  53.5876703  62.8371668  24.1291070
  49.5752144  76.9059467  35.5837512  49.4021702  76.2604523  36.2690401
  49.8877287  77.6780415  36.0553789   7.5210065  66.8919854  15.1733510
   6.6209358  66.9917874  15.4834287   7.5825709  67.4825769  14.4225900
  58.2909966  59.5954657  34.3062782  58.7939835  59.6791458  33.4961987
  58.1310749  58.6557055  34.3929148  18.0212063  17.0854526  11.3238017
  18.8984579  17.2985225  11.0055797  18.0490917  17.2904592  12.2583787
   5.4882295  27.3552712  55.8979559   5.2809388  27.7206333  56.7580605
   5.4360540  26.4075096  56.0214281  51.4446402  74.7557878  34.8711705
  50.9661579  75.5847740  34.8795104  50.7793093  74.0933418  35.0575233
  52.4584001  31.3261514   5.8302705  51.8292612  31.9699578   5.5048053
  52.9351610  31.7854505   6.5216319  12.3818547  11.5999230  43.0287647
  11.6774423  11.6563042  43.6744118  12.5625093  12.5094422  42.7913427
  24.8777301   9.2607983  23.0259562  24.4171197  10.0970371  23.0950189
  24.3047673   8.6345108  23.4683537  34.3841595  68.3085256   4.8355977
  35.2368206  67.9671006   4.5660989  34.4306368  68.3418756   5.7910840
  69.7998709   6.7304091  30.4588334  70.0578874   6.6394191  31.3760964
  69.8174375   7.6737599  30.2975289   0.8888681  14.8924454  37.7038407
   1.4785964  15.6463536  37.7125120   1.4234931  14.1664513  38.0253267
  73.3598709  75.1825714  39.5268607  72.9400539  74.6319389  38.8659596
  73.9149094  74.5806360  40.0226879  28.5941166  12.7288251  11.2035481
  28.6252302  12.1238380  11.9446628  28.3142990  13.5608726  11.5851657
  12.0063789   7.7576454  57.7113104  11.8802650   8.6816128  57.9272032
  12.6775701   7.4578770  58.3243942  69.9663687  74.1215181  52.7439833
  70.2972555  73.4836721  52.1116114  69.3999815  73.6123180  53.3237696
  73.7383699  56.7881727  29.7533488  73.1390238  57.0189476  30.4631090
  74.2107010  57.5992441  29.5654750  79.7964525  74.5480776  65.0935411
  79.9352264  74.9830675  65.9348202  79.4504356  73.6858559  65.3239202
   6.4949246  56.4723158  54.4215965   6.3739510  55.6764364  54.9394512
   6.6112919  57.1654797  55.0713778  70.1551520  12.4959000  50.6858253
  70.6558978  12.9711636  50.0227928  69.2961871  12.9182919  50.6856394
  11.8931216  42.0277314  17.7109448  11.5559310  41.3538747  18.3012311
  12.8413195  42.0067410  17.8402249  35.5678006  71.9753218  44.0352917
  35.8332081  71.6301203  44.8877192  36.3876172  72.0744324  43.5512304
  55.3622007  72.4319029  43.6927605  56.3142109  72.3326015  43.6999035
  55.1012611  72.1753740  42.8082657  41.8059248  38.4267955   8.1639545
  42.4052090  37.7387862   8.4533231  42.1617168  39.2298989   8.5443084
   6.0414738  32.5742202   4.8999087   5.3165120  32.8290324   4.3291823
   5.9215182  33.1017976   5.6895272  53.5253900  32.6394801  10.2525966
  52.7988619  32.8562408  10.8368938  54.0835089  32.0586495  10.7696740
  68.2978052  37.2785525  37.4727456  68.0386824  38.1660275  37.7206914
  69.2335123  37.2382264  37.6703374   2.0630188  64.7250938  36.3330960
   1.9988270  63.9697361  35.7486725   1.6930695  65.4499435  35.8291602
  56.9865751  65.3327322  48.1028032  56.4323759  65.2316380  48.8766718
  56.4347935  65.7948494  47.4717617  24.1813988  11.5314679   2.4556081
  24.9071354  12.1540408   2.4996631  24.0974277  11.3270192   1.5242736
  12.3982341  17.6492794  60.7068110  12.3089559  17.5797756  61.6573000
  13.2921655  17.9640969  60.5726004  44.0508795  59.7596931  53.9155245
  44.9411106  59.4699430  53.7161112  43.7709761  59.1950893  54.6360159
  18.2117231   0.1619919  62.0449162  18.8645084   0.3175791  62.7274799
  18.1485326   0.9959563  61.5793610  10.2927512  44.3388753   7.7559106
  10.0582022  45.2660756   7.7168767  11.2315983  44.3369679   7.9424397
  11.8145009  65.9353352  13.8358343  12.0703431  65.1488876  13.3538830
  11.0798665  66.2932968  13.3374286  79.8605204  69.4368076  47.1161795
  79.9092579  70.2889490  46.6829157  80.6265736  68.9608717  46.7954445
  49.3238401  69.3288851  47.0066977  49.0434551  70.0162077  47.6110125
  49.2613649  68.5213423  47.5167990  39.5127065   5.5876072  57.0710993
  39.1360528   6.2687214  56.5139246  40.2881581   5.9952934  57.4567223
  60.4770815  23.6150273  56.4430714  60.1002752  23.5601719  57.3212719
  60.4993045  22.7090462  56.1349535  37.2860998  61.9806676  11.0717313
  37.1904701  61.0498147  11.2732141  38.2181877  62.1584420  11.1976115
   7.9871423   0.0498732  62.8418493   8.9369733   0.0503596  62.9603958
   7.8641898   0.0768431  61.8929625  26.0746074  68.6138630  18.7106109
  26.7663670  69.2618799  18.5772729  25.2619243  69.1169405  18.6587417
  62.9584265  67.8942728  32.6722169  63.6554861  67.6757717  32.0536733
  62.9922295  67.1971035  33.3272314  65.1829372  38.2453017  36.4317624
  65.2482019  37.3319058  36.7104737  64.7529815  38.6887174  37.1630303
  70.7263565  52.7403736  56.0664892  71.2425375  53.0999279  56.7879581
  69.9778128  52.3226690  56.4924431  39.0384408  72.0839071  19.5431960
  39.8930569  71.6541529  19.5775688  39.1020985  72.7949619  20.1808333
  75.5356211  22.2193532   0.6791465  76.1253828  21.5913491   0.2619855
  75.6657785  23.0316787   0.1898400  67.9638386  74.7286558  40.7561827
  68.5208368  73.9691353  40.9267950  67.0708609  74.3896437  40.8185434
  42.0904344  44.1820531  11.6514699  41.8415159  43.3526711  12.0593898
  42.7270550  44.5644383  12.2553937   9.8104198   6.0690506  56.8531752
  10.6576926   5.6731327  56.6491985  10.0128181   6.7516239  57.4929810
  61.3349146  10.8671145   7.8647916  61.1498445  11.1052280   8.7732427
  60.8327383  11.4951282   7.3455159  38.5303235  68.5352468  58.2269907
  39.3501210  68.0917072  58.4447861  38.5844016  69.3755770  58.6821222
  35.4844898  39.6847062  27.6452176  36.0161203  39.1220193  28.2082288
  36.0564608  39.8935800  26.9066731  56.4236498  77.2679520  50.3530407
  56.8249798  77.6100874  49.5542240  55.5006838  77.1527576  50.1269960
  24.5831592  15.3103741  30.7459235  24.9838693  14.4415482  30.7174277
  24.9694402  15.7271393  31.5161967  17.6219661  12.8096588  66.5876389
  16.8993957  12.1849831  66.6500854  17.5781209  13.1375988  65.6894350
  67.4618811  42.8890424   7.6770465  68.3480734  43.1758981   7.4565618
  67.2946829  42.1534638   7.0878140  56.5289008   2.4802931  60.8311749
  56.9338428   2.0030983  60.1069260  57.0570480   3.2736119  60.9203148
  41.8944216  65.9837341  54.4726467  41.6441536  65.8167410  53.5639620
  42.7609110  65.5863476  54.5593262  49.4499391  36.5825419   1.0620038
  49.8718447  35.8288627   1.4745538  48.5132402  36.3943534   1.1204211
  64.5865201  43.3998911  30.7236004  65.3868275  43.7798087  30.3611088
  64.8630040  43.0013863  31.5488148   5.7365138  52.6882824  12.3879401
   5.7721145  53.1008753  11.5249602   4.8730905  52.2764167  12.4210660
  69.5842747   9.8733550  47.7258539  68.7249724   9.6083617  48.0538893
  69.7258715   9.3245101  46.9545221  10.6902814   0.2855662  53.2050753
  11.2504506   0.4346132  53.9667988  10.9699059   0.9444579  52.5695372
  28.5149097  11.7591631  39.9578929  28.5564375  12.0029616  39.0331936
  27.6986170  11.2659061  40.0391150   8.1797028  31.1868215  45.2440166
   7.9540563  31.3441753  44.3271971   7.5078171  31.6548300  45.7397652
   9.7740615  53.6410467  42.4740887  10.0750292  53.1267421  41.7249966
   9.2986406  53.0143039  43.0194330  77.4450289   2.2617117  47.0493412
  77.2126241   1.4059559  47.4097586  76.6398184   2.5746837  46.6371298
  31.1623788  30.4440904  58.9693213  31.9129395  29.9620247  59.3164587
  30.4863977  29.7778416  58.8452482  12.4386609   8.2617259  44.6411753
  12.8807044   7.5285000  45.0692034  12.9924655   8.4688509  43.8884258
  66.5069787  19.6049654  52.4151659  65.5819969  19.6427202  52.6585054
  66.8578176  20.4569769  52.6744318  66.8707041  14.3881214  36.7290235
  67.1490983  15.2863359  36.5503097  66.6750626  14.3799412  37.6659822
  78.2144575   2.8812078  32.8352404  78.0570797   3.8197163  32.9385161
  79.1121055   2.8234684  32.5079393  26.2734426  74.8958473  44.0772820
  26.6278756  74.3267314  44.7604465  25.3660453  75.0494770  44.3404436
  61.4080512  24.3979303  62.7541971  60.5478506  24.1229240  62.4369335
  61.5370207  23.8981764  63.5603237  19.6378862  28.7904474   0.4909341
  19.7587430  29.2615053  -0.3335221  19.8963147  27.8903791   0.2926318
  71.5573112   2.2699182  38.6073208  72.2673099   2.9105312  38.6491418
  70.8135883   2.7094027  39.0195847  56.8797613  36.6434233  41.6943836
  56.1714320  36.2784712  41.1639929  57.6392080  36.0989086  41.4870691
  54.1043683  59.0066819  25.3921723  54.7525481  59.1529838  26.0811496
  54.2604217  59.7110085  24.7630429  65.8867531  73.8310362  64.0285587
  64.9347716  73.9278857  64.0527153  66.1377256  73.7026195  64.9432993
  26.3764548  13.7687564  33.7692785  26.6445518  13.1121051  34.4120574
  26.0975504  13.2592642  33.0084467  62.6297962  25.4563650   8.0847566
  62.1235477  24.6755156   8.3088414  63.5265791  25.2424166   8.3421247
  56.9558098  30.9597389  55.5093908  56.8308414  31.1046020  56.4472771
  57.4282309  31.7357771  55.2080297  43.9594698  12.5572908  28.5454941
  43.4160805  12.6411843  27.7619600  43.7703466  13.3460784  29.0537071
  25.0861001  18.9109576  41.1253929  24.6887517  18.6169219  41.9450808
  24.4556284  19.5336378  40.7634449  63.5886239  63.7291865  58.0537224
  64.4707613  64.1007535  58.0518055  63.4695237  63.3995263  58.9444351
  34.5974994   7.0826304  66.2973261  35.2207518   6.6120821  65.7438183
  34.4257498   6.4856851  67.0256042   1.7039417  11.1714947  46.7770958
   1.7148325  10.2431166  47.0099640   0.8112057  11.4567804  46.9716883
  57.4721586  42.4189869   4.7927253  58.1224953  42.9396054   5.2641599
  57.7050149  42.5231725   3.8701455  65.2547776  15.3243157  22.9059903
  65.2783834  14.3764993  23.0375878  64.6120750  15.4533455  22.2084825
  27.8224206  20.8503032  59.1803551  27.4629879  20.4443479  59.9691772
  27.0913005  20.8621120  58.5626554  28.6822703  24.9331374  47.8383799
  28.5691041  24.7890730  48.7778850  29.2209729  25.7222207  47.7802427
   8.4636057  65.2951710  48.7558603   8.4455288  64.4104056  49.1206837
   9.2210973  65.2975218  48.1706810  67.4432516  14.5970285  14.5075309
  68.0821276  13.9073539  14.6875894  66.9115877  14.6443856  15.3020895
  33.6606383  19.0716922  24.2374134  32.7741003  19.3849909  24.4166541
  33.6836815  18.1910014  24.6116948  76.2356650  61.4313313  11.5032498
  75.9897887  62.3345086  11.7033784  77.1911084  61.4248416  11.5608136
  10.3215850  76.5895880  47.6596117   9.6069325  76.0057850  47.4052906
  10.4924167  76.3737978  48.5763931  22.3547125   1.4428718  65.6190538
  22.6420546   2.3514995  65.5292606  22.9367065   1.0720608  66.2823868
  23.9957870  27.7521078  38.2282376  23.8073505  28.2700769  39.0108180
  23.5460676  26.9204132  38.3774686  20.7177067   4.5719299  37.6811361
  21.5165496   5.0992614  37.6790023  20.5434394   4.3974236  36.7562532
  34.6468889  30.7121846  14.6088521  35.2276885  31.1256012  13.9701097
  34.5610922  31.3595107  15.3087346  56.7513821  76.3369965  19.7375858
  56.8144397  75.6651313  19.0587246  55.8164358  76.5346059  19.7928822
  38.1685937  38.0070941  33.5327458  37.8764165  37.1331159  33.2738566
  38.2803357  37.9509465  34.4817424  16.0993528   1.4310473  38.4874034
  16.7571831   0.8592321  38.0917788  16.2163067   1.3142180  39.4302225
  14.1326822  62.7686493  37.7031612  13.8304485  63.4153728  37.0654798
  14.2134345  63.2587091  38.5214233  46.1730957  22.4779987   5.1246375
  45.5835629  22.1134758   4.4644824  46.8127918  21.7839789   5.2838844
  24.2184138  27.7597904  50.1167154  24.1430616  27.3224187  49.2686272
  25.1293182  27.6226163  50.3768539   8.8352288  74.5362459  22.0218873
   9.3887628  75.1260404  21.5100551   7.9434980  74.8445847  21.8607259
  78.2923543  25.6271204   2.6267879  78.6597764  26.4559898   2.3198525
  78.2844674  25.0666878   1.8508451  17.0570982   1.5580700  26.0842395
  16.3352561   1.4268140  25.4694653  16.6583312   2.0073894  26.8294430
  80.7719438  51.2325780  46.3934755  79.9875181  51.7459623  46.5867186
  81.3084023  51.8101017  45.8504200   6.4801968  33.4934894  29.3702865
   5.5894888  33.2054846  29.5701027   6.4480007  33.7495891  28.4485435
  71.5798032  47.6097438   0.1281707  72.2570740  48.2188979  -0.1658853
  71.3182723  47.9392186   0.9879844  15.7250118   4.7764179  16.0641754
  14.9142063   4.2747283  15.9797168  15.4409397   5.6440932  16.3517070
  25.1057076   4.4085681  22.5361276  24.3266773   4.4526768  21.9816923
  24.9515963   5.0622451  23.2181740  37.2261155  59.9100808  27.3213339
  37.5052179  59.1635792  27.8514957  37.9746974  60.5064766  27.3345804
  55.9862954  51.2439291  63.1888914  55.6911908  52.0405714  63.6299229
  55.2602490  51.0065285  62.6120663  34.0844536  37.3877764  54.2913389
  34.0439224  36.5987873  53.7508917  35.0131893  37.6188278  54.3085861
  39.6383023  13.4051979  22.0314097  40.4190350  13.9345694  21.8687463
  39.0742803  13.5718966  21.2762141  42.0225954   0.8226316  54.2120600
  42.3553801  -0.0722548  54.2803478  41.1056519   0.7582087  54.4790649
   4.6028961  71.3206510  10.8632982   4.4175208  70.9641735  11.7320859
   3.7579501  71.3074825  10.4137194  22.5689149   1.5474358  46.7227697
  22.0679259   1.2987469  47.4995565  22.3738265   2.4763615  46.5992022
  12.9728950  48.8192980  38.7177253  12.7276099  49.6350734  38.2811713
  12.1520222  48.3331649  38.7956738  56.2042247  25.8104929   1.4478795
  55.5085742  26.0719594   2.0511500  56.2817752  26.5449497   0.8389489
  20.8600450  19.0666592  47.7755880  19.9054861  19.1247177  47.7346277
  21.0544014  18.1562281  47.5529337  81.7941087  50.1204507  30.5266190
  82.2372048  49.2737071  30.5806708  80.9948533  50.0057761  31.0406971
  11.5862692  72.4945484  25.8400297  12.4789131  72.4928547  26.1855984
  11.0299958  72.5830869  26.6139483  74.6312671  59.5588474  31.0181618
  74.6783822  59.7608272  30.0837016  75.5373638  59.3818418  31.2709284
   0.3922284  57.8604130  25.7393456   1.0498942  57.1653311  25.7154536
  -0.1698958  57.6329223  26.4799523  72.6010089  65.2016215  39.8940778
  72.9490345  66.0165481  39.5321298  71.9340532  64.9258594  39.2653036
  40.2477551   5.7991856  51.4754152  40.0082827   5.3676653  50.6552505
  40.1381111   5.1221824  52.1431589  38.9776635  19.5193434  65.0682449
  39.6531940  18.8536429  65.1976156  38.5869789  19.3027604  64.2216730
  24.3704856  69.0241532  28.0971193  25.0622047  68.9377723  28.7530875
  24.1093505  68.1236527  27.9044056   7.6947111  11.7089324  11.9239871
   7.4367994  11.0625463  12.5811736   7.1685261  11.4912944  11.1545722
  33.7057257   6.9243848  59.2657995  33.6095643   7.5390083  58.5383224
  33.3406329   6.1034560  58.9356232   2.5471142   3.0570343  37.9027867
   3.4595481   3.0340657  37.6143956   2.0557424   3.3142078  37.1226287
  49.8245220  65.7080094  24.1004872  49.4153165  66.5464107  23.8863206
  50.3438835  65.8882169  24.8840833  67.6532953  69.7200588  37.8317595
  67.3678129  70.0239937  36.9701600  67.0960384  68.9638511  38.0157328
  77.0938676  73.0987180   9.0895426  76.2840240  73.3047454   9.5563805
  77.5345557  73.9426450   8.9904851  75.8723586  66.2407867  53.7317514
  75.4506653  66.9986824  53.3267832  75.5350321  65.4897301  53.2435322
  44.1932786  66.5446345  44.1683483  43.3194078  66.6449372  43.7908316
  44.3786300  67.3925958  44.5718861  72.9766512  22.0648313  51.2868023
  72.2952795  22.0395637  50.6149960  72.6016378  22.5971508  51.9883919
  34.5952106   1.2478159  34.9259973  34.7951436   0.5071139  34.3536186
  33.6436462   1.2227145  35.0266385  74.9486869  68.1860415  34.3568754
  74.5519715  67.4495600  34.8221111  74.3673783  68.3400265  33.6121607
  41.1516476   5.0164038   0.2065443  41.6780329   4.5395431   0.8482268
  41.7452288   5.6803644  -0.1442437  27.4111915  11.8016052   0.7868407
  28.3261156  11.9033349   0.5245505  27.2515607  12.5302553   1.3866903
  75.3731625  49.7577421  59.2113161  75.4567545  50.1147858  60.0954914
  74.4800930  49.4152157  59.1747761  76.9857693   0.4346058  32.8671479
  76.6631222   0.1544970  33.7236929  77.2259283   1.3529703  32.9902816
  56.7564440   1.9626239  26.8685365  57.5277758   1.6045019  26.4291883
  56.1721087   2.2193819  26.1551929  61.8448865  27.5942776  -0.1888497
  61.2933122  26.8119785  -0.1905616  61.7661058  27.9409358   0.6998889
   9.4167984  72.0610933  46.7320919   8.4697808  71.9334255  46.6765165
   9.7760618  71.4860044  46.0564947  72.4029153  72.2007177  30.5298066
  73.2165544  72.5820918  30.8596206  72.5214272  72.1676544  29.5805478
  78.3701312   9.3353650  14.5168130  79.2427861   9.2587349  14.1310231
  77.8493344   8.6714455  14.0649144  27.4740505  11.8951511  13.5452318
  26.5255523  11.8729270  13.4183884  27.6328945  11.2912381  14.2706919
  64.4247304  68.6777334  28.3245492  64.3852608  68.9016156  27.3947382
  64.0989166  69.4581763  28.7728643  27.9320968  74.4200714  28.4512734
  28.1807054  75.3440626  28.4254527  27.3167051  74.3172417  27.7253580
  51.7397928  11.9206607  51.3173914  52.1009731  11.0500252  51.1507368
  50.8115578  11.8409622  51.0977125  19.4002581  14.2058933  54.0441561
  19.0432954  13.3879912  54.3903399  20.1650047  13.9369905  53.5351515
   1.0127843  40.0185673  29.1795135   0.9804142  39.0645353  29.2502475
   0.1121367  40.2747075  28.9808774  31.1581993   1.6296113  18.3565009
  30.8852315   1.2735561  19.2020452  30.3642607   2.0235130  17.9949236
  23.4855056  11.9359517  32.5025439  24.2343712  11.9605899  31.9068718
  23.5249519  12.7694786  32.9714894  11.1179388   9.4460109  66.4298260
  11.8839372   9.7375014  65.9353422  11.1470283   8.4908012  66.3754409
  31.4025760   3.5552600  43.0867672  30.8958697   4.1308534  42.5138998
  32.2673082   3.5119706  42.6786041   6.1797894  76.7078303  44.3931913
   6.1072028  76.0863934  45.1176071   5.3387941  76.6468760  43.9401531
  56.4793483  71.3171820  46.5478134  56.7929631  72.0159767  47.1218872
  55.6206399  71.6183744  46.2509394  23.1154966  23.4328365  52.7291155
  22.5110674  23.0039406  52.1233559  23.0121517  24.3672609  52.5490999
  47.5065947  11.0184908  31.0086036  47.0636272  11.7381227  31.4582038
  48.4202194  11.0895145  31.2851548  46.9451462  32.7360430   4.3754546
  47.1029031  31.8395153   4.0795056  47.8128277  33.0686298   4.6051232
  26.3239110  69.9252890  32.0329452  27.1818555  69.6474407  31.7120695
  26.5084756  70.6891153  32.5795126  63.6057960  51.6937367  41.0664892
  63.5335504  52.3893611  40.4129457  64.4432782  51.2714903  40.8752728
  30.5278826   9.0207297  40.4465294  30.0028658   9.8033518  40.6141329
  30.3521228   8.4497237  41.1943913  27.1798528  59.0911357  48.2022285
  27.1198095  59.9834303  48.5434580  27.4454845  59.2012183  47.2892380
  78.1305759  69.8673127   7.2086769  78.6107724  70.0701253   6.4058632
  78.6621278  70.2472816   7.9081827  24.8444419  63.8427254  13.8436715
  25.1338785  63.1779620  13.2187383  25.5264746  63.8532564  14.5152013
  29.9865341  32.6771426  59.9550200  30.2927780  32.2371101  60.7480001
  30.3424478  32.1529222  59.2375612  49.0681124  26.0994291  52.3638248
  49.7677565  26.5885472  52.7968311  48.4005213  25.9866428  53.0404615
  74.7762858  29.5169070   3.8360707  74.0521228  30.0882068   3.5802571
  75.5515992  29.9264774   3.4521787  42.7263546  14.1974747  42.7416277
  43.2996559  13.7722349  43.3793831  42.8813410  13.7217331  41.9256115
  75.8427809  22.2573090  62.9443264  75.3771190  23.0088878  63.3111000
  76.5934960  22.1339226  63.5252190  31.4814962  63.1771044  11.0908985
  31.9146312  63.8149134  11.6581941  31.5010227  62.3605232  11.5899432
  74.0135114  73.4322686  20.7018328  73.8360482  74.3576870  20.8701777
  74.5957070  73.4343890  19.9420464  40.7687473  13.0914676  34.7468376
  40.5981159  12.1499145  34.7224379  40.2950191  13.4008026  35.5189276
  63.0389023  12.3002303  26.0465360  62.3342466  12.5707984  26.6351652
  63.7771606  12.8618777  26.2826681  80.2615755  43.3087246  56.2086868
  81.1813085  43.5739056  56.2096643  80.2878039  42.3530452  56.2558079
  79.3579089  55.4866239  10.2468841  79.5296227  55.2350935  11.1543433
  78.5307347  55.0558492  10.0313632  18.1073488  61.6271905  30.3968120
  18.2073606  61.7425851  31.3417530  18.5059942  62.4098865  30.0164175
  64.2038918   4.6788391   7.3101622  64.2682695   4.2399797   6.4619350
  63.6777925   5.4594421   7.1366435  31.4027882  15.6208026  62.6883936
  32.3086262  15.3370464  62.8115845  31.3030672  16.3670361  63.2795143
  38.6733580  22.4103189  45.8716059  37.9515624  22.7265263  46.4149761
  38.2594085  22.1594071  45.0458193  50.2382209  61.1054007  59.6768618
  50.8541529  61.8373100  59.6426725  50.5111327  60.5291466  58.9629412
  56.9598514  65.5689282  59.8029192  57.0413118  65.7885332  58.8748188
  57.8548294  65.3773231  60.0831570  45.9602469  38.9106989  63.4250127
  45.3023821  39.5047657  63.7863012  45.9627384  38.1636130  64.0234174
  44.2957544   4.0431410  51.6071033  44.9468946   4.2095605  50.9255266
  44.1375303   3.1001824  51.5620756  39.7647214   8.7135881  32.6692224
  40.6564617   8.7297332  32.3216987  39.2066813   8.6505973  31.8940735
  80.9771412  71.0056792  50.7483435  80.0470608  70.8791308  50.9358788
  81.1747973  70.3596966  50.0702047  54.7923976  55.6058879  62.2074033
  55.6329685  55.1480563  62.2154944  54.8865801  56.2674458  61.5220554
  59.5411693  54.0659973   8.2774369  59.9399912  53.7940153   7.4508779
  59.7073685  53.3368704   8.8749187  56.1183596  20.5153394  36.6949248
  55.4207993  20.9586358  36.2120914  56.1559963  19.6392906  36.3110590
  25.9951795  67.3809747  65.6173468  26.2879623  66.4720551  65.6835032
  26.2628854  67.6556055  64.7403383  71.3398068  75.0640206  24.6564150
  72.1213239  75.1025748  24.1050720  71.5694313  75.5737678  25.4333711
  69.0902138   5.3819746  35.5686498  69.3546391   6.0050213  34.8918009
  69.8896503   5.2182561  36.0689807  35.8186007  24.2619014  47.2323227
  35.5938888  24.6639490  46.3932180  35.0939775  23.6630416  47.4126577
   0.7728692   2.1611936  56.5719986   1.6647072   2.1310557  56.2256622
   0.8177205   1.6698119  57.3922205  41.2068141  55.0920049  24.7269630
  40.6434978  54.5331685  25.2623200  41.0444845  55.9774868  25.0522375
  20.2354253  68.7977622  64.7715950  20.2374566  67.9390828  64.3486309
  19.5870078  69.3041895  64.2823887  26.0725951   4.1586789  59.4686508
  26.0556006   5.0316674  59.8608685  26.9857574   4.0288338  59.2126989
  31.6972125  76.1470863  42.4336815  31.6256488  76.7021393  43.2102299
  31.5002311  76.7321223  41.7021322   4.8616446  74.1526652  24.8802137
   4.1034616  73.5685856  24.8957944   5.0844849  74.2311732  23.9526296
  70.4284566  67.1161572   5.1178277  70.7830863  67.3696754   5.9700000
  69.5649653  67.5279568   5.0856274  45.7007027   7.3877776  37.5716138
  45.4308224   8.2109648  37.9787493  44.9105930   6.8474752  37.5771999
   6.2104565  25.1576400  28.6695552   6.9604474  24.7028089  29.0527964
   6.5055978  26.0624766  28.5676169  56.3575637  66.1268637   8.7179820
  56.7676603  65.8769128   7.8899877  56.0716855  67.0299932   8.5806434
  18.7547641  39.0478574   4.1022412  18.4912550  39.4051944   3.2542436
  18.3305126  39.6170798   4.7442929   5.9685982  63.0548517  43.7401438
   5.1678479  63.3874599  44.1456127   5.6764496  62.3204545  43.2001972
   2.1192945  67.8819500  51.8056107   1.8867839  68.2706587  52.6488638
   1.3452209  67.3792122  51.5520382  24.6069860  30.0178599  52.6513243
  24.9737167  29.9910998  51.7675686  23.7588096  30.4487658  52.5457239
  47.9875427  67.9918305  26.1505079  47.1923654  67.8227816  26.6558266
  47.6706397  68.2703463  25.2913046   1.7144388  18.5084975  31.5020609
   1.0755288  17.8194070  31.3199043   2.2174132  18.5890758  30.6916571
  57.3473883  18.8197803  42.5376463  57.5107145  18.9615011  43.4701014
  56.4053679  18.6596632  42.4811172  68.4086084   0.1668255  41.6378117
  68.0026579  -0.6219940  41.2783670  68.1649780   0.8615829  41.0261011
  80.6402819  63.7903909   0.3126799  80.6300943  63.5494355  -0.6136401
  79.8002260  63.4796194   0.6502543  36.4717746   7.6733792  18.7802839
  36.6059065   6.7330664  18.8988280  35.7333541   7.7354753  18.1743872
  25.1207924   7.4624634  41.3670588  25.5007195   7.9350686  40.6264305
  25.8404469   7.3792666  41.9926882  49.5950174   3.6673772  53.9882851
  49.6790504   4.5567438  53.6444855  50.4967833   3.3785269  54.1283274
  15.2390182   7.8314096  47.9355335  14.6938932   8.5854042  48.1603956
  14.6276486   7.1968383  47.5616646  51.5609570  76.7751582  31.2848568
  52.3931777  76.7813450  31.7577219  50.9092256  77.0141646  31.9439101
  44.0441478  76.9450448  39.6246576  44.8987926  76.7791769  40.0225258
  44.1358102  77.8023742  39.2089462  76.9505494  77.4441697  36.1373329
  76.2257116  77.7615444  36.6759610  76.7064922  76.5463879  35.9122634
  53.2900381  12.4875319  32.3399878  53.8421726  12.7319324  33.0827165
  53.1996965  11.5372658  32.4111652  77.5699060  73.1932161  57.4065781
  76.7282574  73.6486791  57.4269581  78.0665462  73.5752172  58.1302214
  10.6731857  76.7593497  31.3308191  11.5901888  76.9953300  31.1906409
  10.3529371  77.4059242  31.9597983  78.6554102  12.7504277  20.6105733
  79.5173831  12.5266302  20.9615016  78.8417058  13.1992042  19.7858775
  30.1984275  74.8289384   8.6429638  29.2784894  74.5870567   8.5359901
  30.5755485  74.1150681   9.1571635  68.3177436  55.6412331   8.4618831
  69.1700805  55.6682698   8.8966548  68.5034240  55.2860228   7.5926423
  64.5826165  16.0182905  43.9765835  63.9459698  15.3691339  44.2757654
  64.2758052  16.2710476  43.1058311  10.3641868   2.1084353  24.3406200
   9.9476260   1.7064014  25.1029062  11.1770380   2.4820389  24.6811008
  35.4467678  22.3881030  39.6875000  35.6468940  23.1901002  40.1701832
  34.6657848  22.0387745  40.1167583  16.3940549  12.8135586  52.4624205
  16.7670476  12.2913730  51.7521906  16.8209112  13.6665511  52.3822451
  58.8623489  68.6048542  49.3441772  58.7047447  69.3013285  49.9816036
  58.0734599  68.5931889  48.8021946  31.1437321  14.0923631  32.3061156
  30.9658337  14.3287575  33.2164454  31.8488526  14.6819925  32.0389533
  17.1762526  32.1106887  53.2525444  17.6133442  31.4491224  53.7887478
  16.4836586  31.6312051  52.7979708  57.2465229  13.4348547  66.1389923
  56.9731092  14.2546439  66.5506077  57.4483633  12.8541422  66.8726587
  30.7766104  16.7581964  40.1939487  30.0746012  17.3626852  40.4347944
  31.0860801  17.0762455  39.3458295  40.7409620  21.0591245  55.1908159
  41.1892557  20.9549642  56.0301113  40.9315443  21.9594717  54.9275970
  60.9546076  54.1199300   2.8748433  61.2435924  54.9588117   2.5156848
  60.0513255  54.2758426   3.1505363  43.2002497  16.1146975  24.3012857
  42.4274683  16.6795266  24.2985916  43.9394760  16.7199075  24.2421603
  72.8006349   8.6390686  31.3088751  72.9353915   8.8423145  32.2344899
  72.8428058   7.6838136  31.2648034  51.3695145  34.8227811  59.6388245
  51.9102669  35.6040502  59.5228958  51.1773682  34.5301366  58.7479448
  18.0918419  16.4868784  29.5873451  17.4440908  17.0103323  29.1154909
  18.9304733  16.7372966  29.1997647  23.6258459  45.6735516  53.0199575
  23.6599159  46.2142277  53.8090944  23.5864353  44.7747898  53.3469200
  39.7396803  14.2197621  57.5810432  40.1858091  13.4374738  57.9054260
  38.8153076  13.9730895  57.5507164   4.6127279   6.4889118   9.5681111
   5.4226167   6.5327641  10.0764339   3.9835794   6.0702822  10.1556079
  64.2062140  10.7183135  60.6459904  63.6247396  11.1762452  60.0390196
  65.0771761  11.0635030  60.4497576  30.8162368  61.5507523  13.0714738
  31.1996806  61.5040700  13.9472723  30.4991592  60.6637828  12.9012454
  22.8724670   4.6737137  20.7951117  22.2311878   4.0469065  21.1299324
  22.5474215   4.9076143  19.9257052  44.9294949  17.5450230  45.4072428
  44.3190861  16.8253636  45.5676126  44.9661684  18.0177820  46.2387371
  20.8856834  70.6520263  18.7415528  20.3485406  71.4303998  18.8893485
  20.2907146  69.9179129  18.8942587  53.2436334  67.5757024   0.3418319
  53.0896723  68.5104486   0.2047936  53.8267266  67.3216125  -0.3734811
  77.8181254  43.2601702  14.6691434  77.8665482  43.6095455  13.7792985
  76.9741618  43.5663894  15.0010888  41.4388787  70.8742163  19.9795739
  41.3631069  69.9435064  19.7691743  42.3715138  71.0665652  19.8824803
   3.4482213   7.8749782  33.1883025   4.1833039   7.9783040  33.7926316
   3.3095093   8.7508255  32.8279090  68.0739629  51.7513809  22.2253339
  68.8124167  51.3475415  22.6812188  67.6477467  52.2912058  22.8910367
  13.3195508  63.0016832  43.6123800  12.4743975  63.2304231  43.2255697
  13.8843358  63.7482170  43.4125328  43.1495439  38.1221477   4.1623275
  42.8798758  37.5323089   3.4583394  43.0608200  38.9985150   3.7877051
  23.1032586  27.7966738  41.0053396  23.7414956  28.5094571  40.9765625
  23.4598207  27.1816373  41.6462946  51.9603777  18.7112749  39.4018126
  52.1128559  17.9459083  39.9560642  51.3212776  18.4143841  38.7540174
  81.6147744  53.3678636   6.6170280  81.5794598  54.2822513   6.3361756
  81.7244708  53.4131131   7.5668447  16.1041117  21.5616012   1.0268535
  15.4373670  21.0217905   1.4514546  15.9302080  22.4486828   1.3416135
  25.1919270  34.3205237  30.2419114  25.7154799  34.5552397  29.4757295
  25.6219888  33.5424209  30.5966425  73.3015203  43.2738113  60.9021807
  73.9006281  44.0193653  60.8641434  72.5007629  43.5883617  60.4825640
  32.5392222  10.5126333  39.3550563  33.3963037  10.1678741  39.6056175
  31.9292140   9.8002619  39.5464993  13.5318769  69.4009409   0.1668831
  13.7085832  70.0107298  -0.5494716  14.1343034  69.6666143   0.8616750
  27.0814479  45.6637971   6.9452912  27.7626575  46.2976257   6.7206961
  26.8415845  45.8792464   7.8465569  28.2250309  18.3477485  10.4208839
  27.4783850  18.6024797  10.9629750  28.2874322  19.0372717   9.7599030
  31.3105583   4.8612520  56.0795355  32.1343660   4.8902515  56.5660858
  31.4675570   4.2266560  55.3803444  24.3262219  50.7235146  45.8400202
  25.1506090  50.3165627  46.1064911  23.6932445  50.4352188  46.4976358
  45.5573940  12.4339283  33.2546353  45.8457518  11.9086838  34.0010929
  45.7894707  13.3322573  33.4899616  24.4967985  30.4476595  57.8074884
  24.1714048  31.3167858  58.0419445  24.8378682  30.5512142  56.9191313
  42.6587629   2.0546752  42.6205397  43.0684280   1.4175855  43.2057905
  42.3375511   1.5326113  41.8853474  10.7133920  31.2804487   1.6310756
  11.6430814  31.0745379   1.7285602  10.5492074  31.9613948   2.2834508
  48.2122993  38.4484243  65.1090097  47.4675846  38.6837745  65.6624031
  47.8541231  38.4275675  64.2215919  38.0661106  19.7288251  22.2587276
  38.7369895  19.9762070  22.8950882  37.2461534  20.0407171  22.6416469
  51.9933367  19.0208745  52.7245903  52.9245234  19.1774261  52.8814840
  51.5540314  19.4134080  53.4790182  24.7763641  38.9586915  45.4075925
  25.6144864  38.5079379  45.5106179  24.6823699  39.4754292  46.2078301
  62.8631508  51.2545118  10.5674998  63.4297477  51.5565631   9.8575990
  63.4485208  51.1649117  11.3195292  20.0512994  50.2730219   7.7154356
  20.7961810  49.9104134   7.2359550  19.7095407  49.5352737   8.2205707
  38.3128572   9.1455412  39.4567633  38.1250381   9.6652418  40.2383423
  38.6911321   8.3335942  39.7942281  70.0297432  67.6257990  38.5307193
  69.8354106  67.9925064  37.6681685  69.1869228  67.3022596  38.8488507
   4.5537866  58.4089879  50.2070951   3.6350787  58.3509342  50.4694557
   5.0109781  58.6957423  50.9976482  14.3082225  56.8770313  47.7344847
  14.5315742  56.1953831  47.1006870  13.3942783  57.0896530  47.5454569
  18.4773958  45.2397680  49.5711517  18.4488571  46.1822557  49.7358704
  19.2622662  45.1134634  49.0379953  57.1588354  11.8569446  48.9426136
  57.5008969  11.7798698  48.0519485  56.3801555  12.4064291  48.8534164
  40.6825686  21.6734672   8.8229489  41.1660528  22.4953008   8.7389064
  40.8204126  21.4063430   9.7317255  74.7920024  62.6972482  28.4992806
  75.6878888  62.5917956  28.8194482  74.7841250  62.2443077  27.6560704
   0.4476894  45.3576009  50.3961086   0.6884158  45.6829373  49.5286751
   0.8178747  45.9982173  51.0034037  80.2167975  55.2767822   2.4284331
  79.3417489  54.8915407   2.3824851  80.8045899  54.5679173   2.1672027
  14.7839416  53.0911772  43.8589954  15.0294174  52.6058523  43.0713177
  13.8835634  53.3723442  43.6962128  14.2175877  21.9653225  40.9058666
  14.3252790  21.0162330  40.9680319  13.5333419  22.0861149  40.2474976
   6.2480891  10.4130173  51.9164515   7.1813285  10.5909538  51.7996836
   5.9282547  11.1466360  52.4415636  63.9897728  36.7013216  50.2584267
  63.9863682  36.3447714  49.3701172  64.8574877  36.4852500  50.5999184
  67.1033144   3.6675894  40.3376770  66.3383102   4.0994769  39.9575782
  66.7487335   2.8933051  40.7747030  27.7745867  18.5339141   6.1353016
  27.9027534  19.3530810   5.6570011  28.6600590  18.2016480   6.2828434
  14.9056495  60.3844754  42.4255753  14.1790736  59.7863416  42.2507715
  14.4989694  61.1354355  42.8578949  78.5496848  73.9289747  45.4897642
  77.7902048  73.5362936  45.9201431  79.2334812  73.9243872  46.1595678
  32.3648990  71.1300914  33.0930090  32.7981103  70.4611407  33.6231637
  32.1783698  71.8394379  33.7080407  21.3449073   8.2443690  36.4048243
  21.3308001   7.7298808  35.5977702  20.6759953   8.9161140  36.2723565
  19.6241724   9.2196542  49.9262047  18.7944591   8.7728029  49.7584772
  20.0426793   8.6984557  50.6113577  10.9049953  44.9426905  47.0656347
  11.0735548  45.5968468  47.7437973  11.4035977  45.2490274  46.3081503
  55.9407473  15.8307350  67.0533419  55.1598930  15.2774656  67.0731115
  55.7658195  16.4672267  66.3601542  37.9161228  61.4028088  47.8584576
  37.2297014  61.6765193  47.2500658  37.5777543  61.6373913  48.7225819
  14.3734992  64.8271875  39.9481130  14.2410291  65.6918327  39.5594311
  13.5330594  64.6160404  40.3546858  38.6741805  44.5598793  27.1717930
  38.9637947  44.2179537  26.3259554  38.5217953  43.7802458  27.7058244
  44.6216106  17.3923361  50.8569717  44.3146563  17.1848774  49.9743795
  44.1666985  16.7676175  51.4217854   2.0897187  41.9276969  38.7603211
   1.6706432  42.7850572  38.8347697   2.8026140  41.9533340  39.3985653
  77.9572855  12.9938161  48.9413023  77.6577227  13.4396017  48.1489849
  77.2308726  13.0868745  49.5576620   8.9753091   1.4971349  11.0702102
   8.9330625   0.6782147  11.5639894   8.8834035   1.2303278  10.1555507
  78.0863684  76.0078863  14.4523013  77.7774899  76.7118518  15.0226152
  77.3453563  75.4048447  14.3933475  60.8927142  58.5407004   6.1426370
  60.5317866  58.1666896   6.9464271  60.4632031  59.3921968   6.0607545
  32.6294684  10.2862370  50.7162237  32.8247452   9.5154220  50.1833630
  33.1163335  10.9962535  50.2978086  60.2490985  41.4904639   0.5369536
  60.7611739  42.2938266   0.4441087  59.5355450  41.5870294  -0.0937207
   1.6073478  69.5972947  41.3935852   0.9595168  70.0907151  40.8905077
   2.2510517  69.3152277  40.7437277  30.0380397  32.4927068  66.7027807
  30.4635644  33.0517507  67.3528767  30.1758528  32.9453278  65.8706903
  40.0220490  16.9188058  27.0272994  40.5581474  17.4461842  26.4350963
  40.3353262  17.1481085  27.9022336  58.0452681   3.0581835  42.6739454
  57.7782869   3.1012416  43.5921478  58.0619478   3.9709908  42.3863077
   3.4881809   9.2178190  39.4499421   2.5582829   8.9992976  39.5113420
   3.9165178   8.6149782  40.0576782  75.6864011  49.1248950  31.8905084
  75.1986109  49.3109724  32.6927964  75.0304448  49.1720256  31.1950032
  36.0213327  16.4170980  39.7701120  36.0881257  16.7149115  38.8628745
  35.0901341  16.2333477  39.8939395  34.3578482  34.4573593  62.4901533
  34.3969107  35.1415348  61.8218613  33.4431338  34.4498587  62.7720642
  17.6563501   1.1541427  30.5591249  17.5393641   1.4446874  31.4636302
  17.9532981   0.2473655  30.6353402  61.1250591  19.5865500  61.0076380
  60.2352715  19.4100511  61.3131857  61.4396095  20.2876925  61.5783310
  25.3075242  14.9371445  27.9499674  26.0677505  14.9028397  28.5305834
  24.5558786  14.9743593  28.5414720  14.6987350  48.3753487   5.2629821
  14.9193103  47.4699268   5.4815928  15.5451257  48.8045618   5.1379554
  47.3036623  15.3234553  38.1097412  48.0252218  15.9292626  37.9406762
  47.1725225  15.3655636  39.0569806  19.5821441  65.7373707  31.2823296
  20.4076064  66.0717980  31.6330481  18.9838517  65.7450620  32.0294714
  30.3470373   7.9533762  48.1147671  30.5922675   7.0668542  48.3796740
  29.7699022   7.8272837  47.3616123  43.0277348  28.4172487  46.9005442
  42.9831696  28.2780528  45.9545708  42.1168041  28.5398293  47.1677732
  72.2260094   5.0204813  35.7046151  72.4760914   4.8187941  36.6062880
  72.3770571   4.2053345  35.2261281  17.3710883  54.1812674  55.1297426
  16.5665401  54.3711011  55.6123400  17.3283494  54.7488539  54.3601656
  70.5647694  68.3686659   2.5299851  70.8675896  67.6496002   3.0844895
  69.8473250  67.9922768   2.0202415  59.4557296  61.6752598  11.9332330
  59.0851103  62.1870229  12.6522414  60.1256453  62.2444960  11.5545289
  52.4347591   1.0099659  12.8515220  52.1795654   0.7221933  13.7280464
  53.3429956   0.7219829  12.7598453  73.0731684  12.6951308  65.0930825
  73.2804733  11.9993706  64.4692446  72.1964985  12.9872794  64.8434271
  64.6873379   4.7245106  25.0026798  64.9702787   5.0438005  25.8595514
  64.8302078   3.7787825  25.0403500  72.1067171  61.6521875   7.0400214
  72.8681510  61.2025658   7.4064797  72.4756496  62.2829823   6.4217824
  72.4118233   8.0784082  23.4061885  72.7346134   7.3946553  22.8192306
  72.8983450   7.9450709  24.2196655  16.8077052  75.0926955  51.6332817
  16.7678226  75.0834420  50.6769609  17.5061572  74.4750471  51.8498659
   2.9759878  16.4085388  38.1473446   3.6091480  17.1260655  38.1696153
   3.5096100  15.6215656  38.0371094  21.4727271  73.9301572  40.1282644
  22.3288120  74.0276445  40.5452156  21.2569488  73.0040718  40.2379799
  17.4795425  11.7949915  47.9192734  17.1423304  12.6284516  48.2476997
  18.4251988  11.8479836  48.0576849  42.1266759  66.6677527  66.3733244
  41.3822044  66.0943298  66.1911631  41.8802083  67.1337334  67.1722937
  72.3099511  62.7695767  19.3700457  72.5293284  63.5935418  19.8050010
  71.6182714  62.3895590  19.9117088  46.7936956  46.1659053  15.3802697
  46.0181104  45.6948927  15.0755612  46.6311585  47.0774028  15.1373975
   8.8083804  65.9517936  38.1108117   8.5171307  65.7718877  37.2169209
   9.7302354  65.6942014  38.1187677   1.0615724  30.7726526  49.9745941
   0.8999237  31.3462853  50.7236242   0.2238117  30.7400012  49.5127249
  49.6194345  70.7283087  55.9016033  48.8452917  70.6890030  56.4631982
  50.1293117  71.4608521  56.2474938  72.4534886  44.7603194  34.3842840
  71.9734793  45.1676027  35.1053548  73.0941420  45.4205434  34.1198993
   4.6337593  67.4211917  15.2693665   4.1588438  66.7544274  15.7654607
   3.9718164  67.8122781  14.6991789  77.5232984  37.0542192  62.4607611
  77.2728483  36.2438154  62.0171928  77.0511989  37.7408481  61.9897032
  28.4931587  59.4683716  15.9647958  28.4517042  60.1212475  15.2660386
  28.0265618  58.7104937  15.6124703  17.8260911  67.9886983  40.3192663
  17.7839196  67.0970110  40.6647348  18.6555541  68.0219392  39.8426938
  13.2529510  73.2806255  44.3709087  12.3250974  73.4875412  44.2590761
  13.2590974  72.4981282  44.9221706   6.7366184  71.5600578  46.9922209
   6.0885752  71.3414274  47.6619005   6.2290943  71.6389046  46.1844873
  40.4724312  12.6737034  43.9850807  41.0148335  13.4509313  43.8511086
  40.3121138  12.3385525  43.1029224   4.1673657  39.5128894  46.6929913
   3.9180270  39.9192476  47.5230122   3.3383840  39.2331362  46.3047123
  11.4908255  61.7499809  49.0326262  11.7392290  61.8537216  48.1140614
  11.6875447  60.8346848  49.2320395  78.7241094  67.5489382   8.3977753
  78.3672087  67.6922105   9.2743182  78.3569138  68.2585947   7.8707200
   0.7267488  65.3992681  49.1057014   0.2745736  65.4925720  48.2672119
   0.2743257  64.6778337  49.5428228  32.3022246  17.9083860  19.1240597
  32.9137516  18.1406879  19.8228467  32.0039177  17.0273471  19.3499207
   6.7312658  68.7461710  40.6229162   6.3591522  67.9741335  40.1966286
   6.4045656  68.7043381  41.5216637  45.7149744   7.3220682  58.4571934
  45.2138853   6.5250069  58.6299133  45.3101254   7.6944655  57.6738358
   5.6404931  50.2744457   3.3966271   5.4274280  50.1469907   4.3210666
   6.1234386  51.1005649   3.3738343  56.7321574  70.2637598  13.3594625
  55.9920465  69.6603820  13.4258096  57.2338425  70.1165006  14.1612546
  51.9682752  62.2554704  26.8030946  51.0766970  62.4358675  26.5051381
  51.8723976  62.0448205  27.7318971  55.1158714   6.3336998  20.3800654
  54.3468332   6.0139489  19.9082899  54.8277712   6.4003998  21.2904406
  75.8031444  30.0612998  35.9764194  75.6365983  30.4805827  36.8206334
  75.5340837  29.1515422  36.1036062  56.9589221  40.9307600   7.2843520
  57.6463997  40.4512872   7.7466409  57.3304283  41.1084753   6.4202754
  32.6460123  37.1041870  30.0631857  32.6032901  37.5860262  29.2372084
  33.5378265  36.7577219  30.0925088  57.1376419  25.0793529  53.0136442
  57.5408125  25.5486059  52.2832441  57.5146627  25.4833865  53.7952089
   6.6878284  62.9416088  57.4295092   7.4420751  62.6402656  57.9360056
   7.0372308  63.1042640  56.5533304  44.1139555  13.0814397  44.8484802
  45.0032806  13.0711043  44.4946098  44.0058804  12.2192347  45.2499199
  45.9601068  14.7294092  47.0324278  46.1253071  13.7964189  46.8965244
  46.7829466  15.1557350  46.7928219   2.8751815  70.2752368  37.4565434
   2.7009309  69.5988504  38.1110430   3.8295592  70.3022359  37.3882508
  41.1603785  30.2348948  44.8123646  40.4316854  29.6927810  45.1146078
  40.9349632  31.1201668  45.0982237   6.0386773  34.7755575  45.5528593
   6.1537190  34.0568709  46.1745405   6.9128247  34.9217010  45.1912737
   6.2269462  76.8736164  61.3845301   6.0360635  76.6376415  60.4767227
   5.5879677  77.5547182  61.5943813  29.3073654  25.2756238  40.9265089
  29.9340963  24.7803497  40.3991175  29.7520924  26.1024046  41.1132812
  39.3839240  30.1915836  48.9525747  38.4473848  30.3860807  48.9885998
  39.7045422  30.6952524  48.2044077  36.3005900  26.0545850  37.8803515
  36.7116189  25.3786564  38.4192467  36.2712765  26.8265486  38.4455466
  25.2039684  65.2684693  61.7659235  25.3498138  65.3466789  62.7087069
  24.3448413  64.8532848  61.6900921  43.2171345  17.4674022  41.3961506
  43.1029654  17.9241383  42.2295713  42.3976231  16.9888842  41.2710476
  16.0820027  34.5145369  59.1593695  15.8759709  33.5821748  59.2263269
  15.4647084  34.8501563  58.5093403  14.0597732  33.9705464  18.3278958
  14.6673686  33.2510611  18.4993569  13.2420833  33.5394379  18.0793683
  57.3941504  42.8748730   9.6839635  56.7500912  42.2569781  10.0298278
  57.3474132  42.7631369   8.7344567  44.0371132  30.1782584  64.7370005
  43.9013243  30.6984353  65.5289698  43.9924860  29.2701578  65.0363207
  66.3965607  27.8809142  50.0867653  66.9526815  28.3154559  50.7333994
  66.9634581  27.7617407  49.3247557  44.5508051  15.0739872  37.4962735
  44.3479443  16.0023081  37.3809481  45.5055475  15.0432646  37.5575256
  14.4717563  76.0123717  64.9903917  13.9492238  75.4817332  65.5917358
  14.3994392  76.9033945  65.3325605   0.5853552   8.3539586  27.6241509
   0.1319403   7.5949674  27.2573010   1.4227027   8.0070357  27.9319303
  18.3262676  10.0073819  13.1560151  19.0891022  10.5287080  12.9059522
  18.6637777   9.1159968  13.2440679  35.0999069  30.7635307  52.9954433
  35.5662084  30.6945777  53.8285351  35.3504086  29.9746037  52.5147438
  25.0552011  17.9394495  45.7078457  25.1715517  18.6112356  46.3797092
  25.5507278  17.1876168  46.0325527  42.3119211   9.6734405  35.5707407
  41.4609957  10.0638306  35.3713632  42.8701210  10.4177737  35.7957149
  63.6526918  76.2831510  13.4704129  64.5608091  76.4681972  13.7098043
  63.2015610  76.1749686  14.3076722   0.6744021   4.6056180   7.7669971
   1.5815538   4.3072324   7.7016131   0.4823345   4.9785571   6.9066159
  56.2315989  12.7072930  52.0191193  56.0246325  12.5720322  51.0944033
  56.6195440  11.8790054  52.3013735  43.5051441  27.8050089  38.7327981
  43.9353514  27.8799820  37.8810143  42.6112795  28.1100845  38.5773444
  26.9745493  33.4036756  55.2669334  26.8526125  33.5376859  56.2068319
  27.9169035  33.2708216  55.1642132  15.6486995  62.5825426   9.6607654
  15.5895621  61.8993184   8.9929835  16.2233979  62.2130915  10.3311841
  56.7586565  34.5465660  47.3579216  56.9213390  34.0081787  48.1324530
  55.9131241  34.2424011  47.0280886  52.4963195  74.5049916  30.3446794
  51.7797782  74.0030981  29.9562168  52.1118414  75.3595541  30.5399513
  26.6283083   8.4290457  30.9766316  27.4552441   8.5305226  31.4479184
  26.0212135   8.0818349  31.6301680  62.9884672  18.5959363  52.6713800
  63.6565495  18.5563838  53.3557272  63.0507612  19.4868886  52.3270559
  17.9409671  33.6142683  60.9289217  18.8235688  33.9103317  60.7062244
  17.3614776  34.2313218  60.4820824  34.3727350   5.7331228  49.9162626
  34.9880910   5.0794673  49.5841455  34.1042209   6.2252718  49.1404247
  61.9843674  43.6744833  52.3542452  62.5002193  42.8776264  52.2311878
  61.4811182  43.7614298  51.5446711  32.2582722  40.2238750  33.1439042
  31.7928386  40.4503202  33.9490914  31.9740725  39.3315578  32.9458404
  46.9432211   9.6966612  55.1287651  46.8617249   9.2200685  55.9548664
  46.0922623   9.5874572  54.7042942  65.5646574  64.1970798   5.2636020
  66.1416733  64.3282983   4.5112292  65.6745993  63.2739636   5.4916398
  49.4439613  64.8198983   2.2233359  49.5354926  65.5561730   2.8281085
  48.4989726  64.7218248   2.1066730   1.8361730   6.3381772   3.2227294
   1.1779350   6.5367560   3.8887040   2.4743074   5.7855611   3.6739795
  76.0968798  42.9785101   3.1640759  76.2816851  43.7843315   2.6816535
  76.5992372  42.3046200   2.7061033  38.7718320   9.9746901  42.3642635
  39.2343044  10.8015728  42.2278214  37.8464174  10.2184343  42.3850060
  17.0680916   7.6892823  23.2297182  17.4883246   8.4394693  23.6502600
  17.4273932   6.9274831  23.6844659  77.1027558  35.8627264  27.1436548
  76.1485713  35.9319393  27.1748042  77.3686760  35.8033983  28.0612612
  78.9354103  65.1802103  42.7641296  79.3670147  65.5533735  43.5326958
  79.1776579  64.2542974  42.7793503  23.0567802  62.6828424  29.8164725
  23.4573663  63.0636017  30.5980015  22.6691402  61.8625144  30.1214767
  18.4827960  35.1544619  36.5984297  19.0592277  35.3112721  35.8505201
  18.5685956  35.9416890  37.1361470  62.1504164  24.8797607  41.8586254
  61.4954424  24.3092513  41.4564323  62.2552538  24.5358610  42.7457428
  33.2982683  26.9036150  41.7592239  33.5791826  27.7978969  41.9530678
  32.3455787  26.9270444  41.8490362  18.8771261  68.9666579  31.7438245
  19.7317899  68.9760278  31.3128996  18.2520450  69.1397170  31.0398698
  54.5418644  27.5475550  50.8464861  54.2358828  26.7970729  51.3557816
  54.2062044  28.3099127  51.3180494  44.7431135  13.9179540  58.3460283
  43.8001966  13.9818537  58.4978676  45.1196480  13.8108027  59.2195129
  42.2999477  28.3820629  43.0411863  42.0528460  29.0043139  43.7252712
  43.1207705  28.7264919  42.6892519  56.6727638   7.8906649  32.0880198
  57.1614599   7.0792067  32.2256446  56.7626667   8.0685508  31.1518002
  22.4499238  73.5585712  31.9600773  22.3061240  74.2964388  31.3675380
  22.8567565  73.9484991  32.7338195  43.9005136  12.3688483  40.9873343
  44.8516798  12.4723446  41.0156155  43.7661362  11.4397109  40.8005857
  81.5637875   6.7053193  22.8395700  80.9515953   7.4009269  22.5996041
  82.0549679   6.5310419  22.0366979  78.6913013  44.2408705  48.2901096
  78.0637407  44.1070700  47.5798321  78.4106398  45.0552988  48.7074375
  16.4068985  33.3514047  33.6219501  17.3125100  33.3494353  33.9319444
  16.0108209  32.5838947  34.0346050  17.8677797  33.9310932  42.9717350
  17.6238263  33.7524343  42.0635509  17.5798750  33.1559944  43.4539843
  11.9339581  49.4582748  52.7573633  11.0357590  49.7823238  52.6905489
  12.1194764  49.4586277  53.6964083  44.3457877  32.4264833  28.5902993
  44.8696815  32.0396617  27.8887765  43.6555504  32.9091439  28.1355016
   6.5188850  67.6483647  36.8521738   6.2329782  66.9042115  37.3820090
   7.2131360  67.2940962  36.2965298  61.3950539  50.5414534  48.4408140
  60.5585480  50.6585312  47.9904938  61.9007397  51.3217163  48.2134247
  32.9058719   8.4409875  48.7437773  32.0956683   8.1919301  48.2990599
  33.5665822   7.8464073  48.3885765  28.4331775  35.9219646  56.0192442
  29.1102791  35.4600048  56.5135717  28.6347055  36.8491030  56.1458540
  64.8831320  12.3242998  36.5101147  64.9718428  11.8578899  35.6789565
  65.6512117  12.8942454  36.5481019  54.1447401  40.6637383  38.7850046
  53.3018732  41.0746288  38.9772964  54.6437597  41.3422632  38.3302283
  63.1226063   4.9475080  63.6527348  63.7801409   5.1540869  62.9885054
  62.7592039   5.7971239  63.9023829  15.1037557  51.2777385   0.1950137
  15.4489858  51.5455767  -0.6566413  15.8155877  50.7789144   0.5958859
  34.1023588  29.6160698  41.9882107  33.2569051  29.7994900  41.5785789
  34.1315961  30.1976061  42.7479410  55.9920114   7.7487617   3.0535428
  55.6181997   6.8990426   3.2869355  56.4137262   7.6005559   2.2071282
  52.1562624  27.2286940  53.0508471  52.5102663  27.9498816  52.5304651
  51.4582443  27.6280379  53.5700083  65.2416086  31.8584418  40.2763939
  65.6026220  31.9215155  39.3921280  65.8784819  32.3126268  40.8280659
  54.0837479  38.0648971  48.0033255  54.0008783  38.9801908  47.7357388
  55.0003242  37.8476763  47.8332281  56.6895151  53.3060408  59.2725134
  56.9231892  53.7519693  60.0866222  57.2535324  52.5329208  59.2524910
  80.6760871  73.1102559   3.3803241  81.4390122  72.6418540   3.7191121
  81.0433757  73.7845561   2.8087918  69.0440130  23.4456348  65.3685045
  68.8979053  23.0204701  64.5234489  69.3810558  22.7491093  65.9319639
  52.7506638  76.0929441  41.6485023  53.2217312  76.8455219  42.0062065
  53.4230900  75.4211664  41.5354061  63.8395071  71.2963247  29.6501732
  64.6274471  71.4087582  29.1184425  63.8575459  72.0310593  30.2634215
  52.0024109  48.0557919  37.3648095  52.0922995  47.3436642  36.7315388
  52.2119951  48.8463831  36.8675470  59.4314146  48.6156750  49.4567204
  60.2090406  48.9790964  49.0331030  58.8202763  49.3506908  49.5066404
  15.0203057  31.4015722  39.8167920  15.8106251  30.8615398  39.8149133
  14.6058197  31.2165833  40.6595278  53.3929920   8.3096486  63.7820005
  52.6042318   7.7673519  63.7838364  54.0153408   7.8253788  63.2394123
  63.2364559  67.4092674  46.0552979  63.5667372  68.1964064  46.4883757
  62.3428679  67.6350927  45.7969666   8.7592812  26.0725641  33.5624623
   9.1753407  25.9035325  34.4077778   8.4444256  26.9742250  33.6265182
  80.0461960  58.4140539  42.5239611  79.5385075  59.1956139  42.7422619
  80.8466911  58.4958982  43.0423641   9.9624081  33.5193729  41.9513083
  10.2462883  34.1069388  41.2510157   9.4206543  34.0675211  42.5189877
  60.5422640  46.6041040  60.6237030  61.1355734  46.2864399  59.9430418
  60.0176859  45.8391857  60.8602524  49.2339659  53.8172197  51.8346310
  48.8256693  54.2725658  52.5709677  49.6334505  53.0400705  52.2253752
  43.9644003  31.9183040  66.9727325  44.0123320  32.8291106  67.2631931
  44.8481417  31.7185426  66.6639900  81.8797207  35.8110380  44.2633963
  81.6978550  36.7075276  44.5452833  81.1731815  35.2914095  44.6468306
   1.1289616   0.1921242  39.7769308   0.4839058   0.7583214  39.3531895
   1.6383000  -0.1737279  39.0537715  10.5439206  19.4707501  53.3854818
  10.0377293  18.8012934  53.8457251  10.3636284  19.3124771  52.4588346
  68.8590097  64.1773844  36.0229516  69.2750263  63.7529516  35.2726078
  68.4859133  63.4560728  36.5296483  16.1298043   4.6083840  25.0200272
  16.7967231   4.4074734  25.6765985  15.3635080   4.8714932  25.5297327
  48.8556671  41.7893028  49.2028856  49.6610498  42.1303082  48.8139105
  48.7108135  40.9534121  48.7595558  41.9966078  55.5828094  37.6904225
  41.1111164  55.8811426  37.8980970  42.2853136  55.1226425  38.4785390
  61.1085939  16.3862026  45.1523638  61.9599676  16.7697740  45.3627586
  60.7465601  16.9616580  44.4785595  15.5902159  41.6630888  39.3351030
  14.6836066  41.5345383  39.6139646  16.0503244  40.8851099  39.6501899
  35.7779503  34.5835257  56.6321325  35.2194190  33.8756418  56.3109255
  36.0427737  34.3012071  57.5075722  79.3087006  59.8400593  45.5541468
  79.9960041  60.5062723  45.5561113  78.9717388  59.8462009  44.6582413
  65.2416801  38.4713125  61.4033651  64.4435883  37.9591155  61.2732553
  65.9351969  37.8169417  61.4874220   2.4022980  55.5512381  40.7204723
   2.9851170  54.8095274  40.5579329   2.9782410  56.2403154  41.0516787
  30.0320286  30.6458287   3.1459443  29.5294231  31.2983995   2.6583306
  30.8701509  31.0727315   3.3235375  17.8324528  24.7277188  26.9372964
  17.1320076  25.2447987  27.3350692  17.8558846  25.0176048  26.0253501
  36.0252305  17.2188461  36.7569852  36.8994637  16.8771660  36.5693498
  36.0243054  18.0968344  36.3757133  33.1538385  13.7255578  11.9484202
  32.8111357  13.8077931  11.0584609  32.3814386  13.5561805  12.4878089
  28.9035034  51.1544275  47.1546936  29.4690061  50.5451155  46.6801691
  28.4547019  51.6484785  46.4686012  59.7974110  62.8883839  26.8718672
  58.9432096  62.7971792  26.4496660  59.5956516  63.1875467  27.7584505
  65.4994100  36.1598020   9.6076076  66.4303869  36.2207656   9.3936317
  65.4791635  35.7598453  10.4770057  54.1059875  52.9247618  54.4047976
  53.5850239  53.2801342  55.1248980  54.4790030  52.1159697  54.7554302
  57.9333782  42.3603535  63.1226397  57.0006084  42.5706911  63.1665611
  58.1573105  42.0782471  64.0094900  60.8391333  55.4376078  22.3765016
  60.8691645  54.5071840  22.1536946  61.0726213  55.8861685  21.5637851
   2.3059006  26.8930888  40.0465488   2.8747197  26.6212535  39.3262887
   2.9055615  27.2369719  40.7086515   2.1744557  59.4404030  33.5480857
   2.3588009  59.8901844  34.3726730   1.2748929  59.1270494  33.6420798
  53.5125828  76.2693644  44.6596718  53.5147142  77.2203684  44.7683859
  54.3604660  76.0718775  44.2617798  69.6555567  36.8261790  42.6803780
  68.7062073  36.7285848  42.7541447  69.8899603  37.4286914  43.3862591
  24.0272542  51.0765553  60.5954695  23.9390011  50.7403660  59.7036028
  24.9143143  50.8302927  60.8575726  11.6275603   8.5138138  27.1402407
  11.4013440   7.6477440  26.8011451  10.8798082   8.7607868  27.6843953
  63.5656214  58.2988358  42.1584511  63.8843250  57.8205490  41.3930082
  63.9850283  59.1570187  42.0963526   4.7756405  39.6803999  52.5977516
   5.4621239  39.0164065  52.5338364   4.2230340  39.3847132  53.3212376
   4.0666314  33.6530638  36.7950392   4.5977326  32.8830338  36.9980669
   3.8577672  34.0318680  37.6489210  33.8119721  54.0084934  30.9419894
  34.5094037  54.2397213  31.5554714  33.9665031  53.0855989  30.7404542
  37.1256161  62.3615742  40.9611750  36.9984007  61.6148615  41.5463829
  37.9295588  62.7765751  41.2737083  19.8036499  40.5680180  41.5055656
  19.9418374  41.3110352  40.9181452  20.3060360  40.7865667  42.2904682
  51.7087555  55.5533552  27.4871016  51.6769266  55.2090597  26.5945315
  52.6318359  55.4949856  27.7335596  13.3446939  67.0668384   5.1879613
  12.4952275  67.1329567   5.6241624  13.1757362  66.5281221   4.4149987
  68.1667709   7.3569703  54.7969818  67.3316145   7.1069050  55.1922178
  67.9831219   8.1845742  54.3524837  65.6549835  46.0019684  34.2799067
  66.1565208  45.1871824  34.3084431  65.2826452  46.0232830  33.3983517
   0.6152459  58.1948137  43.7899017   1.4317055  58.3673334  43.3210087
   0.7833691  58.4965420  44.6826077  60.3070063  19.3135505   9.2498986
  61.0176367  18.6725478   9.2312495  59.9765200  19.3309550   8.3517282
  10.1030595  63.0760953   9.0410726  10.9465034  62.8072163   9.4051330
   9.4538219  62.6571652   9.6060674  72.7030706  51.1948729  23.1771636
  72.0883942  51.5459919  23.8214660  72.7614117  50.2623701  23.3851719
  21.3962002  48.9986420  39.4070101  21.5497799  49.2319918  38.4914827
  22.0250721  48.2992220  39.5846534  12.4985333  13.8319111  48.6767483
  13.0251618  14.3272102  49.3041039  11.9777604  13.2379854  49.2173719
  52.1831274  33.6502576  51.9226599  51.7244101  33.2132840  51.2051201
  52.8087854  34.2304349  51.4888668  49.9722195  42.4451971  39.7514081
  49.6246529  42.5728178  40.6340981  50.8931971  42.2221184  39.8865724
  52.9598904  29.7700238  51.9697714  52.4494553  30.3423405  51.3969374
  52.8961945  30.1773000  52.8336573  17.3056895   4.2606457  43.3134174
  16.8119342   3.7507637  43.9556408  18.2208783   4.1470345  43.5698462
  57.2684002  54.3787527  61.8260479  57.8219366  53.7577677  62.2995520
  57.8844929  54.9244165  61.3372612  14.8616356   4.2463784   7.5507037
  14.1870970   3.5830455   7.4050347  14.8455185   4.4009690   8.4952037
  40.2970143  15.7807219  34.2930174  40.6227513  14.8879802  34.4076657
  39.3493004  15.7060909  34.4047809  71.6203117  58.0674124  51.8200541
  71.9120455  57.1558380  51.8076992  71.7857218  58.3596992  52.7164030
  54.0661478  32.3505020  59.7278833  54.0839100  32.1872902  60.6709003
  53.7801981  33.2604623  59.6476460  61.9220018  20.3098655  46.3524628
  62.3735571  19.5446646  45.9963751  62.4194431  20.5375051  47.1379328
  49.4643492  32.4285417   6.1643903  49.4877190  31.9849734   7.0122878
  49.3559498  33.3544974   6.3813893  47.2167873  28.6409760  54.9401617
  46.5277433  28.0373764  55.2178717  46.7680836  29.2763710  54.3823385
  45.0192785  25.3355861  47.3762274  44.0624857  25.3083396  47.3822975
  45.2333117  26.1219645  46.8741989  71.7174292  29.1505313  64.4277859
  71.8128109  29.5394444  63.5583687  70.7921982  29.2686367  64.6428061
  43.3761609  57.2842209  34.2388511  43.8372434  57.8341202  33.6054111
  42.5113023  57.6862470  34.3202496  45.8292198  46.4592743  50.0302362
  46.2322712  45.5988312  49.9143744  45.6264257  46.5049124  50.9645939
   7.4791260  35.2312255  31.3042259   8.3720608  35.4356551  31.0265565
   7.1107121  34.7304201  30.5764222  25.4092211  11.8896441   5.6202333
  25.7284254  12.7902608   5.5634133  24.4598621  11.9655137   5.5243079
  58.1537437  65.0183201  36.3543630  58.0701351  64.3437576  35.6804132
  58.9305782  64.7641850  36.8525338  23.9352818  43.4847736  41.4499664
  24.2160149  42.8532839  42.1122646  24.4036980  43.2242966  40.6568909
  38.7920946  11.0749249   9.2786614  39.1601509  10.9084277   8.4108798
  39.1651863  10.3892617   9.8326509  34.9649102  51.9093057  12.1526544
  35.6125219  51.5527937  12.7607076  34.6798665  51.1549815  11.6369216
  51.1682558  67.2378159  42.0876980  50.7494926  68.0891418  42.2146606
  50.5280066  66.6050482  42.4131441  20.1164062   0.7084425  17.4765301
  19.3096168   1.0971840  17.8144598  20.5279500   0.3073605  18.2420349
  15.8575208   2.5321444  44.6287441  15.6608731   1.7844399  44.0643883
  15.1154620   2.5789269  45.2315664  57.9404831  60.9821463  59.1559887
  58.0176878  61.1474085  58.2163286  57.1029758  61.3759422  59.4004154
  70.9828377  20.1063204  56.5798235  70.9588909  19.1879582  56.3109875
  71.9006538  20.2681184  56.7981434  78.3506918  41.7277336  60.3430080
  77.4926043  42.0834208  60.1119089  78.8101244  42.4593544  60.7551861
  56.6076612  36.9966936  48.9511871  56.8175602  36.1633658  48.5296011
  56.3666630  36.7582417  49.8463392  65.9962034  76.9760847  32.8312683
  65.9928846  76.5866566  33.7056613  66.6832876  76.5036058  32.3612547
  23.0242927  77.3036525  11.5865151  23.7474401  77.8191993  11.9435899
  22.6488406  76.8591663  12.3465793   0.8613511  44.3324804  36.0259151
   1.8080540  44.2475319  36.1388779   0.7003232  44.0426731  35.1279640
  79.2775822  59.7539473  60.6728697  78.4958696  60.0058699  61.1644936
  79.5593357  60.5605078  60.2412367  71.0018594  22.5282486  29.0600133
  71.4589078  21.7663010  28.7039685  71.4804322  23.2797344  28.7100482
  65.7355165  30.9300590  60.4482937  65.9655046  31.3067532  59.5989180
  65.2715397  30.1208019  60.2336740  76.8728685  29.8382235  65.6399202
  77.3832321  30.4375672  65.0953579  76.6099119  30.3652143  66.3944817
  20.6890816  24.1462665   8.8997333  19.8162216  24.1417890   9.2925756
  20.6049436  23.5933976   8.1228892  67.5606298  37.8694582  45.4521179
  68.4754229  37.6173329  45.5778742  67.3179150  38.3055186  46.2689257
  65.4708529  61.0090780  15.6309569  64.9316359  60.7466745  14.8848867
  66.3585997  60.7447004  15.3896224  55.9552765  65.6674433  37.8364444
  56.8085575  65.6218481  37.4050856  55.5239916  64.8458052  37.6016450
   7.7484150  25.3637695  58.5302639   7.6176281  25.9714580  57.8023624
   7.7032395  24.4959736  58.1288671  58.8084173  50.2114582  47.1387815
  58.0384684  50.2725649  46.5733862  58.5094595  50.5395555  47.9868460
  29.8948730  31.2860540  62.3767515  29.5988859  30.4966691  61.9234361
  30.7894147  31.0837081  62.6507677  43.3268732   6.1982350   3.7612264
  43.1318039   7.1325212   3.8339488  42.4928182   5.7978110   3.5157744
  78.8093901  51.5765476   5.6820667  79.3688917  52.2940683   5.9793168
  78.1846571  51.4484596   6.3958836   6.4804192  37.5839186  51.9939566
   7.2448559  37.5929213  52.5699759   6.8401642  37.7138209  51.1164951
  36.6567588  25.0996995  63.2633543  35.7723236  24.7336745  63.2578707
  36.5969825  25.8787727  62.7104473   6.2842389  47.5122595  28.0973721
   6.3438054  47.6499367  29.0427446   6.4518757  46.5771294  27.9804897
  67.0361233  39.6841908  12.9558897  67.7967024  39.1073656  12.8850448
  67.1251202  40.2894163  12.2196734  41.4372063  63.8818741  47.1422100
  41.4334965  63.2823563  46.3960218  41.0926914  63.3623362  47.8685856
  51.0388136  54.7276783  24.9608803  50.1522970  54.8675728  24.6280932
  51.5708590  55.3814459  24.5072913   3.1728859  28.2125950  42.2195148
   3.7273427  28.9456439  41.9522238   3.0381222  28.3439875  43.1580305
  31.9668573   6.7813354   4.9364631  31.1904854   7.1099525   5.3897731
  32.7020735   7.1877818   5.3952615  46.4208984  53.0381870  26.1359906
  46.9587755  53.7751102  26.4255834  45.5286598  53.2811880  26.3831687
  62.5857019  34.2820668  54.0308142  62.0804119  33.5277820  54.3340778
  63.3725691  34.2780232  54.5758390   3.2298012  63.7877750  44.6684885
   2.7885838  63.1429243  44.1155672   2.7814312  64.6120882  44.4795513
  70.2739048  45.6853151  66.0085392  70.6838560  46.5280867  65.8138418
  70.9348536  45.0361538  65.7677746   9.2096825  43.0872726  41.2940454
   8.9093132  43.6961603  41.9687843   9.9992772  42.6914549  41.6629553
  76.1271143  35.7717419  13.0634415  75.2843046  35.4283643  13.3600771
  76.1692667  35.5354619  12.1368206  47.2788334  32.2288156  54.6129322
  46.8383789  32.6406980  55.3562927  46.5823030  31.7637038  54.1495228
  35.9617002  73.0154774   0.6863944  35.2035577  72.7265999   1.1943452
  35.6160409  73.6916563   0.1036994  23.3415467  23.7107762  47.0659018
  22.4159724  23.7707146  46.8293524  23.5557611  22.7836617  46.9619846
  27.0717014  33.9856866  58.0470522  26.7543853  34.0094903  58.9498122
  27.9643119  34.3276027  58.0978300  34.0075582  58.1010728   0.3727595
  33.7026447  57.7404218  -0.4598220  33.2321495  58.0967717   0.9339635
   3.4038373  68.5014677  54.7404003   2.4710770  68.7147903  54.7141123
   3.8409729  69.3487120  54.8259258  64.7151470  71.0960293  60.3526211
  65.0371838  70.7508087  59.5199490  65.1849413  70.5933285  61.0180616
  70.4330778  69.5086050  29.0298963  71.0786009  68.8019943  29.0452886
  70.9401608  70.2916336  28.8155031  68.3233923  38.5391860   8.7680976
  69.2569345  38.3775764   8.9045064  68.1353945  39.3161826   9.2945592
  59.1815948  59.9960613  29.5470643  58.5774231  59.4880247  30.0884533
  59.4749546  59.3815660  28.8743353  20.8848674   6.3913353  27.1579003
  21.2206037   5.5227383  27.3793602  21.5561111   6.9955834  27.4750090
  47.1591467  11.5521674  16.7103974  46.7793840  11.7585998  17.5644414
  46.5958637  10.8631187  16.3580338  57.1508809  62.5508451  23.9403605
  57.4650784  62.6280451  23.0394983  56.4139100  63.1596422  23.9899850
  82.1635138  73.7875721  29.4239633  81.7233931  73.0366275  29.8222177
  81.4507376  74.3459698  29.1135137  75.2251851   7.4216850  62.2521925
  75.2382409   7.1575459  61.3322544  75.9564244   8.0336388  62.3360777
  74.3033075  67.5335979  57.7532291  73.3696795  67.5670528  57.9616690
  74.6890593  67.0207882  58.4634781  65.6937170  45.3205729  41.1440325
  64.8376846  44.9306917  41.3213253  65.7146978  45.4302406  40.1933670
  73.6344099  28.3289981  29.9119496  74.4628048  28.1705379  30.3645897
  73.0504513  27.6422191  30.2337503  45.9385633  45.9826565  38.6322141
  45.0548697  46.2330055  38.9017344  45.8827353  45.8941603  37.6807499
  72.1196912   0.0877862   3.8729207  71.7881714   0.4469852   4.6959083
  72.5371467   0.8312945   3.4380023  53.2900333  70.6534386  35.7408786
  54.0855026  70.4801559  35.2374506  52.6716852  69.9832010  35.4499197
  51.0640574  61.1936522  66.3320160  50.9788704  62.0913792  66.0109806
  50.8632469  61.2532234  67.2660160  76.2602746  10.2185639  33.3905077
  76.1499440  10.1095970  32.4459529  76.7521512   9.4446667  33.6650538
  81.4873695  17.8452718  53.6728621  81.1877155  18.7540102  53.6477041
  81.1386681  17.4558067  52.8710175   8.6081941   7.1352204  39.8702312
   9.2991645   7.7141770  40.1921034   7.8836734   7.7229794  39.6561098
  52.8256083  45.1068306  44.4190931  53.2184124  45.9679365  44.5620680
  52.0663404  45.2793837  43.8623428   5.5380364  43.0759096  50.8721018
   5.8584137  42.4321079  50.2403498   4.6000023  42.8980303  50.9405708
  24.2178244   4.8794370   1.0829417  23.2993931   4.6142917   1.1320130
  24.2294639   5.7691150   1.4358871  52.7457619  46.9060850  65.4341602
  53.3525515  47.2164965  66.1062336  51.8887234  46.9204235  65.8601952
  69.2697608  73.5054752  23.7162129  69.9428260  74.1513988  23.9306752
  69.4191539  72.7897498  24.3339936  31.6964877  42.3699001  60.5257632
  30.7486118  42.4836353  60.4563131  31.8695129  42.3710159  61.4671947
  57.7273363  34.7724156  10.9840982  58.1968492  34.0012126  10.6662385
  56.8570322  34.7014670  10.5919663  57.0775270  49.0489864  64.3497276
  56.6271544  49.7689867  63.9081526  57.7569246  49.4757223  64.8717880
  60.6448698  30.0954747  56.4389324  60.2330303  29.2537260  56.2437916
  61.4052963  29.8714185  56.9753838  34.0544170  16.9277720   8.9715545
  33.6691183  16.1885314   8.5011260  34.9797386  16.6993194   9.0600268
  38.3723903  45.5531597  13.9457142  39.2772388  45.7056952  14.2181277
  38.0085325  44.9894190  14.6283805   2.2156640  30.0795364  59.9350166
   2.3003312  30.7535410  60.6093884   2.1493836  30.5684209  59.1147566
   8.5999222  58.4445477  38.7044621   8.9989110  57.5762177  38.6493087
   8.3009930  58.6277914  37.8137875  39.5958465  34.7498565   5.1662032
  39.8321861  35.6754069   5.2273242  38.6392731  34.7441583   5.2003209
  59.7436428  39.6838212  64.6930456  58.8793755  40.0754833  64.8190308
  59.7800255  38.9729023  65.3329706  56.5005207  69.1301537  10.3982913
  56.5448427  69.4945526  11.2823057  55.9426355  68.3572483  10.4855216
  17.2239895  39.4254804  37.7214313  18.0112477  38.8831830  37.6727414
  16.9901104  39.4253778  38.6496186  44.2392969  63.0689240  47.9850245
  43.4187365  63.4897327  47.7284384  43.9676952  62.2695732  48.4361410
  60.3885984  48.4162331   0.7627101  59.7246885  48.9888000   0.3784925
  60.8549881  48.9742470   1.3850659   2.8182431  66.3574076  63.5146904
   2.7493020  65.5153704  63.9646387   3.7512799  66.4504814  63.3223057
  24.5760270  57.9361057  55.7472610  24.2187806  57.0570230  55.6214762
  24.0055771  58.3346844  56.4044952   1.9350202  68.2149312  -0.2252276
   1.3523109  68.2627913   0.5326573   2.7952010  68.4562847   0.1183908
  40.3998518  25.1095700  59.7444010  39.5504832  24.7824764  59.4480658
  40.7178545  24.4380260  60.3478336   3.7929841  70.7054520  51.7697096
   3.6454316  70.1672316  50.9920311   2.9223938  70.8191442  52.1510077
  31.5104669  12.6402240   7.0581595  32.1269030  11.9372134   7.2631328
  30.6472391  12.2418742   7.1694819  50.5949926  66.1230135  15.6258917
  49.7681856  65.7199621  15.8907795  50.7350159  65.8159208  14.7301698
  12.9077359  55.8194208  53.9822006  13.8165493  55.6144476  54.2019033
  12.9407998  56.1063957  53.0696297  80.4587841  41.0805464  32.2477746
  81.3867283  41.0430288  32.0159554  80.4530621  41.1520720  33.2022810
  60.2112150  61.0093451  43.2262278  60.7072544  60.9829426  44.0444469
  59.5234585  61.6561651  43.3838511  54.3493700  42.6237726  50.1888990
  54.2698050  41.9923210  49.4739389  55.1195717  42.3353195  50.6786108
  28.8383341  58.1188059  45.5128908  27.9721713  57.9480267  45.1429844
  29.0202355  59.0306950  45.2857208  28.7890858  21.9920402  25.7137696
  29.0717310  22.4278741  24.9097840  28.0667395  22.5305753  26.0369222
  37.4117994  53.4509325  24.9046063  37.4967909  52.7989769  24.2089343
  36.7565465  53.0839252  25.4980540  53.6301899  31.7217374  48.2830524
  54.2495203  31.0815191  48.6334562  52.8193378  31.5592647  48.7650824
  60.0897312  39.9581409  45.9366846  60.4462385  39.1860819  45.4972982
  59.3206787  39.6334338  46.4050341  22.1015664  74.6219587  62.0024157
  23.0024167  74.8246098  62.2546768  22.0980187  73.6743212  61.8675137
  27.7267511  56.9399783  14.9432199  27.8701646  57.0341763  14.0015237
  26.9954354  56.3264510  15.0139253  24.2846584  74.4613028  33.8964510
  24.7195721  74.6005487  33.0552053  24.5853114  75.1862717  34.4444108
   2.9908627  17.1584373  13.5181920   3.2188410  16.3874726  12.9986970
   3.4204859  17.8859620  13.0683438  50.1147413  75.7491779  67.1682405
  49.2413616  75.7788801  66.7776537  50.6205463  76.3936329  66.6731977
  50.1412535  55.8274031  34.8065782  50.7287931  55.2072573  34.3747878
  49.2865944  55.3965759  34.7933555  18.4848268   3.8852890  59.3778324
  17.6532561   3.5532482  59.0395069  18.5064466   4.8018654  59.1027689
  62.1586657  63.3877182  49.1773510  61.2983131  63.1550503  48.8282251
  62.3639727  62.6863241  49.7955132  15.1899739  40.5455780  13.0720282
  15.8975144  40.7541752  13.6820376  14.3908616  40.7862234  13.5407841
  76.5424013  52.3615742  29.5221329  77.1906996  51.6582966  29.5586824
  75.7554960  51.9439745  29.1719580  15.6402452  74.4606635  31.2540071
  16.4317329  73.9452955  31.4094941  15.8109529  74.9195096  30.4314725
  67.6695681  58.9948320  40.8137226  67.3107290  59.4945240  40.0803900
  67.5189066  59.5502949  41.5785694  46.3248777  74.1780376  19.7235096
  46.8447018  73.4346199  19.4179821  46.6118145  74.9109364  19.1787577
   3.0605561   3.8822087  28.7313509   2.2317035   3.6311348  28.3236790
   3.0958564   3.3685692  29.5382905  15.8364785  28.0357984  64.3695094
  16.4414037  27.4437097  64.8164250  14.9678195  27.6887325  64.5724996
  61.7200613  52.8142691  13.9504361  62.4946022  52.8638887  13.3902061
  62.0565605  52.5277996  14.7995150  56.6510963  38.5738492  38.0532742
  56.5354109  39.4660425  37.7264166  56.7750788  38.6785579  38.9966178
  61.3902855  37.0251799  65.5169296  62.2767830  36.7666626  65.2648973
  60.9999180  36.2267780  65.8724546  59.4027805  73.7516642  58.2040644
  58.9975548  73.2524490  58.9131546  59.7297001  73.0859709  57.5989103
  60.3115702  14.1576791  22.4069786  60.4044628  14.7184217  21.6368032
  60.7826042  13.3564448  22.1781111   6.4706345  26.3067842  37.0643640
   5.9859868  26.6888881  37.7960348   7.3264618  26.7344284  37.0945811
   3.6334725  63.8897038  55.9678316   3.5081406  64.7773981  55.6323957
   4.0938588  63.4309101  55.2651310  55.2535152  69.9454308  54.9749804
  55.3667450  70.8958340  54.9871159  54.4247198  69.7971344  55.4303312
  -0.0900630  62.6182556  31.6450930   0.3016015  63.2472038  31.0390735
   0.1486989  62.9419756  32.5136733  48.9908552  58.0026197  23.1686306
  49.0187407  58.0415058  24.1246343  49.8907185  57.8027391  22.9106998
  14.0971196  63.3681774  18.2153308  13.7304866  62.7814627  18.8768303
  15.0377870  63.3708048  18.3924448  20.1725216  63.0526924  23.3743119
  20.6886693  62.6142025  24.0507388  19.3322297  63.2351398  23.7948394
   5.2278634  64.9339199   0.9034937   4.3826981  64.7351789   0.5004701
   5.0926610  64.7698212   1.8367814  62.2883224  55.7229042  50.9461117
  62.2778368  56.6736937  51.0562372  62.6891375  55.5856180  50.0877810
  63.3137178  48.1818485  47.3641062  63.1123924  47.5323200  48.0377626
  62.4625492  48.4127569  46.9920540  62.7907372  29.9397302  21.4115429
  63.4546614  29.5738077  21.9959569  62.0374632  29.3574715  21.5104389
  60.6690598  50.8348846  63.5311699  59.9321079  51.2130785  63.0514717
  60.7728434  49.9590635  63.1591511   4.5600528   6.7815738   5.4313342
   4.4097489   5.8362823   5.4393165   4.7501511   6.9861465   4.5157783
  71.5827990  51.4318228  32.9446173  70.9228373  51.8215227  33.5180402
  71.0784960  50.9197712  32.3123884  73.7241888  36.7884445  41.9240189
  73.3372259  35.9370399  41.7200565  73.4865046  37.3436499  41.1813974
  62.6593590  57.0095015  57.6707268  62.6094818  57.0960569  56.7187548
  61.9101477  57.5084972  57.9961777  12.2735043  61.2413836  45.3859806
  11.3564797  61.3385820  45.6425905  12.3819085  61.8452215  44.6512318
  44.6696520  54.6976328  34.4192672  44.3848562  55.5954456  34.2488241
  45.2469873  54.4861460  33.6856532  74.6217817  36.7510562   4.1231029
  74.1758627  37.5597816   3.8714187  74.2343706  36.5163808   4.9663512
  31.9903845  13.3338075   4.1553037  31.7499775  13.8585763   3.3917253
  31.2233395  12.7854543   4.3201892  67.4388539  20.2297219  23.5240841
  67.4811780  19.3295391  23.2014322  68.1855761  20.3066357  24.1179895
  59.9490643  76.9377565  31.1395025  60.5631065  76.5612745  30.5090690
  59.3653250  77.4811077  30.6101155  22.9453714   5.5703552  32.7902627
  23.2663734   6.3689240  32.3713684  23.1756980   5.6749352  33.7134337
  61.3170332  23.8988118   1.8484752  61.2932199  23.0032878   1.5112845
  60.4222864  24.2203431   1.7376630  64.5671320  65.1312304  18.3626378
  63.9055443  65.7705688  18.0984843  64.2051363  64.7229767  19.1490972
  34.7784734  56.6641760  45.0029516  34.7112083  57.4099398  44.4066763
  35.7196903  56.5356255  45.1204872   8.4989186  44.5984697  37.1066117
   9.2146130  44.0984344  37.4990106   7.7044697  44.1726637  37.4287391
  68.0154943  60.2358246  49.2037153  68.4728718  59.4664049  49.5428753
  67.6076508  60.6309986  49.9742556  70.6647778  44.7200012  32.2196174
  70.2624798  45.5883694  32.2376537  71.1838961  44.6798086  33.0228186
   4.4584866  59.7370100  44.3223333   5.1705380  59.9398851  43.7156487
   3.6696072  59.7555256  43.7805319  51.1037302  56.3324547  47.6980925
  50.4068327  55.7714462  47.3577499  51.7208862  56.4154816  46.9711447
  49.0567398  53.7730980  49.1255951  49.1769886  53.9679480  50.0550032
  48.6032104  52.9302359  49.1143084  44.8756689  29.1633992   1.1685197
  45.1873297  29.0009742   0.2781741  44.6730322  30.0987678   1.1844461
  20.2583046  40.2613640  45.9787750  20.4004117  39.8797822  46.8450499
  19.8309823  39.5664096  45.4781055   6.8956395  47.1564913  40.6496668
   6.4118309  47.7673054  41.2056017   7.1162529  46.4278364  41.2298584
  52.9707861  26.4973450  57.5683022  52.8517246  25.7115507  58.1017637
  52.0932198  26.8725610  57.4953651  80.4756927  38.2684064  57.5317097
  81.2914276  37.8208089  57.3070669  80.2668190  37.9577851  58.4126854
  57.7681828  39.1919541  40.7976818  58.3163166  39.6924686  41.4020491
  57.6273155  38.3546162  41.2395525  19.3512637   1.0580929  58.8282013
  19.3706996   1.1993511  57.8816843  19.0114410   1.8783625  59.1858530
  59.2670155  51.7882586   1.5231279  59.7027636  52.5895643   1.8134132
  59.7077131  51.5588951   0.7049521  60.6212425  63.1511497  23.4259057
  61.5254498  63.0593157  23.1255651  60.2977800  62.2525549  23.4901834
  78.0126905  35.1371741  36.5285826  78.7389755  35.3753376  37.1047926
  78.3919001  34.5115495  35.9113121   7.3719998  76.1238718  64.0639019
   8.2704087  75.8631897  63.8611031   6.9730492  76.2924862  63.2102919
  19.6137340  43.3342465  47.8919983  19.0517337  42.7425869  48.3923292
  20.4856927  42.9439076  47.9516315  50.2830982  71.6762924  17.5864708
  50.0954199  70.8224249  17.1967030  49.9446058  72.3085690  16.9525266
   7.0606572   6.4108666  28.4009862   7.9112537   6.4853199  28.8336205
   6.5772683   7.1855362  28.6881351  50.5303431  61.3709402  40.5849791
  51.0972214  60.8729029  41.1739063  51.1250353  61.9617653  40.1229143
  59.2047691  42.8350210  59.6556520  59.3053341  43.3356524  60.4652691
  60.1005840  42.6880407  59.3520975   4.7157294  10.7722958  46.5136290
   4.0736730  11.4798744  46.5712976   5.0237186  10.6545170  47.4122429
  56.2269873  13.7879615   5.3084771  56.3132185  13.0905156   5.9583776
  56.4499182  13.3694320   4.4769876  59.9259090  57.9514456  17.4470651
  60.1093149  57.6034498  16.5744281  59.0554237  58.3422136  17.3710048
  66.7886686  69.9201965  20.0488234  66.6085482  70.7278299  20.5299854
  66.1602116  69.9262953  19.3268549   3.1098958  74.4688082  57.5129461
   3.2402821  74.1434813  56.6222191   2.1786709  74.6863699  57.5545597
  50.8081478  42.6052289   4.2275016  51.7186684  42.6602750   3.9374034
  50.3006405  42.5636201   3.4169833  30.5575772  50.4122543  62.7239323
  29.6721859  50.7496643  62.8598309  31.0673638  50.7796764  63.4459782
  19.2994423  53.5348654  62.7598000  19.6995659  52.9187107  62.1462202
  19.3443985  53.0921936  63.6072969  60.6595421  41.3719273  43.3499861
  59.8056316  41.2483597  42.9355049  60.5140972  41.1486340  44.2693424
  56.8007421  57.1999979  32.7985525  55.9600496  56.7599630  32.9244065
  57.4365425  56.6299915  33.2310796  76.1019564  31.5720916  56.9142628
  75.5307913  31.1064410  56.3033867  76.9661808  31.1840129  56.7773390
  54.0309858  46.8779373  39.3096447  54.9041748  47.0920706  38.9811230
  53.4385395  47.4132586  38.7817502  55.6286144  70.8183718  20.0755811
  56.2410355  70.2229309  20.5075836  54.8100853  70.7134056  20.5605817
  71.2337589  43.0316544  13.9225447  71.4624453  43.7566376  14.5042133
  71.1088896  43.4415531  13.0666101  51.1041594  51.7621136  34.3640566
  51.3000536  52.6621246  34.1036010  50.2096367  51.6133833  34.0575671
  75.0096130  30.7507706  43.7305355  74.4171619  30.6536984  44.4760656
  74.9784517  31.6839552  43.5197639  63.9428282  67.6416445  49.4828987
  63.7636280  67.8608465  50.3972673  63.0781364  67.5849438  49.0762997
  36.3706827  64.1766167  12.2821188  37.1843219  64.4556189  11.8621421
  36.2724471  63.2589817  12.0280826  21.2689502   5.9897812  59.7640800
  21.7975385   5.2356537  60.0250673  21.9060952   6.6324814  59.4522905
  78.8482761  24.7192979  57.2756338  79.6583509  24.4482660  57.7075529
  78.3880186  23.8999271  57.0939016   4.6911103   6.9402989  40.4022551
   5.0880391   6.5831955  39.6078014   4.6910388   6.2087925  41.0196066
  73.1096697  57.3892355  60.3460741  72.3618460  56.8180513  60.1707554
  73.0324030  57.6066351  61.2750530  67.6366800  58.1320767  25.8876149
  66.7388910  58.4548478  25.8099477  68.1822294  58.8828092  25.6530683
   5.0990410  77.1005917  13.6651754   4.3657895  76.8057728  14.2052233
   4.8306675  77.9624653  13.3467746  71.0117232  15.4927834  49.7939110
  71.2107026  15.6520375  48.8712645  71.3522374  16.2630852  50.2487850
  80.6156289   3.2160290  41.8562222  79.9272620   3.5493286  42.4318027
  80.8810269   2.3873862  42.2551537   1.5806313  32.6541758  25.7903385
   1.8040677  33.5828161  25.7276106   0.6287880  32.6431108  25.8908749
  79.2598867  73.3411026  51.0159922  79.2469645  72.5537825  50.4717588
  80.1884937  73.5556269  51.1048555  45.8409452  52.1216297  42.6826477
  45.0648451  52.4795628  42.2516203  46.3925791  52.8846836  42.8549337
  18.8221570  58.5337687  32.8807211  19.1521664  57.7909470  33.3862376
  17.8778096  58.5292053  33.0369735   0.7794686  53.3627939  24.6014833
   0.3564950  52.5075722  24.6784139   0.0580330  53.9908791  24.6370912
  57.5832272  41.9130945  53.5563421  56.8400383  41.5575123  54.0436459
  57.8322983  41.2119865  52.9541445  46.5499973  69.8180294  62.3051977
  46.9089508  70.0356293  61.4449406  46.1479330  70.6315708  62.6097155
  60.5341148  54.9310923  44.6507025  60.1129532  55.5055904  45.2900791
  60.8155918  55.5187511  43.9495182  56.8920539  21.8434148   5.5673091
  57.0784917  22.7551656   5.3432910  56.0236673  21.8682818   5.9692018
  50.2848577  66.5319204  35.4756951  49.3672037  66.4157724  35.2294111
  50.5802965  65.6546974  35.7194757  16.3826104  50.1923275  41.7117167
  17.1151371  50.2889061  41.1031818  16.7751141  50.3001595  42.5780535
  41.5184021  51.5125656  34.9680209  41.8864822  52.3833418  35.1180172
  41.8646336  51.2498331  34.1151857  77.3392963  62.4163532  28.9708638
  77.3810577  61.5059853  29.2636275  78.1476068  62.8106546  29.2985797
  56.4287567  69.0401840  47.9963970  56.3859653  69.8130941  47.4333620
  55.8151388  69.2271328  48.7068605  79.1604996  68.4241772  40.3691673
  79.3353558  68.8912392  41.1861849  78.3154631  68.7642097  40.0750256
  81.8412590  40.6466293  52.4589491  80.9708214  40.7058620  52.8527260
  82.1561623  41.5502787  52.4368954  30.0101300  38.6006117  56.4858913
  30.7255288  38.4885192  55.8598900  30.4403801  38.8814664  57.2935104
  64.4372034  60.0213003  57.6935816  64.5914125  59.1798925  58.1230974
  65.2430773  60.5164814  57.8405285   4.5600278  11.4481743  37.3756051
   4.5474584  10.6629189  37.9228163   5.4877956  11.5994747  37.1950793
   7.4731369  28.4325051  52.8208065   7.5164814  27.5147057  52.5524855
   7.5541611  28.9249253  52.0039892  75.2815866  33.8550138  18.7139177
  75.1224566  33.1759453  19.3694890  75.2336454  34.6762753  19.2032683
  69.5343733  72.6981354  16.2527752  69.5796251  71.8106031  16.6084075
  70.4102945  72.8608513  15.9027517  56.6538906  75.1007271  10.9323788
  56.7847919  74.3798113  11.5483165  56.0920238  74.7336197  10.2499032
  75.1699638  67.6567793  37.5409198  75.7822418  66.9374657  37.6956391
  74.6099758  67.3458385  36.8296075  45.7551664  57.9952817  19.4939343
  46.3704342  58.6905580  19.7268788  45.5881065  57.5373750  20.3177373
  47.6407016  68.9775560  50.0523615  48.2201827  68.2170997  50.0986099
  46.8153919  68.6295960  49.7146940   8.2256814  59.8025084  53.2056379
   9.0110035  60.2280903  52.8615808   8.1606503  60.1137066  54.1085005
  76.6654062  44.0142012  33.9193916  75.9410143  43.7136030  34.4681478
  76.4116144  43.7657785  33.0305099  76.5144587  52.1353769  19.8733068
  76.1674500  52.5410080  20.6678414  75.8266687  51.5317678  19.5925343
   3.6683089  22.0470818  43.8153982   3.5669477  22.2826775  44.7375965
   2.7736814  22.0159348  43.4764194  42.1514082  54.1655588  35.2717972
  42.0976686  54.5249796  36.1573243  43.0779791  54.2337227  35.0414658
  32.0874746  28.1874474  23.0501509  31.2649400  28.6758145  23.0841923
  32.6461942  28.6137303  23.7000322  25.7942814  16.9899468  17.6060121
  26.3316196  16.2405639  17.3492448  26.3125414  17.7540402  17.3534123
  55.3986257  24.6464925  17.5091569  55.7303900  24.5624166  18.4030835
  56.1715502  24.5359235  16.9554441   6.5900250  73.2496977  38.1443691
   6.7823620  72.3274803  38.3139324   6.2574978  73.2639265  37.2468948
   6.8691941  65.1161385  42.4525023   7.5245305  65.4305601  43.0753279
   6.5246506  64.3166971  42.8505230  47.1099180  58.9143949   6.5397040
  46.9300503  58.1764131   5.9572427  47.2892136  58.5110002   7.3890368
   1.3684483  30.6960678  31.2412000   0.9313126  31.2331510  30.5803800
   1.5164490  29.8557949  30.8072996  67.3130989  49.3946123   5.0983238
  67.9875278  49.8999643   4.6444544  66.5676498  49.3965197   4.4978774
  22.6305027  47.7789974  54.9766207  21.9368382  47.1201897  55.0086975
  22.5240441  48.2785034  55.7861853   4.9105473  59.3343353  54.9901962
   4.0056630  59.6168900  54.8575830   5.2321167  59.1396379  54.1099024
   9.9634953  75.0322104  59.4667339   9.5301743  74.1870213  59.5855618
  10.5189438  75.1274681  60.2404451   0.4251971  23.1617122   0.0656335
   1.3124289  23.2661634  -0.2780946   0.2702917  23.9574580   0.5745856
  74.1281217  38.9475637   0.6372802  74.4962496  38.5669618  -0.1601251
  74.0890879  39.8870807   0.4583375  47.3148782   4.9873837  39.5600820
  46.6037709   5.5266865  39.9060678  46.8725450   4.2816551  39.0883565
  13.8471563   7.6699551  51.3085508  12.9342372   7.3945626  51.3920069
  13.8491351   8.2698448  50.5626488  16.8748815   0.5049237  22.1775913
  17.2819955   1.2523516  21.7395902  16.1674268   0.8876284  22.6965117
  18.5772330  21.5520581  32.9091740  19.0532643  22.2055062  33.4216571
  17.8930099  22.0502766  32.4621296  79.2101383  72.9956388  23.5361052
  79.2082119  73.8258410  24.0125418  79.9939919  72.5428057  23.8471532
  24.1313035  15.3726395  51.0683632  24.7419460  16.0114964  50.7006598
  24.4866140  15.1725968  51.9343662  29.0314538   9.6994122  19.4267130
  28.6129911   9.3364628  20.2073479  28.3112676  10.0797089  18.9237821
  57.5850868  57.3620796  28.7251306  57.9874849  56.9697380  29.4999695
  58.1204271  57.0525455  27.9944944  63.4280199  28.1978850   9.2718999
  64.0366167  28.7123065   8.7415998  62.7068800  27.9921584   8.6770360
  17.1776410  67.5807714  51.3584566  16.9560643  66.7138147  51.0185766
  17.2014637  68.1427526  50.5839682  57.9336542  37.0753388   7.8098456
  57.8074736  36.1324267   7.7038590  57.0650095  37.4095969   8.0333631
  24.6280677  20.1295098  15.4935062  25.0360973  20.9724625  15.6914270
  25.2860458  19.6592530  14.9814892   3.8316746  56.6242599  28.8103509
   4.1261025  56.6233349  29.7211432   3.0668278  57.1997833  28.8064647
   1.5119035  11.3214024  38.3868146   1.0484750  11.9484719  37.8316164
   0.8298976  10.7246502  38.6950302  72.4160671  47.6059389  65.6528664
  72.1522903  48.3323908  66.2175941  73.1757498  47.2242785  66.0926914
  54.4836855  51.0222673  58.3641243  55.2580070  51.4922667  58.0546761
  53.8312578  51.1567783  57.6767588  18.5908528  56.6492701  15.4491782
  18.0078621  55.9505129  15.1523817  19.0958901  56.8863726  14.6713889
  34.7172410   5.8784493  42.6808834  34.1434629   5.6880673  43.4230185
  34.5242078   5.1887806  42.0457983  19.2372723  34.6486068  16.0248125
  19.9278279  34.2835307  15.4715574  18.8229771  33.8847232  16.4261484
  20.0576646  13.3497818  15.7639658  20.4417093  12.4745091  15.7126486
  20.2498300  13.7458618  14.9140108  70.6234550  51.1911345  65.3602552
  70.2066755  51.4728737  64.5459175  70.3662157  51.8527746  66.0023546
  76.9032431  56.2808418  43.5065556  76.8541384  55.7537508  44.3040514
  76.5524530  57.1341848  43.7614822  21.3791031  41.4239793   2.0276086
  21.8061632  40.7923083   2.6062600  21.8998951  42.2219853   2.1181743
  17.6582426  27.8801303  13.8495652  17.0625347  27.2238212  14.2109887
  18.3787340  27.3709874  13.4782235  63.0439388  27.8437050  54.7625780
  63.3114135  27.9045876  53.8455248  63.7947976  27.4482067  55.2053213
  20.4418332  48.8872154  14.4533837  20.5936343  48.8286694  13.5101128
  19.8705489  49.6481808  14.5572686  61.5297985  47.7158022  20.1344633
  62.0123863  46.8891716  20.1297116  61.4437008  47.9481983  19.2099035
  51.9501359   1.1539849  47.6613808  52.6228292   1.6375979  47.1819687
  51.1338288   1.6079815  47.4521589  71.3045359  49.9474955  37.0099092
  70.8015442  49.2631817  36.5683913  70.8898830  50.0334454  37.8683424
  63.7916517  72.2259998  65.5382013  63.5384846  71.4445210  65.0468445
  63.2507515  72.9253006  65.1712847  56.2538904  21.7503171  11.0712497
  56.0703176  20.8350902  10.8593623  55.4634470  22.0564036  11.5159385
  23.9899846  69.2864418  53.1914043  23.8565083  68.3434916  53.2876778
  23.8683148  69.6368837  54.0737963  46.1716217  27.2587638   2.6307027
  45.9844870  28.0390172   2.1087710  46.2401098  26.5519910   1.9888227
  58.3823311  19.6821697  12.7884567  58.4736239  18.8309296  13.2165921
  57.5101053  19.6599587  12.3948097   7.7450616   8.9023979  34.1153932
   8.6741740   8.8540467  34.3404317   7.4468190   7.9930123  34.1325808
  79.7847223  44.7912550  39.9002528  80.1291847  44.6788025  40.7862186
  78.8637018  44.5394325  39.9676061  24.4296415   9.3956478  44.2051649
  24.9876268   9.5547589  43.4438705  23.5416419   9.3653401  43.8491201
  47.6390798  12.3668583  45.9726000  47.9954011  11.5417011  45.6433916
  47.4819810  12.2056683  46.9029617  53.9092731  62.8161669  42.5060987
  53.6759138  62.2983837  43.2766008  54.3843937  63.5688210  42.8582430
  28.8376100   6.8940743  33.0007005  29.5866544   7.0271500  32.4197888
  28.6760289   7.7559574  33.3844662  78.1565475  52.2070456  34.4961357
  77.9088449  51.2971354  34.6602774  79.0885687  52.2440577  34.7110677
  14.0749639  10.0383048   2.8622310  14.6703762   9.7710471   3.5624377
  14.3469995   9.5192580   2.1053807  35.3166652  71.5424585  35.1162744
  34.9166012  70.6754446  35.1831150  35.4017138  71.6950893  34.1751575
  72.6961946  62.6301718  36.2755489  73.4970379  62.9188156  35.8378720
  72.7063847  61.6769171  36.1893415  80.3459870  15.0790604  47.9767799
  80.5687987  16.0098179  47.9603672  79.5602833  15.0304325  48.5213375
  72.1866274  63.0811024  14.5163631  72.5156546  63.6462831  15.2153242
  72.8357458  62.3808575  14.4490147  69.6621644  12.0822437  31.0768580
  68.8307320  12.2650917  30.6392360  69.4924247  12.2672756  32.0005369
  38.9317822  72.7074623  49.9600887  39.0714431  72.7724886  50.9048080
  39.8032498  72.8209972  49.5807648  81.2133980  69.6464968  29.3631196
  81.3834858  70.3803158  29.9537230  81.9243813  69.0295696  29.5367002
  59.2004728  65.7510948  66.3032532  58.4895515  66.1518002  66.8035126
  58.8099527  64.9664259  65.9185171  40.4506929  15.4131516  48.7312889
  40.1820810  15.9845837  49.4506931  40.2179582  15.8988007  47.9399538
  57.5673866  72.1398306  59.7277308  57.1338987  71.7673349  60.4955626
  58.0616236  71.4101505  59.3541908  28.5235234  53.6547136  35.5172467
  28.6072560  53.3017254  36.4030337  28.4215947  52.8828144  34.9604559
  11.4274998  65.7487726  50.7448864  11.5916367  66.6784573  50.9029341
  10.5455418  65.5999231  51.0857916  69.2778683  55.8351803  31.0415769
  69.4598055  55.7668257  31.9788384  68.3787632  56.1602879  30.9952116
  21.2339612  57.8085899  44.7936344  20.9130497  58.5825634  44.3308067
  20.4534169  57.4315023  45.1995850  74.0566349  70.5067873  28.5111713
  74.0684843  69.5935297  28.2247257  74.3587208  71.0008049  27.7489877
  70.4249716  27.7138448  29.1309953  70.3335714  27.2141910  28.3196855
  71.1295700  27.2729421  29.6057343  51.5084477  57.7330494  66.8085670
  51.1544056  57.7407598  65.9192801  51.8487473  58.6182165  66.9385624
  76.6304146   3.9033993  39.3817282  77.2812211   4.1203697  38.7141895
  76.5335213   4.7074135  39.8920274  14.0780885  18.7223156  27.1944094
  13.8548286  19.6206578  27.4380612  13.3474977  18.1970127  27.5208044
  64.8329973  60.0622702  54.6303368  65.2302694  59.2643547  54.2814255
  64.8688745  59.9519730  55.5804873  68.1026316  59.2316246  32.1678877
  67.8108883  58.6098051  32.8345656  67.6604176  60.0499535  32.3937535
  55.5135632  69.0734339  35.0871396  54.7152090  69.0236139  34.5614171
  55.9504938  68.2347250  34.9391890  56.0327482  75.1809645  28.6911845
  55.8890629  74.9556828  29.6103334  56.5697336  74.4656181  28.3503675
  80.6003571  50.1589441  34.2959499  81.3699436  49.8576450  33.8130546
  80.7195091  51.1058235  34.3698025  75.9194565  74.5951557  43.2393503
  75.6205177  74.9773598  44.0644503  76.7686462  75.0065708  43.0785799
  81.1949253  57.3940706  18.1777453  81.0916805  56.7941952  18.9164770
  80.6430054  58.1440926  18.3993065  76.6146278  74.3863583  22.1035719
  77.2863722  73.7878895  21.7767358  76.5612602  75.0727272  21.4385271
  73.5212695  13.9939984  39.5874214  73.7154042  14.7855671  39.0854549
  73.1384885  13.3929642  38.9483118  68.6250257  63.1407785  43.1709242
  68.0095053  63.5394239  42.5557470  68.0944967  62.9337978  43.9402962
  17.0348282  55.7012558  40.8914042  16.1316987  55.5091524  41.1437607
  16.9906636  56.5658331  40.4830074  68.7050091   4.9121197  43.1519699
  68.1829774   5.1224526  43.9262295  68.8894259   3.9764794  43.2343817
  79.7890139  53.8390303  63.7914181  79.8865223  52.9299736  64.0748596
  79.5725679  54.3175316  64.5916796  58.6538649  62.7917957  62.0366383
  58.4822845  62.8584814  61.0973072  57.7866077  62.7095890  62.4332857
  66.0593981  47.5635438   9.7015254  65.6284422  47.8417401   8.8933770
  66.2417025  46.6334252   9.5678060  23.2446690  37.6026893  49.7707701
  24.1510029  37.8483486  49.9563932  22.7216168  38.2989645  50.1680756
  50.5047798  39.4553781  63.0643320  50.4274940  40.1150799  63.7535715
  50.3440475  39.9368739  62.2528172  46.4022398  74.0043211  39.7980237
  46.6994905  74.9060965  39.9191689  45.9919930  74.0014982  38.9331985
  26.9364949  67.3608589  45.1288462  27.5947209  68.0491877  45.0330353
  26.8993683  66.9434977  44.2682266   5.4026277  76.0014722  11.3010423
   5.3616435  76.2229106  12.2313754   4.6510751  75.4260823  11.1584632
  74.3785948  31.1772018  29.7902600  73.8740438  30.3642898  29.7613923
  73.9002127  31.7764955  29.2173497   7.4914558   5.3483494  36.1496663
   6.7428024   5.1114948  35.6022692   7.1030481   5.6287010  36.9783878
   7.2341176  71.2540436  54.2673969   7.4891491  70.3940201  54.6013927
   7.8709813  71.8578768  54.6495295  46.0899925  59.4569778  40.0447130
  46.8044853  59.9909973  40.3919172  45.2956581  59.8713255  40.3817272
  69.6154016  31.8557315   1.0038201  69.4436640  31.9013457   1.9443814
  70.4459375  31.3849359   0.9345500  59.7190374  27.5908618  17.5510232
  60.0136274  28.0204539  16.7479627  59.8505777  28.2467799  18.2356374
  16.2462438  36.9089034  52.9617031  16.9598020  36.9014838  52.3237272
  16.4670766  37.6229051  53.5597535  58.2934141  60.0420570  51.9332123
  58.4181356  59.2819786  52.5015020  57.3608923  60.0294828  51.7176294
  80.5932045  63.2761526  53.6261177  79.6792698  63.0878162  53.4128428
  81.0164452  63.4014082  52.7767563  19.5592887  10.9871872  21.0337353
  20.0749786  11.5866764  20.4943657  18.8714654  10.6699188  20.4485273
  57.7757257  51.8650537  15.0610654  57.0075601  51.2944512  15.0372140
  57.5113005  52.5996690  15.6148164  64.0961629  13.6677356  63.8089661
  64.9714357  13.3152003  63.9697389  63.8313943  14.0435715  64.6485356
  23.8135958   0.2546641  31.7219067  23.9454293   1.1257230  31.3475966
  24.6354079   0.0608321  32.1727777  73.1403237  51.6627590  28.4580183
  72.2385662  51.7025701  28.1394601  73.2154112  52.4048821  29.0578914
   6.9956840  18.3221905   0.8177980   6.6784251  18.3750049   1.7193463
   6.2476219  18.5909597   0.2845087  22.8743995  46.6320340  47.1730852
  22.8791488  46.7949621  46.2298632  23.7043775  46.1866490  47.3433876
  60.9992068  69.2437766  45.6933880  60.3190958  69.9144218  45.6308126
  61.3785862  69.2047451  44.8154449   1.6515792  72.2570990  35.9150577
   1.9733489  71.4210490  36.2522745   0.6999887  72.1560733  35.8927250
  46.2590218  31.0066533  16.8184912  45.9606314  31.8998194  16.9901025
  45.5312777  30.5966640  16.3510203  20.3576875  17.7330971  16.2160885
  19.6291661  17.9425907  16.8005550  21.0146093  18.4039485  16.4022100
  31.3611711  17.6881162  30.9375048  31.8518031  16.9828645  30.5154514
  31.8381036  17.8589718  31.7496467  26.0543776   1.7578167  55.8534241
  25.4509473   1.3188939  56.4529657  26.7732191   2.0543371  56.4116144
  33.5818828  70.4267154  27.1523881  33.8588012  70.0402514  26.3216090
  34.3621791  70.3898845  27.7055717  74.0374189  19.5226188  66.2932754
  73.7579828  19.6509225  67.1997436  74.2402798  20.4034264  65.9782222
  15.5444730  12.0041792  20.6662297  15.1643480  12.3825590  21.4590526
  14.8512996  12.0766680  20.0101161  21.7068583  41.9495906  64.7849435
  21.4145237  42.7150224  64.2900838  21.1965418  41.2234248  64.4264858
  26.5123189  72.4863787  62.5798035  26.1959852  72.2921250  61.6975117
  26.3760770  73.4284032  62.6810884  27.7152658  15.5006564  41.9326687
  27.1918559  15.1528764  41.2106419  27.8201318  16.4295447  41.7267513
  12.8343738  73.5260422  23.5370469  12.8148139  73.2001491  24.4368482
  12.6846946  72.7495141  22.9977560  34.6115232   4.5685688  54.1541624
  35.4102612   4.1395128  53.8473082  34.3499017   5.1350158  53.4282684
  12.8037656  77.4010383  29.4576526  12.6710189  76.7461127  28.7723184
  13.7240279  77.6510761  29.3749809  58.4543731  46.9313900  24.9983644
  59.3435525  46.8193094  24.6621633  58.5492240  47.5455539  25.7263994
  64.6212892  11.2317908   9.1723096  65.3424315  11.6788018   8.7291741
  64.3437974  11.8430293   9.8546714  72.1813410  67.4551515  28.8887548
  72.8698902  67.5425194  28.2295895  71.7442446  66.6319243  28.6708641
   9.4997902  26.0138750   4.7230956  10.3344460  25.8673787   4.2779934
   9.6209546  25.6302285   5.5916393  61.3434505  70.1771675  30.4795766
  61.2220304  70.4953406  31.3741469  62.2287714  70.4550759  30.2446175
  44.5657647  69.1992591   8.4504354  45.2818454  69.7340212   8.1076598
  44.9988187  68.5316650   8.9824283  50.5844975   5.7159740  16.7453110
  50.6921625   6.3654286  16.0504377  49.8574352   6.0474002  17.2723520
  34.4779348  14.3665922  37.1520996  34.9787498  15.0815451  37.5448608
  33.5952139  14.4688034  37.5078940  77.2844397  54.9024388   2.1959416
  76.8403947  55.7503983   2.2007863  76.7148053  54.3367526   1.6746490
  53.5291147  27.8975344  13.9895189  54.4561577  28.0501771  13.8064194
  53.5274267  27.3337889  14.7630942  12.8437770  60.3040735  15.5420828
  13.0496991  61.2386553  15.5617261  12.6668657  60.1171223  14.6201372
  32.0079255   9.3216193  33.3225703  32.4522614   9.1563010  32.4910235
  32.3196578  10.1852405  33.5931516  17.4844575   1.8306093  15.7153785
  17.3950338   2.0803174  14.7956610  16.7373991   1.2555878  15.8811665
  35.9029865  25.1338673  18.1883538  36.8015099  24.8273110  18.3104742
  35.9593749  25.7591724  17.4658263  37.9052604  26.7951576  23.7811470
  37.0638574  26.6096584  24.1981125  38.5567821  26.4581768  24.3961239
  41.3731575  14.0267479   5.8359796  40.4846334  13.9766502   5.4834890
  41.6821289  14.8969293   5.5838811  35.9571004  10.9483898  11.6687417
  35.3178477  10.3358161  12.0325303  36.5270543  10.4048193  11.1247611
  36.7251600  55.6074993  14.2669308  37.5101293  56.1060230  14.0399253
  36.1453021  55.7175080  13.5133457  41.3152409  21.8159127  21.7467260
  42.1674013  22.2468281  21.8127799  41.4763021  21.0497975  21.1959457
   5.5795563  42.7735202  12.8696191   5.1393283  42.1392814  13.4354568
   5.2374805  43.6224500  13.1498611   2.8946282  27.6241727  60.0533004
   2.6263215  28.4998102  59.7749080   3.2425429  27.7496452  60.9361620
  67.9568815   1.1701389  31.7024159  68.0377245   1.1858975  32.6560664
  67.0133162   1.1813037  31.5418148  42.9141378  11.5624726  19.6570778
  42.3468828  11.2190473  20.3473783  43.8025570  11.4024734  19.9754190
  74.1005217  71.0175583   0.4274337  74.6614443  71.7758962   0.5902879
  74.6639525  70.2623078   0.5958859  52.8290701  13.2629871  25.3015518
  53.5777760  12.8455734  24.8756003  52.3323488  13.6544681  24.5830512
  16.1046375  72.2518913  24.6172762  15.7981933  72.3039536  23.7119508
  15.6256021  71.5117840  24.9901009   0.8731306  71.8751572  14.3335581
   1.2855018  71.9322304  13.4716272   0.1269258  71.2898640  14.2037845
  75.6902926  73.6131258  18.4385788  75.1466005  73.6800785  17.6536274
  75.8785336  72.6782016  18.5205209  28.0533266   6.7576200  27.1118164
  27.2528172   6.3581562  27.4521732  27.7682352   7.2434753  26.3379312
  32.8770971  35.0720716  12.0267284  33.0966926  34.2162228  12.3948765
  32.6159906  34.8850727  11.1250150  16.5709556  66.1361269  28.4028840
  17.4263633  66.2168805  27.9809952  16.2244666  65.3026716  28.0842423
  13.3920396  64.7509174  46.4160824  13.9304698  65.0371901  47.1538973
  13.6594785  63.8448934  46.2617254  48.2749701   3.3231005  41.9712448
  47.8691196   3.8017726  41.2484789  47.5602961   2.8123227  42.3514795
  36.3220215  12.7778327   9.2951691  35.7689118  12.0195687   9.4831455
  37.1992087  12.4120665   9.1811848  24.2186321  62.1955566  34.1273999
  24.4430078  61.3606743  33.7164736  23.2652438  62.1733681  34.2098212
  79.6311920  53.7689940  27.4027181  79.9591534  52.8819434  27.5504112
  80.4177015  54.3139474  27.3769569  11.8064725  13.3487535  59.4209766
  12.1757638  13.2093751  60.2930021  11.0194850  12.8041387  59.4043016
  14.7149432  65.6932787  25.8605003  15.5591119  65.8572547  25.4401135
  14.2607177  66.5349619  25.8220434  34.2422927  76.1355447  41.2580156
  33.4618867  76.0962998  41.8108845  34.4916452  75.2202551  41.1303473
  32.3790741   6.4968300  25.9038997  32.4897575   5.5705184  25.6895924
  31.6273999   6.7755169  25.3808784  29.4683946  74.3215598  18.6264729
  29.6426595  74.1393725  19.5498753  28.5174573  74.2502938  18.5435951
  11.1351120  16.1111677  55.4756594  11.6006315  15.5960858  56.1346102
  11.4137506  15.7381582  54.6393251  71.7174201  56.9115035  45.4346275
  70.9386998  56.3682620  45.3133154  71.7284208  57.4883179  44.6708250
  73.0561733  49.3314314  16.2331676  72.8705454  49.9791765  15.5533135
  72.2859478  49.3528318  16.8010807  48.2401050  71.7203156  31.5653729
  48.1791509  72.5909040  31.9585562  48.9241327  71.8048475  30.9011531
  79.7655493  56.7439885  60.7322122  80.0412422  56.2623794  61.5121330
  79.8128754  57.6646013  60.9900172  67.7794313  25.5811977  20.9737563
  67.5008488  24.8396182  20.4364610  68.6914444  25.7290387  20.7235289
  28.2350636  11.4088547  53.9470291  29.1843915  11.4173877  53.8248253
  27.8999925  10.9333038  53.1868887  40.0813055   4.7336087  10.1713741
  40.2595472   4.2640817  10.9862387  40.5364609   4.2271501   9.4986433
   6.8646973  32.9986858  23.9330435   6.2393737  33.4203148  23.3436108
   7.0107257  32.1342659  23.5487437  37.7702689   3.4812292  41.7398596
  38.4013319   3.5523099  41.0236645  36.9854951   3.9204484  41.4120722
  62.2582687  59.7003011  53.1924295  61.5583194  60.3364567  53.3394527
  63.0415977  60.1194577  53.5486889  14.4796670  60.2136640  27.8530550
  14.3074430  59.2965631  27.6397538  14.8127759  60.1924400  28.7501717
  67.0077610  18.6229479   4.8405445  66.7361212  18.5535014   5.7557607
  67.8335857  19.1059279   4.8718023  52.1950340   7.0677114  44.3072891
  52.3742390   6.2605035  43.8250732  52.5442648   6.9057226  45.1836634
  23.8193490  26.5540369  43.4882148  23.0737664  26.9230897  43.9616521
  23.8571002  25.6415112  43.7747510  14.1013028  48.1231023  59.8366888
  13.3723332  48.4843291  59.3323614  13.7541701  47.3148460  60.2141179
  79.3812042   3.8904018  61.2891747  79.7596985   3.4386034  62.0433988
  80.0112682   4.5807333  61.0825463  35.5467987   1.5658401  11.5376282
  34.6053219   1.6137262  11.3716114  35.8705997   2.4436367  11.3354969
  39.9892356  36.8605239  64.8833504  39.4734789  37.6065028  64.5771732
  40.8403136  37.2349454  65.1107538  18.6322654  62.9925494   4.5038521
  18.4751571  63.9366905   4.5159611  18.0447400  62.6606647   3.8249576
   1.1413119  25.4135489  37.0268202   0.2216689  25.1904130  36.8829489
   1.5097082  24.6434736  37.4598336  17.2970235   2.2455898   0.6226590
  16.8650854   1.9586389   1.4272211  16.6482329   2.7977991   0.1863460
  80.8827597  45.8220125  61.8834920  80.9957415  46.7680527  61.9755580
  81.5827042  45.4442592  62.4160440  45.9760857   7.5852805  23.9522266
  45.8924961   7.4069262  24.8889422  45.1970196   8.0974346  23.7354732
  68.7203877  73.5916055  32.8187490  67.8558390  73.3829285  33.1726432
  68.8839989  72.9089115  32.1680617  70.0784212  53.8756449  61.8508984
  69.5097929  54.1076167  62.5851186  69.7398573  53.0353208  61.5419342
  44.1493398  62.5874610  63.1239693  43.9654547  62.1764894  62.2792681
  43.9828628  61.8982048  63.7669639  42.2803831  41.6799688   5.9504122
  42.0819855  41.2575722   6.7861485  43.2231998  41.5583706   5.8384478
  10.3720678  31.5536587  46.4254189  10.3531254  31.5167896  47.3817205
   9.4660962  31.3929836  46.1615419  40.0855840  67.1670167   2.8358668
  39.4075406  67.6864980   3.2678735  39.8612130  67.2060017   1.9061512
  29.4614315  33.6573505  43.0437136  30.1850939  34.0993023  43.4878159
  29.8801351  32.9598331  42.5393438  14.7271271  32.0639014  51.1262894
  15.4099389  31.9142079  50.4723787  14.7882767  31.3102746  51.7132616
   3.3065487  13.9071221  66.1074793   3.6905028  14.0988297  65.2518745
   2.8288437  14.7034903  66.3394941  14.4323839  69.7574882  49.0829134
  14.0076364  70.5521248  49.4059896  15.0287307  70.0652413  48.4003544
  38.6037159  48.8733673  35.5665827  38.4503746  49.3887901  34.7747111
  38.5985923  47.9647160  35.2656579   5.1275910  66.2803129  40.4524755
   4.3877614  66.0257153  41.0038900   5.8105672  65.6420402  40.6583500
  66.2236290  14.8447597  39.5727968  65.3220598  15.0562871  39.3305969
  66.5170614  15.5981910  40.0851154  77.5953966  11.8173332  62.4973546
  78.5025745  11.6364427  62.7433963  77.4666935  12.7397556  62.7182727
  66.8853569   1.7420375  14.1647911  66.9127512   2.6338795  14.5113444
  66.9602919   1.8510532  13.2167757   1.1797644  47.6603736  64.0067838
   1.9527651  47.5999565  63.4454943   0.5699565  48.2113756  63.5161065
  55.9357643  -0.1718582  28.6439180  56.0556269   0.6881307  28.2410741
  56.8247843  -0.4798948  28.8199520  58.0918646   4.2612866  17.0432782
  57.3678303   4.8774081  17.1546447  57.6682663   3.4076324  16.9534385
  36.5260792  22.6148200   4.7353348  35.6852674  22.1701932   4.8429269
  36.4764762  23.3669949   5.3252536  47.4405956  23.3901334  58.1360006
  48.2603359  23.7757778  57.8269148  47.5811481  22.4454832  58.0718803
  73.6625248  39.3998956  37.5817497  73.9001137  40.3224812  37.6745971
  74.4451719  38.9865289  37.2172959  56.7538439  55.2539715  -0.0174315
  56.9315421  54.8823807   0.8466165  55.9897219  54.7715649  -0.3330787
  39.3361664  39.3493629  64.2265987  40.1549959  39.8365951  64.3179989
  38.6964464  40.0057030  63.9505482  81.0457080  72.4430538  33.9833450
  81.3291447  73.3423902  34.1479349  80.5626767  72.1960418  34.7719502
  40.4579747  58.9642350  45.3270578  41.3026012  59.1297321  45.7459259
  40.4209436  59.5927493  44.6060658  57.6906013  21.8840170  47.0694351
  58.3716917  22.5495505  46.9724512  58.0425453  21.2738132  47.7175236
  72.9184835  77.0557037  37.3172474  73.7182503  77.4934646  37.0257521
  73.2020014  76.4947155  38.0391502  15.7718933   8.0976915  35.4429483
  15.3824413   7.5048870  34.8001862  16.7065609   7.8922123  35.4228210
  33.8851404  14.2637682  54.9211025  34.3158889  13.4533668  55.1930094
  33.3138061  14.0008748  54.1995096  43.2926416  23.2895947  42.5142002
  42.8036833  22.5009394  42.2793007  44.1252708  23.2022858  42.0501614
  41.3429117  15.9616959  18.4064770  40.9557009  16.4510703  19.1322947
  41.9053984  16.5964508  17.9627120  37.8975487   9.0852368  30.8665371
  37.3462391   8.4601045  30.3959012  37.4241161   9.9149638  30.8061504
  59.2772341  27.9910064   5.3779799  59.4034672  27.7373791   6.2922943
  60.0885439  28.4395719   5.1396549  50.9737301  12.2459221  34.4192410
  51.0605049  12.0723093  35.3565574  51.7638922  11.8694425  34.0317631
  34.1180897  34.7346163  23.5617757  33.3924103  34.2232919  23.2037759
  33.8045812  35.6388831  23.5461140  34.0657914  66.3804428  27.8122044
  34.3875087  66.2573723  26.9191289  33.1595577  66.0734920  27.7847576
  54.8871040   9.3710554  43.8637161  54.8742867  10.3081369  43.6689186
  54.0992212   9.2244309  44.3871403  44.5980895  68.3290724  29.6567559
  45.0345910  68.1228821  28.8302088  45.2461923  68.8307432  30.1512456
  43.7516356  11.8112159  12.1324277  43.8431644  10.8671010  12.2608829
  44.6465683  12.1473718  12.1806777  46.3632679  48.9808702  49.4680691
  45.6122971  49.3252516  48.9846706  46.1370754  48.0673647  49.6429396
  38.8447309  73.0821705   0.6297413  37.9436994  72.7917099   0.7711961
  39.2983723  72.3051596   0.3031002  58.3054127  72.2179572  43.3282042
  58.9769911  72.8589515  43.0950928  58.1531464  71.7263208  42.5211477
  72.7641106  18.7361336  13.6528373  73.3214951  19.2837989  14.2056644
  72.6785469  19.2286134  12.8365207  14.1243625  16.9939959  12.2751045
  14.9323761  16.4811933  12.2945833  13.6348367  16.6415048  11.5319049
  35.4733658   8.9991426  33.4616923  35.6431293   8.8176078  32.5373244
  35.5788565   8.1523728  33.8953805   1.5045656  72.9880564  66.3239384
   0.7602180  72.4963532  66.6709328   2.0820177  72.3197583  65.9549379
  71.8326336  16.9960017  65.8893748  71.0130793  16.5138574  65.9993760
  72.5103336  16.3859982  66.1806648  37.7579905  18.9890332  62.3260622
  36.8900229  18.9468033  62.7274029  37.7336337  19.7784073  61.7852046
  31.7537427   2.5581956  12.8999686  32.6748776   2.7417541  13.0844879
  31.7196226   2.4338906  11.9514871  54.3028545  18.1770408  14.2913020
  53.6936092  17.4925041  14.0147793  54.7454309  17.8090978  15.0561392
  66.1752014  77.0536952  43.6993980  66.9471793  77.3982364  43.2504272
  66.4973228  76.2895855  44.1775227  52.7451134  15.6993711  13.8376534
  52.6158190  15.1453269  13.0678809  53.5471010  15.3664398  14.2404020
  71.8177491  75.5456133  14.5869076  72.2216969  75.0683783  13.8621294
  72.2652417  76.3917268  14.5955038  59.8729610  35.9478712   0.8198015
  60.1618719  35.0911260   0.5055575  60.2494097  36.5705347   0.1978600
  54.4333935  21.5818501   3.0114824  53.8553667  22.2809434   3.3170784
  53.9744425  20.7739329   3.2414106  37.1464067  72.6440580  14.9239314
  37.9041140  72.0592992  14.9109900  36.6418546  72.3995088  14.1481388
  34.0694714   4.5356581  33.9054561  33.6357641   4.2378175  33.1058192
  33.3793807   4.5294714  34.5687580  46.4269400   2.3286675  15.7878125
  45.7090950   2.0794502  16.3698924  46.0078764   2.8414688  15.0966907
  22.9757929   7.9806745  24.2384458  22.3690629   7.2946113  23.9601874
  22.4158645   8.7341338  24.4255567   7.9493702  73.5685514  14.9953520
   7.1442188  73.3381517  15.4589021   7.9854286  74.5241050  15.0383496
  40.5642761  55.0930325  20.0901675  40.5814899  55.9264938  19.6197677
  40.1221002  55.2927796  20.9152818  72.7552812  74.0703381   1.4610310
  72.6094907  74.9921961   1.6735275  73.6168688  73.8731970   1.8285032
  48.7141752  21.2323618  17.8481281  49.2445135  21.8180561  17.3078179
  48.1342793  21.8166232  18.3365810  15.8564819  51.4563553  13.1196427
  14.9999488  51.8836157  13.1249917  16.0875047  51.3945071  12.1928012
  11.2837102  43.0113305  65.6178352  11.5003087  42.3145090  66.2373164
  11.6533686  43.8029302  66.0089310  53.2918835   4.4703898  42.9200840
  54.0225697   4.3779740  42.3087025  52.5218201   4.2116246  42.4138451
  68.6300021  57.8252308  50.4915237  67.8213625  57.4136583  50.7963896
  69.3233018  57.2277514  50.7718563  41.0695709  34.8475782  15.2677405
  40.2174819  35.2665512  15.1467752  40.9791244  34.3513004  16.0812259
  29.0996313  28.5801673  23.0975890  29.1253734  28.5393548  24.0535712
  28.1726265  28.4854460  22.8786874  22.4494624  20.6537557  24.2668414
  22.3563957  19.7098243  24.1381335  23.3747292  20.8288145  24.0951800
  12.8740657  69.7075812  42.8759623  13.0038656  70.0036917  41.9750166
  13.2846082  68.8433997  42.9055452   3.1786938  36.0420513  63.3204794
   3.0470677  35.5216336  62.5279665   3.3388253  36.9297624  63.0002308
  26.9169009  65.7492844  42.7470779  26.3436378  65.0048177  42.5644016
  26.8216146  66.3180689  41.9831133  68.7108850   6.8793195  63.5496664
  68.5104322   5.9851807  63.8263750  69.3122578   7.2077447  64.2180347
  36.5120769  12.5097311  23.4367847  36.1664724  12.2705591  24.2967772
  36.8923259  11.6994035  23.0976486  12.2641933  16.4583564  10.1126158
  11.8518138  17.2612894   9.7940665  11.9652414  15.7793403   9.5078051
  35.7200289  19.5989799   6.6329223  36.3499188  19.9664521   7.2529507
  35.9001422  18.6588895   6.6373497  81.0866642  31.7903423   0.5413649
  80.8244228  32.4678063  -0.0819388  80.9647655  30.9680796   0.0667524
  81.4308327  62.7531890  11.6677451  80.6899112  62.3322789  12.1037519
  81.0575240  63.1292586  10.8705986  17.4177730  19.2454898  65.1007175
  17.0380163  19.8970759  64.5112658  18.0971479  18.8179123  64.5793152
  16.9920314  54.7791664  14.3795300  17.2809375  54.2219416  13.6568511
  16.1664642  54.3894283  14.6672404  18.5642624  19.0718913  27.6350045
  18.9984453  19.8424768  27.2690630  19.2814386  18.5058415  27.9204488
  42.1302605  20.8924818  32.0339108  41.2808180  20.7447457  31.6181540
  42.1657324  20.2488923  32.7415609   4.7895325  76.4349670  22.1007776
   3.8620818  76.5341662  22.3157835   4.9545492  75.4954142  22.1797848
  79.6620327  29.8201008  60.8402504  79.6771055  30.7091297  60.4858042
  80.5703932  29.5238192  60.7825537  10.6304873  32.7422945   4.1704780
  11.1232627  33.4251825   4.6255207  10.4084504  32.1108429   4.8547319
  19.9763656  25.9952474  37.7715373  19.0629506  25.9746003  38.0569792
  20.4532886  25.5334449  38.4611154  19.0518773  48.5212557  18.9569211
  19.0618146  49.4141571  19.3016851  18.5686887  48.5878841  18.1333160
  39.4639444   8.0870771   4.4787282  40.1580000   7.6218605   4.0117255
  39.0988231   8.6875439   3.8288373  78.1940859  46.4432303  59.7705507
  77.8350108  47.1561019  59.2422390  78.6704653  45.8977358  59.1446686
  72.3743677   9.8828375  20.4505563  72.4620676   9.1975635  19.7880304
  72.5937033   9.4485152  21.2748671  79.3537617  34.9269462  16.9922662
  78.8215399  35.3816152  16.3393903  78.8559771  35.0082040  17.8058016
  35.0343908  56.8969814  35.9551644  34.3401874  57.3624031  36.4217424
  35.7843555  56.9275228  36.5491796  54.2622042   7.7825451  41.6528940
  53.4616518   7.2838306  41.8160915  54.4370747   8.2320970  42.4796677
  45.3616428  28.6184716  13.2518613  45.5457067  28.8078237  12.3318076
  45.5923748  27.6954961  13.3572519  53.2894195  61.7677120   4.2660782
  52.9085792  62.4808876   4.7784996  54.0961421  61.5436904   4.7300258
  16.2700141  60.1851527  25.6348586  15.8249963  60.9174756  26.0613513
  17.1313108  60.1530020  26.0512280  80.9006470  74.7193737  20.2951074
  80.4490297  73.9124153  20.5422735  81.6971534  74.4228439  19.8547900
  72.2912722  59.8523514  35.1101208  73.0767088  59.3679861  35.3645062
  72.1265035  59.5837848  34.2062640  24.9498820   0.5902942  18.7110353
  24.0832639   0.8634966  19.0119779  25.4237199   0.3705874  19.5131803
  50.7898426  30.2929282   1.4793798  50.8023739  30.2817059   2.4364319
  51.7131805  30.2768636   1.2275541   0.5951155  68.9324359  36.0494876
   1.3732446  69.2098491  36.5330052  -0.1380669  69.1827158  36.6116571
   3.6148936  54.1719803   2.7979867   3.5627086  53.2603046   3.0849616
   4.2488105  54.1614315   2.0808570  20.6567498  13.4954202  38.2508779
  20.3146286  12.8914297  38.9099526  19.8801060  13.9289570  37.8971767
  44.2532539  36.9592905  31.5248466  44.7920179  37.1952081  30.7696581
  44.5032215  37.5870204  32.2028589  49.4912529  28.4614897   8.3297914
  50.1950264  28.5703397   7.6901907  49.0223932  29.2958522   8.3143276
  60.2096462   7.8133756  31.3776946  60.7607126   7.5576633  30.6379867
  59.7660828   8.6085069  31.0823131  41.9322157   4.6384478  40.6336451
  41.5746450   3.7783945  40.4129982  42.0084143   5.0890994  39.7926092
  41.1188221  43.5152674  19.4545531  40.2562714  43.7866783  19.1405916
  41.3877678  42.8246021  18.8488448  59.3492413  45.6681108  15.2893078
  58.5621977  45.4186296  15.7736170  59.1965437  46.5787029  15.0368595
  50.4387773  72.9548163  29.4274950  51.0735000  72.2386239  29.4480848
  49.8905719  72.7671776  28.6655903  29.5994438  76.0309243  59.0919304
  29.4697250  75.5333794  58.2845545  29.6397842  75.3659142  59.7792196
  50.9114313  10.9260571   2.6590702  51.1484480  10.2690709   3.3136111
  49.9681759  11.0452235   2.7699831  74.8772770  63.2690568  63.2817929
  75.8236080  63.2568259  63.4250973  74.5980984  64.1279764  63.5988842
  79.8431498  26.9292207  52.8853972  79.3150622  27.7036376  52.6914008
  79.9716955  26.5079458  52.0355530   9.3211115  16.0218385  60.0973822
   8.6674751  15.5998328  60.6549700  10.1610769  15.7775787  60.4860063
  21.0479701  69.1101710  23.2293296  21.6289867  69.7188876  23.6855316
  21.3135207  68.2454650  23.5423779  38.8484859  17.0484579  22.7396369
  38.2558012  16.4980829  23.2515407  38.3129144  17.7968204  22.4762964
  40.2287626  20.7591558  23.8588476  40.0181246  21.3039255  24.6171927
  40.6937981  21.3469338  23.2634568  42.0682144   6.5789479  17.3209345
  41.3238239   7.1487975  17.1275699  42.0323515   5.9008616  16.6462898
  70.2938795  18.2234859  18.6181378  71.0789919  18.7701845  18.5873210
  70.5198717  17.4504268  18.1008959  58.2820892  10.6741560  55.3304911
  59.0276289  11.2602746  55.4603720  57.5527000  11.2573314  55.1204205
  35.3192210  13.4556293  13.2490993  35.7402802  12.6694846  12.9013669
  34.4933486  13.5172236  12.7691293  74.4838810  35.1516318  33.1216002
  74.5729685  34.3352151  32.6299095  74.6014833  34.8945212  34.0360928
  62.3252201  42.6054239  16.7736173  61.3886309  42.5027180  16.9424033
  62.6650238  43.0318308  17.5603449  10.3163643  39.1709375  36.3101387
  10.0942917  38.8721156  37.1919680  10.7516499  38.4205842  35.9055018
  37.2019196  37.6941276  28.2101178  37.9150629  38.3323026  28.2299328
  37.2876382  37.2135305  29.0334725  51.6262895   1.1527176  56.3840564
  51.1268121   1.9690843  56.4013191  51.8996698   1.0199542  57.2917290
  24.7079134   9.8868400  64.4549179  25.0892568   9.0092254  64.4303799
  23.8449478   9.7843134  64.0536594  79.8887348  20.9372473   6.9151837
  79.2810106  20.2388287   7.1583128  80.5307198  20.9539747   7.6249778
  44.6258783  41.7705297  16.6297662  44.3783998  42.6598454  16.3765776
  44.8016024  41.8290043  17.5688803  31.0893846  18.8448250   3.5481611
  30.8035851  18.0926847   3.0296677  31.9115925  18.5615182   3.9480880
  21.5869188  17.5387204  34.1289949  21.7873001  18.4745383  34.1469359
  21.8114567  17.2626925  33.2403874  63.1170326  52.6331408  55.6734045
  63.4267884  52.6894755  56.5773459  62.2201019  52.3071582  55.7474502
  37.2303867   1.9804838  50.8237839  37.5836372   1.1147465  51.0285854
  36.3146567   1.9367616  51.0990238  29.1827416   0.2723778  42.8502464
  29.3363047   0.5136257  43.7637281  30.0338554   0.3839983  42.4267149
  52.7604675  33.4103298   2.5271675  53.3585358  33.1762600   1.8174081
  53.2430696  33.1993294   3.3264211  81.8427913  61.6229896  61.9544411
  81.4011615  62.4696330  61.8881941  81.1502474  61.0103206  62.2019339
  71.4323950   8.2271141  34.9063039  71.5296507   7.6524132  35.6655765
  71.7007446   9.0896749  35.2228665  14.8644788  22.5248918   8.4410445
  14.2384011  21.8527672   8.1717650  14.8804767  23.1436214   7.7108733
  74.8966408  34.9967241  24.0866828  75.1000834  34.6821547  24.9675298
  74.1801119  34.4349766  23.7912893  46.2237549  26.8182230  15.6801057
  46.9550705  26.9687295  15.0811434  46.3233328  27.4911284  16.3535404
  50.0370849  61.7795948  33.2847452  49.2916549  62.3037581  32.9918027
  49.7329963  61.3593487  34.0892053  21.7326565  17.1402216  26.0508609
  21.2913533  17.5615537  25.3133225  22.5539322  16.8133652  25.6835723
  47.5259304   6.8220747   9.9472171  48.2262039   6.2319577   9.6686268
  46.9683790   6.2837458  10.5089724  26.6949571  56.3346140  35.8645105
  26.0295833  55.6781809  35.6581068  27.4712861  55.8244149  36.0952497
  66.0730982  17.7083790   7.2242093  65.4551554  17.0644712   7.5702721
  66.2634373  18.2810712   7.9671943  34.1813111   4.2481017  12.9551792
  34.1617060   4.9371415  13.6193120  33.9597201   4.6959767  12.1387625
  32.1967363  40.2376890  23.8922310  32.2007608  41.1928272  23.8295388
  31.3003802  40.0181150  24.1463280  43.2841075  69.9816928  63.9746761
  42.9600108  70.8078460  63.6159754  42.4937118  69.5001094  64.2187834
   0.2669640  24.8993945  58.3152771   0.1743432  25.2034044  59.2181778
   0.8795948  25.5171728  57.9161930   8.1980170  74.1092331  32.2251630
   8.6745728  73.9297889  31.4146543   7.4123133  73.5656817  32.1663928
   8.7143577  12.3253921  54.2730089   8.2950533  13.0908254  53.8799079
   8.8148988  11.7085937  53.5479684  59.5721877  56.8337170   4.2975873
  60.2684081  57.2852699   4.7746801  58.7689365  57.2783248   4.5684144
  74.0477705  32.6617932   3.0581120  73.5111094  33.3947110   2.7563572
  74.9494362  32.9608464   2.9406407  47.7935648   2.3669752   9.8315597
  47.3636389   2.5162393  10.6736505  48.7272549   2.3403342  10.0407195
  59.2692531  48.6702911  26.9765401  60.1825965  48.3994214  27.0696092
  59.3178428  49.5633547  26.6355014  78.1411558  40.7456073  64.1309215
  79.0644222  40.6797371  63.8870521  78.0518824  41.6262836  64.4951618
  13.6576201  58.5436614  56.3732179  14.3970038  58.0318112  56.0452612
  12.8908755  58.1518955  55.9550674  42.6772213  28.6033511  12.4810398
  43.4543848  28.5979819  13.0398011  42.8021097  29.3569899  11.9042730
  36.8676961  68.4576867  45.2537298  36.0687030  68.2110934  44.7878599
  36.9510663  69.3994759  45.1043463  13.0842841  65.6494943  10.2853274
  13.6719573  65.4427282   9.5586056  12.8452409  66.5659467  10.1467466
  68.3631897   2.4150148  34.3610168  68.9726400   2.2653960  35.0837970
  67.5082541   2.1679878  34.7135735  27.5290608  28.3717585  65.3220987
  28.3782196  27.9503727  65.1894522  27.6807284  29.2908192  65.1017523
  37.2088302  10.2593854  22.1362670  37.1585954  10.4134181  21.1928781
  36.9245303   9.3520263  22.2462781  64.9863005  18.6485302  30.5310535
  64.4669771  18.6797047  29.7275877  64.4390917  18.1669080  31.1514020
  48.0717039  12.7880204  37.3684955  48.9712095  12.4872708  37.4976087
  48.0032587  13.5766435  37.9066586  80.9658337  31.0627913  48.3506012
  80.0331116  30.9864926  48.1494951  81.2501621  31.8436670  47.8756046
  39.7623038  14.6865988  10.3999150  38.9201617  14.5480013  10.8332920
  40.4082775  14.3397021  11.0152292  72.4964142  19.4446957  17.4586987
  73.3114481  19.0933526  17.1002126  72.4170065  20.3139186  17.0657873
  27.9470469  60.1387138  59.4224550  28.5322787  60.2408953  58.6719300
  27.4856879  59.3166704  59.2562498  49.9054969  70.0205229  21.3109088
  49.3926967  70.8269052  21.3658404  50.8076347  70.3179447  21.1929321
  15.2602590  62.5641994  13.4669542  15.8451188  61.8250684  13.3000469
  14.4654620  62.1654598  13.8212597   5.7448185  65.8561842  24.9961758
   6.5470398  66.2972883  25.2756381   5.5802573  65.2041570  25.6773615
  34.0364885  13.1607568  42.4829912  33.4327078  13.2998919  41.7533875
  33.7489057  12.3377836  42.8782654   2.3677947  60.2763815  65.1025757
   2.9035641  59.7073169  65.6551613   1.4759661  60.1564951  65.4289128
  48.1463254  67.9393302  44.7458696  48.3521713  68.7296973  45.2450466
  48.6695922  67.2522787  45.1586437   2.2908135  12.1568871  35.5217433
   2.8064366  12.7158844  34.9404693   2.9014130  11.9032431  36.2138820
  36.6447986  66.8331472  18.5573399  36.1126293  66.4636091  17.8527343
  36.5391029  67.7800904  18.4659076  66.4986038   0.1892778  43.9465570
  65.9596586   0.8548743  44.3740559  67.0817566  -0.1263506  44.6368790
  76.7750399  73.9763374  29.7760129  75.9534591  74.1261275  30.2437687
  77.4346893  73.9083470  30.4662848  42.1448135  64.8420712   5.5359380
  41.6161167  64.8742935   4.7386424  43.0448269  64.9580023   5.2313582
  70.3724766  33.2347488   6.0703903  70.6317616  32.3139501   6.0367203
  69.4174147  33.2170415   6.0089439  43.4145762  49.9278135  66.5389202
  42.7483489  50.3907104  67.0469567  43.9297701  49.4559212  67.1932311
   0.1201458  13.7199044   8.0992675   0.5907937  14.5474505   7.9998249
   0.7211133  13.0596125   7.7541780  33.7218345  62.4846772  15.6149411
  33.5189021  63.0961923  16.3228261  32.9196227  61.9749657  15.5014253
  64.0404463  10.1504338  16.6776121  63.6208487  10.4951429  15.8893573
  64.2983913  10.9287393  17.1715105  51.6390705  24.1800714   6.8821126
  50.7196140  24.4412827   6.8311191  51.7065668  23.7012315   7.7081805
  11.6358639  64.2143102  60.1272096  10.9620501  64.2016335  60.8069457
  11.1598612  64.4168968  59.3218471  14.1570874  10.3641748  51.8285465
  14.2400475  10.0081205  52.7131796  14.7354527  11.1268544  51.8221140
  22.1106720  19.9335349  16.7385840  22.9761386  20.1761413  16.4094281
  21.9559193  20.5320787  17.4693573  26.1970711  34.7517991  50.5176210
  25.3220129  34.8588181  50.1447248  26.0404325  34.4979858  51.4271688
  48.0892003  59.0632824  12.1528876  47.5695718  59.3709485  12.8955567
  47.7185119  59.5179097  11.3964891   0.5574341   7.6873296  31.6127396
   0.9542580   8.5569793  31.6624832  -0.3114109   7.8413790  31.2417912
  54.9938679   4.5178828  40.9162903  55.8788919   4.5668197  41.2776423
  55.0156403   5.0920820  40.1507473  24.9295915  72.8141994  29.1822433
  25.4421581  73.3711342  29.7681904  24.9513210  71.9500456  29.5933366
  18.5003102  13.7914515  29.0731645  19.1052103  14.0996897  28.3983922
  18.1165934  14.5906806  29.4340324  79.0738058   3.4219316  28.1648803
  78.5073090   2.8436992  27.6540351  78.4843826   4.0946686  28.5058188
  63.6261463  13.4109628  10.5393243  63.5881805  14.2992842  10.1848173
  64.1843987  13.4856081  11.3132834  13.1366790  62.9486267  15.6160283
  13.2982028  63.0068390  16.5577042  13.4683479  63.7748985  15.2645993
  38.1842817  71.7456708  36.3105822  37.3832095  71.7705933  35.7872415
  38.2611812  70.8326237  36.5874624   5.5099316   6.7563337  43.5920715
   5.3224869   5.9296590  43.1474304   4.7212906   6.9374412  44.1034222
  48.5542418  67.8911586  57.1511050  48.3712699  68.7706585  57.4816080
  47.7531363  67.6357002  56.6937240  55.9952593  27.5649786  12.3767292
  55.9378481  26.6095710  12.3883712  56.9323397  27.7494121  12.4407029
  76.3133764  27.8944016  10.1248109  76.7560101  27.8083825  10.9691477
  77.0146179  27.8175259   9.4778317   1.6368123  34.2084122  13.8772881
   2.4610253  33.9306450  14.2769742   0.9748574  33.6437607  14.2763150
  40.9254551  17.8517401  24.0523243  40.3156090  17.4925232  23.4079027
  40.6351805  18.7549841  24.1792989  50.6838894  20.3595757  62.6911736
  50.4150105  20.4271579  61.7750072  50.6135416  19.4265962  62.8932381
  53.0220842  28.0030203   9.4769710  52.6999807  28.3874130  10.2922761
  52.5864458  28.5040331   8.7874520  67.7656227  24.7422273  48.8458760
  67.7968651  25.6730683  48.6249884  67.6800305  24.2985625  48.0020352
  76.9722605   0.8259580  28.9050436  77.2353363   0.4930881  29.7630763
  77.2621727   0.1538592  28.2882237  25.9701122  63.9216677  29.9854994
  25.1036371  64.1679732  30.3092122  26.1465801  63.0743508  30.3943324
  24.9402440  63.3023302  41.9537878  24.4107259  62.6974730  41.4341784
  25.2075876  62.7911417  42.7176237   3.7416192  30.3086138  49.7725677
   2.8414746  30.6244421  49.8514318   3.7074967  29.4061971  50.0899172
  27.9675293   1.8673453   5.8361065  28.3869290   1.0733026   6.1675161
  28.4679461   2.5835592   6.2270713  65.3078985   5.4410726   4.1804254
  66.2132740   5.3592736   3.8806859  65.2955723   6.2535644   4.6863285
   1.5993138  15.9550321  45.9720659   1.0702153  15.4389966  45.3637934
   1.2947007  16.8543553  45.8509779  21.3741315  76.0342300  52.3721886
  20.7133830  76.6134663  52.7518320  22.0741618  76.6225007  52.0891237
  16.7325516  24.9517536  17.6157653  17.2513695  24.5524192  18.3140385
  17.1555539  24.6620345  16.8074572   2.2594941  47.5869791   5.6021035
   2.7140439  46.8996445   5.1150805   1.8283451  47.1256606   6.3214976
  31.4801431  35.4059339  26.1285806  32.0449853  34.8179340  26.6300225
  30.9632897  34.8240924  25.5713058  61.7478037   5.6822681  18.1399190
  61.9376040   6.6030318  17.9599154  62.4829912   5.2062374  17.7537513
  55.1967955  41.5315294  13.7993884  56.1033297  41.5650177  13.4939218
  55.2602482  41.2279129  14.7049403  68.9183283  30.9853125   3.7659118
  68.0141163  30.7656550   3.5414398  69.0655375  30.5598307   4.6106160
  75.3216553  29.2544937  12.7071607  75.7867527  28.4303355  12.5633717
  75.2688456  29.3367434  13.6593568  48.1663704   6.1595190  34.9637294
  47.7255917   6.8219626  34.4316435  48.1246328   6.5026283  35.8563471
  61.1772598  70.9790615  26.4288592  61.7720760  70.3112529  26.7701221
  60.5926288  70.5010645  25.8406830  17.6355004  17.5991964  58.2107115
  17.2772861  18.3921313  57.8117514  17.3446155  16.8901312  57.6372623
  70.7170439   3.7932268  45.2428579  70.1796198   3.0022523  45.2008152
  70.3670311   4.2812675  45.9882021  36.3614440  12.5164878  40.9220266
  35.8357310  13.3047879  41.0578299  36.4241457  12.1179354  41.7900419
  13.4807527  22.1768713  31.1966515  14.0126157  22.8506660  30.7731462
  14.0999973  21.4760613  31.4006901   7.2510930  12.1674776   1.5928008
   6.3851090  11.9223428   1.9186932   7.0758553  12.8186560   0.9134706
  54.8176384  12.2891581  23.7137747  54.8048735  12.8549302  22.9417825
  55.6872654  11.8893194  23.7033391  77.1737814   6.4224023  50.4765224
  76.3847113   6.8975729  50.7369328  76.8680811   5.7870936  49.8290920
  59.0844727  29.0366054  52.2457314  59.7866583  29.2143345  52.8714943
  58.3464003  28.7566018  52.7870941  75.9893417  20.7691598   6.9713748
  75.6891680  20.9947181   7.8518581  76.6948795  20.1380229   7.1132058
  42.4331903   7.6806140  31.2743878  43.1795692   7.1110272  31.4607358
  42.8266621   8.5103798  31.0043859  22.8247989  77.2687133  21.4914322
  23.2538951  76.6302491  22.0610547  23.0763257  77.0067145  20.6058121
  51.1156130  22.2190523   1.1093530  51.3464785  21.3110185   0.9133735
  51.0378647  22.2459388   2.0630112  49.3688501  54.3091885  46.4544296
  49.2782844  54.3174545  47.4073029  48.5576976  53.9097850  46.1401987
  49.5607471  19.9655986  20.9947515  50.3282976  19.7530365  21.5257049
  49.9086428  20.4788136  20.2654982  27.4198294  14.4603646  29.8026490
  28.0395961  13.7402129  29.6864557  27.9604363  15.1986337  30.0836015
  70.8257389  28.3744574   4.4668078  71.4609575  28.2500315   3.7616509
  71.2425184  27.9859066   5.2359331   0.2793427  28.1220126  50.9326315
   0.6857605  28.7989974  50.3915691  -0.4018192  28.5833502  51.4219332
  65.0726461  22.4975681  47.4396133  64.6107006  23.1588531  46.9243097
  64.3800163  22.0333815  47.9097462   4.2379958  45.2042714   9.5326869
   4.4135339  45.1892224   8.5918395   3.2976396  45.0401184   9.6035401
  70.6839085  23.4362769  42.8778839  69.9340868  23.0003405  43.2827997
  70.4755259  23.4529805  41.9437933  75.9102631   4.7044805  18.9571512
  75.4959488   4.3998110  19.7644627  76.7688799   5.0240600  19.2344213
  79.2572110  76.9080028  46.6886282  78.6382096  77.6309416  46.5865183
  79.7824304  76.9275906  45.8886337  60.3083038  59.0408850  13.3055890
  60.6247568  59.9436140  13.2713294  60.6219101  58.6461067  12.4919355
  62.7836669  65.6505778  64.2897706  62.0345653  65.4909423  63.7156637
  62.4653686  66.2905029  64.9264895   1.0013409  31.6226530  11.0928285
   1.7084618  31.0149479  11.3093925   1.4341660  32.4717164  11.0034943
  78.0436659  19.8465252  12.7025795  77.9925346  19.3210387  13.5010052
  77.2426701  19.6333396  12.2238374  47.7310514  41.6729116  52.0687199
  48.4030724  42.0284224  52.6502943  48.2060766  41.4303160  51.2739086
  39.0879560  26.9158888  21.3209629  38.5836339  26.8934202  22.1342206
  39.7848082  26.2731743  21.4534402  15.5245800  18.7495601  21.2109733
  14.6356507  19.1005921  21.1579514  15.5360241  18.2486224  22.0265484
  63.3787346  53.6447906  30.0405240  63.0995035  52.9952431  29.3952703
  63.1298065  54.4857311  29.6570086  71.8078184  56.2689829  27.5371432
  72.0358038  56.3541937  28.4628820  71.0227108  55.7214212  27.5332427
  77.0165586  20.5898452  24.0688086  76.2131310  20.1584291  24.3596935
  76.8024921  21.5227914  24.0730715  62.9064322  32.1882081  11.1882222
  63.5874796  31.5797186  10.9016085  62.5471830  32.5454283  10.3760850
  11.4527496  66.8416051  30.7510018  12.3591694  66.8323521  30.4435110
  11.0812649  66.0214059  30.4261947  38.3394588   0.6569555  23.3331283
  38.4560216   1.5374997  23.6899026  38.8520492   0.6562761  22.5247462
  75.5001307  47.5475454  21.5611196  75.7181787  48.4580994  21.7600608
  76.3462353  47.1260548  21.4105082  36.4124835  74.8657171  33.6580586
  36.5572847  73.9209638  33.7100792  35.4949773  74.9535404  33.3997941
  53.5516758   6.4315319  46.7541981  53.2971879   6.2541956  47.6597452
  54.3125744   5.8702862  46.6049528  20.7294871  71.0519404  66.0100980
  19.8668410  71.4366002  66.1653532  20.5450989  70.2124805  65.5887439
  70.3024197  46.3956642   6.6816539  69.3494654  46.4802933   6.7124534
  70.4638481  45.7572746   5.9869361  58.4455741  61.5021006  38.0249143
  57.5126231  61.5523998  37.8168201  58.4977878  61.7410473  38.9503384
  81.0985565  43.8414097  15.4412460  80.9341049  43.3228159  14.6536851
  80.4649639  43.5144806  16.0799217  70.4091454  46.8077898  17.2621369
  70.4412937  47.7643967  17.2725272  70.4190969  46.5778875  16.3330102
  24.9444790  55.2912283  64.5313644  24.3184300  55.9443045  64.2186594
  24.8094960  55.2643490  65.4786158  70.8485270  50.2081156   3.3450183
  70.0071621  49.8566961   3.0537450  71.1098576  49.6364737   4.0669352
  74.4477034  29.9139285  40.7242060  73.5263252  30.1677203  40.7778502
  74.7668839  29.9791002  41.6242647  64.5620966  44.9201250  65.7150412
  63.7276459  44.4852400  65.5395603  64.5963287  45.6371260  65.0818205
  81.2941170  40.9615612  37.6801062  81.5827179  40.1763725  38.1453180
  81.8921566  41.6482115  37.9752254  66.7319536   4.6009505  14.9175417
  67.2459126   5.2949709  15.3303540  65.8215332   4.8569959  15.0652039
   9.3733712  38.5578942  28.4045529   8.4180756  38.4976578  28.4032631
   9.5561333  39.4703555  28.1803989  58.6808300  18.2494116  22.6109004
  58.9769840  18.1153297  23.5112047  59.2958879  17.7446711  22.0787621
  68.6583567  31.7193127  25.0969148  69.3839025  31.2823439  24.6509576
  68.1087780  32.0544529  24.3884826   3.0771657  45.1513624  18.4857666
   2.9251023  46.0921049  18.3956814   2.2148533  44.7560310  18.3578336
  10.1935692  36.0366058  28.0071187   9.6827145  36.8446374  27.9587412
  10.9550591  36.2010121  27.4509406  47.0345068  23.8472104  51.0116482
  47.6312733  24.3590808  51.5576267  47.5005388  23.7405062  50.1823950
  57.2346354  34.8319626  20.0844288  57.8200674  35.1318240  20.7798314
  56.9056463  35.6370163  19.6845651  64.0762568  46.0383415  38.5100007
  63.7233162  46.4912987  39.2758298  63.3531857  45.4931688  38.1998515
   8.5034199   7.0308846  16.2791026   9.0102692   6.7743403  17.0495021
   7.8263112   6.3585883  16.2031174  62.2632755  69.3905656  19.8553801
  61.6762126  70.1224576  20.0448918  61.6817249  68.6826269  19.5781565
  74.7620665  16.2151917  42.6107597  75.3126704  16.9908341  42.5037622
  75.1185452  15.7728394  43.3811378  79.9145603  17.4173021  38.4714174
  80.6955433  16.8829656  38.3272743  79.5319986  17.5222015  37.6002836
   7.4565388  55.2753265  58.0099704   6.9360806  55.8703823  57.4702831
   8.2514264  55.1220412  57.4991967  33.2999099  75.0569333  47.1045160
  32.5294126  74.8869192  46.5626144  33.6819042  74.1923759  47.2556925
  70.7897139  39.2543578  18.8405526  70.4050827  39.8997355  19.4336605
  71.7090797  39.5114374  18.7704837  73.9892775  45.8700652  43.8269122
  74.8315436  45.8917178  43.3726557  73.3561569  45.6403680  43.1467469
  74.9983501  72.5482130  23.2475209  74.5360231  72.8084183  22.4507928
  75.8490229  72.9823589  23.1834340  47.6548147   4.8169544  32.1628642
  47.7494669   5.7027793  31.8127418  47.5424719   4.9425727  33.1051111
  29.2416442  68.6569045  31.7094278  29.1185344  67.7080546  31.7370057
  30.0482953  68.8081823  32.2020292  63.4724808  15.6993532  20.6665254
  63.2527065  16.6250646  20.5616999  62.7124786  15.2320004  20.3198075
  74.1628647  37.1852350  10.9088743  73.9355898  36.8653297  11.7819381
  74.4935799  38.0711913  11.0569990  18.4893914  34.3635464  24.4348478
  17.9694291  35.1587176  24.3183756  18.4086533  33.9003086  23.6011076
  10.0813694  54.9723387  20.2082157  10.4449196  55.6772518  19.6723413
   9.2702599  55.3356361  20.5636668  68.6082077  20.4473639  34.0206075
  68.3758879  19.7623587  33.3936882  68.9633322  21.1545110  33.4820366
  54.2938232   3.9335200  -0.1184325  53.5093594   3.7640813   0.4032371
  54.9634933   3.3673084   0.2652059  66.8430090  35.5726171  51.0047102
  67.3752546  35.9629083  50.3114462  67.1258402  36.0180855  51.8033361
  60.8207185  36.0770029   7.0220582  60.0475175  36.6410971   7.0080630
  61.1944730  36.2045182   7.8939979  73.2652569  38.9107656   3.3955222
  73.4348536  39.8309350   3.5973948  73.3337545  38.8581276   2.4422285
  68.4903336  59.2831373  12.2695673  69.2351437  59.8448849  12.4838698
  68.8856125  58.4561443  11.9937587  69.7814512  67.7956438  35.1862502
  68.9169216  67.5211811  35.4920125  70.1106739  67.0443392  34.6929121
  79.9376965  39.4438648  10.8418274  79.7386742  38.8546348  11.5694451
  80.7712173  39.8483896  11.0823190  22.7698346  48.5669041  50.4845858
  23.2266922  49.2210627  49.9558306  23.1500741  47.7314615  50.2131319
  41.2636627  69.0714632  47.5093889  40.3151859  68.9799629  47.6002407
  41.3855136  69.9452625  47.1380949  40.8505357  68.7678371  60.6762981
  41.0298789  69.3281225  59.9212170  41.6429437  68.2403592  60.7767344
  59.6310390  69.5098923  24.3454671  59.6929897  68.5581539  24.2642975
  58.7635291  69.6623538  24.7201824  13.6198349  27.1520185  39.4309354
  13.8672181  26.2905979  39.7670698  12.9263707  27.4489331  40.0201607
  40.6468929  11.1331514  60.7781960  40.1436771  11.7284682  60.2226730
  40.9622587  11.6835406  61.4950307  71.5938698   1.4095886  20.7082748
  71.1550080   0.5740174  20.5487204  71.4610039   1.9077500  19.9017930
  26.9829763  72.1543113   4.3379864  27.4931014  72.5279103   5.0566149
  27.1396650  71.2119113   4.3976653  14.8096962  29.6719098  52.8370476
  14.7464676  29.2649984  53.7011433  14.3094368  29.0925670  52.2623014
  73.7868643  25.1230478   1.8600626  72.9668617  24.6955371   1.6129485
  73.5142612  25.9333754   2.2905159  77.3557520  39.6861672  17.5512159
  76.9510078  40.5345297  17.7320397  76.6744375  39.1868448  17.1009767
  73.2628298  27.2225070  47.6500225  73.7804890  27.3512197  46.8552303
  72.8802586  26.3510156  47.5481701  10.9394474  23.3781528  48.1143808
  10.8786984  23.8958764  48.9171934  11.8788929  23.3094120  47.9442310
  76.3468790  27.9154491  16.1100578  75.3973961  28.0062461  16.0295784
  76.5403748  28.2043529  17.0018673  49.2018855  74.5737274  15.3487074
  48.3198131  74.9437576  15.3842306  49.0627302  73.6298345  15.2716744
  46.1629391  15.2548373   1.4933896  45.7122612  14.4139147   1.4161289
  46.1454964  15.6181633   0.6079959  70.3029823  45.3537512  36.3745451
  69.3956280  45.6222343  36.2301254  70.2368069  44.5683527  36.9176841
  62.6556921  22.8189898  39.2403150  61.7537022  22.5112295  39.1512394
  62.8007507  22.8652525  40.1853275   6.1121293  38.1592989  24.1840315
   5.7728978  37.9107976  23.3241487   6.9587441  38.5658741  23.9991522
  32.0371593  67.8000138  53.9141750  32.5148929  68.5957239  53.6799812
  32.3888505  67.1286635  53.3295107  22.6350327  33.8141632  43.0140162
  22.6849099  33.4041858  43.8775301  23.5183449  33.7263918  42.6558304
   0.6638546  45.7467556   2.0582551   1.0645695  46.5702057   2.3367928
  -0.2742843  45.9346390   2.0293833  69.2969084  16.6857946  30.4414558
  69.0313101  15.7669711  30.4795480  70.2441549  16.6671503  30.5778885
  77.2118044  16.4857388  10.5197692  77.3497295  15.6559277  10.0630152
  77.0121002  16.2327254  11.4210641   6.9275113  42.4307728  45.6347084
   7.4306603  42.9708338  46.2441444   6.3003178  43.0364084  45.2396441
  39.5307124  16.7506364  62.6318745  38.9938749  16.2121061  63.2132740
  38.9617122  17.4808982  62.3885809  80.2679920  16.8897581   2.7177671
  79.3823242  17.0899141   2.4148481  80.5623245  17.6939464   3.1454131
  79.7095442  36.9944429  32.8721642  80.0401306  36.1289835  33.1128478
  80.4936504  37.5385904  32.7993107  55.9877837   9.5311263  61.6761895
  56.2542499   9.0480712  62.4584241  56.3651908  10.4030040  61.7929591
  14.1707726  34.3676209   8.1702971  13.4195061  33.7748027   8.1903368
  14.0165539  34.9742699   8.8944697   9.8775984  68.2257194  60.5379851
  10.7866408  68.1879539  60.2405758   9.3917109  67.7178521  59.8882045
  64.0517151  49.7449776  23.7590711  64.1621386  49.4683453  22.8493897
  64.3435609  48.9934406  24.2750661  33.3528817  67.6703487  20.6423306
  32.7176441  67.1041087  21.0805964  33.1235088  67.6145707  19.7146940
  44.9580825  72.3353408  34.2703462  45.1830638  71.4608983  34.5880938
  45.3901780  72.3991964  33.4186125  62.8937769   8.1081986  22.9054356
  63.4072113   8.3025777  22.1213198  62.9227304   7.1543717  22.9803228
  72.2578192  72.3721027  15.9915066  72.6556253  71.5137815  16.1373651
  72.3259830  72.5102568  15.0467849  75.0639343  42.5226402  35.7543421
  75.0611734  41.6709661  35.3174496  74.7514057  42.3384476  36.6401362
  69.3775905  37.5467685  62.9418163  69.0969432  38.4497932  63.0901759
  69.0301574  37.3269180  62.0774158  21.5058918  48.0204582  30.7560325
  22.0944996  48.6443138  31.1809754  20.8273335  47.8484821  31.4088893
  72.9637432  14.1102493   9.6977061  72.6170635  14.5042562  10.4982078
  73.2739639  14.8531890   9.1799831  16.5922184  44.9732780   9.0782291
  16.7145653  45.8712626   8.7701827  17.4086781  44.5285988   8.8504529
   6.0307045  37.8742862  31.7172837   6.4663525  37.0431519  31.9061303
   6.4823170  38.5123563  32.2696877  14.8056908  35.2649045   3.6220697
  15.6260319  35.7215834   3.8083768  15.0624581  34.5275569   3.0683365
   7.1543332  10.5622423  44.9998903   7.4736042  11.4598155  45.0929546
   6.3383503  10.5452120  45.4999971  20.1857621   0.9505947  23.1657600
  19.5969970   0.3605707  23.6363554  19.6071965   1.4747008  22.6118588
  22.9864140  51.0040665  29.6962047  22.6023217  51.8416452  29.9553585
  23.2380505  50.5902815  30.5218530  66.0716438  61.1069250  12.1623218
  66.6767073  60.4762983  12.5527537  66.4621639  61.9606876  12.3489177
  80.1204205  32.7825189  30.7433939  80.0637436  32.0165944  31.3146949
  81.0432243  33.0351377  30.7723165   5.6769009  32.3400187  50.2171135
   4.9776574  31.7073846  50.0525904   5.7967015  32.3230600  51.1666393
  81.1683273  28.2426095  31.5876842  81.5038681  27.4439955  31.9949460
  81.0414600  28.0076241  30.6684923  58.5546678  23.4648471   0.2895371
  57.9277319  23.4176879   1.0113160  58.2745451  22.7786975  -0.3162368
  72.8159237  41.5761042  16.0667169  72.5065327  42.4797058  16.0033989
  72.2164822  41.0781908  15.5108571  57.4781574   0.0301483  32.3261316
  56.5410388   0.1471666  32.1701272  57.7430404   0.8201888  32.7971991
  77.2180796  66.8937540  33.0595946  76.4102602  67.2525263  33.4269381
  76.9356585  66.4196157  32.2775030  68.9317894  69.2544842  26.8864179
  69.4433117  69.2808628  27.6950479  68.2208443  68.6412048  27.0726371
  25.3782197  45.4877996  65.6839085  26.2841435  45.4658842  65.9922028
  24.8559971  45.2867413  66.4605045  81.0612679  64.8371363  27.8763819
  80.5200958  64.6123505  27.1195245  80.8299446  65.7444239  28.0752349
  44.4809240  42.6791673   2.2361676  45.1828140  42.3079591   2.7707545
  44.1175360  43.3832078   2.7733056  14.5537682  19.9429238  12.4095404
  14.2943306  20.2133894  13.2903194  14.3490906  19.0084684  12.3759055
  71.1191273  74.7547960  10.2108717  70.6924725  73.9720345  10.5594182
  70.5836391  75.4814196  10.5294693  67.4782658  54.0324211  16.6160583
  68.3610821  54.3936253  16.5360510  66.9135666  54.7992611  16.7125285
  20.4719944  38.4708953  26.8096519  20.7959099  38.0241585  27.5917888
  20.9087201  38.0274892  26.0824013  73.6166716  58.3427572  41.0960388
  73.0947018  58.1695843  40.3125954  73.9440966  57.4830723  41.3605499
  18.3578320  51.3205767  30.7667112  17.7571030  50.6080389  30.9849882
  19.2276974  50.9242487  30.8166456  15.3252227   2.7038391  49.3725204
  15.9165294   2.1114691  49.8369360  15.5751760   3.5770996  49.6744823
  78.7395811  25.7560301  15.7439733  78.3825207  25.2213407  15.0348556
  78.5287952  26.6558957  15.4948950   1.0744400  12.7558768  55.0804472
   1.2959977  13.2167244  54.2712736   1.9168683  12.4618447  55.4269886
  35.4024811  42.3918676  33.1212664  34.6517296  42.7968311  33.5555434
  35.5971356  42.9741335  32.3868871  56.4536245  51.2609491   0.9694163
  57.2044522  51.6566989   1.4119784  56.6453988  50.3231701   0.9646050
  77.1298885  51.4720631  40.3831434  76.3409519  51.0407591  40.7114506
  77.5057602  50.8454323  39.7648478  42.4383605  18.3470634  62.1726845
  42.5879587  17.7814296  62.9302524  41.6670097  18.8629106  62.4075319
   1.6760464  52.2177219  38.4758902   2.0092412  51.8696308  39.3029594
   0.7997151  51.8415785  38.3934259   3.2743092  40.7290268  22.1212578
   3.3282776  40.9721851  21.1970329   3.8920708  40.0038338  22.2145891
  37.3281455  61.6913462  38.4693646  38.1667471  61.2457514  38.5894632
  37.0298934  61.8841219  39.3582487  66.8673754  62.0580816   1.4410017
  65.9583664  61.7985106   1.5911965  67.3246861  61.8035555   2.2424465
  81.6181374  57.8899145  51.0424089  81.3091469  57.1857262  51.6123867
  81.3640213  57.6141500  50.1617241  55.0541401  49.1303253  26.1579800
  55.5505800  49.6283197  26.8074226  54.2065430  48.9725876  26.5738297
  77.1693897  57.5572491   7.7451658  76.4864349  57.7159929   8.3967823
  77.1977949  58.3616543   7.2271365  39.3710442  51.5707779  -0.2259262
  39.7614594  52.4410915  -0.1462030  38.9401551  51.4235258   0.6160261
  69.4502449  55.1491213  46.2560320  69.1199684  55.4573298  47.0999289
  68.7157583  55.2673674  45.6537199  63.2920074  50.7240582  32.3768139
  62.9247475  51.5318346  32.7357674  64.0139580  50.5064631  32.9664493
  13.1242867  25.1440120  28.2214761  12.2381993  24.8361588  28.4120107
  13.0215569  25.7116532  27.4576283  14.8828145  35.0653553  31.7859697
  15.4404374  34.8407960  32.5308609  14.0455552  34.6428537  31.9775867
  10.1690121  63.5701513  22.8228855  10.0068112  64.5124102  22.8684425
  11.0557003  63.4628344  23.1671429  61.2531436  10.8793595  46.7857011
  60.5446208  10.5910304  46.2103041  62.0534099  10.6263116  46.3255127
  67.3699188  40.1674843  23.8858438  67.0431471  39.3049407  24.1417098
  67.1990347  40.2190590  22.9454350  77.7082253  38.4192753   1.5932943
  78.3441257  38.3428454   0.8819432  77.3090267  37.5512719   1.6519861
  77.1295977  64.8674488  30.9082603  77.8201103  64.2105150  30.9969187
  76.9482279  64.8990250  29.9689293  32.7899993   4.7847751  64.1700556
  33.7426532   4.7916749  64.0771084  32.4772037   5.3619865  63.4734805
  14.1083260  42.4116898  52.1512651  13.3478756  42.2604990  51.5899324
  13.9638634  43.2827950  52.5207710  77.5722551  15.0135219  25.8146739
  76.7299271  14.6368611  25.5600286  77.7285004  15.7065046  25.1731181
  66.2516891   2.2576626  35.7917809  66.4418828   3.1678494  35.5646062
  65.3027355   2.2348364  35.9150481  17.3758561  12.8253945  11.9528949
  17.7683408  12.4727257  12.7515280  17.3450429  12.0808037  11.3521707
  59.4627380  57.1357679  30.9669447  59.3730879  57.3148727  31.9029546
  59.8035669  56.2422562  30.9256268  29.3112584  49.2876577  25.4924464
  29.1043683  48.7850761  24.7045112  30.0360318  48.8110352  25.8971167
  77.9162884  41.5249252  27.9255843  77.9956102  41.5855503  26.9736052
  77.3858595  40.7417631  28.0723357  23.0382653  45.4075909  19.7579753
  23.0699177  44.4509506  19.7659445  23.9456864  45.6760693  19.6140134
  65.2411652  18.7161613  39.4291234  64.8533010  17.9884720  38.9430523
  65.1064348  19.4787931  38.8665628  74.0787935  67.7244711  42.4483728
  73.3512259  67.9248428  43.0372095  73.7222672  67.8639174  41.5710592
  29.9003716  61.3961077  36.6440964  30.3665276  61.0659981  37.4121809
  29.0216847  61.5979576  36.9656515   9.8414059  37.1245050   9.6147579
   9.5833989  36.7879939   8.7566054   9.0445824  37.0710301  10.1424468
   4.1338463  54.4057083  38.0478144   4.3515511  53.8956738  37.2676206
   3.9051266  53.7499523  38.7065291  48.6520481  44.2753887   5.4548550
  49.3507862  43.6230230   5.5039805  48.8939333  44.8300457   4.7131819
  37.6682110   9.9068600  19.2575657  37.2480889   9.0695155  19.0611374
  36.9510861  10.5408561  19.2558837  81.3956261  73.1775951  47.1506023
  80.6294632  73.4901381  47.6317930  81.8664837  72.6304817  47.7792406
  67.0547771  56.2976789  40.6231546  66.7560530  56.1056709  41.5120506
  67.3848343  57.1949530  40.6699753  68.2982826  48.4315968  10.6984818
  68.6836624  47.6863718  11.1593032  67.4232054  48.1333399  10.4504645
  60.6889207   5.3769596  13.4044409  60.7395990   4.6252640  12.8140032
  61.5927274   5.5237873  13.6833763   8.1494160  32.7762413  54.1592073
   8.0842228  31.8496680  54.3903875   8.7632103  33.1397247  54.7974634
  53.7865067  68.0074310   7.6224184  54.4903755  68.4153557   7.1180445
  53.3169842  67.4684381   6.9858092  67.6303434  45.1103544  36.2827086
  66.7021751  45.1232672  36.0491276  67.7194548  44.3586493  36.8685675
  45.3984858  38.9710584  57.9848202  44.8379065  38.2445383  57.7125229
  45.4632403  39.5275428  57.2086992  62.3981333  74.0529299  13.1594980
  61.6031456  74.2057228  13.6702621  62.7032232  74.9289656  12.9234445
  60.2992296  44.6936083  19.7992384  60.6350899  44.1479921  20.5103874
  60.0167418  44.0690756  19.1311121  61.2725163  43.3103132  25.4151773
  61.3516283  44.2372561  25.1898885  60.5399418  43.2749987  26.0302567
  79.3252134  39.1395998  26.3836265  79.0944195  39.7198033  25.6581402
  78.5000086  38.9952159  26.8466830  58.0300188  38.9239860   0.3733600
  58.0417347  39.8526168   0.1415359  58.9241362  38.6246586   0.2084477
  18.7819059   6.3774403  58.3404493  19.6408708   6.3458451  58.7616587
  18.3069379   7.0590599  58.8158798  80.8914661  20.7657504  37.1557617
  81.4608097  20.1218271  36.7345238  80.3957367  21.1548090  36.4352608
  73.6664057  37.0908260  18.0407453  74.1930056  36.7320967  18.7550545
  73.1666803  37.8003788  18.4445333   9.1276223  76.0870907   1.6025321
   8.9217145  76.5623662   0.7975785   9.3005616  76.7725798   2.2478454
  53.3642340  31.6391873  18.8952303  53.7767792  32.1162176  18.1751716
  52.4305105  31.6483569  18.6847389  10.1034279  32.4510336  37.7543163
  10.4271431  33.3495212  37.8188062   9.2219944  32.5394702  37.3917150
  78.1078815  49.5768976  35.2199507  77.8310156  48.6689949  35.3436017
  79.0290737  49.5141268  34.9675703  10.9496804  54.5924425  36.2097907
  10.5147667  53.7420511  36.2723064  10.8566494  54.8420286  35.2903962
   6.3068123  62.1865225  51.2970066   5.6612320  62.2787476  50.5963278
   7.1369191  62.4387074  50.8925676   8.1261654  52.9691029  45.7627010
   8.2389279  53.7073755  46.3614273   8.9247437  52.4518299  45.8672142
  51.9823027  52.2953367  48.3454275  51.7739439  51.3981009  48.6058044
  51.2948370  52.8269434  48.7466908  68.3545923  73.4059191  46.8317413
  69.2296171  73.6909628  46.5684605  67.7644491  74.0464115  46.4345932
  44.3876667  62.3910666  23.4063888  43.8734646  63.1433535  23.1133199
  45.2767582  62.5762177  23.1039667  51.8381023  59.0035152  21.0707879
  51.4435339  58.2272005  20.6734371  52.7331924  59.0173578  20.7318878
  69.9423695  39.2673063  22.6805305  70.8112192  39.0754986  22.3276234
  70.1121902  39.6400332  23.5456705   7.3587628  34.9467850  57.3745537
   7.6581784  35.4807734  58.1103802   6.4087983  34.9010515  57.4827242
  49.0732396  50.6930820  26.9460917  49.4433559  49.9445645  26.4781547
  49.6598495  51.4200393  26.7371702  29.0121245  61.5394783  10.0081229
  29.3156290  61.5016985   9.1011006  29.2555499  62.4160290  10.3058290
  65.9851599  76.8574333  22.5194883  65.9876394  77.3419571  23.3449960
  65.8443165  75.9463310  22.7769494  82.2059155  13.3124638  51.7662144
  81.5890312  13.8596022  52.2523499  81.6971207  12.9746795  51.0291481
  77.8821039  58.0648756  12.4225032  78.3743048  58.2844925  11.6314662
  78.3549738  58.5051060  13.1287777  57.5607109  12.4588013  45.9262037
  57.9702806  13.3167553  45.8148336  56.6489840  12.5932431  45.6675339
  81.5433788  34.2376947  23.5792422  81.3611031  34.1939712  24.5179105
  82.2083950  34.9211121  23.4959698   3.0073472  45.5058718  38.5193062
   2.3615952  46.2108898  38.4725332   3.7224503  45.7981777  37.9541421
  68.5615826  58.5645437  53.9295673  69.0355587  57.7965355  54.2485476
  67.8434610  58.2038736  53.4095192  74.5578957  49.0434408  47.1986628
  73.7916136  48.8501263  46.6585875  75.2287912  48.4349346  46.8890667
   0.4159184  49.2498159  36.4282227   0.0552197  48.6095333  35.8148980
   0.0553437  50.0880194  36.1390328  13.2064362  45.3645277  21.5300059
  12.2894497  45.1875830  21.3201213  13.5020466  45.9526157  20.8350253
  36.9981980   0.9630875   3.2755283  36.7336535   0.5096596   4.0759352
  37.3569751   1.7966738   3.5799024  51.4346170  44.5048237  53.0832720
  51.2152338  45.2214050  52.4877834  51.5893364  43.7549162  52.5088692
  20.2368756  60.0278473  42.9722738  20.3408452  60.8941793  42.5787163
  19.2962189  59.9479628  43.1304455  41.1439037  46.8958950   9.9548763
  41.2223291  46.4222050  10.7829452  41.4291430  47.7862167  10.1603019
  66.4876652  73.1807756  51.2754488  66.9318533  72.3368645  51.1933374
  65.6059694  72.9592085  51.5750456  63.9777946  35.7701087  47.7701473
  63.8436222  36.6714144  47.4770975  63.2878876  35.2709174  47.3330355
  53.9242017  16.4477356  44.0965796  54.0777218  16.8822392  44.9355507
  54.7291195  15.9572132  43.9300680  20.0359364  57.0649481  49.0524244
  20.9140511  56.7595100  48.8246822  19.7594758  56.4891481  49.7653437
  33.7741340  33.9096788  58.9480390  32.9080451  33.9499143  58.5424490
  33.7517131  34.5830444  59.6279700   9.8909970  55.5671883  56.3901186
  10.5291577  54.9931860  55.9664249   9.6042653  56.1603594  55.6957388
   6.6751690  69.0858746  44.1488695   6.2780114  69.8131943  44.6279383
   7.6008435  69.1169786  44.3905115  67.9416037   3.6450395   4.9341503
  68.3177519   4.2000872   5.6172806  68.6403942   3.0289000   4.7143927
  80.0598812  38.9405131  18.4039390  80.0330162  38.6667156  19.3207514
  79.1650772  39.2206192  18.2113087   9.2899914  32.6124310  30.7155752
   9.4824238  32.9509807  29.8411703   8.3421536  32.4788880  30.7174706
  58.8955199  16.8063839   7.3103088  59.1637479  17.2743710   6.5195674
  59.6843516  16.7793759   7.8518337  67.1518517  43.8423872  26.5226054
  67.2858381  44.7874737  26.4512634  66.2525892  43.7510681  26.8375921
  30.4013021   9.9170979  25.0986862  30.5926568   9.0389450  24.7693419
  30.3170449   9.8046978  26.0455227  65.0654745  52.3378754  24.1452265
  64.7829390  51.4535284  23.9121199  65.0755835  52.8129196  23.3142853
  66.2477303  17.8253138  45.4204035  65.8757210  17.0307517  45.0376320
  66.9284153  18.0926728  44.8028088   0.3883095  55.8340168   5.5984646
   0.4106064  56.3994265   4.8264211   0.3694935  56.4403343   6.3389099
  12.9679795  58.8312864  32.4993467  12.1154328  59.0076971  32.1015167
  13.1112690  57.8961229  32.3538733  78.7946081  34.4177318   1.3284652
  78.7383366  34.0949941   0.4290728  79.3796635  35.1734686   1.2755799
  71.4817107   4.3798402  60.2636911  72.2317184   3.8059714  60.1074930
  71.0904468   4.5033649  59.3988891  12.7243634  37.6431441  39.3711448
  13.2435246  37.4959779  38.5805464  13.0996438  38.4329271  39.7605491
  19.8258229  34.1878247  29.7958541  20.5981179  34.4035625  29.2731166
  20.0359555  33.3444262  30.1967978  36.7121148  39.8717332  17.0823920
  37.4951482  40.1026821  16.5826392  36.2688041  40.7067204  17.2324157
  69.4339895  69.8454762  16.4894116  68.5691547  70.1004839  16.1680722
  69.7755241  69.2566872  15.8164239  27.2932263  52.6503229  29.0651369
  26.8789788  53.4823465  28.8362932  27.2530289  52.1334505  28.2604885
  59.6187878  39.0829849  11.2815523  59.0960264  38.3093429  11.4923322
  59.3305159  39.7452450  11.9096792  71.5435076  54.2315388  29.8840761
  72.4990082  54.2755699  29.9201965  71.2498808  54.8416996  30.5606270
  67.7896643  65.5086184  25.9462118  67.3471498  65.4713440  25.0982618
  67.3630095  66.2307024  26.4075017  21.0917623   2.4824627  11.6796553
  21.1121757   3.1031235  10.9512329  20.7307250   2.9833706  12.4110746
  32.0129891  75.8627033  33.5562134  31.9505711  76.3952875  34.3491101
  31.4038678  76.2738848  32.9429221  31.3655777  63.3115673  45.5915976
  31.7300530  63.7888622  46.3369656  30.7418747  63.9218712  45.1982021
  15.0225659  45.5679560   6.5720421  15.6815358  44.8739767   6.5526378
  15.2267952  46.0701799   7.3609000   3.1708642  69.0284872  13.5587716
   2.2819920  69.3659353  13.4480834   3.7355538  69.7856569  13.4036469
  39.8914331  20.7866292   1.5730969  40.0372356  20.8591847   2.5163428
  39.8130602  21.6920238   1.2725131  76.0217142  59.7788095  41.0118818
  75.2623081  59.2039633  40.9165335  75.8999443  60.4498911  40.3402758
  61.0908699  24.7661495  21.2605238  60.9840822  24.5123363  20.3437877
  61.0865068  25.7232308  21.2461305  21.8319537  62.2233028  53.3287747
  21.4675929  61.9815726  52.4772830  22.2777106  61.4322991  53.6318334
  68.5636616  67.5767088  46.2483168  69.2725372  66.9389153  46.3316822
  68.1866503  67.6319122  47.1264124  25.5945130  40.2385330  25.8884358
  24.9649258  40.2374506  25.1674294  26.4337273  40.0382328  25.4739022
  10.1922722  27.1555495  17.6885390  10.5459614  27.1515489  16.7990923
   9.3453141  27.5941086  17.6075280   5.1349850  71.4913511  41.3450909
   5.9076519  71.7516756  41.8465376   5.4553814  70.8199596  40.7427502
   8.5978432  22.2638535  49.9608994   8.1169243  23.0287814  49.6449327
   9.1994210  22.0480180  49.2483330  74.9495268  38.8080597  22.8064799
  75.8833361  38.6012793  22.8448439  74.8800945  39.4768286  22.1251869
  15.8946534  65.6570244   5.0674254  16.8505307  65.6794024   5.0225490
  15.6185551  66.5041399   4.7175822  31.9682086  21.3610080  53.7564214
  32.5877870  22.0903018  53.7785252  31.6512311  21.2886527  54.6567126
   3.3161123   7.1208580  48.7474108   4.0369756   7.3827084  49.3201351
   2.7331741   7.8799542  48.7337637  13.0053254  47.4365377  43.4963846
  13.1678219  47.4416924  42.5530958  13.7021466  47.9812241  43.8624382
  71.6032934  68.0600357  18.7735355  71.1216164  68.8820410  18.8658214
  71.6232681  67.6935816  19.6575868  47.7615798  34.8652938  65.6599066
  48.5827792  35.0939897  65.2245183  47.5309194  34.0083125  65.3012750
   8.9700086  22.2886189  -0.0650039   8.3416946  22.8941353   0.3284482
   9.0013177  21.5485485   0.5412557  61.3935614  69.7461939  54.2949152
  60.6186628  69.9705029  53.7796879  62.0014668  69.3666744  53.6603689
  57.8934288  44.2661476  57.5892830  58.4892273  43.7851143  58.1636190
  57.0912981  43.7438488  57.5847721  58.8855505  34.2178082  59.8279762
  58.8253927  33.2851410  59.6212292  58.9446449  34.2481351  60.7828712
  16.9630452  47.7050686  47.4350357  17.4864598  47.6795053  46.6340256
  17.6076813  47.7540827  48.1409168  64.1702032  49.5628691  18.7123406
  63.7218189  49.2516851  17.9259884  65.0554419  49.7739029  18.4156084
  76.7623412  69.6036431   1.4730565  77.1413790  69.2764351   0.6572787
  77.3194634  70.3429887   1.7164008  18.0755730  75.9833097  62.1531487
  18.1513997  76.1542845  61.2143993  18.1088372  76.8500757  62.5579214
  23.3616025  75.9204170   9.1209380  23.2128293  76.2724873   9.9985139
  23.0742509  76.6175458   8.5313050   9.0160824  62.9548926  49.9807055
   9.6166445  62.5512953  49.3540736   9.5268084  63.0316205  50.7866247
  14.1084029  46.8049509  19.2492135  14.3689896  47.7157063  19.1119130
  14.2540528  46.3838400  18.4020503  24.2407538  14.7326727  40.6933959
  24.9506642  15.1297135  40.1887973  23.4462811  15.1455302  40.3548701
  14.0939070  44.7181238  63.9364152  14.8268010  45.0602968  63.4245353
  13.9896418  43.8165225  63.6323185  73.5272408  40.3507900  18.1456399
  73.3138943  40.5335617  17.2305930  74.4154072  40.6899405  18.2568514
  31.1158206  58.0626006  49.8914595  30.6362368  58.8238831  50.2180775
  30.7787062  57.9291506  49.0055831  28.9071202  38.7153363  30.0349331
  28.0374861  38.6773443  29.6367860  29.2516732  37.8270507  29.9429369
  14.1034044  67.0023016  14.7428620  14.6432222  67.2119288  13.9807057
  13.2279313  66.8577925  14.3838406  61.6982412  26.5064311  12.0445526
  62.5382996  26.5933013  11.5940142  61.5625477  25.5617666  12.1182609
   7.8176858   7.2836442  59.7844549   8.5465743   7.4325986  60.3867527
   7.5223614   6.3946218  59.9810691   5.3740347  56.0448996   4.2108807
   4.6747316  55.9218613   3.5689542   5.5765570  56.9794575   4.1682738
   1.1716378  54.0698687  21.4660311   0.8345044  54.0850560  22.3617649
   2.0220626  54.5055167  21.5227771  76.4161068  18.9344187  54.1834648
  75.9997088  19.6366723  54.6831484  75.9968954  18.1342049  54.4999321
  64.8263515  67.8149943   7.6785731  64.5022643  67.1651856   7.0549148
  65.7377876  67.5660292   7.8319520  20.9521796  19.4555540  61.9265671
  21.8395592  19.1720624  61.7065318  20.6763436  19.9827964  61.1767914
  48.7743062  76.4242088  56.6554971  47.8896827  76.5462147  56.3108380
  48.6679477  76.4594018  57.6061185  33.4236884   5.2864689  19.9334455
  33.6085773   6.1024916  19.4685209  33.4043670   4.6191019  19.2475307
  21.8661046  28.8909340  18.4648609  22.5206923  29.1238666  17.8064620
  21.3630319  28.1829739  18.0624425   9.5851768  73.2862268  29.7605920
   9.6255458  72.5430096  29.1587353   9.8977674  74.0294455  29.2446995
  19.7952092  76.0438841   9.2648137  18.9205993  76.3543272   9.4991475
  20.3831542  76.7393922   9.5594662  14.0686442  73.0926318  50.5368216
  14.2532708  73.9366479  50.9488674  14.3805720  73.1918974  49.6373315
   9.0064061  68.9260630  54.5183659   8.7625588  69.0495650  55.4357100
   9.7756470  69.4828431  54.3979692  69.4259501   8.0895370  45.5454493
  68.5014582   7.8948057  45.3917503  69.8384333   7.9853630  44.6879911
  61.0017395  15.2378678  11.1943328  60.1805639  15.4417443  11.6419280
  61.1786938  14.3252504  11.4224720  67.8845406  29.6672320  19.9512923
  67.8294182  30.6002975  20.1576447  68.5084629  29.3176818  20.5875063
  13.4250380  47.2979523  64.2465617  13.6910559  46.3906438  64.0973757
  14.2487122  47.7789761  64.3265839  59.8507942  57.9933945  27.0629311
  59.4299281  57.6856438  26.2601900  60.3454459  58.7670044  26.7926049
  48.0969572  11.7015707   2.7481526  47.2613049  11.6740000   2.2821562
  47.9081631  12.1893036   3.5498407  81.2671953  61.5809698  45.4192646
  81.2543255  62.5098295  45.1884277  81.8443066  61.5315289  46.1813243
  53.2009853  72.9218886   9.0487134  53.6257518  73.1135203   8.2125998
  52.3037971  72.6858206   8.8130158  29.1004861  73.2071317  38.9286733
  29.9476207  73.4901325  39.2729259  29.2301715  73.1611158  37.9814148
  65.2458061  74.2620004  23.2725048  64.7391570  74.0816648  22.4806619
  65.1339019  73.4792153  23.8119078  50.4724407   4.9032846   6.4085400
  49.5565796   5.1490092   6.2779945  50.7902241   4.6887630   5.5314827
  65.6067133  77.3663235   7.0931244  66.1338043  77.3654222   7.8921264
  64.8820353  76.7706680   7.2835785  14.7139419  44.6087019  23.6174154
  15.3232349  44.1106264  23.0725169  14.1813482  45.1009313  22.9926872
  38.2225622  57.2883932  32.4364924  38.6878360  56.8580262  31.7191815
  37.7247728  57.9880206  32.0134616   6.9738121  57.6376247  30.9270287
   7.2710724  58.2629442  30.2660823   6.0190125  57.6559448  30.8618164
  80.4800129   4.6166065  31.2046862  80.3843594   4.9394765  30.3086758
  79.9102640   5.1827329  31.7253757  43.9703573  70.5471490  15.6173015
  43.1361736  70.0959460  15.4877508  43.8277686  71.4223598  15.2568758
  23.9824165  76.4809490  50.3596210  23.9863504  77.3331415  49.9237490
  24.7851098  76.4749058  50.8810329  36.0247564   3.2053038  36.0955930
  35.4781032   3.8184300  35.6041861  35.8242416   2.3492742  35.7171226
  32.1346213  29.0961171  64.4112109  32.3244311  29.9373103  63.9957608
  32.1622969  29.2809732  65.3499837  58.1634868  69.8410432  21.8525076
  57.8357948  69.0287934  22.2386503  59.0981830  69.6830974  21.7197442
  80.3444672   9.2566466  21.7508245  80.8835220  10.0369394  21.6212225
  80.0033569   9.0538067  20.8797741  21.2471511  19.3753226  50.7081743
  20.6446244  18.7682242  50.2784987  21.1724164  19.1678877  51.6396339
  57.4860477  14.2362309  10.3252590  57.8119135  15.0805819  10.0136304
  58.1712484  13.9169872  10.9124708  12.1795537  50.8115644  42.0898946
  12.1385552  49.9137039  42.4191292  11.4766242  50.8614714  41.4421065
  56.2018394   1.5811571  51.0049534  57.0225906   1.1762141  50.7245541
  56.4324665   2.0660487  51.7973709  81.5794843  50.0086562  22.4650002
  82.0176976  49.1872112  22.6873302  81.6444128  50.5375973  23.2601333
  53.9467525  33.1919932  16.6129744  54.7598934  33.6412191  16.8436885
  53.7346077  33.5153461  15.7373786  10.0381257  66.9614501  63.0353962
   9.8558451  66.1714764  62.5265296  10.2910067  67.6139827  62.3823388
  39.1411877  12.1071184  29.5859289  39.3117356  11.6583431  28.7578321
  39.9899721  12.4679613  29.8420358  20.3732468  12.2143550  66.7944225
  20.3749777  12.7938194  67.5562953  19.4467999  12.0997210  66.5827976
  41.5574598  33.3538413   8.5193247  40.7399654  33.0059075   8.1631285
  42.1472216  33.3976078   7.7666652  18.1510760  38.3186445  64.0369086
  18.2265450  38.5162247  64.9704494  17.4648739  38.9071556  63.7222447
  79.8563004   6.4951372  14.4885600  78.9470434   6.6627592  14.2408001
  80.1564693   5.8338922  13.8649511  30.8303858  52.8294451  29.9882157
  30.3341509  52.2014410  29.4632419  31.7453791  52.5802321  29.8581489
  20.6096388  50.2953203  62.9078831  20.6922127  51.0278590  62.2973089
  21.4734961  49.8830373  62.9055612   4.9129601   0.5573421  18.9527202
   4.5714112   1.1763491  19.5980167   4.3013211   0.6147246  18.2186639
  21.8012679  73.0537672  13.2541692  21.6939891  72.7208565  14.1451764
  21.0074199  73.5633118  13.0916691   3.8461507  59.5577971  10.2797163
   3.1097854  59.2464022  10.8060515   3.4710658  60.2402715   9.7231460
  67.5628811  56.0509021  56.7934866  67.4929720  56.7117734  57.4823947
  66.7034012  56.0523005  56.3721438  76.0623461  38.4088375  54.1396697
  76.5149170  37.8388820  53.5179313  76.2365728  39.2951004  53.8227888
  74.4060802   1.7440039  27.8770161  75.1220417   1.1746444  28.1589127
  73.6268854   1.3709058  28.2891798  15.3013385  66.8810539  11.9771993
  15.1413644  67.5511919  11.3127029  15.2929986  66.0559289  11.4920914
  75.7095820  47.5349314  36.4542611  76.6367251  47.5820829  36.6875275
  75.3261620  48.3246757  36.8357380  14.2456170   7.7304560  23.9818025
  15.0354977   7.6719272  23.4443092  13.7109585   6.9868302  23.7036061
  24.8887517  67.2689886  34.5202930  24.0419318  66.8636913  34.3335946
  25.2991845  66.6838188  35.1569660  75.8822399  55.2327962  64.8818036
  76.4177614  54.8311491  64.1976042  76.2882954  56.0861809  65.0337373
  61.4487648  24.5330596  51.4126110  60.7752419  25.1427937  51.7139721
  61.6853666  24.0324950  52.1934319  29.6790994  67.4296765  36.2709928
  29.9088395  66.7887716  36.9438171  29.7027219  66.9355742  35.4515195
  46.6820920  70.6330214  28.5711455  47.1044458  70.7548014  27.7208400
  47.2742475  70.0548587  29.0520930  61.2560135  74.5547385  61.9545140
  61.9294411  74.9951668  61.4361037  60.7310277  74.0791554  61.3107409
  36.0579872   7.8896832  22.8728104  36.1213613   7.8160655  23.8250685
  35.8206511   7.0098716  22.5798321  72.9138660   5.8871567  30.9868479
  72.5390005   5.1366013  31.4476895  72.3942375   5.9606218  30.1863337
   9.1413136  15.7443452  19.4926214   8.2836743  15.4714966  19.8185790
   8.9462872  16.2742901  18.7197351  28.2466197   0.8611767  23.6734986
  28.0920005   1.7895761  23.4991431  29.1204715   0.8329421  24.0631342
  59.2280531  44.2671871   6.1333120  58.7784338  44.9775696   6.5909463
  59.9799013  44.0622473   6.6891515  12.8018487  61.6870479  25.9525800
  12.2466362  62.0952396  26.6169214  13.3667434  61.0917978  26.4453292
   5.8209057  30.1425433  34.8109102   5.0035115  29.8447800  34.4116187
   6.4950772  29.5875669  34.4188404  72.2770214   2.3437317  14.9326742
  72.0335484   2.1993905  14.0182793  73.2323456   2.4022582  14.9197876
  57.4431372   4.5033649  20.8646989  57.8420353   4.9797532  21.5928245
  56.7072725   5.0523221  20.5938053  33.0472298  20.4472661   1.2070137
  32.4017830  20.2185082   1.8758208  32.8462525  21.3553953   0.9808753
  57.0512247  34.1226172   7.1865737  56.9825554  34.4681835   6.2965739
  56.2615299  34.4366431   7.6270282  19.9020077  44.0293945  60.2156778
  19.3952777  43.3767332  59.7324659  19.4916369  44.8647751  59.9921413
  15.9240939  45.0897444  61.9394954  16.8485428  45.1966346  62.1635504
  15.8269478  45.5418332  61.1013957  70.4016066  38.2071376  27.2342563
  69.8934841  37.4013162  27.1410108  71.2831879  37.9097199  27.4591804
  43.7843955  63.9089267  29.7494388  43.1863178  63.1801407  29.9149895
  43.2614578  64.6918587  29.9220133   6.3578911  11.6258693  24.9168873
   5.5712147  12.1498477  25.0679350   7.0543213  12.2703004  24.7906971
   5.3170796  24.3353224  44.1407681   6.0919114  24.0898752  44.6463680
   5.1024647  23.5511518  43.6355448  52.2503948  15.5985618  18.5704994
  52.6873922  14.7469378  18.5689747  51.6555166  15.5638552  17.8214014
   4.8421116   2.8397831  36.6636920   5.3080960   2.2634283  36.0579658
   5.1041909   3.7228793  36.4035249  68.5505724   5.9521627  50.8533096
  68.4149408   5.3384781  51.5752697  69.3040323   5.6009573  50.3787756
  70.4426384  20.5830073  36.1441040  71.1662912  20.9031010  35.6054950
  69.7235727  20.4522991  35.5259705  68.2948637  22.0537448  28.4016681
  67.6715803  21.6410804  28.9995456  69.0917921  22.1586561  28.9214110
  77.1006060  23.4671617  24.5923114  77.5793934  23.9992714  23.9568162
  76.1851168  23.5368156  24.3216538  19.2168868  72.9598488  18.8757145
  19.3606056  73.4262727  18.0522919  19.5588458  73.5494320  19.5477915
  43.0336154  72.1932916  40.8950520  42.2191823  71.7090968  41.0310030
  42.9347194  72.5901390  40.0296259  25.5201747  54.1643305  57.0001258
  25.1518799  54.0849001  57.8800555  25.3107096  53.3317990  56.5767522
  64.8985338   3.8249406  19.2537427  65.2579498   3.7641469  20.1388168
  64.0006590   4.1315484  19.3803871  30.2237391   3.5614637  14.9523377
  29.8351669   4.3571284  14.5887995  30.8377719   3.2660463  14.2800856
  47.0285571  73.8710738  29.0976620  47.1145547  72.9339636  28.9225602
  46.7695297  73.9200095  30.0178480  71.3736629   2.9643658  31.7790842
  71.4888144   2.2887406  31.1108756  70.4260969   3.0200693  31.9025636
  55.2416576  48.6704795   1.6091681  54.7410453  49.1993062   2.2304228
  54.8716224  48.8908808   0.7543439  61.2794269  67.2612337  13.7329364
  61.0704006  67.8192816  12.9838550  62.1838821  66.9866161  13.5820305
  51.5829611  12.0943356  30.0492501  52.0032072  12.0845044  30.9092093
  50.6453180  12.1105647  30.2410531  34.8585428  65.4349498  16.7053676
  35.5138839  65.2537088  16.0316408  34.1339601  65.8427755  16.2311363
   5.1949044  31.3161540  37.2304416   4.4041558  30.9448028  37.6216674
   5.2613850  30.8911133  36.3753676  36.4793468  34.0867782  18.9555275
  37.3419523  33.7681103  19.2212236  36.0051036  33.2995033  18.6880958
  70.1180553  30.5988288  12.8818130  70.5017662  31.2189054  12.2617328
  70.6480598  29.8072982  12.7879858  54.8190403  13.8555872  21.3692665
  54.3070602  13.5366988  20.6260180  54.3303776  14.6140492  21.6889191
  26.0333176  55.9930611  53.8060999  25.0988408  56.1010122  53.6290503
  26.4679070  56.4367104  53.0777216  17.6716674  64.8467604  17.0633686
  17.2276939  64.7220365  16.2245834  18.2430614  64.0834622  17.1477520
   9.9338080  58.8765569  55.8414360  10.0443007  58.2680995  55.1108177
  10.3343083  59.6910710  55.5374701  53.4428848  72.2288410  23.1233454
  54.2512763  71.8257461  23.4399676  53.5657657  73.1654475  23.2779479
   6.3294335   5.1315022   0.8979963   6.0761376   6.0102940   1.1804783
   6.5384503   5.2294707  -0.0309536  16.6670723  10.9878433  36.7965269
  16.3600083  10.7536328  37.6723623  15.9604950  10.7111907  36.2130594
  58.2378197  16.8441212  10.4976392  58.1295252  17.1194506   9.5873106
  57.8986931  17.5770438  11.0114980  46.4797366  64.5241157  23.8602662
  46.6628230  63.6096255  24.0757227  47.2231448  64.7969596  23.3225560
  43.1712735  66.7858271  17.7710509  43.2494796  66.0848407  18.4181476
  42.6554263  66.4011685  17.0624089  66.5648031  10.8453596  25.7417130
  65.9432554  10.4011631  26.3184261  67.3352337  10.9949255  26.2897086
  29.2643380   2.9420513  36.1274815  29.6384597   2.9467562  37.0085263
  28.3214188   2.8562984  36.2681198  55.7179642  11.4097106   6.7010510
  56.0499763  10.6998718   6.1513907  55.0031710  11.0128713   7.1988702
  69.4332939  32.4189509  65.3789213  68.7040382  32.8197963  64.9059120
  69.7173363  33.0927117  65.9966574  49.1656733  11.5442181  20.9241867
  48.6059952  10.8769047  21.3212824  48.5572624  12.2195709  20.6242442
  69.5365000  20.0791216   4.4619161  68.9957428  20.7775378   4.8307389
  69.4443226  20.1798105   3.5145000  46.6435207  62.7182440  14.1791904
  46.0280622  63.1560485  14.7672129  46.3173402  62.9153709  13.3011365
  36.6326726  41.5808527  29.7277832  36.2958873  40.7949464  30.1580834
  36.3046563  42.3050253  30.2608967  51.1718798   3.3588031  26.0031819
  50.5638599   3.7868318  26.6059566  51.4256668   4.0480658  25.3893900
  48.1845140   9.4380814  18.2357609  48.4941864  10.2926433  17.9356623
  47.9856396   8.9593017  17.4311173   0.7067706   6.5864391  65.5012036
   1.4821984   7.1219106  65.3332345   0.8135439   5.8248825  64.9312364
  10.4241312  64.1088836   2.1829484  10.9444440  64.4499711   1.4555120
   9.5168937  64.1983954   1.8911609  77.4286938  41.1246347   1.7872216
  78.2528067  41.1807585   1.3035677  77.2552681  40.1858521   1.8567908
  37.1740974  55.1809232  16.9136798  37.0684446  55.4130356  15.9910786
  37.9538739  54.6261303  16.9333017  79.4056892  18.2371151  19.6192837
  80.2338982  18.5223198  19.2333353  79.3056822  18.7809753  20.4005933
  80.8825070  27.2760327  43.2775290  81.2690168  27.4453659  42.4183615
  79.9610621  27.5148840  43.1769164  37.1217181  73.0507560  59.6588315
  37.3000552  73.9379258  59.9708541  37.0262457  72.5308628  60.4568471
  46.2824460  27.6768517  43.2587433  45.6878205  28.0720162  42.6211691
  47.1569081  27.9121685  42.9486227  77.4425030  48.0850363   1.8353757
  77.7172375  48.4829664   2.6614526  76.7491722  48.6600161   1.5114591
  55.4664386   5.8386281  61.8643154  55.1975501   6.1077121  60.9859498
  56.3562358   5.5046228  61.7506160  68.1267405  26.7903948  23.5084152
  68.0858564  26.1602545  24.2277789  67.8418159  26.2956357  22.7401280
  40.8842910  13.0333284  55.0208838  40.3502668  13.1286338  54.2322345
  40.2734865  13.1806758  55.7429905  15.3913422  43.3079195  12.9246891
  15.4581471  42.3598051  13.0380201  14.6224995  43.4289503  12.3674941
  12.5672169  26.3254428  23.3725548  12.2577782  25.5838728  22.8524113
  13.4731503  26.4537835  23.0913877  60.9312105  44.2197657  49.8872662
  61.1072159  43.4688187  49.3204021  59.9954367  44.3886089  49.7774839
  60.5774272  69.6471779  36.1084676  59.8100341  69.2059688  36.4727116
  60.4795612  70.5601845  36.3787866  60.0586939  10.3191805  36.7645836
  59.6882105  10.2280152  37.6424575  59.6597958   9.6093267  36.2613702
  75.9453726  71.0178280  31.0219073  75.3918076  71.1039495  30.2457786
  75.5345917  71.5862513  31.6733575  24.4577958  56.6024752  47.3837514
  24.2001273  56.1225231  48.1708248  25.2857949  57.0212347  47.6188918
  68.9159609  70.3434439  63.7928905  69.5549513  70.0517530  64.4431494
  69.3642546  70.2402015  62.9534830  27.3507233  16.7078757   8.2675552
  27.7579709  17.2283244   8.9600235  26.8157979  17.3344159   7.7801776
  17.7351208  38.1540751  27.9457474  17.8065701  38.6348557  27.1211386
  18.0953713  37.2889876  27.7506018   3.2561989  23.6783504  53.8571644
   2.8286381  24.5182300  53.6897564   2.5429173  23.0930257  54.1118288
   1.3657685  58.0566216  28.7393332   1.2100811  58.7246132  28.0716634
   1.5274353  58.5530138  29.5416379  58.4630013  33.9774847  14.0651965
  57.6631021  33.4669948  14.1908801  58.4542370  34.2118311  13.1371677
  71.2590265  30.7349563   5.9276420  72.1807671  30.9930015   5.9215206
  71.2059879  30.0208831   5.2924120  49.4537885  45.1543298   0.4010694
  50.3832490  45.2194169   0.6203620  49.3654973  45.6452474  -0.4159005
  16.5232170  37.5229716   4.2570415  16.6145623  38.2403421   4.8841527
  17.3566961  37.5085282   3.7865776  51.0153770  59.2958355  12.6070166
  50.0752783  59.4758463  12.6006544  51.3498688  59.7954512  13.3518183
  43.4090150  65.7841865  34.8072863  43.3332408  64.8880271  35.1349854
  42.5348295  65.9936754  34.4784307  70.6171989  30.9421563   8.6636627
  70.1060295  30.1440454   8.7976724  70.7524776  30.9838104   7.7169865
  51.6819693  63.5141702  58.8046552  52.3235823  63.5863848  59.5113059
  52.2089888  63.4536285  58.0078997  25.3948040  33.2207274  18.6658657
  24.4989892  33.3484769  18.3537340  25.4324456  33.7051249  19.4905913
  78.6913919  12.2348750  15.0370872  78.4156609  11.3259089  15.1553416
  78.5994530  12.3927462  14.0974844  59.9913311   2.5833607  18.1698573
  59.3305635   1.9194771  18.3670235  59.5540380   3.1849924  17.5673258
  54.8198748  10.3842616   2.3625796  54.4334412  10.7141519   3.1737944
  55.2063131   9.5430821   2.6061285   2.0014115  25.6923866   3.8476089
   2.3144074  26.5269828   4.1964796   2.6903077  25.0662398   4.0703022
  16.7711659  42.3548079  54.9558353  16.4338513  43.2278442  55.1564884
  16.2595387  41.7668247  55.5114889  11.2984677  19.7940516  12.3756635
  11.6754265  20.1875305  11.5887022  10.4322930  19.4927514  12.1014357
  18.3472849  57.0387025  59.4721706  18.6020304  56.3169498  58.8973589
  18.1827761  56.6238744  60.3189798  15.0903536  61.9561882  62.6569881
  14.2659690  61.7309661  63.0881469  14.9127509  61.8378754  61.7238791
  47.3277295   8.2309201  43.4088095  47.2284330   8.0663922  42.4710997
  46.4570106   8.0721954  43.7733515   0.9681244   6.2017924  20.7149720
   1.1954899   6.9037628  20.1052380   1.6824933   6.1971867  21.3520575
  10.8770199  45.5104065  17.8210711  11.5385170  44.9902344  17.3649251
  10.0422402  45.1338959  17.5424552  72.4724054  26.2420845  26.7023325
  72.7861738  27.1368909  26.8331218  71.5437889  26.3421154  26.4928293
  74.7761774   8.8596219  35.6453991  75.1054525   9.4739825  34.9893713
  74.3559456   9.4138783  36.3029981  79.2838049  51.1336327  42.2689533
  79.4463110  51.9550848  42.7326775  78.3753729  51.2003231  41.9747782
  63.9810133  19.9543786   6.5462595  64.1957855  20.1871800   7.4495357
  63.9413309  18.9980042   6.5483713  12.7513047  50.0234604  46.9734764
  13.1241436  50.3066730  46.1386013  13.5058327  49.9389505  47.5563765
  60.5634356  19.5594716   2.4689138  60.4912090  18.8246131   1.8598184
  61.4716578  19.5326352   2.7699912  25.0096095  65.8007423  16.2573147
  25.7252944  65.2784519  15.8950484  24.2203725  65.2980618  16.0556948
  -0.1557712   6.6668099   9.7369409  -0.0183658   5.9512347   9.1162133
   0.6716176   7.1481192   9.7345805   3.5995503   3.6460540  13.3669639
   3.7362309   2.8241938  12.8956914   4.4639130   4.0567613  13.3878756
  60.4095173  34.0405059   9.1312230  60.2899885  34.9813032   9.2610103
  61.1582470  33.9736962   8.5386258   6.8826313  48.6054134  18.6881685
   6.5288754  47.7415276  18.4765232   7.7820130  48.5825825  18.3613288
   5.6303717  70.1720877  57.1683802   5.2294041  70.7844086  56.5515156
   4.9489237  69.5213933  57.3370768  24.9247325  70.6238155   6.2457937
  24.2670167  71.3187663   6.2195998  24.5616306  69.9295501   5.6958967
  73.1219482  23.2686782  12.8574836  72.2133112  23.0851388  12.6188982
  73.0717039  24.0491796  13.4093225  51.7954505  66.0973124  11.1673987
  51.7015661  65.9590225  12.1098924  51.9451154  65.2218000  10.8105946
  38.7943077  24.3146634  56.5403128  38.5188746  23.8386345  57.3237419
  39.6762419  23.9892244  56.3599968  64.7830200  45.6724167   5.5842650
  64.5004988  45.9733295   4.7206309  64.3432522  44.8301458   5.7001197
  29.6104730  62.4055998  29.7784233  29.9367774  61.6454927  29.2967677
  28.6699451  62.2494678  29.8636270  62.4918556   3.3376214  31.8822765
  62.9845047   3.4434867  31.0684443  62.6374435   2.4255136  32.1334624
  54.4437373   4.5388511  56.3429900  53.8594211   4.7307018  55.6095036
  53.9129699   4.7054294  57.1219452   1.0495640  71.4089937  52.4032398
   0.8890225  72.3226900  52.6390679   0.2983452  71.1657233  51.8622048
  63.3623505   3.3259511  37.3114276  62.7700996   2.8502762  37.8938389
  63.8746214   3.8851708  37.8954482  82.1404648  35.5924678  59.0477037
  81.3522720  35.2170038  58.6552620  82.4641037  36.2095881  58.3914614
  81.8967253  57.2108014  48.1981464  81.7441755  56.3683720  47.7700444
  81.1695486  57.7617867  47.9085560  76.7546225  43.8028669  62.7557659
  77.6581860  43.6354589  62.4878407  76.5152311  44.6097946  62.2999191
  13.4942567  27.5952697   5.5733669  13.4634066  28.4693146   5.1843655
  14.4282424  27.4045706   5.6601733  51.6081381  37.1391058  16.6948247
  51.4452934  36.4899826  16.0104609  51.2443590  37.9524231  16.3449514
  67.9829788   0.2694586  28.6472392  67.9175806  -0.6823207  28.5693216
  67.6592684   0.4605090  29.5275474  68.1092609   1.6200069  51.1651607
  69.0407813   1.7559627  50.9918757  67.9672683   2.0074657  52.0288392
  42.8351367  71.6680567  31.0973573  42.6952375  72.6121483  31.0242081
  43.3163036  71.4350043  30.3033805  60.8544159   0.7560256  34.7615075
  61.5817547   0.5267633  35.3399920  60.1841974   1.1079325  35.3473401
  79.4871664  34.0469360  43.6872005  78.7720490  34.4166088  43.1693363
  79.2979860  34.3188620  44.5852566  34.6320308  58.3435420  17.0339012
  33.8931859  58.9488701  16.9713175  35.2380431  58.7673215  17.6416755
  71.8100405  48.8800859  24.9592090  72.4348116  49.3547153  25.5074954
  72.1768141  47.9989910  24.8858595  48.0857290  47.4317710  12.4809468
  48.6606038  47.8832285  11.8629348  48.2963002  47.8189723  13.3306336
  39.1364123  75.2330322  63.9757748  39.7851969  74.8207064  63.4054296
  39.6360709  75.5158396  64.7416684  81.8060493  16.4268172  23.7097120
  81.9890118  17.2953618  24.0680265  81.2146282  16.5905011  22.9751015
  26.9873644  68.6129112  55.5457027  27.3670413  68.7644882  56.4112099
  27.7275302  68.6865134  54.9432333   2.3672600  38.9372563  15.6168044
   2.0553132  38.1727672  15.1325691   1.7035885  39.6085024  15.4580534
  22.7811362  48.7035365  62.0902689  23.2376315  49.1238780  61.3614638
  22.4007489  47.9117776  61.7099311  17.6417943  27.0118928  10.7393324
  16.9755955  26.8891168  11.4155936  18.4313317  26.6136861  11.1058104
  56.9273246  14.6055463  54.7910531  56.3026393  13.9536956  54.4731052
  57.0331443  14.4025138  55.7204683  58.8346065  22.0439771  49.5905896
  59.3891586  22.6085761  49.0521474  59.4509757  21.5301326  50.1123949
  81.8431377  25.4043555  22.4937463  81.1297226  24.9506235  22.9425263
  82.5186157  24.7356558  22.3806047  11.0967465  18.3865273  23.5502934
  11.1152955  18.1628525  22.6197791  11.9827290  18.6951029  23.7401652
  43.0511023  71.9785447  47.2505315  42.6273657  72.7619119  47.6012702
  42.8600527  72.0023556  46.3128932  79.1079617  12.8148806   5.5692303
  78.3539963  12.8647292   6.1568385  79.1273689  13.6660445   5.1317668
  54.3741035  55.0458384  27.8331423  55.0349903  55.0209379  27.1411562
  54.7086191  55.6863689  28.4608769  81.5404987  35.3292084  10.9965479
  80.9480762  35.1221490  11.7193139  80.9924507  35.2723122  10.2138352
  73.1912483  74.6607972  17.1735764  72.8372825  75.2739109  16.5293443
  73.1092132  73.8025574  16.7577326  46.7639567  59.2444940  54.8215445
  47.5699259  59.3032308  54.3085213  46.8143489  58.3898969  55.2497466
  45.8869886  65.6802368  36.2457442  44.9418116  65.5442286  36.1795878
  46.0624647  65.6887197  37.1866846  80.7463551  27.0274282  29.0697646
  80.8999825  26.1491227  29.4179130  81.5877914  27.2868347  28.6943626
  19.2102929  36.9913077  55.3599501  18.5944005  36.9001794  56.0870028
  18.8246174  37.6672411  54.8026371  14.6072217  33.6949873  14.9437261
  14.1998692  33.7058115  14.0775979  15.2198620  32.9602528  14.9111044
  42.9782880  76.4455767  43.1655645  42.6500142  75.5532653  43.0548811
  42.3438133  76.9932632  42.7032709  81.1318588  73.6265707  11.5898526
  80.3275967  73.2099485  11.8994057  81.1964035  74.4327164  12.1019042
  39.9238313   0.7398680  62.5788467  40.6747783   0.2003220  62.3314579
  40.2855600   1.6197494  62.6846083  69.5000029  30.2798843  22.9772067
  69.1421747  30.9654903  22.4131727  69.8748732  29.6417499  22.3701763
  54.6864284  73.3517004   3.2787794  55.2797759  73.7927191   3.8867849
  53.8117851  73.6183796   3.5618299  78.1136900  49.0904183  64.6201168
  77.3381477  48.6298974  64.9405705  78.5533005  48.4548713  64.0552686
  77.7286720  40.7730865   9.8200059  77.6595640  40.4612064   8.9176846
  78.4518766  40.2689791  10.1929402  52.9064328   3.2845219  23.0983114
  52.0962579   2.8895100  22.7760863  52.6207120   4.0690048  23.5664868
  61.5477180  22.6578617   7.9181474  61.7391682  22.9406238   7.0239305
  61.1411095  21.7974305   7.8153962  26.6731132  10.8996919  66.3074666
  25.8948863  10.6388381  65.8149707  26.4828218  11.7903856  66.6019004
  75.4097700  42.8865623  55.7489920  75.2192259  43.0617714  56.6705275
  76.3125467  42.5684118  55.7473612  23.4493847  18.4552526  49.2437696
  23.1785985  17.6784575  48.7543869  22.6337262  18.8153183  49.5920324
  10.7174070   2.7498730  42.1964216  10.0430734   2.7409847  42.8757048
  11.3080938   3.4574707  42.4545622  15.3086300  51.7238617  38.0179954
  15.1791115  51.9689035  38.9341879  16.1936017  52.0251036  37.8122950
  58.3579731  12.2768545  33.0209589  57.6470327  11.7291033  33.3537650
  58.6038208  12.8278220  33.7640762  77.4031496  34.9331117  29.7448158
  78.2324219  35.4091644  29.7885394  77.6147652  34.1259742  29.2757964
  71.3405097  17.5164035  57.9983880  71.0312713  16.7423680  57.5277729
  72.2942889  17.4358752  57.9912795  14.9871750  76.2777615  47.9778337
  14.6462746  76.6189003  48.8046598  14.2702694  76.3984585  47.3551702
  30.2966805  35.7882547   8.7953895  29.6339055  35.1154327   8.6396009
  29.9096318  36.5911007   8.4463048   5.7485123  40.4109812  35.7346559
   4.9350758  40.6230116  36.1924839   6.0793229  39.6322656  36.1823106
  59.9285793  54.4408035  30.2663493  60.3482294  53.5948181  30.1100588
  59.0454531  54.3393135  29.9113488  73.6923552  26.9689822   3.8891187
  73.5204649  27.1535563   4.8124918  74.2848635  27.6676154   3.6114806
  69.9806452  71.6373539  25.4940295  70.8946753  71.4822197  25.2558827
  69.7159958  70.8432198  25.9582996  80.5569363  51.1579370  18.0929255
  81.2753582  50.8921480  17.5189388  80.9787846  51.6688299  18.7837672
  64.8506165  49.2338324  40.0130510  65.5847931  49.3144369  39.4041824
  65.2605915  49.0681458  40.8619976  78.3095598  47.2741365  25.5244231
  77.7190208  48.0271101  25.5013680  77.7390432  46.5278482  25.7082534
  80.3196526  45.7706165  20.1730013  80.8196831  46.5363407  19.8903966
  80.9565639  45.0560713  20.1750946  61.5519381  27.3731756  42.5091314
  61.6827440  26.4364004  42.3622417  61.3380003  27.7236199  41.6444635
  74.8484325  58.8581371   5.9281027  75.1921034  58.1182623   5.4273951
  73.9320755  58.9241505   5.6594694  59.1243362  47.0215940   8.1275153
  59.6375990  47.6896715   7.6731336  59.7531748  46.3259649   8.3196086
  10.4913254  49.6825600   7.9154533   9.6834298  50.1883030   7.8273094
  11.0184975  49.9395275   7.1589577  62.4307728  33.4458470   2.3284756
  62.5262642  33.8856626   1.4836828  62.1894836  32.5470114   2.1046303
  67.5465822  57.4344206  34.1271901  66.6123343  57.2274208  34.1033792
  67.7214718  57.6471901  35.0439072  29.5829220  18.4119260  50.4666662
  28.7456246  18.1606019  50.8565569  30.0791760  17.5948787  50.4176903
  68.4057964  28.9152387  51.5692611  68.1756366  29.2274287  52.4443574
  69.1941417  28.3889058  51.7023929  62.9835189  21.8964055  61.8569370
  63.7674678  22.2748187  61.4588674  62.6653732  22.5754598  62.4518298
  78.9624786   8.7796092  31.7393088  79.4646311   9.2881447  31.1025476
  78.0580139   8.8359487  31.4310813  18.8662684  30.2800393  42.6070356
  19.6370816  30.2035832  43.1693840  19.0777838  29.7514582  41.8375587
  12.2322368  65.8706829  17.7054135  12.9850434  65.3358719  17.4534432
  12.1402656  66.5048954  16.9943921  50.1533794  35.1153946  56.9001675
  49.4230080  35.0323033  56.2870789  50.9310532  34.9346113  56.3721752
  24.4844699  41.3728285  28.4474373  24.7296929  41.3770008  27.5221920
  24.2739677  42.2857666  28.6435485  80.5353633  65.0414893  14.2099397
  79.9904934  64.2603585  14.1141145  81.4335910  64.7119376  14.1814057
  72.4344472  53.6363173  57.8489399  72.6233052  52.9708195  58.5105085
  73.2915638  53.8694715  57.4922514  46.4774136  32.9472446  62.9497814
  46.4240150  33.3216333  62.0704556  45.7825999  33.3868718  63.4398746
  28.2784128  36.6241741  50.4989767  27.5032544  36.0670519  50.4284430
  28.3352518  36.8387246  51.4300871  43.8886689   1.9170387  21.7695093
  43.4707998   2.7755078  21.8376398  44.1766202   1.7194136  22.6607227
  51.1009442  69.7729847   4.3731086  51.7218935  69.7093841   3.6474292
  51.6506921  69.8612472   5.1517074  26.9203496  15.4463816  66.2742281
  26.0765767  15.8083451  66.5448999  26.7006326  14.6145546  65.8546782
   0.8919207  54.5630932  58.3978176   1.1079408  55.4895401  58.5039473
   1.4672972  54.1107988  59.0147448  33.3782125  28.5129189  55.0209856
  32.8152013  29.1571379  54.5917606  33.7903476  28.0368805  54.3000364
  24.9117112  49.7193670  39.8825073  24.8545361  48.8360214  40.2467299
  24.2383313  50.2147388  40.3487682  28.2013202  37.2468829  65.7720566
  28.4124398  37.0391345  66.6822767  28.9419651  37.7715898  65.4681540
  15.7734286   1.4556702  66.1754656  16.1068999   0.6187447  65.8520651
  14.8542165   1.4664229  65.9086990  24.0797242  70.2785799  10.4232471
  23.4352224  69.9677083  11.0590188  24.7968631  69.6472165  10.4809157
  68.5316340  13.1564951  47.8813696  69.4408004  12.8579164  47.8590631
  68.3969991  13.5777903  47.0324802  26.1360591   8.3168324  57.7039576
  26.4421774   9.0605648  57.1849298  26.9372365   7.8737839  57.9833412
  55.6536248   4.8980861  17.4563519  55.7355737   5.4261308  18.2505052
  54.7097723   4.8091607  17.3241918  66.0401009  64.8321633  23.7531869
  65.3410123  64.2918592  24.1214005  66.1355136  64.5198350  22.8534143
  12.7551150  61.4612341  64.0487909  12.4411535  60.5849552  64.2719412
  12.1442056  62.0534229  64.4873476  60.0597839  24.4008498  13.6905019
  59.4256349  24.9798827  14.1133611  59.5243241  23.7534480  13.2318322
  36.9035029  51.2081528  23.1577396  37.5441694  51.4307356  22.4822855
  36.6971040  50.2872372  22.9979181  19.9092257  68.3353186  57.1108055
  19.6147203  68.9543819  57.7788353  19.9952197  68.8628006  56.3167048
  54.0276289  32.1536803  62.4621582  53.0774307  32.2109389  62.5625181
  54.3575811  32.0590734  63.3556986  57.5661845  17.9111009   0.0989310
  56.8494280  18.5454850   0.0921456  57.1357961  17.0647340   0.2200191
  49.1633849  62.0123386  45.6285429  49.0677075  62.0439100  46.5804291
  49.9650459  62.5046635  45.4519415   5.7128358  57.1197891  37.4788094
   5.0755572  56.4459610  37.2420359   5.5764705  57.8151226  36.8352675
  20.5663943  46.0419178  55.4667521  20.8686209  45.8865118  56.3615942
  20.2808022  45.1821756  55.1576948  24.8476820  51.2334534  15.8212964
  24.3592855  51.7606804  15.1890485  25.7503792  51.5423629  15.7441918
   2.1634102  31.8896818  61.8723297   1.8829989  31.1324525  62.3863411
   1.6888648  32.6277733  62.2547674  59.6711196   1.8518786   4.0691249
  59.1657756   1.0550098   3.9083020  59.4258399   2.1161752   4.9558131
  56.1137438  31.5191913  58.1264591  55.4895782  32.0868468  58.5785818
  56.8844175  31.5106010  58.6941051  37.4848519   4.1092544   0.3972928
  36.6137253   3.7195020   0.4712026  37.4301682   4.6734338  -0.3740294
   1.6454118  36.7541242  51.7443180   0.7963025  36.4127016  52.0248079
   1.9338234  36.1478448  51.0620642  67.2679459  44.0754323   1.4906661
  67.7001701  43.4514623   2.0738284  66.3839446  43.7258248   1.3786571
   3.3133286  59.4060998   2.6143472   2.8832048  58.9728456   3.3515803
   2.8107494  60.2100186   2.4826018   6.8490470  65.6203572  60.6862354
   6.2542690  64.9895005  60.2806616   6.2721003  66.2467996  61.1231995
  18.0281448  39.3438005  66.6962385  17.5499177  40.1705885  66.6334200
  18.8968492  39.5929480  67.0116901  69.0582524  26.1339192  27.3442475
  68.7166820  25.2706628  27.5773828  69.4987796  25.9986072  26.5052812
   6.2552702  72.4930239  51.8967295   6.4929968  72.3841953  52.8175306
   5.6830168  71.7493916  51.7076015  66.8706636  49.5126390  63.2201958
  67.0063691  49.4189548  62.2773075  65.9513776  49.2818737  63.3539629
   3.6989298  59.8268700  59.2546272   4.1528875  59.9726486  58.4246254
   2.8149444  60.1627493  59.1063547  27.4841905  27.0844150  57.9450989
  28.4069443  27.3343873  57.8974295  27.1086359  27.3966193  57.1218586
  72.2776054  75.7589006  51.5811729  71.4012925  75.5241537  51.8864584
  72.7757774  74.9431944  51.6329479  35.5035996  38.0125999  20.9402514
  35.7263660  38.9327741  20.7992291  35.0094509  38.0087161  21.7600298
  37.3995983  56.2140319  29.8728864  36.8949812  55.8439466  30.5972020
  36.7783480  56.7772898  29.4113462  55.0869904  13.8349443  45.2697389
  55.7169983  14.4481473  44.8911874  54.5552256  14.3707376  45.8582799
  82.1062361  74.4656846  44.9337976  82.0942914  74.1340586  45.8316438
  81.4775597  75.1874754  44.9366872  78.7866045  42.4486971  51.9397402
  79.6881060  42.4271917  51.6187048  78.3813451  41.6650724  51.5683508
  31.1535075  63.8035604  17.3802678  31.1977645  64.3893763  16.6245572
  30.5666419  63.0997655  17.1036927  20.1269412  65.2983189  56.8139887
  20.7948089  65.4494953  56.1451626  20.0546813  66.1347961  57.2736835
  20.5818081  53.5452795  54.0669823  19.7133589  53.5260868  54.4690514
  20.4653525  53.1064701  53.2242966   0.4890412  20.7383018   1.5281837
   1.0580462  20.8535390   2.2892253   0.5265874  21.5787511   1.0716025
   4.6521738  46.4445972  47.7677536   4.7467053  45.4920769  47.7660704
   4.3659139  46.6553068  48.6565113   6.3871479  20.1810098  60.1671124
   6.4314610  20.8997869  60.7976913   7.3017699  19.9750173  59.9740696
  24.4560947  15.8559712  37.2500181  24.4396814  15.8474644  36.2929964
  24.6210306  16.7707165  37.4786186  25.4762173  39.2879438  56.4075613
  26.2283564  39.8148775  56.1376381  25.7530332  38.3832526  56.2621593
  11.8062019  35.5508113  64.4684219  11.1956823  34.8160625  64.5287561
  11.8385279  35.9088278  65.3555584  10.1794385  21.0303028  37.8840041
   9.5999979  20.9349449  38.6399055  10.7551252  20.2667053  37.9256773
  66.4053844  33.4891658   8.2880322  66.8178998  34.3193727   8.5264079
  66.4450668  33.4678321   7.3318927  79.0896644  35.8184814  45.6114531
  78.8413031  36.6857886  45.9313345  78.4820525  35.2199125  46.0459137
  37.0373189  72.4821541  12.1076600  37.2864258  73.3816239  11.8952100
  36.1073577  72.4325678  11.8864219  73.5646085  41.4047146  64.6433258
  73.4288721  40.5279636  65.0026464  74.0863709  41.2617970  63.8536596
  68.4835766  24.4265370  45.8873670  69.4402705  24.4569974  45.8936421
  68.2637463  23.9720111  45.0741593  49.4005191   9.0817364  57.9320145
  50.2819931   8.8054856  58.1828594  49.0548169   8.3475598  57.4243546
  61.5830474  39.2681127   7.8864400  62.1969698  39.8473935   8.3378474
  62.1302383  38.5648065   7.5369041  64.9251520   4.1759976  65.4957914
  64.4848048   4.3244656  64.6589613  64.9159943   5.0308998  65.9262466
  60.1318966  39.7138028  18.9247624  60.6975995  39.5223384  18.1767289
  60.7030748  39.6202474  19.6871488  66.5063505  53.0059481  34.6066594
  65.9370200  52.4391508  35.1270795  67.1835331  53.2927752  35.2193475
   2.9112324  59.3886280  46.8880081   3.2792556  59.1226053  46.0453749
   3.0934948  58.6525106  47.4720812  77.9594882  46.9655848  62.5495529
  78.3004661  47.1389198  61.6721010  78.6477534  46.4564753  62.9777241
  34.6155780  69.5614144   9.5119874  35.4904335  69.9058077   9.3323962
  34.0296876  70.1146433   8.9953582  70.6685768  51.6020112   9.1342847
  69.7489093  51.7982488   9.3129890  70.7705437  50.6837373   9.3845002
  77.6829408  38.4462886  31.1905305  77.0016669  37.7748303  31.1553018
  78.4903644  37.9597812  31.3566987   7.7396191  64.8580746  52.4933004
   6.8105877  64.8131911  52.7193928   7.9171789  65.7934670  52.3945856
  31.4354849  65.6233025  42.9334068  30.6881332  65.2486229  43.3995724
  32.0663548  64.9056911  42.8762341   5.7576674  39.1740584  61.0119534
   5.6858772  40.0038481  61.4836788   5.5275410  39.3914032  60.1086044
  78.3971508  15.6890726  65.3810978  78.8150678  15.1174068  66.0251284
  77.9757206  15.0889444  64.7658920  71.8875806  50.3475618  54.2278004
  72.7560238  50.7500219  54.2196369  71.3340978  50.9814978  54.6838903
  21.5474223   3.7647300  27.6608388  20.7812570   3.2877021  27.3419873
  21.9938825   3.1436305  28.2362859  18.1494974   7.9453425  27.6505296
  18.9313506   7.4165969  27.8097932  17.4198745   7.3669581  27.8726785
  41.4960872  26.7439942  18.0642526  42.3868059  27.0855002  17.9853360
  41.4240025  26.0982423  17.3613755  71.8385629  53.2940674  44.7247410
  71.9548075  53.6060238  45.6221819  72.1038888  52.3748589  44.7544336
  61.9885497  64.9195671  54.0782213  61.1610059  65.3281260  54.3321609
  62.1019296  65.1596737  53.1585884  75.1502179  50.6554704  10.9814374
  76.0220168  50.9802251  10.7561843  75.3124092  49.8268609  11.4323632
  17.9084313  38.9933848  53.9256048  17.8499389  39.8376703  54.3728113
  18.4003842  39.1795278  53.1258774   6.4779860  58.7393284  62.1249866
   5.6718445  58.2719326  61.9061041   6.4094013  58.9080620  63.0646992
  43.6463200  48.4043536  16.7750279  43.1409764  49.2025492  16.9291131
  43.4436464  47.8441814  17.5242631  15.4226887  49.9674749  47.8703785
  15.7239628  50.2653694  48.7287045  15.9222817  49.1678238  47.7054501
  47.8645182  44.3937635  63.1067038  48.2886648  45.2516937  63.0898619
  47.9443598  44.1049099  64.0157795  78.3956970  48.6452723  51.8152714
  78.6946060  49.4949389  51.4913034  78.8418136  48.0064964  51.2592363
  61.9608216  41.4998155  23.7200086  61.7364661  42.1750550  24.3602769
  62.7188329  41.0538631  24.0978639  77.1446298  14.6393256  15.6347863
  77.4823974  13.7754302  15.3984944  76.2714218  14.6702104  15.2439134
   9.9159664   6.4244370   0.7712523   9.2002887   6.8957477   0.3447454
   9.4965786   5.6619220   1.1698930  61.1678366  67.2019196  49.5153713
  60.6990318  67.7929211  48.9261580  60.4963712  66.8821192  50.1179457
  22.2323793   8.3831601  17.1402375  22.0916838   9.0835958  17.7772824
  22.8950828   7.8223186  17.5433747  65.0025813  25.2400613  40.6073856
  65.5560283  25.8740616  40.1513481  64.1187613  25.4190731  40.2863741
  56.2929706  69.7085094  38.8007879  56.5581564  69.2420292  39.5934415
  55.3384022  69.6384525  38.7896800   2.0283617  55.9858322  37.3761368
   2.4638554  55.3126574  37.8990221   1.8288141  56.6827917  38.0011678
  80.0693281  56.7303324  45.2778387  80.3618949  57.5337267  44.8474884
  79.2703797  56.4857578  44.8108339  57.3720317   4.4074922  29.0888898
  56.5775852   3.9027362  28.9147965  57.7868058   3.9554553  29.8236386
  50.0341825  12.5649362   8.3330934  50.6674407  13.2801394   8.3939139
  49.2007403  12.9980235   8.1485860  53.2057409  42.6564407  66.0710859
  52.6714377  43.0642509  66.7525864  53.9185814  42.2313452  66.5479326
  33.9638805  14.5696171  63.3445263  34.5861094  13.8431271  63.3087540
  34.5096277  15.3547772  63.3007431  37.1549093  77.0453641  10.3631465
  37.3800134  77.9748389  10.3226916  37.9988276  76.5938136  10.3514306
  61.5727578  17.0778613   9.0519063  61.3873957  16.5812640   9.8489444
  62.5074540  17.2770457   9.1057460  77.9523967  39.4682221   7.3498170
  78.1059168  40.0097995   6.5756385  77.4802016  38.7045388   7.0180814
  18.8615417  47.9741430  49.6487951  19.5163095  48.0174351  48.9519167
  19.3720138  47.9896736  50.4583693  58.1343903  18.9740329  45.1395051
  57.7312539  18.3900361  45.7818906  58.0785920  19.8428159  45.5374162
  34.7899316   6.6050010   9.0304725  35.2918588   5.7959180   8.9320724
  35.3435133   7.1656804   9.5740001  14.9042892  76.2938067  19.2637269
  14.9004339  76.0823867  20.1972787  14.6558677  77.2174498  19.2262952
  78.2065426  64.6948099  40.2846146  77.4347634  65.2168941  40.0654888
  78.5737254  65.1230478  41.0579300  57.2555892   9.3740611   4.9443452
  57.3649190   8.8006883   5.7029740  56.6649337   8.8936715   4.3641822
  28.2860039  20.2663569  37.9387586  29.0382670  20.0617509  37.3833673
  28.6498927  20.3272109  38.8220040  69.3271164  53.7733603  43.0984020
  68.9935879  54.6553993  43.2627201  70.2574853  53.8244104  43.3175850
  54.6680979  45.6413269  61.1346149  54.6677331  45.4655886  62.0755434
  55.0341110  46.5222549  61.0556316  22.7545190   4.2863235  43.9568377
  23.1607890   4.5910510  43.1454706  23.4792495   4.2245087  44.5790720
  60.4265296   4.4461163  59.6097565  60.2892648   4.9020012  58.7793589
  61.3443958   4.6116932  59.8250198  65.7381980  49.2725945  46.4249897
  64.9251394  48.9873552  46.8418884  66.2410883  49.6765375  47.1322155
  22.8026748  59.8336744  54.2193651  22.2577953  59.4269753  54.8931122
  23.7007093  59.6832371  54.5145464  72.3155521  15.8881621   5.7604806
  72.1220265  16.6550164   5.2213017  72.4831055  15.1879745   5.1296870
  24.6507835   3.7302597  46.3430452  23.7783229   3.6240967  46.7222214
  25.2286313   3.2452973  46.9322252  38.1266832  68.5859060  64.8833847
  38.3743668  67.7975178  65.3664255  38.1898522  68.3323479  63.9625406
   8.3349824  69.3985271  57.1420383   7.4775767  69.7973871  57.2903490
   8.4518886  68.8005447  57.8802681  28.6403691   9.0615853  62.7219534
  27.8927514   9.3965538  62.2268867  29.3584140   9.0446194  62.0892143
  69.7061066  59.8450470  37.5966191  70.5586664  59.6889448  37.1904087
  69.1596453  59.1203594  37.2925711  21.1797404  37.1977258  42.4858904
  21.8800759  37.8483295  42.4361229  21.5938544  36.4296770  42.8793907
  42.1831702  55.6918244   3.3405082  42.8784536  55.4220395   3.9405314
  41.5422295  54.9821000   3.3820121  28.6284754  41.4328774  58.5710192
  28.6226932  41.8205174  59.4461966  28.2399651  42.1036156  58.0094099
   4.9798000  58.2724428  35.1938200   5.5869961  58.3918476  34.4635534
   4.3354845  57.6433992  34.8691773  35.7375651   6.2152966  56.1460257
  35.2209645   5.9518059  55.3844976  36.0812401   5.3942021  56.4980507
  45.1676492  22.9450183  13.1685750  44.9602519  22.2065406  13.7411801
  46.0523884  23.2055621  13.4246652  31.1166077  15.0941189  34.9579310
  32.0263561  15.3746231  35.0574756  30.9224730  14.6195801  35.7662320
   8.3026022  27.3178630   8.6441915   9.0116519  26.9446425   9.1678206
   8.2874316  28.2436852   8.8867919  14.5132291  50.6673288  17.5797915
  14.0505147  51.1576080  16.9002688  14.4656479  49.7557068  17.2918367
   4.3818733  44.9340868  54.7951221   5.3123122  45.0196552  54.5872927
   3.9390206  45.0196648  53.9508533  81.0354660  11.0613732   4.4036500
  80.3114961  11.6817908   4.4884030  81.5611313  11.4039998   3.6807935
  47.3752271   1.7166718  35.9809566  47.1550929   0.9863241  35.4027152
  47.3895990   2.4816426  35.4057646  73.8346945   6.8432097   5.1067082
  74.1178475   7.6416020   5.5523793  73.4534405   7.1504025   4.2842023
  10.2541489  17.2643428   4.9933068   9.5821446  16.5957360   5.1259915
   9.9660844  17.7424436   4.2156999  38.5995525  24.3835454  19.0187947
  38.7557930  24.3863063  19.9631516  39.2179579  25.0265269  18.6718385
  34.1568254  41.5770154   9.0481679  33.5571979  42.0542436   9.6216933
  33.7048052  40.7544427   8.8603036  15.5527759  58.0741215  61.8833494
  15.6309354  58.6681509  62.6298428  15.1551259  57.2831392  62.2473001
  78.2297634  55.6654649  31.2217919  79.0138815  55.2535062  30.8589093
  77.7090166  54.9355702  31.5569226   4.3861383   7.5875859   0.4781787
   3.6320657   8.1748586   0.5302732   4.1110701   6.8975644  -0.1255115
   1.5694946  21.6087871   5.8931033   1.8572420  20.9638648   6.5392510
   1.9009370  22.4436097   6.2239234   6.6573805  47.6547909  65.7237530
   6.1692107  47.4744797  66.5271282   5.9880143  47.9101610  65.0889540
  23.7547135  71.5720463  40.7155228  24.1813803  70.7336140  40.8922100
  23.1119466  71.3748169  40.0342131  75.1917480  71.6582155  56.6982651
  75.4846404  71.4517879  55.8106661  75.9011309  72.1835327  57.0684671
  63.8726167  18.2225661  28.0850427  63.9428298  18.7095742  27.2639958
  63.4297805  17.4089723  27.8438203  34.6239363  67.1272275  14.2172734
  35.2748208  66.4419529  14.3688695  35.1168256  67.8400204  13.8108079
  30.1370358  71.7907095  54.1171646  29.4648504  71.5097523  53.4963083
  30.4933453  72.5937891  53.7372398  41.5673100  76.6914055  11.3167970
  42.0379483  75.9265849  10.9854667  41.1060666  76.3714525  12.0921151
  15.2898276  67.4406815  45.2260685  14.5291770  67.5636148  45.7939863
  14.9529958  67.5802517  44.3410254  60.4166792  19.7224765   6.6395871
  59.9907868  20.1974015   5.9259383  61.3529651  19.8132949   6.4625184
  24.9028993  48.0959129  64.2626667  25.0369239  47.2108603  64.6017122
  25.0155759  48.0093908  63.3160686  12.1282953  43.9935784  16.0101239
  11.5079254  43.9070992  15.2863233  12.0453304  43.1730561  16.4960210
  39.9431370  44.7670274   1.8028895  40.0161324  44.0041928   2.3764722
  40.7587288  45.2488713   1.9402234  13.8004351  59.6325064  50.4361486
  14.2226577  60.4474020  50.1643038  14.4114470  59.2432880  51.0617733
  26.8459652  75.0955777  11.4267795  26.0434221  74.7886472  11.8486230
  27.3444079  74.2975431  11.2509219  31.4989138  66.9861269  63.8587093
  30.9390807  67.7585983  63.9368582  32.2454000  67.1727371  64.4280672
  34.0946960  63.8001394  47.8170729  34.7055030  64.0402699  47.1203089
  33.8716674  62.8870821  47.6359224  15.4090296  10.2812298  46.0390377
  14.4598138  10.4004009  46.0709429  15.7387888  10.7847412  46.7833233
  13.4778208  14.1134410   3.5507457  12.8729719  14.6448140   3.0330293
  12.9153341  13.4917693   4.0126626  68.6789267  45.2113962  55.3607988
  68.5301559  44.9148321  54.4629431  69.5222096  44.8286200  55.6028461
  68.3219419  17.2291284  15.4941098  68.9442776  17.8068213  15.0523011
  67.9451679  16.7002969  14.7908227  10.2384865  57.7835989  35.7458425
  10.0694144  56.8759298  35.4933000  11.1897480  57.8327084  35.8402967
  31.1322999  60.5153179  32.7497172  31.2187815  59.6532583  32.3427701
  31.9455886  60.6308985  33.2410789  80.8155452  51.7274094  54.0269089
  81.1077007  52.1405458  54.8394346  80.2054687  52.3576260  53.6436749
  69.9196469   5.5700691  47.1484327  69.6607625   6.2722595  46.5516520
  70.1599108   6.0203751  47.9582071  75.9447084  66.7130709  40.3905535
  75.5065189  67.0248556  41.1823940  76.3436441  67.4970484  40.0131035
  20.2935838   1.2157305  63.6201763  21.0520100   1.4007481  64.1740608
  20.1685267   2.0160349  63.1101704  37.2363859   2.2259243  63.6623573
  37.4154138   1.2924917  63.5488272  37.9967546   2.5594433  64.1386318
  80.9482430  50.3971009   0.1221196  81.2768935  49.9536042  -0.6598838
  81.0448001  49.7513680   0.8220784  55.3102651   3.4830623   5.9398763
  55.9984969   3.6780934   5.3038470  54.6074754   3.0928521   5.4202096
   4.3060446  67.8241253  57.3985481   5.0757903  67.3192453  57.1362114
   3.7116310  67.7604008  56.6509914  45.4816472   2.5437935  57.2663164
  46.3684749   2.3524864  57.5715542  45.5222582   2.4178465  56.3183069
  30.8175545   2.8434475  26.6223764  30.5207952   2.2056206  25.9732723
  31.4379894   3.3969124  26.1480689  74.2136441  26.2955909  10.9471528
  74.9796437  26.6466336  10.4930083  74.5775495  25.7723622  11.6613214
  46.1770575  12.6794915   9.1975896  46.1495487  12.3257356  10.0865953
  45.5315278  13.3862548   9.2009704  11.0983407   1.2360152  48.4616041
  10.4610931   0.9354170  47.8136969  11.4194607   2.0679100  48.1136560
  21.0225153  64.0558863  27.0063519  20.8727646  63.1391478  27.2374201
  21.9670701  64.1763067  27.1040654  58.5206854   0.8139523  40.7765579
  58.5540497   1.6758640  41.1915636  57.8330790   0.8929404  40.1153564
  70.4011618  38.8885506  50.9040499  69.9069249  39.6817215  50.6970644
  70.5200040  38.9212712  51.8532801   2.4838323  55.8567624  26.5453832
   2.9253787  56.0754590  25.7247464   3.1047195  56.1133771  27.2272126
  34.2871308  57.6536751  42.4269676  33.5403252  57.3362827  41.9192505
  35.0529647  57.3104191  41.9666290  73.8235228  62.5738239  47.2997284
  73.8237278  61.9540358  48.0291748  73.0288498  63.0922318  47.4261379
  13.9761442  18.7611823  44.3822686  14.6790165  19.0674739  44.9553220
  13.3798212  19.5069127  44.3150250  39.2759429  52.7753835   8.2515399
  38.3714186  52.9700856   8.0062692  39.2738269  51.8391709   8.4508864
  50.5002268  17.7663426   8.9956634  51.2776928  17.7703290   9.5540206
  50.8041821  17.4017816   8.1644361  62.4915050  53.2909589   7.1097629
  62.6460920  53.2617955   6.1655824  63.0183594  52.5731187   7.4610059
  60.6007604  23.6965041  10.6005113  59.8244761  23.2476859  10.9354417
  60.8470951  23.1992250   9.8205916  28.9732862  50.1606846  66.0052347
  28.8363504  51.0951567  66.1609411  29.8874402  50.0093031  66.2453127
  63.7837194  60.3777032  33.2723729  64.2530052  59.6135144  33.6070554
  62.9687254  60.0220590  32.9180734  27.5796580  62.3593378  60.9636497
  26.7958617  62.0726252  61.4323664  27.8855538  61.5758085  60.5067682
  74.4932483  13.7408738  15.2666108  74.3355165  14.1689258  14.4251077
  73.9087211  14.1901212  15.8771340   8.6508644  49.7891855  58.1163311
   8.2397705  50.5690527  57.7434492   9.5126504  50.0881910  58.4064198
  23.5835022  38.4445004  27.3678605  23.4811157  38.7611012  28.2653634
  23.6849541  39.2389970  26.8437211  64.0621440  17.6791720  24.8861329
  63.3443598  17.7917914  24.2629640  64.2793857  16.7483192  24.8355786
  34.5984559  62.0334837   2.0582358  34.6592694  61.3841507   2.7588813
  34.9338960  62.8401133   2.4494664  41.6136300  26.4278610  65.4239655
  41.6549527  26.5695675  64.4782162  42.0083224  25.5656441  65.5544329
  19.4147652  29.4421776  64.2612553  18.6492800  29.3771942  63.6902571
  19.7598218  30.3203877  64.1002321  10.3054476  73.4466839  66.0207272
  10.3721309  72.4993467  65.9009695  10.6460762  73.6012840  66.9018078
  59.9713616  70.6018453   2.5240438  60.8519094  70.3018670   2.7496259
  59.4806917  70.5422025   3.3437507  71.1330830  16.2902312   2.7572839
  71.1531161  17.0825391   3.2940166  70.2015363  16.1052947   2.6379125
  30.6689494  13.4494312  55.9748173  30.7908734  13.3471306  56.9186926
  31.5471788  13.3489712  55.6075907  35.4546880  60.5193111  -0.0267966
  35.3543001  61.1657736   0.6719462  34.8193829  59.8357627   0.1862304
  72.2459625  35.8738999  15.9494798  71.3145934  35.7118135  16.0995214
  72.4684380  36.5759616  16.5609090  39.7044383  10.2337651   6.9211928
  39.7377871   9.2920356   7.0893065  39.4865356  10.3035741   5.9917419
  64.9792157  48.6157517  31.2067525  64.2294972  49.2108159  31.1988084
  64.6061633  47.7634721  31.4318578  29.9794054  66.5008688  50.0787163
  29.1584325  66.8480682  49.7298813  29.7392845  65.6567669  50.4609060
  76.6507600  13.0365758   6.6733806  76.1194991  12.4762874   6.1076324
  76.1773036  13.8680654   6.6997449  66.7653106  25.9475522  10.2502696
  67.2664760  25.7602029  11.0439698  65.8912192  26.1752038  10.5670802
  78.1006502  49.3113141   4.2324988  77.1760820  49.5558171   4.1922204
  78.5240196  50.0473695   4.6743266   4.1601890  74.7134500  33.2819192
   3.5097903  74.3086724  32.7080075   4.2331594  75.6133561  32.9639833
  82.0429586  20.2750163  23.2610433  82.3263286  20.9378486  22.6312940
  81.1014722  20.4203277  23.3544080  29.7939658  63.3108187  56.7922449
  30.1386166  64.0874767  57.2329855  30.2493954  63.2911730  55.9505606
  36.7692041  58.8584995  15.0475204  36.7228770  59.7989559  14.8753798
  36.0636950  58.6945152  15.6732965  69.7872309  56.2312412  55.2400541
  69.1355507  55.8776951  55.8454847  70.5925421  56.2777424  55.7553625
  17.3766983  26.7497611  43.8010979  17.0753980  27.4520302  43.2246733
  16.9874156  26.9541645  44.6513414  81.6978119  20.0290923  14.5904462
  81.9874094  20.5056052  15.3684632  81.2307619  19.2682128  14.9356477
  61.0825060  18.1250529  18.1389539  61.1497144  17.2203879  17.8335111
  60.2247135  18.4184508  17.8318040  60.8558820  20.1505761  11.6498868
  60.6850325  19.9316173  10.7338635  60.0309603  19.9647479  12.0984427
  71.6647295  66.7283249  64.5786858  71.7566733  67.6768208  64.6688461
  70.7902710  66.6065264  64.2089319  22.9675746  61.2893057  41.8571043
  23.2347012  60.8207512  41.0663223  22.3840499  60.6808424  42.3104286
  50.4754181  61.5322690  21.1737840  50.9138595  60.6859212  21.2615697
  50.5157484  61.9149594  22.0502202  33.2555311  10.3243454  21.5416479
  33.0637812   9.4717415  21.9321966  32.5347232  10.8859452  21.8267441
  18.1241500  65.6648302  33.7163782  18.5116649  66.2690830  34.3495798
  17.2594762  66.0321569  33.5329556  15.8816350  51.3214159  57.7096701
  14.9536538  51.5196514  57.8353167  16.0399640  50.5559397  58.2621288
  33.1550455  46.7512941  63.3160305  32.3402262  47.0286989  63.7347746
  33.7045336  47.5350571  63.3185434  61.4023642  38.3288054  16.6115014
  62.2640572  37.9163222  16.6712873  60.8988266  37.7497773  16.0393064
  15.7333333  16.9374092  42.5118923  15.2179582  16.9008263  43.3176756
  15.6111486  16.0772236  42.1101713  79.8031662   8.6416535  19.0067784
  80.2393316   8.0998950  18.3491437  79.0670322   9.0379863  18.5406701
   7.5296658  20.1852374  12.9315726   7.9209131  19.4843488  12.4101178
   6.9327730  19.7346597  13.5290067   7.2049475  47.5098753  50.8441257
   7.5833011  47.6312017  51.7149639   6.3899779  48.0114889  50.8650541
  15.6831020   1.2506442   2.7409665  14.9904674   0.9361296   2.1599595
  15.3407234   1.1045342   3.6228148  78.9745925  54.4117360  12.6408736
  78.0863498  54.0728383  12.5294797  79.3608378  53.8539319  13.3160798
  34.7230506  66.5640163  63.3908939  34.1976738  67.2260141  63.8403034
  35.0406623  67.0047760  62.6028013  81.6119598  38.7678580   1.9458835
  82.1419333  39.3451552   2.4955050  80.9657095  38.3938127   2.5447814
  32.1175838  65.7563877  47.6030207  31.5104127  65.9971857  48.3027267
  32.8214121  65.2847242  48.0484343  31.5170854  56.0721784  14.1186921
  32.2986454  55.5267434  14.0298287  30.9432644  55.5752664  14.7018258
  12.6880818   6.4596666  35.2393930  13.1119388   5.6278432  35.0280969
  11.8961351   6.2107003  35.7159059  51.6617198  38.4350591  19.1779820
  51.8354885  38.1095796  20.0612180  51.8190984  37.6811223  18.6096208
  36.8753415   0.2132614  39.6573400  36.5093594  -0.4209701  39.0408683
  36.4258068   1.0331591  39.4525909  52.0122671  76.2027454  59.7042036
  52.5544739  76.6300917  60.3672361  52.0155096  76.8100548  58.9643431
  43.9056724  51.8346410  18.7088601  44.3459600  52.4765306  19.2659585
  43.0411190  51.7265039  19.1051976   4.4910616  29.6090560  24.3771379
   5.0690335  29.7907214  25.1182000   5.0220817  29.0777640  23.7838571
  64.2238902  63.0531793  24.4840257  64.6919309  62.3168283  24.8776643
  63.5519634  63.2809358  25.1265733   4.1459793  13.2696919  11.8511645
   4.7376627  13.0955224  12.5831525   3.3050627  12.9086595  12.1317880
  14.4450481   5.9020718  59.6699858  14.3343885   4.9618443  59.8112440
  13.9519984   6.3108071  60.3813696  47.4832296  68.1924486  38.1009912
  46.9166756  67.8053904  38.7684011  47.0248604  68.9877319  37.8296018
  31.4445140  28.7968167  44.7084761  31.4693614  29.4953640  45.3624249
  31.9863673  28.1009968  45.0805807  29.7650379  23.4880548  20.2681748
  29.7223085  23.3180528  19.3271653  30.3674883  24.2272668  20.3509156
  34.8108745  66.0963011  25.2141905  34.0903878  65.8708668  24.6257091
  35.6012869  65.9001637  24.7111893  43.3255005  75.4229689  35.6620932
  42.6951694  75.6956863  34.9953485  43.1357956  75.9834146  36.4145207
  70.1128982  36.2336450   2.9570786  70.2022146  37.1368556   2.6529996
  70.4114924  36.2563663   3.8662259   3.1670156  31.9468236  53.9437819
   4.0079582  31.6725326  53.5779762   2.5583056  31.2523866  53.6918640
  81.2687694  25.8786654  60.5314732  80.3231889  25.7876110  60.6490278
  81.3959604  26.8036890  60.3207970  16.1741649  15.2528211  12.3597161
  16.4334153  14.3554708  12.1504704  16.8213569  15.7992527  11.9138639
  18.1778312  48.8898945  57.9068708  18.1265748  47.9361248  57.9695749
  17.4668288  49.2051554  58.4648275  29.0614510  19.9689937  33.6147738
  29.8153281  19.7132671  34.1462851  28.7383795  20.7701349  34.0271211
  51.8496262  71.7660354  49.0142107  51.7957421  71.0993330  49.6989250
  52.7408013  72.1085344  49.0830040  31.3694655  58.3930406   1.1263721
  30.9144600  59.0386698   1.6670815  31.1115845  57.5479206   1.4944760
  67.4814337  61.4060156  65.5060482  67.1177047  60.8273010  64.8359537
  68.4292143  61.3439111  65.3873539  35.7339740  12.5243735  64.0891075
  35.8287525  12.4629509  65.0396204  36.5935683  12.2796869  63.7463856
  81.4138560  23.8127112  42.5957632  80.9507891  23.0081034  42.8290224
  80.9535187  24.1383457  41.8222761   2.6677394  49.6560192  57.1701574
   1.7225894  49.5152903  57.1143103   3.0284324  49.1521788  56.4405775
   0.9663466  48.5866117  45.8632421   0.2650937  49.0285730  46.3419342
   0.7284451  48.6885405  44.9416971  57.4091749  46.8059015  62.7574253
  57.1561913  47.0578957  63.6455297  57.0485739  47.4960470  62.2007370
  67.9071121  23.6714435  38.3246017  68.5955004  23.2458878  37.8134680
  68.1499104  24.5973253  38.3292675  61.0037886   4.2459731   5.5787007
  61.6936551   4.5455508   4.9866120  60.7655536   5.0244098   6.0821979
  47.0402472  77.0556115  40.2343273  47.8603106  77.5438409  40.3075409
  46.6234945  77.1577316  41.0899687   0.0180878   9.9171418  51.0389709
  -0.4419084  10.0399387  50.2085781   0.8984695   9.6391207  50.7862616
  42.0370757  61.8648478   5.7986323  42.2599339  61.1383507   5.2165906
  41.7474519  62.5625393   5.2107732  66.5940224   3.9546351  21.6305272
  66.3940130   4.5258908  22.3720758  67.5430380   3.8357692  21.6689031
  27.3835826   5.7059413  54.1519499  27.0206666   6.5637344  53.9312363
  28.2740998   5.7252520  53.8014650  48.5580503  74.5062755  37.0381379
  47.6110332  74.3724398  37.0766020  48.8594817  73.8935695  36.3673449
  66.6450851  61.6364364  57.2425652  66.5187078  61.5044991  56.3029623
  66.4216702  62.5558428  57.3875093  64.4839959   6.9129229  31.0969257
  65.0335590   7.5235540  31.5881920  64.0101318   7.4646306  30.4745889
   9.1757751  50.5336142  41.5739584   9.1772902  50.7365656  40.6385231
   8.4113288  50.9956312  41.9180441  23.1693383  47.3302850  16.8001573
  23.7750380  46.6297427  16.5580861  22.3509606  47.1023807  16.3590829
   2.8935969  69.8514175  26.6108418   2.5718424  68.9702606  26.4203882
   3.5221589  69.7283316  27.3221731  57.1966755  60.2894351  11.4989297
  57.3302709  60.0215670  10.5897347  58.0672919  60.5451485  11.8036763
  11.5420413  62.3370504  29.4325209  11.5553749  61.6372681  30.0854850
  10.7172000  62.2112513  28.9634347  63.6613415  48.5625844  15.5056970
  62.7445273  48.5300832  15.2325170  63.9882277  47.6759248  15.3533475
  59.9367820   8.6993651  16.8555562  59.7102909   7.8383451  16.5040128
  59.8723350   9.2892413  16.1044709  30.0494846  64.0416190   9.0205733
  30.3874250  64.6135232   8.3314054  30.8131891  63.8418385   9.5619361
  59.4137891  75.1468071  63.8169861  59.9682974  74.6397374  63.2240009
  58.7718352  75.5665867  63.2443476  72.6587842  12.9685605  57.0005941
  73.1584547  12.7253890  57.7799702  71.7815511  13.1641793  57.3298788
  72.7325271   7.8463130   2.7250878  72.7756868   8.4972959   2.0246665
  72.4071406   8.3315234   3.4833257  27.1678858  74.4679138   8.1985394
  26.8451846  75.2931186   8.5606591  26.7308706  73.7919089   8.7164847
  24.3403125  45.8252859   7.7563626  24.2470217  46.4666080   7.0519215
  25.0577259  46.1618948   8.2932490   3.0526116  63.5449266  47.3490191
   2.3516107  62.8931999  47.3581171   3.1406930  63.7890959  46.4276838
   3.3218813  56.0156250  45.3425837   2.4655747  55.6110668  45.2036524
   3.3848709  56.1230803  46.2916422  64.1657154  35.7856607  62.0932055
  64.9366359  35.3613234  61.7165756  63.5116272  35.0889587  62.1480274
   5.7715523  64.3742037  18.7539279   6.0863841  65.1781988  19.1670918
   6.0718185  64.4374037  17.8472435  71.5704398  27.3066020  55.0084496
  70.9657256  26.5742612  55.1277447  71.3691298  27.6436758  54.1354752
  50.0758850  53.2858118   1.5364186  49.9436151  52.8666803   0.6860845
  50.5942260  54.0663490   1.3406770  47.8073882  62.9393307  20.4566026
  48.6842792  62.5620083  20.5267596  47.7732807  63.5968498  21.1513972
  53.0698185   9.9035287  50.2177954  52.8713660   8.9710855  50.3038073
  53.9901785   9.9768186  50.4703808   7.3516232  17.6520431  64.5233250
   8.1875831  18.1067240  64.6266127   7.2501284  17.5493813  63.5770750
  67.5139253  50.3983831  32.6085949  67.7333359  51.0171700  33.3051538
  67.0804207  49.6738911  33.0596113  52.5085071  74.2562131  66.6289330
  53.2861867  74.7490738  66.8907261  51.7766573  74.8403002  66.8276072
  68.8912897  40.6394768  49.4746828  67.9403214  40.6481504  49.3659782
  69.2060344  41.3245726  48.8849306  31.4904710  72.5974247   0.4281346
  31.9804593  71.9861814  -0.1218875  32.0003843  72.6541015   1.2362258
  62.0754004   1.4852232  41.6430426  61.8659830   0.5597083  41.5173483
  61.7177439   1.9190675  40.8683872  50.6541769  20.5781560  47.0656411
  50.6198962  21.3651090  46.5217988  51.2172876  19.9755960  46.5797822
  45.2764605  11.4224868   0.1604716  44.7074608  11.7420964  -0.5397590
  44.9974237  11.9085126   0.9364573  64.4002203  73.7216568  30.8136177
  65.0750093  73.8403320  31.4820552  63.5924701  73.5886383  31.3096809
  28.9694166  44.7369099   3.6222273  28.0866098  44.7956848   3.9875075
  29.5433712  45.0106573   4.3376780   0.4426894  66.2582541  34.4603109
   0.2173748  66.9228077  35.1113367  -0.3485079  66.1647844  33.9297438
  49.0846014  11.1614227  54.8225832  48.2618523  10.6904900  54.9550056
  48.8967276  11.7773104  54.1143322   8.4621251  39.7468662  49.3596983
   8.3934098  38.8341737  49.6398783   9.1265696  40.1248789  49.9357653
  51.7951071  70.1276967  28.8804166  51.5524041  69.8030898  28.0132596
  52.7375471  70.2847168  28.8222425  31.0933828  16.0152245  50.4419422
  31.4782453  15.6029022  49.6685696  31.7743111  15.9508204  51.1115789
  71.8147985   4.2695478   7.8469950  72.0363401   3.5183445   7.2966820
  72.6256941   4.4721204   8.3135188  17.6740563  55.6448746  29.5907569
  17.5551164  56.2187624  28.8339591  18.4185076  55.0906897  29.3564463
   5.2942461  12.9385953  22.1884553   4.4477219  13.3513837  22.0174806
   5.1299518  12.0017486  22.0809762  63.9396624  37.0371580  64.6477890
  63.9327888  36.8589258  63.7073565  64.6914415  37.6155186  64.7764635
  10.2898920  56.6751766  46.7381620  11.0792387  57.2165775  46.7312860
   9.5684099  57.3038816  46.7588282   3.8643605  26.4180636  23.8361168
   4.5301396  27.0425272  23.5479951   3.7919515  26.5633750  24.7794485
  41.4196682  36.9323158  30.0793624  42.0112848  37.5493431  30.5100632
  40.9226799  36.5372491  30.7957125   8.7734389  23.1335497  46.5895271
   9.0496480  23.7246799  45.8891630   9.4578987  23.2130623  47.2539234
  19.1190803  12.5688827  50.8972931  18.4866869  11.8508327  50.9239960
  19.8028517  12.2637856  50.3009701  74.7145800  72.1612883  50.3970766
  75.0151859  71.8523312  51.2517214  74.9290971  73.0941200  50.3905964
  32.0359793  14.9224671  57.9690409  31.2583410  14.8339947  58.5201120
  31.9495346  15.7882317  57.5700283  28.0210924  45.9031868  46.5991306
  27.9710817  46.3209581  45.7393646  28.9590883  45.8214283  46.7714977
  68.6936585  18.4551930  51.0806084  68.1922452  17.6513505  50.9440327
  68.0387346  19.1060388  51.3330078  80.7936708  41.9137767  13.4802167
  81.3614455  41.1845306  13.2310979  80.0382010  41.4980203  13.8957231
  54.9457316  45.6902075  50.4526663  55.3842406  45.7980824  51.2966442
  54.8067908  44.7464323  50.3738451  75.9671001  28.1354284  28.2160497
  76.1259524  27.3491096  28.7382603  75.0557606  28.3641863  28.3987045
  63.3761935  49.7515345  58.5312939  63.3138220  50.6995201  58.6481953
  62.6998548  49.5447350  57.8862858  78.5429184  19.3298888  34.3961978
  78.4500743  19.0198588  33.4953690  77.6585947  19.5927298  34.6513820
  64.4560396  39.6330713   4.7265212  64.5663130  39.4865284   5.6659858
  63.5438978  39.9076021   4.6323792  67.2519986   3.2272229  46.7766571
  67.4744145   3.9106974  47.4088192  67.9459111   2.5752330  46.8747663
  74.6141438  41.8513966  38.3748841  74.0558223  41.6047430  39.1122246
  75.4862164  41.9494915  38.7571120  29.3639016  27.0045352  44.2895031
  29.5338893  27.9450583  44.2370510  30.1786613  26.5971255  43.9955330
  68.2850902  64.4466162  48.9147186  68.1131892  65.3780937  48.7767744
  67.9190712  64.2610073  49.7794819  12.1020103  53.5009241  55.0352669
  12.1868443  54.3404531  54.5833540  12.8645551  52.9973888  54.7502947
   7.8376597  12.9595006  56.7579603   8.0281270  12.6693332  55.8659124
   7.0459425  13.4907436  56.6731167  15.0390267   8.0211723  58.3329487
  15.0884271   7.2567415  58.9069176  15.9177160   8.0988359  57.9613256
  18.0745882  15.2391820  23.0749337  17.8106779  14.9611907  22.1978395
  19.0170711  15.0746827  23.1048791  20.3748822  24.6638608  27.9686642
  20.2881885  24.9746776  28.8698339  19.4929528  24.7376132  27.6039815
  72.5685392  34.2804527  48.5558653  72.1336458  34.8034859  49.2293215
  72.8986637  34.9239588  47.9288530  58.1828622  17.6832235  47.5420666
  58.8981394  17.0680046  47.7036619  58.6064415  18.5411656  47.5147343
   9.9944693  51.0468292  49.6274471  10.0416994  51.9740248  49.8605061
  10.9039986  50.7490015  49.6443033  54.4742929  57.4452755  22.0272843
  54.7194826  58.3701929  22.0019547  54.3972933  57.1926197  21.1072461
  54.4102918  58.5449907  16.8491952  54.6210801  58.2466814  15.9644238
  53.4821045  58.7754723  16.8094747  18.9308321  41.6925621  34.2182255
  18.7914312  40.7462406  34.1824841  18.6887729  41.9367456  35.1115394
  30.8272883  58.8074967  13.2733838  31.2840717  58.0978069  13.7249581
  30.1789200  58.3647928  12.7257888  35.2584863  48.7595987  62.6415443
  34.7819304  49.3905687  62.1020985  35.0810313  49.0319443  63.5418606
  11.2319887  61.8281031  55.0704288  11.0425198  62.6469040  55.5285788
  12.1072483  61.5827990  55.3703928  72.6783757   6.6512191  25.8265042
  73.4326850   6.1103648  25.5925703  72.1816180   6.1149937  26.4445066
  78.5693453   4.4484954   0.6420009  78.1205176   3.6038642   0.6048076
  79.1208385   4.4613175  -0.1402553  34.6256876   6.9333357  47.2150230
  34.4352365   6.6461402  46.3220072  35.5688810   6.8026161  47.3126364
  66.2821679  40.7835531  49.6437788  66.1888365  41.0843801  50.5476713
  65.8091025  41.4340210  49.1248083  27.9804564  44.0552092  32.4373627
  28.6095357  43.5081100  31.9670701  27.1699476  43.9744997  31.9345760
  21.8243361  53.4631300  58.1055689  21.7441010  52.9065561  58.8801813
  22.7220631  53.7934780  58.1399536  61.1648963   3.3629661  11.2851254
  61.8807082   3.9138799  10.9683673  60.6838737   3.1174283  10.4948346
  58.2915954  39.0581322  47.9809189  57.7694397  38.3671737  48.3885479
  59.0249996  39.1901231  48.5816956  36.8409192   1.3899430  46.1652088
  36.6318040   0.6484230  45.5971861  37.0894717   0.9904726  46.9988060
  21.0459399  48.3638430  48.1684828  21.5631652  48.6569405  48.9186907
  21.5171099  47.5995827  47.8366280  10.0798988  29.1332960  58.9457321
  10.9334528  29.4372749  59.2543983  10.2738583  28.6499763  58.1426048
  40.6907200  53.3839008   2.9423968  41.4850330  52.8498718   2.9318540
  40.2649116  53.1635067   3.7708537  74.7867088  64.0265846  59.9090290
  74.1205393  64.5866251  60.3075314  75.5155067  64.0427160  60.5293703
  27.5791955   4.4517732  50.4265070  27.5893378   4.1699824  49.5117807
  27.1798396   3.7206763  50.8979321  71.2189160  22.3167424  19.7923963
  71.0233103  22.1133332  18.8777368  71.4078771  21.4674859  20.1914994
  73.4827391  61.6925809  10.0117080  73.8246933  61.6572353   9.1183726
  74.0958492  61.1653277  10.5238931  41.2235880  23.4449720  53.8957787
  40.5126715  24.0767002  54.0041780  41.1508799  23.1563449  52.9860306
  72.0308415  34.4771791  42.6647949  71.8822352  33.5586143  42.4403334
  71.3649182  34.9552608  42.1706152  77.7482755  53.6816216  39.3105578
  77.5389917  52.7939558  39.6012211  77.5023393  54.2395067  40.0484657
   9.4722641  59.4184828  62.2531319   9.7999740  60.2689362  61.9606209
   8.5219252  59.5272779  62.2885132  55.6027190  30.7525973  11.5629499
  56.1221631  30.8185201  10.7616632  55.6157548  29.8206191  11.7808406
  51.0588197  38.7281871  59.9307966  50.3045110  38.5841489  59.3593931
  51.0381536  39.6656656  60.1229858  23.8807156  55.8268163   3.2916181
  23.1455731  55.9174952   3.8978974  24.5857584  56.3353321   3.6923139
  78.7710474  57.6178360  63.3216953  79.5799352  57.1092796  63.2642221
  78.5363610  57.5905371  64.2492771  72.5494431  45.7309532  57.6289606
  72.3660998  46.6491318  57.8278637  73.4808223  45.7149506  57.4087143
  81.5641609  26.4572319  12.1833913  81.6103164  25.8278939  12.9031388
  80.8553330  27.0514104  12.4298589   5.9304535  40.4900408  48.5950375
   6.8026805  40.3180122  48.9498043   6.0462183  40.4517889  47.6456356
  77.2210754  34.4637609  48.2350016  76.6790812  33.9318490  48.8177061
  77.3316432  33.9243650  47.4520254  77.9521836   7.3204631  42.1949005
  78.3969028   7.2953779  41.3476515  78.5463576   6.8643951  42.7908802
  73.5865991  25.7638264  34.5561242  73.9201520  25.4789639  33.7053442
  72.8612493  26.3514495  34.3444681  77.1990447  38.6340451  28.1359148
  77.0498170  37.6933050  28.0411863  77.5007738  38.7390256  29.0382290
  10.4418027  51.9077015  46.8385410  10.1279497  51.5689659  47.6769876
  11.2172771  51.3817739  46.6429090  22.8144717   3.7031892  60.3063297
  23.4689093   3.2363248  60.8259296  22.9934311   3.4403104  59.4035006
  52.9085255  20.9951019  64.0243912  52.2434330  20.6196761  63.4473801
  52.4468660  21.6798830  64.5083094  63.3704202  64.0219116  35.8826971
  63.9997999  63.4883308  35.3975153  63.2714598  63.5719299  36.7217183
  24.1398430  32.4716640  64.0849686  24.6345425  32.9448724  64.7539806
  24.8078918  32.0298862  63.5607767  37.3142348  29.1453271   5.8405559
  37.4663697  30.0800090   5.9800593  36.3713990  29.0351396   5.9636418
  57.4261050   5.7282054  41.2199879  57.3303775   6.5000033  41.7780161
  57.7209358   6.0761899  40.3784323  26.8790666   9.3091877  26.6888499
  27.3072634   9.0340908  25.8781719  27.5928622   9.3890103  27.3215890
  18.3662009  53.0347824  45.0607395  18.0508447  53.9357567  44.9898386
  19.1795015  53.0252790  44.5560741   3.4479588  44.8809052  52.3131180
   3.5545287  43.9654016  52.5714350   3.9717799  44.9675751  51.5166664
  30.6416237   0.4327543  25.0052166  31.5418141   0.1508482  25.1677489
  30.1218405  -0.0382702  25.6565166  14.4468749  55.0504684  41.2347126
  13.5574198  55.3675890  41.0780668  14.3318832  54.1409111  41.5098763
  65.0315891  16.8007808   0.5267112  64.7666059  17.5540261  -0.0011523
  65.4526292  16.2081580  -0.0959905  31.3379312  48.1613922  34.9243951
  31.8652320  47.6154661  35.5076170  30.6609011  47.5721073  34.5918179
  24.1382408  54.8698425  45.1676607  24.2466426  55.2979422  44.3184233
  24.0336585  55.5913115  45.7879639  21.6953635  50.9796953  27.0680237
  22.1466088  51.0512590  27.9091477  20.8716393  50.5382204  27.2749305
  81.3351444  54.4508934  54.7221804  82.2697329  54.6255779  54.8329163
  81.0279360  54.2254591  55.6002665  15.0344658  36.5041447  60.8167601
  15.4251730  35.7226348  60.4258347  14.6863282  36.2035465  61.6562080
  24.7867084  29.1628981  30.2649665  25.2582479  29.4496369  31.0470581
  23.9064741  28.9554238  30.5786061   4.8138851  20.8212380  10.3554360
   4.9993628  21.5849595  10.9018390   5.6765956  20.4904799  10.1053159
   2.1468604  15.1202512  48.5966921   2.8222072  15.7430124  48.3277941
   1.7038420  14.8810315  47.7826023  23.5302067  44.8354435  36.6070461
  22.7070379  44.9834776  36.1415195  23.3262396  45.0295162  37.5219035
   7.3883110  20.3445268  28.2443190   6.6109169  20.1177454  28.7546730
   7.9274219  20.8591270  28.8449693  57.2400762  16.4111095   4.6603601
  57.1652535  15.5243259   5.0128572  58.1590013  16.6444688   4.7920863
  52.9234111   9.5943599  23.8559262  52.5189894  10.4580550  23.7740628
  53.8605286   9.7576003  23.7491815  56.8197238  73.0757591  26.7706029
  57.7501523  73.2519576  26.9102113  56.6311704  73.4515855  25.9107034
  17.5657105  50.1796293  44.7394943  18.3706570  49.7001219  44.9353552
  17.6774776  51.0238791  45.1765156  80.6292580  15.2024512   0.1915137
  80.0277708  14.4582801   0.2171533  80.3519295  15.7597356   0.9186666
  70.8358227  73.5805413   5.6639545  70.9508025  74.4100878   6.1274879
  70.5636775  73.8346383   4.7821347  54.8541479   8.5101622  35.0446939
  55.3211479   8.4130323  34.2148113  55.1396994   9.3591207  35.3822756
   2.0549655  34.7528768  60.7370996   1.8992238  33.8335133  60.5208874
   1.4128380  35.2338123  60.2149820  39.3627405  27.1596122  37.6357150
  39.9437141  27.9052210  37.4848151  38.8850474  27.3858547  38.4337449
  76.4713786  26.8240762  47.7398109  77.2640483  26.3728619  47.4494457
  76.0870693  26.2376738  48.3914804  61.5081303  60.6532900  45.6000614
  62.0462321  61.4438764  45.6406927  62.0616894  59.9673478  45.9732771
  37.3001545  53.6629423   4.2829005  38.0570745  54.1848740   4.5491569
  36.8681764  54.1921875   3.6124341  56.5777688   6.6824830  58.9193964
  56.8871622   7.4656934  58.4643269  55.7158021   6.9262820  59.2567539
  72.2202121   8.6392128  60.0816059  71.9669394   7.8921682  60.6238317
  71.7734210   9.3863928  60.4795122  33.6844921  27.7317739  31.1542773
  34.3164897  27.0568609  31.4018679  33.8216472  27.8553414  30.2150488
  73.3113853  16.5338659  19.2304611  73.6017321  16.8408573  18.3715737
  73.9643483  15.8819211  19.4850981  13.4212935  53.3721638  12.9247320
  13.7768602  54.2475271  12.7712929  12.5196040  53.4208632  12.6072168
  17.2355688  14.6631622  34.3786287  17.4517453  15.1611435  33.5902691
  16.4509392  15.0893676  34.7235036  78.2721780  16.8822873  60.9863949
  78.2381891  16.2053382  60.3105116  77.4901594  17.4127126  60.8336592
  60.5271105  18.8863969  43.5852432  59.7474436  18.7462842  44.1225672
  60.2320222  18.7267435  42.6887655   6.6185182   5.1167643  63.0352211
   6.9162428   5.2087367  62.1301603   7.2074193   4.4653088  63.4160519
  49.8399650  75.8318183   2.4910132  49.3892585  76.6471931   2.2713296
  50.3734957  76.0513493   3.2548110  18.7109494  15.2329326  59.4036293
  18.6972284  16.0702217  58.9399576  18.3462703  14.6067858  58.7781858
  17.9037392  51.9681692  23.5791850  17.6543868  51.2790632  22.9634047
  17.4254227  51.7573833  24.3810678  23.5723996  74.5585394  44.9541473
  23.7827444  73.6268473  44.8913670  23.8193727  74.8002148  45.8468008
  11.1462188  30.5944324  39.1959143  11.8685961  30.5883741  38.5679293
  10.4853296  31.1592102  38.7953138  20.5145788  65.3037977  45.2462912
  20.9498978  64.4699717  45.4236555  21.2307715  65.9198761  45.0922012
  60.5205278  36.3318038  53.1566525  59.7684125  35.8392692  53.4852314
  61.2778382  35.7920456  53.3833075  35.6531763  48.2086420  23.8372159
  35.7882714  47.9602957  24.7517133  34.8180199  48.6763430  23.8369060
  11.1540425  60.0560617  58.5937119  11.3755429  59.2277575  58.1681776
  11.9986236  60.4286003  58.8469458  18.3870118  76.9651577  28.5039155
  19.3429136  76.9183847  28.5211389  18.1804448  77.7998993  28.9243524
   3.2531601  54.7803116  54.0349960   2.6856968  54.2206764  53.5048771
   4.0251380  54.2419338  54.2094517  65.8335184  19.4650178   2.6488845
  66.0013090  19.2750697   3.5719172  66.6220699  19.9181561   2.3504130
  51.5697078  12.1528590  20.1252842  50.9294681  11.5325153  20.4738522
  51.2629060  13.0081630  20.4262114   1.9260842  38.9179492  53.9264107
   1.7274970  38.4976530  53.0896616   1.3697690  39.6967459  53.9412451
  18.9157224  59.0198755  47.5064659  19.2606449  58.3564663  48.1040859
  19.1668284  58.7116337  46.6357374   2.9689291  63.4241581  53.0131817
   3.4984243  63.9709759  53.5935783   2.9254818  63.9168167  52.1936512
  69.9782120   8.4809883  25.3080249  70.3446376   7.6092633  25.1595163
  70.3412615   9.0167435  24.6027637   3.8721961  10.8478837   7.7786939
   3.1666893  11.4451556   7.5301902   3.6158890  10.0052838   7.4037711
  49.0263653  62.1630192  52.5366783  49.0490675  63.0855656  52.7908897
  48.1992626  62.0648432  52.0649815  62.5817244  10.1739860  38.4434986
  61.8384294   9.5718819  38.4783411  63.2571654   9.6932358  37.9650736
  49.2757642  68.5047981   6.6925160  49.3723857  68.0338499   7.5202291
  50.0310313  69.0920326   6.6614930  28.5834765  23.7934709  50.5906868
  28.1020999  24.3492770  51.2035370  28.5130119  22.9130745  50.9596920
  10.1753736  56.7461777  54.1083431  11.1064851  56.6481018  53.9092350
   9.7280937  56.3116264  53.3821583  27.1071887  33.0970621  60.8331394
  27.0021033  32.5948763  61.6412210  28.0133200  32.9383397  60.5686283
   0.4020876  30.0861077   5.0773208   0.2783936  30.7137780   4.3653075
   0.6829447  30.6195788   5.8207957  37.0391941  64.2173386  60.5670166
  36.5229893  63.5449553  60.1224232  37.1274662  64.9178743  59.9207258
  81.2370850  59.9043226  30.2722597  81.4441159  60.5112934  30.9828639
  81.6785655  59.0907240  30.5159521  57.1306172   0.7183890   0.7983224
  57.1501091  -0.1663370   1.1631696  56.3485545   1.1174970   1.1795299
  17.6134181  22.5415850  43.2471752  18.2564008  22.5464988  43.9562464
  17.1263289  21.7269707  43.3711863  21.6992903  46.7383814  64.8064327
  22.2918081  46.3207054  65.4314899  22.2786522  47.1422005  64.1602850
  11.4620256  44.6395493  53.9595413  11.7749894  44.2192507  54.7605610
  12.2121763  44.6117067  53.3656311  10.2693140  16.5896042  51.5399313
  10.4202282  15.7434853  51.9612741  11.1465787  16.9250591  51.3552475
  62.6072465  24.4897609  14.7783200  61.7463325  24.2928748  14.4091336
  62.6115553  25.4413419  14.8817842  57.5309086  59.8457050  24.5241261
  57.1548462  60.7221365  24.4424224  57.2347069  59.5368481  25.3803396
  64.9952482  23.4743600  16.1862103  65.7314847  22.8852325  16.0215299
  64.3953548  23.3176618  15.4569547  29.9624801  59.6028137  42.2825527
  29.7302127  59.8473883  43.1783581  29.8185039  60.3994465  41.7717934
  53.0635466  36.1154656   4.5541017  52.1079455  36.0679154   4.5258634
  53.3504084  35.2038436   4.5003192  28.2103001  53.5537466   4.8921506
  28.2252055  53.7382707   5.8312766  28.2842381  54.4135043   4.4779269
  49.4651257  76.9434521   5.8358972  50.0919377  77.6616880   5.7494466
  49.9023163  76.3113901   6.4065043  48.4019041  71.7870045  38.6295199
  48.6178589  71.2624645  37.8585124  47.5376892  71.4745665  38.8973713
  28.1383188  56.7025265  17.6078527  28.3708248  57.5723109  17.9328839
  28.0943488  56.8059274  16.6572682   8.8636178  73.7989664  51.6624212
   8.4522671  73.5239601  50.8430338   8.2404619  74.4144964  52.0484686
  40.9128046  64.1839552  34.6139121  40.9721756  64.9194145  34.0041542
  40.5631590  64.5673370  35.4182744  13.8899803  45.1543999  52.6344299
  13.3731115  45.9051943  52.3422098  14.7401834  45.2691174  52.2099018
  78.9628447  45.3927469  57.4840021  78.2290523  45.7578993  56.9895935
  79.4671048  44.9008036  56.8359709  71.0789905  22.5058847  -0.1482232
  71.8103896  22.6950221   0.4395787  70.3021096  22.5724940   0.4069774
   9.1530455  76.1229376  11.9671929  10.0444568  76.3178208  12.2563922
   8.7366737  76.9804152  11.8800175  76.1859058  65.1438141  43.6659431
  76.2095706  64.3848991  44.2488003  77.0090626  65.0980377  43.1795788
  76.7099396   5.2620800  22.8053355  76.9388906   6.1796864  22.6576591
  77.5385824   4.7912033  22.7166629  41.9990408  68.2477972   4.3151586
  42.9043376  68.0078718   4.1174047  41.5001976  67.9471895   3.5555379
  36.3258111  11.5213497  34.3502426  37.1820187  11.8928726  34.1378570
  36.3785546  10.6129273  34.0532303  39.6268307  66.1942026  18.5829274
  38.7115299  66.0112640  18.3708112  39.6483361  67.1346638  18.7598531
  40.2490221   7.4118190   6.9200961  39.9601482   7.5846677   6.0240428
  40.5349646   6.4984088   6.9075696  39.8544216  70.1059103  56.1119413
  39.0230036  70.2912807  55.6753492  39.6868014  70.2928448  57.0356226
  16.4824522  44.1882086  40.5161285  16.0305858  44.4176626  41.3281631
  16.5490162  43.2336378  40.5405664  79.6703042  33.9910483  50.2930927
  79.1982014  33.5814309  49.5681381  79.5263983  34.9296784  50.1727009
  39.2819057  41.8515019   8.8996856  38.3302616  41.8751245   8.9999215
  39.5938228  42.6086240   9.3953626  26.2785387  48.4111929  30.9168887
  25.3701448  48.1102085  30.8954763  26.7852473  47.6282835  31.1325955
  60.7820158  56.0293102  19.4834280  60.8580260  55.2330256  18.9577055
  60.1179008  56.5511751  19.0330517   1.7387764  68.5020304  32.9892135
   1.3078615  68.1553364  32.2079659   1.5346937  67.8679514  33.6766195
  16.3233673   3.5789116  36.7312074  17.0468890   4.1323384  37.0252657
  16.3631581   2.8102596  37.3002696  13.9152849   6.9232017  55.8006191
  13.2168806   7.2398096  56.3735247  13.9073539   5.9730011  55.9158897
  25.6022573  59.8907566  51.2955713  25.0492287  60.6679440  51.2157774
  24.9888158  59.1773081  51.4713812  54.3808155  50.6108713  61.1137772
  53.4475975  50.7130671  61.3005733  54.4577317  50.7846546  60.1756334
  14.4541800  54.2198515   6.4178455  14.2829835  53.3598423   6.0340339
  14.8991299  54.7072697   5.7245398   2.6969466  28.5513401  45.0350332
   3.5154897  28.1348228  45.3047180   2.7155685  29.4108558  45.4558897
  32.7175735  10.1645093   2.5555818  32.4134682  10.2924733   3.4541242
  33.6681364  10.2641063   2.6079623  33.7340384  66.3004276   0.9717004
  34.5821118  65.9383580   1.2284295  33.3097576  66.5266940   1.7993609
   3.0903012  50.9159708  66.5117788   2.9278708  49.9747419  66.4490843
   3.7078059  51.0046291  67.2377634  36.8354440  70.8030176  26.5956450
  37.7921939  70.8139086  26.6229033  36.6120481  69.8956013  26.3884711
  10.2736521  55.8428097  38.7268996  10.5801535  55.7265329  37.8275847
   9.3520975  55.5853224  38.7010384  70.5459075  44.1967678  57.0097303
  70.3930060  43.7912130  57.8631830  71.1776642  44.8940325  57.1856213
   2.4059854  58.1196642  39.2021680   3.1539094  58.5881138  39.5728397
   1.8063886  58.0042791  39.9393249   6.5634733  51.9738770  31.8238020
   7.0977283  52.7149820  32.1094036   5.8501959  52.3712397  31.3242340
   3.0927765  41.0702276  58.2458496   3.0732861  41.1554623  59.1990471
   3.0186996  41.9684696  57.9234982  65.7801990   6.7887396  47.1743965
  65.7417731   7.7278936  46.9934464  65.3059725   6.6841549  47.9992628
  68.9075410  10.7681568  26.8885469  69.1842400  10.1159580  26.2448812
  69.6526801  11.3646515  26.9606400   8.4202904  41.9029717  12.8963487
   7.9804653  42.7490144  12.9800765   9.1004342  42.0506101  12.2392051
  80.5495617  36.3003445  48.1643534  80.3937280  37.2401333  48.0708313
  80.7078716  35.9937954  47.2714949  18.4868860  24.1443014  36.4392662
  18.2555246  24.0298820  37.3610091  19.2192876  24.7604871  36.4508653
   7.4711692  68.8494015   8.2744265   7.9249692  68.7210846   7.4414605
   7.2872967  69.7882795   8.3048540  16.8256676  36.3476968  56.6559410
  17.0815623  36.0703397  55.7762671  15.9067774  36.0901713  56.7304564
  29.7997993   8.7742286   2.9182784  29.6204990   7.9141574   2.5383203
  30.7217592   8.7361484   3.1727807  47.6002645  48.7885857  23.0331397
  47.7840042  49.4856453  23.6628866  48.3048725  48.1543636  23.1655192
  63.5164170  39.3618131  51.2872076  63.2772522  38.6044097  50.7530022
  62.9481236  39.3023181  52.0551491  18.8436258  56.9094706  45.2188492
  18.0905712  56.9814348  45.8053303  18.5775995  56.2621927  44.5657825
  80.8648985  77.3503417  21.0479832  80.3516906  77.1598487  21.8331981
  80.9920209  76.4975760  20.6322169   7.3666275  74.1581533  49.4099522
   6.8467606  74.9486644  49.5550823   8.0825651  74.4432075  48.8421392
  50.4455308  48.3878517  43.3167267  51.1158328  48.6084032  43.9634752
  50.5133585  47.4384165  43.2157183   2.3953980  13.4761148   3.5541408
   3.2576984  13.8479285   3.3685939   1.7885441  14.2063384   3.4327476
  51.8342638  41.8783140  57.0808840  52.3602819  41.2410307  57.5640059
  51.1780691  41.3510132  56.6252518  49.7061924  27.8124046  54.3789530
  48.8040928  28.0395174  54.6044922  50.2320652  28.1932998  55.0822353
  63.8686787  14.5703037  66.2654114  63.3363830  14.0859230  66.8964911
  64.0544903  15.4035195  66.6983795  12.8237772  36.6594839  51.6024876
  13.4980130  37.2289205  51.2318373  12.8632021  36.8234897  52.5447083
  18.9708328  73.6425734  33.4646487  19.3307447  73.1919479  32.7006888
  19.6730173  73.6106539  34.1143799   4.4606435  25.2156830  39.2810225
   4.9579617  24.6172047  38.7235904   3.9166519  24.6430564  39.8217678
  78.4295963  66.9250679  18.4942174  78.9850955  67.4130678  17.8863466
  78.3008678  67.5209904  19.2321444  28.8240504  43.3151436  63.6842680
  29.3813300  42.9158115  64.3522549  28.4293938  44.0697193  64.1214037
  13.4493536   0.4798512   1.3887326  13.5785908   0.5647044   0.4441039
  13.0340761  -0.3756518   1.4977710  72.1845297  51.3918018  59.9313498
  72.3643552  51.7320251  60.8077908  72.6459203  50.5537128  59.9004364
   7.7967475  51.5803151   1.2945334   7.1763872  52.1896749   1.6946141
   8.2957815  51.2282186   2.0315711  28.0685496  66.8825006  26.8842626
  28.4066820  67.4156380  27.6037502  28.1070399  67.4584866  26.1207247
  -0.1145121  59.6517897  37.9750252   0.6865005  59.5859718  37.4551415
  -0.2133994  60.5885601  38.1450510   3.4698960  36.3436365  66.1076546
   3.5406372  35.4755735  66.5047646   3.5916027  36.1891198  65.1708794
  26.9076872  55.9947109  39.2032003  27.3650002  56.6137791  38.6341238
  27.5734711  55.7065868  39.8276567  79.3596078  54.9787712  17.6530290
  79.0028389  54.6951056  18.4947419  80.2448159  55.2801895  17.8574419
  28.6318278  45.7578039  65.2926540  28.2097220  46.6145897  65.2295971
  28.4198952  45.4506779  66.1741209  71.8892078  36.8509889  64.2907476
  72.8032301  37.0053720  64.0520859  71.3854246  37.2692037  63.5925150
  38.7710082   3.4258850  39.2456102  38.5922634   3.4851940  38.3071208
  38.9894056   2.5052078  39.3901229  38.6069274  24.6353340  49.6099806
  38.4216118  25.5594873  49.4431543  39.4463468  24.6386218  50.0699759
  51.5526772  59.9564266  42.6660919  50.8538198  59.9249220  43.3194208
  52.2611332  59.4383097  43.0480242   3.8124993  24.2815089  63.4163523
   3.1586939  24.4718170  62.7436304   3.4772605  23.5041356  63.8630486
  32.5689554  58.6942816  45.5502939  31.9748950  58.1810427  46.0979319
  33.4431911  58.4668970  45.8668995   8.5407852   5.6506355  47.3561811
   8.0829775   4.9541672  46.8854666   8.0086219   5.8016594  48.1373501
   9.4059616  30.1021934  35.8029985   8.7653631  30.7460237  36.1052346
   9.2495197  29.3331718  36.3510513  27.2038141  11.5960034  35.3522825
  26.4623976  11.4909466  35.9485197  27.9742556  11.5572651  35.9189844
  56.4003526  20.3413685  31.6053462  56.1628710  19.4230755  31.7341399
  55.5913388  20.8240326  31.7749214   9.1080827  14.6289253  43.3112431
   9.3125528  15.4481006  43.7622166   9.0896249  14.8643363  42.3836279
  66.3005911   8.8384013  16.7283170  66.3647436   8.0720954  17.2983090
  65.3744076   9.0787797  16.7535035  63.8465058  50.9029290   7.6797072
  64.6448480  50.4227623   7.8995292  63.1591737  50.2367434   7.6778190
  48.9551174  11.8656738  62.1246862  48.0677449  11.5197380  62.2202492
  48.9675557  12.6485928  62.6752377  14.6327519  53.3442688  53.6025620
  15.2299190  53.1747341  52.8739452  14.6847403  52.5560951  54.1432142
  10.0145698  56.1851645  51.0317039   9.0642667  56.2987185  51.0479307
  10.3378201  56.9414186  50.5419874  73.7196802  10.0609498   6.8557374
  73.7657927   9.9354844   7.8035562  72.7995585  10.2623277   6.6852777
  19.2811275  37.9437113  44.4381380  18.3701599  37.6909375  44.2882156
  19.7666204  37.5212955  43.7295532  23.3749175  52.3817301  67.2596931
  23.3224487  51.7146158  66.5752649  23.0437183  53.1778431  66.8440771
  75.8151142  38.1219745  56.8393326  76.4471595  38.8394666  56.8835735
  75.7107179  37.9521346  55.9031248  31.4012384  59.6550104  22.0071904
  30.8077794  59.4150540  22.7188508  30.9185972  60.3104994  21.5035836
  36.8929027  32.1593766   6.5718143  35.9876703  32.0851092   6.8739240
  36.9122575  32.9751735   6.0714833   9.0532333  28.1248260  66.1268234
   8.6774331  28.5189652  65.3396368   9.0653861  27.1857071  65.9420538
  70.8631078  27.4970493  13.2834546  70.4952184  26.8601581  12.6708715
  71.5582291  27.9311678  12.7889077   5.4663926  60.7854509  46.9020081
   5.6610918  60.5332470  45.9993935   4.5590323  60.5119753  47.0366955
  78.4024226  68.3852240  20.9950177  78.1336724  69.1889211  21.4400689
  77.9860150  67.6835629  21.4955251  51.4008881  19.9221997  23.1150929
  51.4266805  19.7051435  24.0470044  51.7991184  19.1670613  22.6821820
  23.6553860  27.8054738  27.2062612  23.6164522  28.6546469  26.7662382
  23.0285978  27.8796506  27.9258919  19.1207802  69.8729610  38.1392503
  19.4843328  68.9978409  38.2742548  19.8870027  70.4420614  38.0667043
  40.2226900  62.0647570   0.5320994  40.0377464  61.1332676   0.4122750
  41.1117410  62.0888373   0.8859937  53.7114286  74.8076820  46.9264317
  53.0769348  74.0934277  46.8673038  53.7230682  75.1909304  46.0493803
  12.8791130  53.9077616  25.8566928  12.0283997  53.5348177  25.6255364
  13.1827915  54.3283701  25.0522685  49.1593753  50.1485543   6.0679500
  48.6165915  49.7067838   5.4149167  49.9437769  49.6041303   6.1353509
  39.9657893  58.5155916  21.7603660  39.1202998  58.0754948  21.8480825
  39.9193525  59.2481804  22.3746872  77.6234172  50.5612707  53.9939070
  76.6721259  50.6635666  53.9653969  77.8082447  49.8636675  53.3650827
  13.6697287  31.7489677   1.8517749  13.7985748  30.8011966   1.8886344
  13.5549635  32.0107894   2.7652900  17.8341806  62.8829193  33.2306576
  18.1186688  63.7726307  33.4397340  18.2497776  62.3357487  33.8970757
  21.3284993  71.8623734  62.1664619  22.0246124  71.2857533  61.8515587
  20.5186677  71.4324045  61.8916321  23.3465409  20.6441498  28.3364534
  22.9515624  21.4996624  28.1681657  23.8301229  20.4418850  27.5355363
  74.0204488  49.7071648  37.4236774  74.4302015  50.3280544  38.0260324
  73.1544618  50.0767088  37.2512412  20.2907210  74.7153398  50.2762334
  20.6168561  75.2355573  51.0105721  19.7396892  74.0464327  50.6826322
  14.9808592   0.5205326   8.2310025  15.7220882   0.7504444   8.7913148
  14.2249245   0.5296021   8.8181226  47.2931623  56.8545771  39.2066598
  46.5564823  56.6288519  39.7746253  47.1968889  57.7942133  39.0515757
  28.2542133  74.9861670  53.9626074  27.4776530  74.5908880  53.5664511
  28.9557290  74.8187113  53.3332729  34.0867095  76.5635344   4.2522304
  33.8392746  77.3759720   4.6937673  34.4221371  76.8459222   3.4013669
  40.1850580   8.9258914  18.9546887  39.2816184   9.2085271  19.0966241
  40.4084144   9.2641549  18.0875508  36.7505310  31.0891204   1.2354152
  37.0199035  30.4626279   1.9071118  37.1869133  30.7881742   0.4384009
  47.6524697   5.5395179   7.2861115  48.0492268   5.6654315   8.1480662
  47.0898591   6.3047557   7.1673171  39.1447543  70.6377503  11.7893712
  38.8997781  69.7330400  11.9835822  38.3287310  71.1306164  11.8755261
  40.0696968   2.8660496  24.2792988  40.6919741   2.2006710  23.9855719
  40.1136469   2.8299149  25.2348042  56.7944032  50.1237874   5.5180661
  56.7248799  50.0379758   6.4688746  57.7259983  50.0031762   5.3341786
  71.1965893  14.3095403  12.7537839  71.2824450  13.9336591  13.6298959
  70.8678459  15.1957850  12.9045455  74.4069211   8.2505202  29.2541313
  73.9692108   8.0211818  28.4343481  73.7058131   8.5813516  29.8155856
  61.7171787  68.4592347  28.3403890  61.4743839  68.9222817  29.1421906
  62.6634119  68.3343797  28.4130971  70.5073647  61.2230587  22.9470134
  71.2760441  60.8291054  22.5345016  69.8836927  61.3387299  22.2301555
  17.3182452  63.2241201  53.0701828  18.0425823  63.6485767  53.5299683
  16.6140008  63.8722849  53.0826473   4.2619140  68.7287494   1.1530082
   4.3064124  69.6471164   0.8868234   4.9000413  68.2860252   0.5935256
  60.4089765  69.2550087  39.8574233  61.2571053  68.9297676  39.5555496
  59.7713832  68.6519623  39.4752741  40.4599106  51.0303995  12.1844689
  41.0596000  51.3219389  12.8712050  39.7408187  51.6616329  12.2105948
  23.7106466  52.4179316  43.6490393  23.8413215  53.2773304  44.0497780
  23.8847160  51.7954731  44.3550682  25.5420470  47.2362137  26.9947314
  25.3239059  46.3647223  27.3251104  24.7829556  47.7743816  27.2191954
  13.5766541  58.1277952   5.4492490  12.6970088  58.4511468   5.2545707
  14.1110717  58.4306309   4.7151391  74.0987126  42.0446634  42.8510666
  74.8144333  42.5842476  42.5151730  73.9864825  41.3588667  42.1928024
  55.8586499  19.1430144  11.8321673  55.5303712  18.6448293  11.0836474
  55.3106466  18.8628488  12.5652616  36.3266993  48.5429382  39.2170286
  35.6027460  49.0575457  38.8602328  36.2972641  48.7092686  40.1592064
  31.7652321  45.1720858  49.5152330  31.0800195  45.7970333  49.7522020
  31.6473222  44.4444227  50.1258421  15.5757374  16.7432599   7.8620498
  15.9385485  16.3739257   8.6671512  16.2174267  17.3988872   7.5888793
  46.1876713  29.5582112  58.3365059  46.2497865  30.5130490  58.3108282
  45.3501784  29.3613060  57.9169035  21.6136265  59.9765015  30.8624578
  21.1963010  59.8937559  31.7199111  21.0400987  59.4914627  30.2691364
  28.9926696  47.6805496  30.2709723  28.5734963  48.5172319  30.0697398
  28.7122703  47.0965719  29.5662904  51.2258565  76.2218448  10.5753343
  51.4038383  76.1858651  11.5151517  50.2957474  76.0088655  10.4993836
  27.2716174   8.5731705  51.3879681  27.9560599   9.2333039  51.2784338
  27.2086123   8.1491860  50.5321026  13.2848430  30.0250053  56.8725300
  14.1495514  29.6811581  56.6482925  13.3730233  30.3231287  57.7778339
  63.8938729   7.4553447  20.0943582  63.6796515   6.5920692  20.4480569
  63.0745421   7.7665763  19.7095696  74.5648847  37.3604751  63.9218092
  74.9354534  38.1070542  64.3924761  75.0903402  36.6128874  64.2068386
  81.5187681  30.3576851  41.9329977  81.5839415  29.4261456  41.7227125
  81.2164335  30.7657933  41.1216545  32.9061412   6.3126763  39.6037078
  33.8070189   5.9920605  39.5606184  32.7642780   6.7424782  38.7602806
  71.1688732  27.7376847  16.1365811  70.8441769  27.9574924  15.2633779
  70.3801058  27.5485425  16.6448228  45.4571037  14.3636375  17.7640359
  45.3767590  13.9457374  16.9066350  44.9145053  15.1495271  17.6992242
  74.1021482  65.8703184  63.9383078  74.4129364  66.4845371  64.6034241
  73.1489526  65.8862448  64.0243053   3.5342979  34.1361880  44.8487520
   4.4729280  34.1189790  45.0355959   3.1984097  34.8611307  45.3758860
  30.7566452  45.1583099  47.0003080  31.4793992  45.5565119  46.5152359
  30.9902143  45.2796984  47.9206038  73.6488555   5.8372026  42.1806447
  74.4684373   5.7849603  41.6889207  73.2143961   5.0012069  42.0115582
  55.5830394  50.4827127  18.4872167  55.7648265  49.5429596  18.4941403
  54.7736727  50.5663869  17.9830758  52.6894645  39.0278935   8.4559041
  53.1493740  39.7374058   8.0072314  52.0072727  38.7581372   7.8410220
  77.4652745  41.6316795  48.8946295  78.1713797  42.2324657  48.6565065
  76.7188887  42.2012138  49.0810966  29.1292286  41.2107563  26.5248752
  29.0960693  41.8313026  25.7968259  28.6362767  40.4511166  26.2147474
  54.7240030  18.4826477  38.1637764  55.0348055  19.3326767  37.8522158
  53.9710032  18.6909588  38.7167954  41.1999369  35.8210754  22.8481102
  40.3041267  36.0475755  23.0980134  41.2460136  36.0223508  21.9134450
  27.7717996  39.6889853  24.4716454  27.4588156  38.8790202  24.0688658
  28.2412004  40.1397181  23.7696958  30.9139872  29.3860197  28.1217194
  31.7561865  29.8141384  27.9679370  30.3012371  30.1073289  28.2648325
   1.0966023  52.4914551  56.4366007   1.0505023  53.2182360  57.0578051
   2.0258296  52.2643280  56.4022255  79.6302165  54.3498182  37.3889947
  79.0474091  54.0443039  38.0841422  79.7407827  55.2846050  37.5627208
  78.3230530  41.8504524  30.7367182  79.0545155  41.5377617  31.2690878
  78.4113465  41.3794470  29.9081111   2.4394563  34.7779107  54.5071888
   2.9222339  33.9545393  54.4349670   2.9184651  35.3865504  53.9447498
  50.0709163  70.1299497   0.6513564  49.7496783  69.4929001   1.2894837
  50.7289302  69.6521899   0.1463811  51.2499346   1.0706024   5.1862685
  50.8694415   1.2297206   6.0500590  50.6051497   0.5236344   4.7375886
  58.4046869  42.0260000  49.0404654  57.6560335  42.5849676  48.8323641
  58.9723496  42.0902109  48.2724380  37.3374992  22.6497086  51.7250443
  36.8137651  23.4438713  51.8311310  38.0836927  22.7748116  52.3113680
  73.1249873  43.9139843  45.7170200  73.3892821  44.4179153  44.9473238
  73.8826285  43.3633471  45.9145260  38.7655627   2.6143749  29.2940235
  39.1508555   2.9407509  30.1072001  38.9524304   1.6756113  29.3003392
  18.9006895  57.7727418  36.8681161  18.0806869  57.2865491  36.9544141
  19.3145508  57.4074559  36.0861127  65.2647285  36.9509077  54.0606260
  64.5855658  37.2194290  53.4418631  66.0798494  37.2739744  53.6766529
   5.2950406  67.3725319  63.9504433   5.6864429  67.6390696  63.1185818
   5.1569998  68.1928825  64.4239426  14.2567301  74.7666121  60.9772491
  15.0540876  74.2387390  61.0197020  14.5237267  75.6296635  61.2936163
  55.7261679   6.4038520   0.0535457  55.4059633   5.5294566  -0.1681025
  54.9334799   6.9149070   0.2169530   4.9457271  11.6963776  29.1419792
   4.5623166  10.8194645  29.1258907   4.2778880  12.2422035  29.5570755
  33.6429429  44.9296474  32.1604943  32.8489780  44.4717455  32.4364996
  33.3941889  45.8538723  32.1476030  48.1300818   8.1890209  31.4767599
  47.8111159   8.9005001  30.9215236  47.7407824   8.3613117  32.3340774
  32.9195070  63.9586639  55.9757996  32.3234510  63.9199305  56.7237616
  33.2156706  64.8685932  55.9524202   5.9609705  70.2608967  60.0218534
   5.8912832  71.2129831  59.9518108   6.0147780  69.9573660  59.1156483
   5.6208570   4.0697869  55.8524227   5.3397281   4.4680031  56.6762066
   6.5336711   3.8248070  56.0040569  55.4065704  64.7444248  16.0158956
  55.7673407  65.5757999  15.7078588  56.0788727  64.3932629  16.5997827
  34.1690445  74.2840099  59.4670486  34.8095179  74.8453093  59.0300465
  34.6918941  73.5857058  59.8610401  15.7504976  70.4171896  47.0387506
  16.1111557  70.7301044  46.2091494  16.1119592  69.5366764  47.1401215
  40.6839990   3.5501869  44.0723944  41.1828541   3.2865437  43.2991791
  40.0098931   2.8767594  44.1635990  10.6635916  75.5012321  37.9152489
  11.3291311  75.5365038  38.6023045  11.1631310  75.4621649  37.0996714
  10.6531024  47.3719215  39.0989017  10.1207650  46.5816069  39.1897416
  10.7900238  47.6730251  39.9971342   9.8014105  10.7490066  62.9185288
   9.2286766  11.4136699  62.5358696   9.2765535  10.3519777  63.6136021
  60.2819036   1.8723397  13.3193509  60.3940932   2.4659972  12.5769107
  60.2404742   1.0010438  12.9251878  50.6374394  24.4543656  50.6046581
  50.5946266  23.7263115  51.2246132  50.0622403  25.1217182  50.9788465
  68.3406775  71.0235786  30.8415294  68.9301006  70.2869987  30.6794906
  67.6578550  70.6638670  31.4077353  29.0085196  47.4177217  44.2707348
  29.5376134  46.7197466  43.8845730  29.6452141  47.9978180  44.6882772
   2.8344315  13.9530473  21.3011090   2.0150226  13.9999633  21.7936532
   2.5625104  13.9522271  20.3833501  17.2206569  57.8306198  27.3615408
  17.2782302  58.4738159  28.0680919  17.8542483  58.1324863  26.7106390
  24.0926862  74.2550039  40.8035374  24.5937562  74.4422674  40.0097513
  24.3031120  73.3444118  41.0103655  63.3927166  29.0158756  62.7865076
  63.0155527  28.2686909  63.2509279  63.8928925  28.6249455  62.0701075
  77.9573034  13.7284713   9.3234794  78.6410640  13.1119351   9.0615956
  77.1405219  13.2421546   9.2112653  37.3075962  66.2473679  58.4672213
  36.4199662  66.5950060  58.5537863  37.8455520  67.0123053  58.2630062
  12.9870600  17.7710729   2.1956889  12.2743505  17.8630834   1.5633838
  12.9445881  16.8558984   2.4729745  69.4889824   4.4126555  39.5044422
  69.3137042   5.3495753  39.5921397  68.6578826   3.9918754  39.7245526
  70.6138383  25.0238948  20.2057473  70.7050370  24.0759378  20.1093213
  71.1006997  25.3877978  19.4663159  39.1740251  65.4520226  65.3945017
  38.2745862  65.1899433  65.1981449  39.7092843  64.9507427  64.7793150
  58.7243758  15.4985671  19.2721765  58.2572506  16.3340097  19.2641084
  58.0323835  14.8372226  19.2713468  14.0230787  33.9302182  39.5233107
  14.1096532  33.8045835  38.5783482  14.0871084  33.0479813  39.8890853
  54.8560095  66.6110229  46.2029314  54.4587469  66.6769409  45.3345585
  54.8064661  67.4989462  46.5570068  66.3052414  36.6063933   5.3703944
  66.2316261  35.6646018   5.5247943  65.4754280  36.8471580   4.9584786
   7.3519439  41.6857152  24.3564240   8.0039114  42.3853593  24.3155686
   6.5797848  42.0524316  23.9256970  55.0197796  39.6272349  50.5493689
  54.6617465  39.4589901  49.6777391  55.5747919  38.8687682  50.7308149
   9.0360080   3.8595589  63.5182333   9.5900666   3.0790623  63.5270977
   9.6510123   4.5889958  63.4413290  38.5164976  56.3670969  67.1248341
  37.9663610  55.5839491  67.1086216  38.5979581  56.6216421  66.2057018
  75.7587754  11.5255268  43.6272764  75.1286780  11.0999687  44.2087507
  75.3368794  12.3476227  43.3774900  17.1213555  71.3740253  50.4296923
  17.9086220  70.8311462  50.3881931  16.4120471  70.7878733  50.1659918
  53.4705076  40.4468827  18.1291310  52.8730296  39.7016721  18.1916921
  53.5884735  40.7359128  19.0339963  74.2373311   6.0255821  52.7595043
  74.8601472   6.0305603  53.4863520  74.2722785   6.9152363  52.4080467
   6.1995906  74.1443539  56.6716433   5.5368710  74.5729828  57.2132301
   5.7910651  74.0672684  55.8094406  37.3034382  20.2355051  40.2594995
  37.2762847  21.0982943  40.6731319  36.9033933  19.6492743  40.9017849
  34.9860597  56.5185022  55.7396889  34.3512845  56.8563080  56.3714933
  35.2076626  57.2741127  55.1954651  44.7787666  58.9508343  32.5208521
  45.6436443  59.1942358  32.1907449  44.3789291  59.7810411  32.7799249
  34.1690278  52.7360868  51.3732958  34.8871589  52.2155190  51.7331934
  33.5491443  52.0888662  51.0370207  44.8232222  62.8395748  26.4542413
  44.8723555  61.9663429  26.8431878  44.7204018  62.6785660  25.5163002
  54.3724918  44.6394157  64.7043371  53.9420652  45.4791498  64.8649883
  53.7538195  43.9866114  65.0319386  13.1614470  76.5348482  33.7072611
  13.9990973  76.1568403  33.9749956  12.5225389  76.1508703  34.3077517
  19.9569273  54.5356894  27.7514029  19.2940271  53.8585806  27.8867459
  20.4504776  54.2383051  26.9870710  25.9002948  74.4581556  31.7520809
  26.6422033  73.9233732  31.4695811  26.1499858  75.3536606  31.5241361
  61.0977221  50.4772043  44.9535465  60.4005480  51.1327314  44.9319649
  60.6373119  49.6394062  45.0019741  15.0924051  53.1189680  22.1209168
  14.7852337  53.9260721  22.5337815  15.5272698  52.6396513  22.8261709
  22.2345495  76.6930199  43.4246683  22.8026438  77.0795918  42.7582836
  22.7739882  76.0184956  43.8372898  72.8792559   8.8149937  63.2663965
  72.9373013   9.5310410  62.6338243  73.6667000   8.2935055  63.1107759
  41.3474655  25.9072614  42.3926067  41.5381289  26.7265964  42.8493071
  41.7534590  25.2308249  42.9346752  39.7216260   1.5023668  32.3290062
  39.8736977   0.6514414  32.7401352  38.7903868   1.6733416  32.4696946
  37.8468132  71.3064575  45.3794003  37.6554966  71.2403345  46.3149500
  38.2477593  72.1696281  45.2773476   1.8306005  64.7194481  58.0926466
   1.7846113  63.8296652  58.4425020   2.4681561  64.6642637  57.3808098
  76.9591752  17.3313053  47.8700686  76.0350791  17.4759014  47.6666689
  77.4184362  18.0340965  47.4102926  49.8811913  70.7563114  51.1274624
  49.3726826  69.9507999  51.0336637  49.3217087  71.4375544  50.7544804
  34.9613285  73.5118341  41.2536955  35.6137896  73.3933496  41.9439793
  35.2764893  72.9695749  40.5306005  29.6848395  16.1608799  46.0294008
  29.9700554  15.6142433  45.2972317  30.1013418  15.7692917  46.7971325
   0.8605412  76.1801529  57.1771717   0.9576000  76.9638538  57.7181196
  -0.0650027  75.9486818  57.2547674  77.6808165  19.1298156  21.8762795
  77.0537327  19.0069871  21.1635987  77.2920941  19.8132472  22.4222199
  65.9052073   6.7595967  66.3182402  66.1161362   7.3215874  65.5726528
  65.5537593   7.3580845  66.9774246  75.2976118  76.1842775  50.4756880
  74.6691082  76.0904074  51.1915112  74.9278055  75.6638956  49.7624731
  26.7621255  59.2571735  54.7610188  26.1099339  58.5606337  54.8365450
  26.4240980  59.9626350  55.3126478  51.9335864   7.2458224   7.5992267
  51.7781652   8.1861405   7.6879994  51.1683135   6.9202619   7.1253078
  18.8581705  41.5544510  61.9212770  18.1860888  41.7655563  61.2732220
  19.5249701  41.0767508  61.4279079  66.6078941  72.8185606  43.5361290
  67.2612254  73.1145954  44.1699648  65.8784275  72.5069523  44.0718651
  58.1226026  26.6061123  55.0896645  57.7851736  27.4389466  54.7598743
  58.9952528  26.8161019  55.4222631  22.9535627  73.9798689  57.5023174
  22.5307083  73.8039637  56.6617918  23.8617754  74.1804838  57.2761822
  11.9928319   5.3274067  31.1705112  11.2399060   4.9567230  30.7101560
  11.7219741   6.2177189  31.3946176  51.1906230  14.7866829  36.3908362
  51.1594402  15.4929836  35.7455492  50.8832251  14.0145786  35.9158683
  20.2653766  58.5622835  18.5472226  19.5255446  58.9538193  18.0829144
  19.8682451  58.1062126  19.2891920  73.9505879  57.3389435  34.4349957
  73.5340194  57.4776745  33.5844326  74.6373258  56.6946745  34.2631197
   2.6319054  49.7072029  40.0859785   2.2420172  48.8841009  39.7914886
   3.5705495  49.5948505  39.9357939  75.6769131  27.6061397  25.7113759
  76.0084413  28.4681325  25.4597966  75.9082554  27.5211434  26.6362969
   0.4965841  68.4017658  43.5857964   0.9485422  68.6567211  42.7814579
  -0.4289321  68.3767366  43.3428478   5.3496706   4.3741043  27.4137974
   4.6720421   4.1484268  28.0510736   5.5518066   5.2921780  27.5940967
   7.6968151  68.0752373  32.6961374   8.4850752  68.4313107  33.1061268
   6.9745803  68.4483194  33.2015276  54.3368828  12.6431759  40.3282785
  54.1124355  13.0634602  39.4980884  53.6820971  12.9683979  40.9461069
  17.1159595  49.6605401   1.1975066  17.6266760  49.2531495   0.4979150
  17.7718061  49.9943929   1.8095891  77.0644162  67.9121876  43.7261724
  76.6973720  68.6767435  44.1699791  76.3030128  67.4511671  43.3740997
  19.0808249  27.0466280  34.5499396  19.8058295  26.4444137  34.3827915
  18.2951808  26.5086555  34.4520640  17.7685583  65.0109816  50.0633574
  18.1084955  65.2024698  49.1892815  16.8342865  64.8529911  49.9276829
  42.8320836   5.2480419  56.2895393  42.4104320   6.1038502  56.2119007
  42.6176535   4.8002537  55.4711628  35.8466524  37.3273139   4.9927680
  35.6042951  37.2354894   4.0713183  35.5626005  38.2105403   5.2282636
  71.0185658   3.0125721  28.3067608  71.3605534   3.8970383  28.4371805
  70.0721871   3.1028374  28.4183455  72.0105539  44.2958837   2.5135009
  71.3003086  43.9201741   1.9932858  72.7888499  44.1930776   1.9658534
  41.2258911  74.2406559  62.4587202  41.6985703  74.7260761  61.7825747
  41.5610361  73.3466625  62.3902655  44.6534824   3.5136612  34.1226959
  44.6213125   4.0084179  34.9414825  43.7959229   3.0925759  34.0634465
   1.3787563  56.4195919  55.3968287   1.5555425  56.3845110  56.3369083
   2.1385604  55.9989262  54.9943733  40.8117747   5.1865967  60.3461790
  41.4938842   5.5497845  59.7813368  40.4466259   4.4587239  59.8430920
  58.6436855  11.1918743  10.9890628  58.3942639  11.5625294  10.1425195
  59.5814263  11.0180386  10.9074807  67.5709902  15.4481991  43.4531069
  67.8394782  15.4502495  42.5343370  66.6213047  15.5646523  43.4253788
   0.9232968  36.3860087  30.9561078   0.8106107  35.5339294  31.3773934
   0.7761401  37.0210748  31.6570107  46.8119883  13.1595524  28.8929415
  45.9361290  13.2229622  28.5120463  46.8045043  12.3322304  29.3743110
  12.0784497  71.4697790  61.9748688  12.4779105  71.5109634  62.8437567
  12.8009427  71.2423134  61.3896370  82.2898000  59.1219378  40.8215141
  81.4752198  59.2402172  41.3100863  82.1100528  59.5005035  39.9609280
  77.4164246  52.0699029  14.7346608  78.1982301  52.6048951  14.8717610
  77.3657726  51.5157895  15.5135266  14.9458051  15.1384115  35.9282017
  15.4138780  14.8376870  36.7071152  14.7710490  14.3396688  35.4305029
  34.2817616  31.3824677  60.8936644  35.1890230  31.2433577  61.1652470
  34.2434263  32.3077321  60.6514978  20.3810406  61.5443611  51.1171961
  19.4434857  61.5248346  50.9252548  20.5256152  60.7856703  51.6826296
  71.7327391   2.3146491  17.7881639  71.9114576   2.4799686  16.8624417
  71.0170005   2.9123120  18.0043714  13.4942757   0.9350975  39.0223336
  13.4301578   0.1938208  38.4201479  14.3472087   1.3254746  38.8316917
  18.6967957  60.7489061  62.2929764  18.4239709  61.0259438  63.1676483
  18.2195354  61.3278723  61.6986227  63.9892149  66.5178251  34.8430371
  63.6277628  65.7639790  35.3091860  64.8105049  66.1975193  34.4700480
   9.4618821  56.3495445  31.4954233   9.7622615  56.2928581  30.5883455
   8.6406678  56.8387938  31.4456487  72.5762139  19.4889503   8.1289928
  72.7514110  19.2384105   7.2219293  72.2752963  20.3958993   8.0731122
  19.0057939  73.2070546  22.8056352  18.6191267  72.4168496  22.4284188
  19.5077604  73.5939794  22.0883195  68.0799441  50.9665537  11.2966156
  68.4554283  50.0995779  11.1430192  67.1824770  50.7920885  11.5800679
  28.5237718  62.1385193  64.0396404  27.7802730  62.2434044  64.6333027
  28.2624531  62.6024723  63.2442188  54.5331764  64.4201231  57.5033236
  55.1434660  64.7007322  56.8213892  53.8536644  63.9373636  57.0327473
  62.0360839   3.0647286  53.9671707  61.1603271   3.2467850  53.6263847
  62.3879348   2.3966845  53.3788252  68.0027425   9.2953881  32.0784092
  68.6727940   9.4396599  31.4102411  67.1735870   9.3676670  31.6056395
  74.5159005  26.1572652  20.1647489  75.3506897  25.9702067  20.5941312
  74.7475956  26.3166385  19.2497937  32.7210927  50.4273605   5.7262218
  32.9138279  50.5875111   4.8024055  33.3097982  51.0155535   6.1991775
  23.9876080  69.1648817  58.8748693  24.9382782  69.2632866  58.8221693
  23.8140965  68.3055687  58.4905386   6.0479438  49.3610191  42.1317863
   6.6031146  48.9849520  42.8148603   5.2001113  49.4908381  42.5567102
  27.0597506  69.2297935  42.6154709  27.4777961  69.9376345  42.1251297
  27.5029325  69.2318964  43.4638929  36.8200153  35.5297093  32.7062623
  36.1471790  36.0453086  33.1508748  37.1474737  34.9324517  33.3787839
   1.4747334  46.2647438  47.6357746   1.4942569  45.5220556  47.0322275
   1.4346011  47.0340681  47.0676517  79.8466635  74.5813131  54.4493198
  80.1898670  75.4623938  54.3005276  79.7727776  74.2019987  53.5735989
  12.7424187   3.1268554   2.1099298  11.8149418   2.9578071   2.2755878
  13.1589884   2.2680669   2.1818940  29.0851450  68.1634760  53.8007355
  29.5537329  68.7498522  53.2067490  29.7716141  67.7683973  54.3382311
  65.7716428  15.0843151   8.8592339  66.3280260  14.3128594   8.9666027
  65.3711569  14.9726589   7.9970402  40.4779434  58.7959051  38.1724143
  40.3501034  59.6236372  38.6358261  39.5981431  58.5359955  37.8992319
  44.5676184  59.7276258  16.5120173  44.8811865  60.2426577  17.2554183
  44.7069454  58.8179016  16.7751157  48.6993610   6.7355259  66.3105869
  48.8350760   7.4797257  65.7240915  49.1286337   6.0020645  65.8701372
  78.2966255  35.4000335  19.6700398  78.3260034  36.3438611  19.8267571
  77.5606035  35.0922112  20.1989572  50.9008503  64.2789173  64.3727398
  50.4325914  64.3195534  63.5388803  50.5161619  64.9806643  64.8979044
  65.6375122  69.3135977  13.3746910  64.9974155  68.6541605  13.6423635
  65.1106310  70.0777006  13.1406665  38.6066675  52.2604656  21.3545060
  38.7833047  53.1860542  21.1862373  39.1685390  52.0406437  22.0976162
  58.0456658  26.1340289  15.2129476  58.3988978  26.8124728  15.7884233
  57.6132618  26.6180282  14.5093743  32.8032804  76.6200590  38.7698913
  32.0995188  77.1549463  39.1370988  33.3834624  76.4459848  39.5110512
  40.4536772  76.9571066  65.9714222  41.1082745  77.6010561  65.7011175
  39.6589017  77.4702263  66.1172724  22.8550298  14.2165096  33.7028265
  23.2706124  14.8153504  34.3232465  22.0762307  13.8999470  34.1605210
  -0.1110847  74.2483616  50.9658241   0.0893737  73.7265015  50.1888371
   0.6674561  74.7891951  51.0984993   5.1340127  47.8557444  63.6122942
   5.2563310  48.6030197  63.0267620   4.4754031  47.3150778  63.1762362
  79.7397922   0.8962421  17.5668923  79.0121029   0.2749996  17.5943963
  80.1381491   0.7606082  16.7071549   0.3584546   9.8283248   8.4169404
  -0.1117903   9.5282702   7.6390807   1.1483759   9.2883210   8.4424417
  51.3497483   2.1636875  39.4237709  52.1602713   2.5678833  39.1140795
  50.9483539   1.7975672  38.6356902  35.8863878  61.7563581  45.8386469
  35.8378530  61.1181736  45.1268959  35.8361721  62.6065922  45.4018259
  40.1037204  72.6030847   9.6924750  39.3425917  72.3902056   9.1524760
  39.9306869  72.1736047  10.5302350  38.2055020  56.5527916   7.7924275
  37.2551274  56.6176128   7.6985186  38.4070158  57.0852470   8.5619169
  10.3551453  23.0998759  25.8963220   9.5930594  23.6489301  25.7119386
  10.0877351  22.2209315  25.6276624  23.1515312  55.7136917  12.2207534
  23.3725286  54.7932959  12.0784247  22.3893714  55.8661699  11.6620982
  17.3213613  22.1194148  40.5033779  17.5625014  21.8864131  41.3999224
  16.4714718  21.7005730  40.3674030  19.0337271  18.9293485   2.4505012
  18.3297533  19.1893153   1.8563048  18.9961666  19.5696836   3.1609885
  59.7881937  54.7762823  26.4349723  60.0854683  54.0126133  25.9403300
  60.1536560  55.5245066  25.9629273  56.9481945  54.9657059  43.9138794
  57.4488211  54.7394371  43.1300402  57.1543407  54.2704964  44.5387125
  74.7147904  58.7775517  62.2926903  75.0871156  57.9120207  62.1239853
  75.4412566  59.3834352  62.1464634  54.6043956  32.8520973  56.2910748
  54.6799504  32.3695858  55.4678488  55.0505864  32.3006256  56.9337463
  11.4414597  55.2962255  48.9184761  11.3499784  55.6243849  49.8130035
  10.9860921  55.9422922  48.3786011  24.8104930  46.5575552  33.2026601
  25.3604150  46.3526726  32.4464583  24.0122151  46.0480642  33.0633545
  70.9820043  12.5685029  27.3434751  70.8758186  13.4841876  27.0856587
  71.2182580  12.6064830  28.2702844   3.9213514  75.4901218  59.8520041
   3.8072753  74.9643993  59.0602779   3.6763290  74.9027061  60.5669451
  34.7146476  23.0409244  64.9453361  34.5744813  23.2911065  65.8585686
  35.6319583  22.7698520  64.9093490  16.2928975  49.5665216  59.8609734
  16.3719237  50.0382233  60.6901169  15.4103005  49.1964865  59.8791075
  39.9957705  60.6183004  51.4531231  39.2097306  60.9054756  51.9177771
  40.7188082  61.0212851  51.9337988   4.7026971  67.8945160   5.5628949
   5.1394439  68.7447214   5.6141883   3.7877333  68.0822420   5.7722551
  77.4164747  10.9545903   3.9346187  76.6076396  11.2229066   4.3705337
  77.8881644  11.7730479   3.7801187  52.8028976   7.4728401  36.4895272
  53.4631311   7.9590519  35.9956503  52.0860397   8.0958374  36.6087532
  72.9481971  59.0202257   9.6322600  72.4203002  58.8843653   8.8454358
  72.9953849  59.9714848   9.7277228  68.8683653  74.4893122  55.5654144
  68.3898783  73.8145399  55.0837851  68.2125998  75.1613331  55.7514000
  12.0221919  44.0416818  12.1106402  12.7105278  43.9010530  11.4605252
  11.6190499  43.1807809  12.2226684  18.2460988  67.5046635  53.8063192
  19.1668606  67.6987314  53.6309195  17.8078961  67.6435471  52.9667234
  61.8540721  17.0452313  13.7995069  62.2267257  17.8928332  13.5567395
  62.5854240  16.4321046  13.7258260  39.3049955  71.7162132  33.7738347
  39.4469333  71.9164133  34.6990395  40.1286745  71.9541550  33.3481908
  28.3696961  77.1283293  39.5846891  28.1369925  76.4566278  40.2257013
  28.0017757  76.8103075  38.7602305  80.5054745  76.9476986  50.7711840
  81.0944117  76.2831974  50.4136610  79.6399458  76.7009449  50.4452944
  51.5919848  50.7224278  -0.0025495  50.8501936  50.1851945   0.2755944
  51.9650193  51.0564618   0.8132331  23.4520525  29.3111806  33.9859693
  23.1463665  30.1029449  33.5433595  22.7424234  29.0834193  34.5866220
  63.5941648  44.8642445  43.8073063  63.2571602  45.1637125  44.6516848
  64.4731379  44.5390463  44.0019369  79.9189971  28.7752252  12.2351472
  79.1125916  28.5674958  12.7071540  80.4094337  29.3374972  12.8347747
  60.5407715  58.8037062  62.1855450  59.9153185  59.1083288  62.8429985
  60.5820131  59.5151043  61.5464497   5.3274114   4.7039993  50.7358170
   4.7262342   4.3016728  50.1089621   5.0547893   4.3574722  51.5854168
  52.3167550  13.2719143  41.8702364  52.1311843  14.0006741  42.4624348
  51.5634047  12.6889618  41.9644117  31.4669514  53.9285612  63.9752865
  32.2907758  53.4543800  63.8626051  31.5819025  54.4182348  64.7896814
   9.1459377   7.9108341  31.5965247   9.3340356   7.0657833  32.0048642
   8.6080844   8.3730610  32.2394037  57.0475960  60.5693817  44.7828817
  57.4779606  59.9789286  44.1645098  57.6359606  60.5962849  45.5374241
  55.1710211  21.3179119  40.1174021  54.5958697  20.5559071  40.1865864
  54.7366630  21.9938668  40.6376457  74.2972361  50.4642396  18.8642137
  73.7996827  50.4912763  18.0469338  73.8851939  49.7655873  19.3724744
  31.2466711  46.3089376   7.5398223  32.1844953  46.3378434   7.3503940
  31.1882156  46.4583783   8.4834783   7.2948189  62.3818922  63.2126331
   7.0998497  61.9745588  64.0566158   7.4506302  63.3029366  63.4215117
  37.0722771  72.0696306  47.9092932  37.7198911  72.3063660  48.5732079
  36.2588215  72.4716377  48.2141113  65.9388220   2.2095688  53.2668495
  65.9051787   1.6779192  54.0621138  65.1136433   2.0231302  52.8190184
  74.8860836  72.5412750  61.3754559  74.5380116  73.4289503  61.4598322
  74.7366667  72.3115921  60.4583120  71.0095035  48.8498311   5.6664149
  70.8037959  48.0081849   6.0732953  71.8590926  49.0925412   6.0345428
  39.3650389  52.2278500  40.4877377  40.2687168  52.0908022  40.2034664
  39.0642619  52.9788017  39.9760318   6.0015530  26.6787438  11.7009370
   5.7827371  25.8276992  11.3213651   5.3193087  27.2674851  11.3781993
   6.6433686  61.1392694  16.7462270   7.5352734  61.4509015  16.8999021
   6.4033550  61.5093999  15.8967416  50.5853604  38.8135867   6.8560569
  50.2147524  38.7623887   5.9750001  50.2745451  39.6517377   7.1983020
  36.0521263  55.2215867   2.3604314  35.2218574  55.2053933   1.8843905
  36.1500639  56.1317067   2.6402776  76.2513577  21.3961228  41.3004065
  75.9986340  20.5041226  41.5385246  76.8068539  21.2896164  40.5281925
  26.1966538  51.8446493  55.3502846  26.8424702  51.2256908  55.6909370
  26.6544294  52.3058844  54.6474791  79.4673382  10.2461346  58.4297609
  80.3719269  10.3764637  58.1452036  79.0256154   9.8800286  57.6635456
   2.8583416  72.8476238  42.4982977   2.1066616  72.2711611  42.3608303
   3.5914183  72.3867035  42.0904016  17.9958624  45.0632100  21.9717710
  17.2762483  45.6111531  21.6584889  18.6664480  45.1372628  21.2927548
   1.4575965  22.0842179  42.2110271   0.8858783  21.4513691  41.7764282
   0.9077651  22.8578194  42.3353720  47.6791143  57.3509789  62.6941204
  47.4257278  56.5226650  62.2867775  47.5469971  58.0054712  62.0082521
  69.6181343  39.4221358   3.3773438  68.7102698  39.1194015   3.3582561
  69.9436890  39.1490512   4.2350547  40.1269049   6.1665778  30.8497922
  40.4956049   5.2863793  30.7753198  40.8897871   6.7436986  30.8840673
  43.7004804   1.1265953  51.8491983  44.2240118   0.3789004  51.5609264
  43.0256020   0.7443913  52.4101734  70.7776009   3.5058506  63.3134890
  71.0312735   2.9560574  62.5721312  71.5894067   3.6367043  63.8034678
  39.6075463  77.2524261  39.0000129  39.4896913  77.1914482  38.0520558
  38.7173367  77.2751236  39.3510747  67.3881137  12.4193009  50.0557518
  67.7093064  12.6955040  49.1973925  67.4527966  11.4644249  50.0397825
  49.7491681   0.9857949  37.4530268  49.5349728   0.3111275  38.0973673
  48.8996803   1.3167771  37.1613860  76.9645214  69.2421341  39.0297890
  76.5278387  70.0937176  39.0484905  76.3430405  68.6639452  38.5874248
  65.1729118   2.1592196  45.2714443  65.9092771   2.4928435  45.7839823
  64.4681489   2.0474251  45.9094429  29.7539616  60.3405476  50.7926750
  29.6243548  61.0531569  50.1668739  28.9607382  60.3450251  51.3284063
  18.1039631  76.7721748  59.7597647  17.2436655  77.0909262  59.4867802
  18.7229371  77.2527981  59.2101240  11.8577678  20.0668534  40.2284765
  12.4095590  19.4537647  39.7428060  11.9299180  19.7836693  41.1399794
  46.9009661  19.2439755  64.3966579  46.3573217  18.5134609  64.1016436
  47.1405732  19.0166767  65.2950764  17.8447622  75.9097962  15.1734082
  17.1098513  75.2976136  15.1363103  17.4807733  76.6966729  15.5790631
  62.8635542  36.6454892  12.5109689  63.2776289  35.7906299  12.6292293
  63.4072183  37.2473388  13.0193345  30.3250749  21.8518170  45.4090834
  29.7929914  21.7579659  44.6189499  29.7955472  21.4582451  46.1025763
  77.0074509  30.6579499   2.1133391  76.8677495  29.9766164   1.4556901
  76.8899010  31.4792733   1.6360108  16.6529679  74.0883112  41.0461617
  17.2871053  73.8363552  40.3748798  15.9265602  73.4756088  40.9314442
   2.7565855  62.0771265  15.0285184   3.6457944  62.3099327  14.7614264
   2.7049366  62.3429346  15.9466195  67.0909130  16.2029751  57.9567719
  66.7651259  15.3240498  57.7629137  67.0983779  16.2501915  58.9127779
  79.0290438   5.7720860  25.1264739  78.6101329   5.0970085  25.6603479
  78.9713656   5.4392060  24.2308712  70.6285989   9.1201981  16.8202031
  70.1338708   8.7741383  16.0774267  70.5130517  10.0687321  16.7638993
   6.4364690  70.1115232   5.6164519   7.3124808  69.8082929   5.3779428
   6.5806574  70.7034020   6.3547771  21.8089158   9.0933331  53.4391785
  22.1157129   8.2238587  53.6963034  22.4906547   9.4247158  52.8546667
  80.3581713  16.9849830   9.4622771  79.5284007  16.5098195   9.4182937
  80.1094602  17.8806500   9.6906440  44.5121479  54.8916960   4.8292398
  43.9769983  54.6992826   5.5991906  45.3516531  54.4685316   5.0092185
   5.4835481  20.6164699   3.5971229   6.1693329  21.2610440   3.4226148
   5.8207935  19.8013692   3.2254855  55.5995274  64.1001940  46.0041571
  56.1636829  64.0161133  46.7728519  55.2181721  64.9747372  46.0814571
  78.5553060  68.7388134  52.8429556  78.6856095  67.9332542  52.3426294
  78.2976027  69.3881416  52.1885967  61.7448341  11.3545140  40.8001375
  62.0604598  11.1185654  39.9278212  62.3637091  12.0167835  41.1077499
  15.0005347  33.6135777  42.7710342  15.5122621  33.1087883  43.4031391
  14.1085727  33.5980042  43.1180000  65.0423919   4.8304375  52.6120329
  65.7700693   4.2086609  52.6228476  64.3847405   4.4394882  53.1872654
  46.9327831  27.6264882  61.6255331  46.9994497  27.7360559  60.6769657
  46.8569469  28.5182905  61.9649029  67.1566736  32.1518048  48.8369083
  67.1074640  32.1694573  49.7926807  67.7834164  31.4550217  48.6421776
  52.2118092  76.5984583  50.8382797  51.7028666  75.7883930  50.8065653
  52.2246122  76.8371439  51.7651558  79.6883129  21.3361697   0.8224504
  79.4645332  20.5980115   1.3892619  80.2582262  21.8864827   1.3596503
  33.6972863  10.6614693  15.0604749  33.2850606  10.5468090  15.9167182
  33.0767400  11.1965092  14.5656192  24.1675997  56.6823769  66.8288136
  23.3719587  57.1617985  66.5978575  24.7296643  57.3367882  67.2436142
  54.7010660  50.4896545  55.5231047  53.9748049  49.8692465  55.5853367
  55.4091978  50.0800848  56.0201263  50.9432637   6.8680866  63.8599491
  50.8042466   6.0507496  63.3815479  50.4119980   7.5125988  63.3924103
  58.0928564  77.2718859  47.7284050  58.0893087  76.3723469  47.4012232
  57.2416735  77.6245117  47.4688530  53.0118485  52.0557599   4.5612685
  53.4477563  51.2193303   4.3981235  52.4544115  52.1888738   3.7946002
  67.3641144   7.9339226  36.8196535  67.6332843   7.4075325  36.0668659
  68.0651795   7.8123005  37.4599242  31.5681309  41.1243205  13.8452642
  30.7397121  41.4429002  13.4868543  31.4425129  41.1453490  14.7939508
  37.1432877  71.5434027  61.8517303  37.8658152  71.0787821  62.2740078
  37.0841503  72.3739672  62.3238516  43.2711029  55.7365751  28.5346913
  42.5210333  56.3185167  28.4123302  43.6280584  55.9821653  29.3882155
   5.2694529  46.1082654  36.8435399   6.1547679  46.4429860  36.7006890
   5.3962129  45.3004365  37.3411195  25.0225711  60.8804512  59.3758297
  24.9103999  61.2405443  60.2555943  25.9215522  60.5519247  59.3643236
  20.0360990  70.3039980  47.9615688  20.7558632  69.8652887  47.5080204
  20.1893759  71.2363577  47.8084421  58.3894240  15.6193455  52.4087143
  57.7528989  15.1207264  52.9210091  58.9336311  14.9531277  51.9889307
  61.6792679  72.5455332  49.0310383  61.3047266  72.6589727  48.1574917
  62.2957945  73.2718849  49.1234732  33.6121750  57.7312374  48.4564209
  32.9578710  57.5505543  49.1313076  34.0215397  58.5510588  48.7330818
  12.3622102  37.0079474  26.9277780  12.2421259  37.9560142  26.8732183
  13.2474178  36.8982320  27.2750585  49.1193282  14.4583710  40.7622099
  49.8401868  14.5202358  40.1354933  49.4483744  14.8924168  41.5493393
  51.2152588  23.2132061  18.2839620  51.4588772  22.9820641  19.1803193
  52.0190489  23.0920990  17.7785039  55.8426905  47.9134893  49.3522692
  55.4619122  47.1088028  49.7040129  56.7672729  47.8672791  49.5956707
  67.5457893  58.3022695  36.9747560  67.0140205  57.5622849  37.2678201
  67.2263502  59.0447240  37.4875371  48.5893666   2.0873125  33.0883908
  49.2439257   2.5473889  33.6138558  48.7655746   2.3649986  32.1894622
  16.6749120  69.6099615  64.6733713  16.0074937  68.9241886  64.6957731
  16.9673514  69.6893120  65.5813456  41.5887498  18.1349095  65.5171299
  41.6168427  17.4688156  64.8302794  42.4916958  18.1956490  65.8289480
  77.7742421   0.8306607  55.2712059  77.4348485   0.1747473  55.8801603
  77.1152245   1.5248640  55.2751637   7.5495285  50.1945310  12.5565164
   7.6893300  50.6137567  11.7074363   7.2047466  50.8919816  13.1141202
  33.2359099  57.6100636  51.8480873  33.3215427  56.7438841  52.2463751
  32.3917699  57.5841188  51.3975477  45.4551125  47.5674200  11.7810953
  46.3727283  47.4951649  11.5184355  45.2279997  48.4812498  11.6091287
  61.8702780  18.3961685  39.8782706  61.8822633  19.2945679  39.5481873
  60.9410845  18.1719406  39.9287987  56.2749147  75.5915737  52.5798273
  55.4854107  75.0579405  52.4895144  56.2833691  76.1413050  51.7962742
  13.3044672  39.5068574  64.9283409  12.6977122  38.9473367  64.4435501
  12.8787124  39.6452451  65.7743979  23.7777694  12.9851158  56.1270142
  24.7210812  13.0908879  56.0036898  23.4751638  12.5728996  55.3178596
  69.3973290   6.9462879  22.3986268  70.2590214   7.3105725  22.1960998
  68.8697850   7.7044686  22.6498079  71.7663943   8.9104565  57.0026636
  72.5965440   8.8368138  56.5318537  71.9866168   8.7018975  57.9105377
  72.2317635  28.6695488  49.8560619  71.6043698  29.2955406  49.4944811
  72.4828278  28.1242855  49.1104794  56.5577812  47.7732282  18.4350030
  57.3527859  47.2440343  18.4994237  55.8818491  47.2422986  18.8562505
  11.1910493  24.8194226  41.2991762  11.9288881  24.8821743  41.9057131
  10.8436830  23.9378651  41.4349651  48.4729815  48.9445114  47.4108982
  47.6987743  49.1913080  47.9167891  48.5196924  47.9920578  47.4938488
  63.8153712  52.6035500  59.1066360  64.0603606  52.6010132  60.0319481
  64.6479206  52.5424719  58.6382723  79.4422852   5.2221497  56.9189644
  79.0008246   5.5604466  56.1399269  79.7168051   6.0044296  57.3974037
  40.3818750  74.2174959  36.2222886  39.8903298  73.5463953  36.6958308
  40.9772825  74.5842218  36.8759179   5.8071811  52.9391297  27.7391648
   5.1653821  52.4046143  27.2716022   5.8796794  52.5276669  28.6003685
   4.2288798  50.7272439   6.1892287   3.6665958  50.9234719   6.9386069
   4.8227734  50.0471406   6.5070025  42.9895491  30.5826907  10.8535592
  42.5614876  30.2872233  10.0500123  43.7182754  31.1247783  10.5513398
  59.1650862  46.6690259  18.3070867  59.6307176  46.0310369  18.8478105
  59.8369783  47.0269494  17.7268331  11.5684384  27.8431039  15.4086034
  10.9474701  28.5713105  15.4269998  12.3686975  28.2009749  15.7929914
   4.6141309  47.7379804   1.9678943   5.3210157  48.2875447   1.6294925
   4.2944926  47.2605424   1.2023084  16.6436762  33.2126431   8.1478660
  16.9145340  33.2818036   9.0633361  15.9108156  33.8232093   8.0681388
  58.4879255  72.2918367  63.8465643  58.0357981  73.0975771  64.0967560
  58.7586451  71.9012165  64.6774435  55.1140844   9.5929630  56.4557600
  54.7464000  10.1588066  57.1346235  54.5183002   8.8446816  56.4190674
  23.9642692  69.4101000  65.3906631  23.1228137  68.9803457  65.5439377
  24.6162128  68.7635708  65.6612253  26.3273767  48.9610966  61.5428638
  26.6387713  49.3454273  60.7233810  26.7513552  49.4794281  62.2268295
  17.1497345  70.7274008  33.9724779  18.0402565  70.4934978  34.2341876
  16.6126668  70.5177402  34.7365665  55.1608907  42.8869923  45.6951189
  55.2285372  41.9542320  45.8991432  54.2353045  43.0939205  45.8243656
   8.8335860  77.0469189  44.0956020   9.0690893  76.2806416  43.5725451
   7.8780568  77.0189095  44.1447210  11.6384704   2.5600966  33.1873941
  11.7496020   2.5058850  34.1365743  11.1923463   1.7466934  32.9516363
  36.5632892  65.0897598  51.7621851  36.5044260  65.0636816  50.8071518
  36.7329550  64.1827106  52.0165491  61.1410271  20.2745159  35.1806927
  61.9153654  20.8056744  35.3664637  61.3990843  19.3837651  35.4177547
  20.4631908   9.9651631  56.0523272  20.2460296   9.6042546  55.1927805
  21.0954721   9.3470104  56.4188528  77.1134221  23.6234577  42.4082613
  76.7385613  22.8028115  42.0884848  77.1136986  24.2003353  41.6444254
  70.9648596  12.1673592  47.8122520  71.8582951  11.8337353  47.7304554
  70.4125487  11.3869866  47.7653074   7.1592969  59.9550200  67.2197104
   7.3180079  60.1726198  66.3011837   6.4319539  59.3332005  67.1963215
  23.6024213  66.4888716  59.0061426  23.3842468  65.9100437  59.7366095
  23.1057525  66.1388016  58.2665443  44.7776317  31.9505985   0.9484146
  45.6325816  32.3248013   0.7356720  44.2299258  32.1590050   0.1915675
  67.1318113  10.4598530  60.4625320  67.0162427   9.5401867  60.7014561
  67.7646100  10.7946785  61.0978985  67.3773120  41.2267547  10.6201856
  68.3171235  41.1770206  10.7948606  67.3144506  41.6614156   9.7696797
  37.8445565  14.5042618  47.0561886  37.1480047  14.9947746  47.4925804
  38.4864568  15.1694401  46.8077278  25.7816001  11.7274388  26.0441637
  25.9742511  10.7899197  26.0577655  26.3126098  12.0913704  26.7525506
   8.3650440  15.9504561  11.6107814   8.7950701  15.0984626  11.5371434
   7.5141281  15.8264022  11.1903207  81.6360413  18.1908329  25.5604029
  82.3103511  17.7441128  26.0722470  81.8541800  19.1197785  25.6358552
  66.8014728   6.3053044  18.0357659  66.0694849   5.7072170  18.1864941
  66.9594299   6.7102345  18.8885915  78.5783148  73.6137867  40.6349897
  78.3183765  74.1729641  41.3671017  79.5333910  73.5783434  40.6880140
  14.1366351  68.7660742  56.8284178  14.1671479  68.2267237  57.6186085
  14.9349594  68.5382605  56.3519621  75.9180735  28.3643250   6.1371867
  76.4525817  27.6368957   5.8187978  75.6110404  28.8015180   5.3429429
  35.9841532  33.8180785  25.8911340  36.2799257  34.7177224  25.7518689
  35.0771183  33.9067512  26.1837976  30.3810930  60.1958752   2.6058334
  29.9644685  60.5134392   3.4069628  30.5263805  60.9842110   2.0827217
   9.5726020   0.6672247  40.8241224   9.8789317   1.1074646  40.0312901
   9.9688441   1.1621865  41.5412283  41.9135904   4.4983681  15.4247284
  42.1598672   3.8481816  16.0826337  42.3576152   4.2116554  14.6266901
  28.4032631  76.7652702  47.7738428  28.2437062  77.0997477  48.6563921
  29.2966151  77.0424366  47.5705385  45.0755810  27.0946129  55.3563929
  44.1705262  27.3854359  55.2444553  45.0919759  26.6913899  56.2243652
  46.1205530  74.6012068  60.8143473  46.8282795  74.5095110  60.1764202
  46.4987373  74.2924356  61.6376734   2.6085299  21.5740304   3.2136933
   3.5162324  21.8582921   3.3209579   2.2456211  21.5921979   4.0992419
  68.5792589  73.4380960  10.1195633  68.0683279  74.1156530  10.5623937
  68.0058813  72.6716566  10.1129806  14.3834567  71.4378786  30.1988387
  13.8885391  72.0717478  30.7179666  15.3000343  71.6284943  30.3982902
  29.2095131  56.9943433   8.1866710  30.0721687  56.5973191   8.3067672
  28.8637537  56.5812020   7.3954741  61.2373935   6.6928299  50.1042318
  60.7216584   6.9986256  49.3580818  61.2243711   7.4250706  50.7205820
  47.1029031  17.8964813  54.1363239  47.6015197  17.9328831  53.3200598
  46.7764854  16.9976147  54.1777134  13.8907659  73.3614969  47.8197384
  13.8446772  72.8605270  47.0054102  14.5149803  74.0630770  47.6343393
   5.3977925  21.8527230  57.8602219   5.5344159  21.1097725  58.4481001
   4.6481187  21.5978630  57.3223877  77.1058547  23.4798249  32.7576423
  77.7945887  23.1850060  32.1618557  76.5288150  22.7217777  32.8504944
   2.2753246   9.6550759  23.3661795   2.0355565   8.7316521  23.2884288
   3.2319171   9.6521099  23.4000516  49.8990965  63.8601255  36.2771153
  50.6155348  63.3700895  36.6806126  49.1507149  63.2644987  36.3143611
  44.5075332  21.3102158  58.0049419  45.0263333  21.8006142  57.3673010
  45.1534592  20.9477814  58.6112833  72.8546856  48.5275750  12.6811997
  73.0148886  47.6147084  12.9204623  72.3416923  48.4772878  11.8746392
  15.9459591  69.5786619  41.4203501  15.2666306  69.4584227  40.7568073
  16.7158651  69.1411781  41.0569143  76.4061295   3.8856800  28.9877510
  75.8341681   3.7240608  29.7380662  76.4818370   3.0344589  28.5565567
  29.8301691  44.0903478   8.7721412  30.1887077  44.4376950   9.5888583
  30.2436012  44.6152120   8.0867068  26.7415006   3.4346112  31.3607430
  26.9677789   4.2174633  30.8585715  25.9032495   3.1503208  30.9963870
  13.2887466  21.3401898  34.8350215  12.5735624  20.7933148  34.5099568
  12.8569181  22.0060166  35.3702116  40.4815483  58.2752991  59.6774244
  40.3360319  59.1826773  59.9452257  39.7655106  57.7876568  60.0845194
  47.8486723  36.9837956  15.0047032  47.8569883  37.0018296  14.0477101
  47.3059315  37.7319198  15.2536504  51.2136828  33.0327233  61.8195248
  50.4210793  32.6052578  61.4950609  51.4877903  33.6048611  61.1027527
  17.9841430  26.3339813  49.4615555  18.5077245  27.0174320  49.0432405
  17.1157462  26.7243012  49.5603991   8.4377248  16.1714848  28.5996151
   7.5372083  16.3537796  28.3311677   8.9751393  16.7006119  28.0101776
  63.1119715  10.9289082  52.7885151  62.4412429  10.5880459  53.3802652
  63.7140738  10.1957615  52.6612425  80.2663886  30.6143387  57.9920149
  79.5686328  29.9864968  57.8044319  81.0407244  30.2460488  57.5665808
  50.1783764   4.8290165  19.9669206  50.4102885   5.6975849  19.6382439
  50.9744655   4.5146759  20.3954840  80.4812133  30.7938774  39.3805575
  80.7854735  31.0179623  38.5010982  79.7667681  30.1734741  39.2359972
  48.8631773  70.1879597  36.6328979  48.6713457  69.2848301  36.8854594
  48.6190128  70.2351809  35.7085681  28.6150648  73.7676403   6.1029069
  28.8237508  74.6383116   5.7643621  28.1606448  73.9343426   6.9287078
  64.0255324  23.8731265  50.6552792  64.3769078  24.3003821  49.8741102
  63.1450347  24.2360973  50.7512331   5.5314720  36.4057469  48.2167149
   4.8162359  37.0090866  48.0150938   5.9580868  36.2499237  47.3741293
  20.0561165  36.7628156   2.9626719  19.6225869  37.3931901   3.5379188
  19.3383550  36.2923102   2.5387923  56.5198974  28.5188460  46.3335752
  55.9000282  28.2903075  45.6409264  56.9205193  29.3358326  46.0364771
  72.7953832  22.5854206  38.1776881  72.8000198  21.7008257  38.5433435
  73.4209643  23.0703616  38.7159348  77.9772919  75.8404113  50.6263733
  77.0279424  75.8373686  50.7486773  78.2623451  74.9833215  50.9431887
  76.7334264  76.7253201  44.8749256  77.1654790  75.9456494  45.2237463
  76.8426340  77.3859219  45.5589628  53.4232543  49.4452707  42.2353888
  54.2365315  49.2256443  41.7808819  53.6889487  50.0626938  42.9168797
  40.1534515  76.0998094  13.5897899  39.2368858  75.9212549  13.3794165
  40.1184409  76.8147219  14.2253256   0.1411521  13.8822258  65.9143257
   0.1373068  14.2676175  65.0381470   0.6596987  13.0829489  65.8221436
  56.3510119  69.1368911   7.4810378  57.2352850  68.8832805   7.2165076
  56.4084636  69.2518255   8.4295718  41.9686870  18.1614661  14.7109640
  41.0317354  18.0404735  14.5569730  42.1983628  18.9343333  14.1950595
  57.5945853  57.3880784  52.9472113  56.8783381  56.9909660  52.4517107
  58.2690417  56.7095892  52.9787350  25.2271366   6.4892596  15.8192217
  26.1200833   6.8165100  15.9277928  25.0026965   6.1180276  16.6724777
  78.2889925  31.7310953  64.2841148  78.5964866  32.2714257  65.0119352
  79.0154259  31.7329955  63.6607981  39.7929519  63.5702078  60.9789324
  39.9504619  64.2982058  60.3777313  38.8640909  63.3662919  60.8699894
  77.5222330  35.3690720  42.6859379  77.9205377  36.1900759  42.3969078
  76.7899518  35.2333951  42.0846176  26.6023803   0.5699682  36.1212778
  27.4859905   0.2457714  35.9470296  26.1999202   0.6452442  35.2560663
  40.4401808  64.5549850  26.9156170  41.2777214  64.3853013  26.4843798
  40.6726055  64.7416727  27.8252077  70.8109622  65.8753840  45.9252691
  70.6927233  65.0834564  45.4007673  71.7395418  65.8723835  46.1575747
  43.9188532  23.8931251  55.7998943  44.4548540  23.1052279  55.7096052
  43.8671808  24.2505360  54.9134302  69.3474094  19.9049807  64.8657227
  68.6189346  20.4546165  64.5768356  70.0642066  20.5198812  65.0217104
  78.9272921  25.0669336  54.4752169  78.7421091  25.3623033  55.3666735
  79.1480447  25.8672237  53.9987373  14.4652450  16.2422144  54.6378565
  14.6733117  15.3308296  54.8435688  15.0983405  16.4858723  53.9625406
   7.1230727  31.8331099  15.5974579   7.9913628  31.9159579  15.9917176
   6.5639848  31.5270257  16.3115752  21.1635327  17.6661897  43.9915085
  20.5817652  18.4261966  43.9785576  20.8704114  17.1276319  43.2564831
  24.1824293   8.3270317  32.3856187  23.9388633   8.6679214  33.2462597
  23.6851740   8.8617516  31.7667127  11.8857670  25.8393550  62.5949669
  12.4901497  26.0857320  61.8947887  11.1304772  25.4673767  62.1395540
  60.0236134   1.2483164  28.6674500  60.9118251   0.8916017  28.6755466
  59.4559292   0.4781340  28.6955023  27.7553678  22.9930568  40.6221533
  28.0627751  23.8995361  40.6166553  26.9927406  23.0022764  41.2005520
  22.5500315  73.4985439  28.0086827  22.2283786  73.9795999  28.7711501
  23.4957617  73.4396071  28.1441498  18.2619268  22.2649200  57.0448108
  18.5494119  22.6221974  56.2046106  19.0112525  21.7588468  57.3588689
  76.6538160  72.9038594  46.9361639  76.9116991  72.0121632  47.1698427
  76.2141364  73.2386265  47.7177334  25.4518812  71.0415022  44.9640656
  25.2863233  70.1236264  45.1793003  24.5925348  71.3909696  44.7282076
  58.0568375   6.2707906   1.4018313  58.0631162   5.9048657   2.2863023
  57.1905996   6.0520701   1.0582797  27.1132922  30.9972477  35.0495911
  26.8229485  31.6229892  35.7131982  28.0601239  30.9360480  35.1760817
  61.9769244  62.7962009  33.8269734  62.6563822  62.8714637  34.4969749
  62.1055644  61.9248537  33.4522200   6.2878448   4.4994709   8.0909330
   6.3333094   4.0003431   8.9064300   5.9124655   5.3421009   8.3464652
  69.2724340  55.4405252  33.7314415  68.7504571  56.2321560  33.8621759
  69.0151720  54.8626487  34.4498467  76.7323606  58.2608179  45.5373478
  75.8547108  58.5598330  45.7751608  77.3192470  58.7778179  46.0891724
  51.5369133   0.6121751  34.6039438  51.9253163   0.0079482  35.2366233
  50.8448772   1.0580919  35.0922847  10.6908453  27.8931952  39.6560764
  11.1161089  28.7138700  39.4073319   9.7548538  28.0706501  39.5630145
   9.2118157  64.4815795  61.8065929   9.0221108  64.2710761  62.7208853
   8.3540119  64.6498315  61.4165974  62.0827059  13.2231653  15.6779420
  62.8751366  12.9481733  16.1390972  62.1677987  12.8388679  14.8054135
   2.9079342  24.4835448   0.9790169   2.6358473  24.1785288   1.8445610
   3.8137978  24.7684550   1.0993050  43.1573371  11.1811769  33.0155969
  42.4087028  11.5609026  33.4755826  43.8957386  11.7401826  33.2574844
  40.6923955  65.7121817  39.4111037  41.1445158  66.3200573  39.9961734
  40.2278679  65.1155917  39.9980664  65.6236522  65.6954018  46.2838602
  65.7920723  65.9021107  47.2031784  65.1154785  66.4392523  45.9603214
  77.0169495   2.0400275  10.7529569  77.3403464   1.9704184  11.6511774
  77.6089991   1.4882806  10.2417970  25.5153203  12.6041305  30.7465029
  25.1125622  11.9255269  30.2047324  26.1988211  12.9794955  30.1913786
   8.3233577  19.6336246  47.6658010   7.8418404  19.8552322  46.8687677
   9.2080736  19.4300747  47.3623562  62.0228630  43.1504841  59.6982165
  62.5254375  42.4618424  59.2629887  62.3027450  43.1097163  60.6126751
  59.5617171  74.8579147  43.9318943  60.3690522  74.3551381  43.8239288
  59.8406505  75.6716373  44.3517590  20.4340970  36.8870970  64.9536045
  19.5159984  37.1031214  65.1168834  20.6736195  36.3011178  65.6715803
  28.1540322  30.0556660  57.8213596  27.4019027  29.8554420  58.3785343
  28.7681413  29.3390751  57.9813671  66.5868895   9.4936091  29.8172212
  65.6618766   9.7203743  29.7215009  67.0467739  10.3304517  29.7506547
  72.7063833  16.3322501  15.7249467  71.8327938  16.1034446  16.0423200
  72.5468753  16.9289165  14.9936692  48.3594513  26.0679817  56.4612579
  49.1554832  25.5369759  56.4367723  47.8663588  25.7962275  55.6871510
  64.4877331  35.9863138  19.3981457  65.2444653  36.2187433  19.9362588
  63.7451856  36.4012599  19.8370922  24.9085784  21.2149310  46.2875795
  25.2667642  20.9802866  45.4314995  25.6457233  21.6058517  46.7566586
  73.0860196  75.8124304  32.5587964  73.1113671  76.6043234  33.0959082
  72.2730385  75.3761148  32.8136015  67.8820710   1.7441839  24.3092370
  68.5789470   1.1608312  24.0087461  68.3339004   2.4096999  24.8280525
   1.4149415  30.2339745  64.1021824   2.2605100  30.0668907  64.5185089
   0.7691650  29.9924874  64.7661781  61.5620535  75.0806535   0.2504026
  60.8815645  75.3969080   0.8446670  61.3959711  74.1410343   0.1744782
   6.1239743   9.4091231  60.4655123   5.3202343   9.0181738  60.8081388
   6.7523462   8.6872983  60.4468012  11.5460062  54.4168949  46.2049103
  11.0377765  55.0670338  46.6899395  11.1638665  53.5766077  46.4581442
   0.5365202  34.7712398  28.0875206   0.2313663  35.5154872  28.6063743
   1.4911424  34.8182750  28.1396341  24.9439462  29.1002890  10.9597938
  25.8210742  29.4813999  10.9193818  24.3600308  29.8527315  11.0552136
  10.3274274   5.3897268  35.8936858   9.3982363   5.6160992  35.9335661
  10.4349947   4.7026324  36.5513802  69.2329006   2.5210056  57.7217340
  68.7269799   2.5592446  58.5334110  68.8629500   3.2149348  57.1759987
   0.6785989  18.6434555  36.4949155   1.4083713  18.0328071  36.5987062
   0.7176555  18.9094245  35.5762386   7.1412767  76.7356285  37.7231741
   6.2884343  76.3022694  37.6901364   7.6504482  76.3154620  37.0300364
  28.7257925  56.3189289   3.6881082  29.4948869  56.5777406   4.1957919
  28.6047747  57.0290908   3.0578248  15.4924154  23.2159472  50.0857258
  15.5728686  23.9891124  50.6442738  15.3633237  22.4910259  50.6973267
   1.8629813   1.9635534  33.2540417   2.1304342   2.6478100  33.8676333
   0.9791602   2.2146483  32.9856324  77.2352393  12.9496109  33.2985282
  76.6801505  12.1740508  33.2172060  78.0056788  12.6436138  33.7770891
  70.4429523  13.4620714  58.3566475  69.5735542  13.0625606  58.3843899
  70.5801956  13.7987506  59.2421103  78.2824343  75.8103264  42.4434757
  78.0639808  76.4324070  43.1373978  78.7934249  76.3213704  41.8158197
  75.0811737  59.4404523  56.1430454  76.0076564  59.6804814  56.1586761
  75.0718587  58.5429243  55.8104944  32.9352503  69.6352360   1.2460248
  32.2956251  68.9655611   1.4881866  32.7193909  69.8561332   0.3400199
   4.8179281  18.5540009  38.1984377   4.7436979  19.3736267  37.7096272
   5.1665258  17.9275846  37.5641561   4.8080310  14.3903744  49.3883276
   3.8744307  14.2466140  49.2335558   5.0193059  15.1684809  48.8724375
   5.7222533   9.2240781  42.6394129   5.4988354   8.3330178  42.9083490
   6.2289500   9.5753157  43.3716154  42.1478050  69.4575886  54.7384214
  41.9197052  68.8021056  54.0792227  41.3109403  69.6998076  55.1349306
  69.3546086  58.5267107  47.4207640  70.2818077  58.4353105  47.6402569
  69.3327480  58.5153429  46.4638805  20.7590853  61.3420078   5.5362145
  21.1344319  61.9274446   6.1939446  20.0777995  61.8637201   5.1120727
  43.9892565  37.0704035   6.4702527  43.5729241  37.4534112   5.6981103
  44.2409407  36.1890779   6.1942927  70.1870160  10.6584191  35.4003453
  69.3423943  10.8239770  35.8191967  70.2260606  11.2899518  34.6821022
  77.0569008  66.2342219  49.3177748  76.7020529  65.4090063  49.6484327
  76.4495771  66.4958982  48.6257362  77.3258560  70.4054688  47.5750828
  78.0607646  69.7921846  47.5797272  76.7043393  70.0392823  48.2042551
  47.0592975  71.8063174  18.8015068  47.6937251  71.3551662  19.3584597
  47.3269784  71.5886591  17.9086447  79.1777967   5.6032758   3.0091016
  78.9734577   5.1369481   2.1985404  78.3962892   5.4952006   3.5511367
  81.7689857   2.1321031  22.0480752  81.7571765   1.3376805  22.5819135
  81.7547620   1.8142518  21.1453009  22.4621344   0.7392468  16.1316764
  21.6347122   0.9040826  16.5838170  23.1192040   1.1886154  16.6632390
  49.2103386  10.8088076  50.2212715  49.5598984  10.3221536  49.4748068
  48.7003660  10.1631904  50.7104969  72.3315494  15.1917398  62.7973127
  72.9512749  14.8116839  63.4199905  72.3251955  16.1259675  63.0056620
  39.4390897   6.4919865  34.3848372  39.4460659   7.2121710  33.7543464
  39.5346193   6.9183242  35.2365065  39.7784608  74.9100779  40.9952497
  38.9130097  75.0482873  41.3801193  39.6798592  75.1780128  40.0816202
  70.8294122  18.1575251  54.0992022  70.0531737  18.7059438  54.2128801
  71.5439240  18.7793839  53.9613724  76.1523192  70.3927724   9.5303363
  76.3645022  71.3040493   9.3283850  76.1401575  69.9553571   8.6790127
  48.9867698  32.3576090   0.5428712  49.2767870  31.4520416   0.6527392
  48.2156932  32.2954377  -0.0208695  22.8337383  38.0677962   9.4401628
  23.2072186  37.2175860   9.6722960  22.5502348  38.4408092  10.2748597
   7.6080400   1.7503908  15.7319796   7.4249786   0.8492287  15.9977376
   8.4865260   1.9257942  16.0692155  51.6540198  15.0222552  43.7768507
  52.4298577  15.5806220  43.8271856  51.5246181  14.7107100  44.6726322
  34.1361308  18.1943524  43.6553955  33.2414913  18.2310367  43.9937782
  34.3516040  17.2617435  43.6486626  30.1618171  25.0289917  63.8339567
  31.1183715  25.0020838  63.8113689  29.9552274  25.5583477  64.6042395
  64.4291894  22.0457387  13.6206579  65.0005738  22.4616313  12.9750681
  63.6768989  22.6336670  13.6887002  14.4653726  38.6710072  50.9784079
  14.0742123  39.1776347  50.2666807  15.4087687  38.7844467  50.8627892
  79.5271565  15.5270624  32.6034927  78.9391245  14.9566674  32.1084189
  79.2973675  15.3708601  33.5194778  79.7376300  46.5072918  50.0750351
  80.5301468  45.9727049  50.0264120  79.8238751  47.1296835  49.3529415
  19.0649164  57.6504946  65.3732252  19.0552235  57.8157282  64.4304419
  18.1414580  57.6458883  65.6250858  43.2714081  34.2245626   5.8086663
  43.7900448  34.1874599   5.0050032  43.0451202  33.3123469   5.9900171
  21.7386626  56.8263265   5.0367181  22.4762972  57.4300656   4.9493854
  20.9750807  57.3943552   5.1392762  34.1570830  10.5872774  46.9582796
  33.7453985   9.9828249  47.5758457  34.6801186  10.0257623  46.3861179
  73.7987445   4.1897452  38.6235070  74.3993728   3.4831256  38.3865118
  74.2946945   4.9914327  38.4574890  29.8464489   5.6249809  50.8653688
  28.9323235   5.4450619  50.6457424  30.2865458   5.6970793  50.0184059
  73.7681798  24.0481830  32.1506834  73.2941554  23.5148406  31.5126562
  74.4520931  23.4686661  32.4863267  29.2591997  61.8087599   4.8115556
  28.3480311  61.9562432   4.5580785  29.2113865  61.5311882   5.7263772
  45.2742557   2.2500300  29.2474604  45.1554970   3.1998333  29.2458725
  45.3871398   2.0243098  30.1707911  65.8210544  26.4399576  56.8693924
  66.6847639  26.8147659  56.6968918  65.7498662  25.7095122  56.2548923
  77.9788368  69.3074546  58.3688259  78.2688849  70.0477878  58.9017534
  78.5499733  69.3267922  57.6009321  39.1884112  62.0942354  57.7523470
  38.3662081  62.1750641  58.2357502  39.3688917  62.9797888  57.4369812
  71.6733472  32.3083830  58.3077574  71.6810612  33.1272197  58.8034153
  72.5981180  32.0940924  58.1848383  11.0652781  29.8719645  44.3804836
  10.7646430  29.8188162  43.4732723  10.4662991  30.4927444  44.7953176
  10.4629230  33.6641526  34.6465111  10.6817186  32.8153658  35.0311160
  11.2343693  34.2069077  34.8093653  77.9088341  10.8845007  42.0672512
  78.3462719  11.7026544  41.8316555  77.1641634  11.1568415  42.6034689
  45.6728172  22.0783281  39.7113180  45.9198236  21.1553025  39.6543670
  45.8473206  22.3172379  40.6216478   0.8148777  58.4219870   4.3140332
   0.7573687  57.7110371   3.6756961  -0.0950945  58.6169752   4.5379989
  71.9042651  12.6300204  21.0249376  71.8868176  11.7745221  20.5959249
  71.4749674  13.2182777  20.4037380  13.6801930  35.4908395  46.4626646
  13.2487412  35.6318498  47.3053980  12.9610653  35.3676844  45.8430529
  58.7657690   7.7697998  54.0190506  59.4494915   8.4320903  54.1197062
  58.1486988   8.1552094  53.3970261  16.2578988   3.1820270  58.2859230
  15.3443372   3.2389200  58.5659218  16.4411116   2.2430106  58.2557011
  25.9649301  50.7310629  18.9741611  26.0444045  50.2914286  19.8207068
  25.0974369  51.1351299  18.9946258  20.1998305  13.9739764  34.8836017
  19.3911827  14.2777014  34.4712090  20.3747368  14.6173584  35.5704069
   6.8570453  25.9193039  52.1057749   6.8372315  25.7094455  51.1720705
   7.3135787  25.1802301  52.5077391   7.7816617  36.7740250  11.5699732
   7.5967848  36.1870265  12.3031068   8.1082606  37.5746083  11.9806218
  53.6419201  16.3796449  50.1956034  53.0993748  17.0784855  49.8302269
  54.5101404  16.5301692  49.8217583  38.4145199   1.5358551  10.8049142
  39.1743027   1.9351156  11.2286544  37.7767169   1.4267548  11.5102768
  29.0552306  30.2283740  55.0444031  28.6394501  30.4346657  55.8815432
  28.3493018  30.3009629  54.4020414  77.0610814  44.1238689  46.1887312
  76.1685829  43.7944698  46.2944508  77.3623584  43.7393522  45.3655577
  16.0286605  29.7752285  14.5091844  16.7757440  29.2469335  14.2281115
  15.3927088  29.1374421  14.8332632   2.9233077  38.5934615  56.4223576
   3.0578005  39.4665885  56.7908621   2.4318239  38.7471390  55.6154776
  16.8407440  68.3490562  29.8277903  16.9073331  68.8120842  28.9926815
  16.6571975  67.4416494  29.5845723  48.3936202  62.1982858  29.6972672
  47.8158080  61.7823693  30.3370873  48.8342177  61.4682767  29.2622964
  10.9708905  29.1148615  62.9392672  10.0140810  29.1176367  62.9120827
  11.2169611  28.2455230  62.6231432  10.8649170  35.2640939  13.1950712
  11.1424279  36.1324906  12.9033387  11.4785242  35.0389242  13.8943684
  57.9478101  20.0687861  25.5303502  58.0897693  19.2663991  26.0326004
  57.0574622  20.3382277  25.7559919  11.0348773   9.6973920  24.8699594
  10.1163483   9.9159735  25.0273085  11.3625336   9.4115615  25.7227039
   3.6953390  17.2972071  33.5029364   3.2335365  18.0844045  33.2143354
   3.5570610  16.6659653  32.7967882  12.6519239  69.5899820  29.2504311
  13.2779860  70.0269127  29.8278141  13.0658686  68.7536144  29.0374279
  18.0899668   5.2625155  37.9257488  19.0348303   5.1406497  38.0185556
  17.7483654   5.1727605  38.8154030  56.1095702  49.6830770  14.9148671
  55.8218300  49.3264696  15.7552640  55.6860220  49.1268870  14.2610375
  51.6038041  12.5361192  59.0838718  50.8839230  12.0556378  58.6750412
  51.7990665  12.0428133  59.8805857  44.4123316   6.1147898  32.5343084
  44.4841814   6.7167199  33.2750845  44.5780373   5.2505648  32.9109883
  74.8240922  13.9911807  55.0662899  74.6674959  13.4693575  55.8533144
  73.9933429  13.9638746  54.5915890  35.1357019  61.9223256  60.7762243
  35.1710170  61.1460013  61.3350661  34.2435217  61.9274635  60.4294969
   7.3386103  57.0510292  49.1255331   7.1312845  56.7916203  50.0232840
   6.5041673  57.3493147  48.7636471  27.0428112  43.2103455  14.2996900
  27.5615317  42.4264979  14.4806401  26.4178918  43.2563233  15.0232808
   7.4872094  28.2113099  45.2768850   7.9118395  28.4505200  44.4530487
   7.8787023  28.7952280  45.9265041  35.5938077  16.3731503  21.8869185
  35.9717584  15.7154393  21.3031387  35.5417442  15.9369552  22.7373624
  32.0995259  55.3365898  44.4431925  32.3884273  55.4765606  45.3449583
  32.5853705  55.9843874  43.9327574  73.0107152   2.3280342  44.2990065
  72.2549378   2.8404625  44.5861530  73.2018410   2.6551064  43.4199572
  26.1468220  31.3377094  62.7303123  26.6910672  31.0132694  63.4477854
  26.0239053  30.5783701  62.1606398  22.3574424   2.5535840  55.2639198
  22.8986049   3.2251984  55.6790209  21.4990377   2.9652941  55.1645803
  68.4337215  16.8242991  36.9275951  67.7130358  17.3528504  36.5848446
  68.7543385  17.3174143  37.6827598   4.2633510  23.5660219  27.4175858
   4.6669167  23.6731172  26.5562510   4.8818091  23.9732289  28.0241537
  18.0653059  23.4899116  48.7345791  18.0854690  24.4163465  48.9744616
  17.2913671  23.1441569  49.1792154  40.9799349  54.5937142  12.3687665
  41.0905837  54.8558506  13.2827012  40.9061741  53.6398861  12.4004285
  15.9235430  24.0830350  53.0742598  16.2726164  24.6254158  53.7815094
  15.0000274  23.9649034  53.2965136  31.1074996  15.5835724  25.2589130
  30.6871223  16.4330697  25.3926039  31.0368109  15.4269052  24.3172717
  72.6111434  30.3256392  22.2644401  73.2069550  29.6899438  21.8680382
  72.1663849  30.7329416  21.5211201  38.7890816   0.1974755  52.6269341
  38.5751152  -0.7217810  52.7863646  38.7860703   0.5983268  53.4961510
  20.6815410  18.6453283  53.5011196  21.4432287  18.0656576  53.5078144
  20.9654140  19.4194567  53.9873028  70.6565444  43.4151745  17.0946550
  69.8809938  43.1669188  16.5915418  70.3479819  43.4696341  17.9991186
  71.2196439  74.9468170  43.2823896  71.5003114  74.1947542  42.7609873
  71.2058287  74.6222661  44.1827822  23.7280536  59.2800856   8.8237017
  23.8649440  58.3351374   8.8912678  23.2832813  59.5164680   9.6376622
  15.0827419  18.4602114   4.8983304  14.2034494  18.2734081   5.2272384
  15.6558227  18.3157059   5.6512754  38.0584936   7.5239789  55.2650690
  37.1388416   7.2639847  55.3186893  38.0517511   8.4653485  55.4383039
  66.4777045  34.5496392   2.0661288  67.3171954  34.4169235   2.5064388
  66.3094322  33.7214589   1.6166474  44.2279387  48.1816673  38.0986476
  43.9620924  49.1002893  38.1398058  43.7636518  47.8318024  37.3382115
  15.8941913  42.3651505   3.1906146  16.7818141  42.7228689   3.1706899
  15.8791399  41.8048191   3.9665222  44.0752541  64.1254494  14.6887986
  43.4157740  64.4759270  14.0900628  43.8515794  63.1988117  14.7756497
  13.8381791  66.9996834  28.8581848  14.7620690  67.2499132  28.8648844
  13.8468599  66.0556602  28.7001395  47.4393546  56.3639983  11.6566293
  47.8458249  57.2198710  11.7926280  48.0857789  55.8691284  11.1531751
  27.3919559  37.1516323  23.4001040  26.6523504  36.5889502  23.6294675
  27.8634453  36.6640234  22.7247024  54.5379507  15.9356496  24.9056260
  54.3042123  16.4523217  24.1344945  54.1958439  15.0610277  24.7206132
  15.5816269  48.5017633  52.6802254  16.1030340  47.7051640  52.5812483
  15.3915834  48.5487556  53.6171913  26.1033630  32.5161695  41.0962725
  27.0007658  32.5608015  40.7662582  26.2012005  32.4023056  42.0416260
   3.0889422  19.1884220  47.1056461   3.0683559  19.7690070  47.8663874
   3.5129091  19.7057641  46.4209270  13.8542140  69.9835692  60.2885675
  14.4453491  70.7237957  60.4258823  14.1899551  69.2984973  60.8666563
  19.0209305  38.5309386  30.3034449  18.6891210  38.2504940  29.4505167
  18.5133886  38.0232644  30.9366083  78.5788326  28.1881166  57.4683809
  78.9272325  27.3493838  57.7706718  77.6516075  28.1614161  57.7045441
  81.7302966  11.9492817  41.6918230  80.9409056  12.0774794  42.2178078
  82.4485544  11.9942546  42.3229456  74.0560452  11.4965808  47.4384880
  74.2562954  12.4190831  47.5969839  74.7054903  11.0184908  47.9541254
  73.1678359  16.8643260  46.1658907  72.9667048  17.2002506  45.2924299
  72.5345246  16.1598563  46.3032627  11.4061356  65.0463247  41.2786627
  10.8636403  64.3995428  41.7298937  10.7886159  65.7198334  40.9935474
  59.5825915  17.8615332  41.1423969  59.1742281  17.1260750  40.6857061
  58.9175467  18.1561553  41.7646074   7.6550466  55.3096724  38.3001113
   7.0258415  55.8342743  37.8050089   7.1141022  54.7385359  38.8454676
  13.2347822  40.0032187  40.7336378  12.4919009  40.5313540  41.0259199
  13.5460019  39.5677257  41.5271854  10.1735389  38.7285733  31.0637116
   9.8353362  38.5361481  30.1891685   9.7466630  39.5490265  31.3104200
  27.9065371  27.1753812  38.6873531  27.2098684  27.7144861  38.3128548
  28.2924843  27.7235007  39.3706107  77.9261218  20.5953860  52.4029827
  77.4506555  19.9484897  52.9242182  77.2440351  21.0618329  51.9198513
  38.0217505  56.9256353  18.8944554  37.6858044  56.4787769  19.6714306
  37.8159094  56.3344145  18.1703579  22.8524733  28.0549121  54.6480179
  22.5088501  28.9080811  54.3829584  22.8088999  28.0656981  55.6041622
  29.9395752  10.7052445  58.9623451  30.7226539  10.4927683  58.4545326
  30.2498078  11.3039613  59.6416998   5.4546946  72.8839874  15.9624732
   5.1350027  73.5161781  16.6061831   5.4428834  72.0454645  16.4239669
  42.1253883  75.5398628   7.6768271  41.3600539  75.1618954   7.2436587
  42.2452890  75.0046155   8.4612815  30.5235600   7.6837432  28.0844975
  31.2034893   7.1769106  27.6406002  29.7169709   7.1935833  27.9251528
  23.5628963  49.1901112  31.9973087  24.1912341  48.5433006  32.3183322
  24.0087843  50.0304317  32.1035218  25.6675649  22.1803379  50.2328110
  24.7987413  22.0648861  49.8480415  26.2712121  22.0733929  49.4976902
  35.1324201  41.9589138  62.0521879  34.6928930  41.2379265  62.5029945
  36.0560727  41.7079020  62.0427275  21.3958133  59.9552147  39.7982502
  21.7748512  60.7246713  39.3733978  20.9560645  59.4833724  39.0909910
  59.7725582  73.9889240  34.3193984  58.9346123  73.8787079  33.8700271
  60.2795458  74.5614910  33.7437582  15.8000934  27.8327298  49.6347666
  14.9322295  27.6745009  49.2632723  15.7059824  28.6503506  50.1235104
  77.9367269  21.6777396  48.0545425  77.9602216  20.8598852  48.5513258
  78.6613969  22.1936059  48.4080505   5.1357502   6.3477433  54.4680834
   4.3858916   5.9334403  54.0411186   5.5273789   5.6503648  54.9939346
  54.9887781  22.5036907  20.2205801  54.2417864  21.9888973  19.9152541
  54.6310071  23.0558109  20.9158468  79.2143489  50.4373884  56.4197826
  78.9085232  50.4724121  55.5134296  79.4632514  51.3389158  56.6235828
  32.0098162  73.4150982  34.7391939  32.7255559  73.4659290  35.3727293
  32.0146775  74.2673492  34.3034482  72.6781087  72.4890525  48.5994339
  73.0968528  72.5402896  47.7402115  73.3312052  72.0695440  49.1595268
  60.8503292  12.5639634   3.6170308  60.6146507  12.7847056   4.5181195
  60.2671038  11.8405728   3.3872716  50.3999078  71.4227435   8.9929406
  50.1408850  72.3202345   9.2018621  49.5725548  70.9529540   8.8879649
  75.8293460  73.1962204  36.8775988  75.6211959  74.0274096  36.4509439
  75.4476200  72.5308895  36.3050151  75.9812288  11.2189674  15.6969070
  75.1944445  10.6758559  15.6496680  75.6751369  12.1023691  15.4916239
   7.4035824  69.5832376  17.3023140   8.2525600  69.4375346  16.8848932
   7.4575508  70.4731600  17.6506782  23.7345298  35.7254746  14.5522420
  23.0268603  35.6719500  15.1945607  23.8734698  36.6641676  14.4266145
  11.7024314  68.3964300  50.9487200  12.1650660  68.9078379  51.6125488
  10.7959187  68.3706474  51.2549925  81.3970893   4.2337471  39.2341328
  81.3886853   4.3912381  40.1782513  81.3945445   3.2802254  39.1503382
  41.3094091  62.6069689  18.1177247  41.6074800  61.9301510  17.5100267
  40.8823299  62.1229839  18.8245451  34.0921497  32.8400326  55.6974268
  33.1998610  32.8250408  56.0435915  34.1108322  32.1328068  55.0526667
  23.9820766  38.8802624  19.1046429  23.2898569  38.9731908  18.4500980
  24.1228342  37.9358649  19.1719639  63.6085265  69.3748198  42.0322323
  63.4793912  70.1261638  41.4534092  62.7355390  69.1839234  42.3752832
   7.4433661  29.9354792  59.3169403   7.3924130  30.7402110  58.8011503
   8.2035887  29.4728112  58.9644766   6.8627650  72.9591465  42.9462051
   6.5077448  73.8160944  42.7099180   7.8032488  73.1081438  43.0437803
  70.1414089  15.6889093  16.6326213  69.6894865  14.8541451  16.5094626
  69.5661799  16.3353419  16.2233925  17.1361970   7.0504292  15.0492871
  16.6760194   7.8149613  15.3956378  16.4949381   6.3415917  15.1000214
  57.6552801  22.2262335  53.6784601  57.0488910  22.0113826  52.9696798
  57.8869133  23.1423903  53.5260296  39.0057658  65.0311252  12.0282142
  39.1235530  64.0814683  12.0507495  39.8066699  65.3622338  11.6218249
  10.8693337  18.9657676  46.7494011  11.3841534  19.3624556  46.0466719
  11.4760089  18.9081085  47.4875450  79.2433248  34.3744392  60.8942045
  79.6818505  34.9860887  61.4856531  78.6428986  33.8857473  61.4571448
  33.0000852  23.8771110   6.2554805  32.0905350  24.1675859   6.3231198
  32.9450963  23.0083709   5.8573644  12.7465224  23.6483622  64.0544796
  12.8519201  23.9933443  64.9411106  12.4040401  24.3859625  63.5496235
  12.5745201  46.9923306  56.0935307  11.9564724  46.9181919  56.8206835
  12.9211164  46.1070061  55.9825754  63.5433113  65.9269878   6.0586755
  64.2283355  65.6821915   5.4365413  63.4367644  65.1545235   6.6138141
  45.3305340  46.9929934  23.9059091  45.8954859  46.4616776  23.3448720
  45.8349705  47.7902937  24.0674329   5.7299269  60.9552781  41.7309427
   5.8164419  61.0500376  40.7823801   6.6278590  60.8444647  42.0434618
  18.1916213  21.0946488  60.4261780  18.1966758  21.9171166  60.9158230
  18.9476979  21.1586380  59.8426676  19.5835257  37.4945593  37.6702046
  20.4178381  37.4186397  37.2071815  19.8210669  37.8125906  38.5412169
  71.8214969  16.1084437  31.1977649  72.0816229  15.2633202  30.8312511
  72.1267931  16.0804367  32.1045399  37.8318620  43.3955765  15.4559982
  38.6834407  43.6169147  15.8328974  38.0254054  42.7176762  14.8085237
  36.1324835  13.7189543  27.8046107  36.0431051  12.8383660  27.4401832
  37.0033622  14.0049887  27.5289512   4.6463121  70.9569357  54.8228312
   5.5945242  71.0694412  54.8896790   4.3009914  71.8490730  54.7899961
   1.5683922  40.8564901  48.3041239   1.4724982  40.1486254  48.9412737
   1.6467421  40.4106236  47.4607420  51.4068400  72.7275583   1.7664306
  50.7636630  73.1841418   2.3087279  50.9122550  72.0201465   1.3526837
  79.8945929  11.8380880  34.5711207  80.1576978  11.9310558  33.6554980
  80.4941310  12.4088693  35.0517392  64.0311210  31.4570308  42.8767729
  64.5975010  31.8939233  43.5128307  64.4952683  31.5429020  42.0440483
  80.2595974  34.9165082  38.4232831  80.6747764  35.4267311  39.1186476
  79.9004368  34.1501188  38.8703656  78.1316464  56.6288010  26.0623050
  77.9919093  56.0240070  26.7909527  77.8710096  57.4830214  26.4067006
  30.9504604  25.1227331  49.9005461  30.2345705  24.5666003  50.2078676
  30.9562612  25.0027394  48.9509153  25.3509784  45.3279972  47.3483038
  26.2597561  45.5898476  47.2006941  25.4142070  44.5209455  47.8590870
   0.5351413  49.7047758   5.3768814   1.2861675  49.1189623   5.4718089
   0.3620329  50.0180578   6.2646431  42.3501139  76.9068253  24.2955065
  42.4945038  76.0115765  24.6019578  42.3578077  77.4369565  25.0924587
  26.4334512  49.1406012  25.2195644  27.0540214  49.6917820  25.6963515
  26.2767839  48.3972740  25.8019376  54.4859076  27.6932764  54.5731831
  53.5943079  27.9490232  54.3368053  54.3783140  27.1302915  55.3397989
  69.1221420  67.1866322  56.5893316  69.4545917  68.0785275  56.4881659
  69.8248760  66.6296530  56.2544203  32.0654655  20.4927731  10.5799329
  33.0075765  20.5459142  10.4191995  31.8794799  19.5541739  10.6058490
  38.3039331  14.1754949  43.5083055  37.3888826  13.8991272  43.4579515
  38.7290835  13.5008931  44.0378284  15.0663507  19.2810893  34.6968174
  14.5888638  19.9569249  35.1779437  15.7916117  19.0430963  35.2743888
  71.1637430  21.1392593  22.8067017  70.4775481  20.5975580  22.4169207
  71.9630258  20.6222534  22.7062845  11.2636602  47.3531485  13.3442652
  10.9958327  47.0896101  14.2246330  11.3955140  48.2991362  13.4071469
   9.9378836  36.3471413  61.9875050   9.9671799  35.6031895  61.3859129
   9.0280718  36.6431427  61.9582415  23.9107704  50.6311798  48.7580013
  24.8026013  50.9759712  48.8025856  23.3571625  51.3629675  49.0304661
  76.1682831  32.4677563  49.8904181  76.4617930  32.6389527  50.7852793
  75.6426112  31.6707730  49.9591112  36.7770290  21.3314700  44.2124319
  37.1983171  20.5223870  43.9223671  35.9716535  21.0418153  44.6410322
  11.3921010  27.5413871  36.2806630  11.3072598  27.6684284  35.3357315
  12.3023510  27.7674174  36.4719439  29.0287852  37.9240632   7.2732568
  28.9032793  38.3774137   6.4396173  28.2321405  38.1110263   7.7698797
   3.3697802  11.2650657  66.5072346   2.5627258  11.0036099  66.0639095
   3.2919043  12.2139084  66.6065502  76.7009590  25.4037046  21.4787984
  77.0608638  24.5170355  21.5015435  77.4648513  25.9744740  21.5620112
  28.5154462  16.2772882  34.6287465  29.2325783  15.6435668  34.6100497
  27.9902864  16.0675585  33.8564420  69.2391459  25.5827761  16.8182397
  69.2846279  25.0434637  16.0287428  68.3044438  25.7478046  16.9420469
  81.3040639  21.3495398  45.9867859  81.1809108  21.4866996  46.9260693
  82.0926054  21.8483758  45.7732487   9.5037144  49.5701218  25.1674533
   9.9929023  48.8396072  25.5459714   8.9481717  49.8820782  25.8817983
  25.8698964  38.4325266  50.0158358  26.3397121  38.9308047  50.6845808
  26.4644837  37.7179122  49.7877502  64.8522942  12.8570271  28.2278514
  64.3749754  12.3508155  28.8852334  64.4935636  13.7415469  28.2997513
   1.6543788  45.8786678  43.3448172   2.2927657  46.1813879  43.9906120
   2.1803090  45.4429388  42.6741648  29.0424037  51.7073250  44.0571880
  28.2403135  51.9594431  43.5996723  29.3347716  50.9139442  43.6085272
  24.8577523  18.6386240  37.0334554  25.6020069  18.6663938  36.4321709
  24.9400115  19.4380236  37.5534797   5.0592774  52.1003628  53.6498880
   5.2062964  51.6985035  52.7936602   4.3403924  51.5960979  54.0308762
  22.6907969  25.6195951  39.1607308  22.7263737  26.0812330  39.9985003
  23.1417751  24.7912955  39.3243432  78.6772494  25.2845931  38.4061313
  77.9804130  25.6374574  37.8528333  78.2427515  25.0719786  39.2321086
  47.1025753   7.6366216  51.0432625  47.0599937   6.7144066  50.7904053
  46.1903000   7.9263949  51.0467339   4.4781125  58.4693527  31.9997263
   3.9689201  58.5756254  32.8032565   3.8633451  58.6801052  31.2969613
   3.6304444  26.6992044  14.1207111   4.4667184  26.2363601  14.1722083
   3.5711420  26.9859910  13.2094109  70.8245210   6.8755579  49.1605520
  71.6265552   7.1301466  48.7043095  71.0493307   6.9312316  50.0893116
  14.7238255  25.4756355  37.1161103  14.4469094  26.1665845  37.7178884
  15.0437856  24.7760153  37.6856589  30.1449021  49.7636995   5.4371612
  29.9431428  50.2280304   4.6248071  31.0700365  49.9507007   5.5964963
  81.1860057   0.0962326  23.9220858  81.5032460  -0.3318097  24.7173023
  80.6161721   0.7972554  24.2384529  33.8112068  -0.0195207  58.5524702
  34.4621849   0.6137920  58.8547564  34.1974759  -0.4026687  57.7649260
  51.3897228  16.9240606   6.5880787  52.1675491  16.8703842   6.0328013
  50.6928253  16.5308511   6.0627621  45.0653423  66.8008832  47.1928787
  44.1170181  66.6790454  47.1474171  45.2264942  67.6096074  46.7068481
  31.5486598  32.6222372  56.8131208  30.8743262  32.1528840  56.3219833
  31.4932513  32.2635007  57.6988220  30.5789351  32.5329781  50.1725531
  30.8949304  33.3167982  50.6220007  31.2189221  31.8561411  50.3928757
   3.4757508  65.8462862  54.2037487   3.5998524  66.7792861  54.3779373
   2.5671399  65.7760827  53.9109564  16.0594094  48.9024925  38.0504823
  16.7459321  48.8160324  37.3890853  15.7803988  49.8159981  37.9880881
  78.4903405  29.7817278  51.9632149  78.2266895  29.4775867  51.0947609
  77.6910572  29.7314143  52.4874735  79.5575067  33.0419946  28.0331326
  79.9178953  32.8641772  28.9018869  78.7500493  32.5290680  27.9992104
  24.2753339  15.5723679  44.4017696  24.1165042  16.3241446  44.9725914
  24.1755271  15.9194160  43.5153008  74.3252497  74.6352370  48.6407566
  74.1974752  75.3633187  48.0326414  73.5185271  74.1241987  48.5754108
   7.6936156  61.4880657  39.2461610   7.4010235  60.5769110  39.2257333
   8.5384059  61.4583302  39.6952462  26.3452125  16.6833699  49.6201849
  27.1101356  16.9875884  49.1317415  26.3156700  17.2462225  50.3938484
   5.9171808  44.4145155  33.5808301   6.4529943  43.6812973  33.8833690
   6.2890917  45.1798534  34.0191984  22.3199081  34.1239977  -0.1895670
  21.9977713  33.4386992   0.3959467  22.5284290  34.8562193   0.3906092
  39.7452140  10.6770909  34.7816324  39.1773176  10.3763211  35.4910421
  39.4459987  10.1913786  34.0130043  32.5255728  15.7884288  29.1792607
  32.6037788  15.0935376  28.5256243  33.1405544  16.4615989  28.8879299
  39.7019601  36.4289904  35.5228972  39.4753146  35.5005789  35.5768633
  40.2198029  36.5952992  36.3105607   4.0460476  69.3049145  45.8251619
   3.9557096  68.7108564  45.0800657   4.8399940  69.0103960  46.2714100
  32.0658057  75.3604598  61.4676523  32.7554744  75.3679612  60.8039236
  32.0996826  76.2337325  61.8581343  81.1093034  34.5008254  20.7248116
  80.2452244  34.3682480  20.3349113  80.9524222  34.4764972  21.6687536
   8.7127507  70.9262896  32.3693490   9.4843125  71.4405394  32.6069832
   9.0137053  70.3557253  31.6621614  23.3116889   6.6687268   3.2686412
  22.9387403   6.5916497   4.1468215  23.8139820   7.4832028   3.2923788
  34.5170253  72.8048391  48.5848427  34.2731707  72.8984151  49.5057201
  34.1055792  71.9853781  48.3102036  26.2826586  19.1537309  48.4707308
  26.0232878  20.0310111  48.1890583  25.4744101  18.7582445  48.7971592
  77.0303689  30.5188823  29.9703813  76.0796277  30.5573940  29.8662663
  77.3569743  31.2635565  29.4653869   6.8679690   3.4711027  46.3746405
   6.9596839   2.7043772  45.8089972   6.5523189   3.1185302  47.2066784
  27.1058226  24.8932719  14.4548488  27.2271276  25.0202751  13.5138988
  26.9688845  23.9510870  14.5536745  16.8425715  58.2958603  39.9247432
  16.4001536  59.1127157  39.6939778  17.4309874  58.5360956  40.6404877
  76.4794975  69.4731183  64.2823537  76.2602717  69.0534945  65.1142709
  77.0503193  68.8446970  63.8402163  26.1499739  74.1829824  21.3384128
  25.4664803  74.3857813  21.9771147  26.9061232  74.6944761  21.6262341
  17.3680747  32.7681994  36.5050602  18.0668378  32.3319316  36.0175848
  17.6547122  33.6790872  36.5710354  67.3348574  66.7222595  39.3616986
  66.5295772  67.0657969  39.7486520  67.5642817  65.9731913  39.9116969
  79.0063655   3.8449677  22.6165318  79.8605668   3.4657486  22.8233027
  78.9181220   3.7345703  21.6698241   7.4079627  50.8981419  65.2169895
   8.2897675  51.0037327  64.8599148   7.1985066  49.9759293  65.0690746
  45.3391600  11.4214969  57.1233892  44.8613071  12.2052157  57.3948145
  46.2599373  11.6818666  57.1480036  40.8898354  48.6576271  28.3974195
  40.9833813  48.0758810  27.6430655  41.5213680  48.3257580  29.0355873
  25.4648256  46.5477705  35.8165860  24.8951292  45.8922625  36.2190676
  25.2376580  46.5241957  34.8870325  56.4467209   4.7724202  37.5200160
  56.6002712   4.9768832  36.5976007  55.5873499   5.1492313  37.7090295
  65.6025462  41.8601942  41.9116259  65.6250898  41.6631889  40.9751892
  64.8464374  41.3740253  42.2405243  29.6581888  54.6284866  23.0407476
  28.7314320  54.4884491  23.2350183  29.6582699  55.2034998  22.2755075
  16.2227082  29.0658021  42.3545408  17.0635104  29.4824886  42.5433683
  15.6244993  29.4259977  43.0092430  19.1008532  39.6515584  51.5215492
  18.6468339  40.4589653  51.7627811  18.5831785  39.2917037  50.8013058
  71.9118314  76.8346520  28.1285882  72.3379093  77.2069358  27.3565173
  72.0524841  77.4849693  28.8167262  28.1302928  76.8220374   5.7026546
  27.3419712  77.1675536   5.2838485  28.2445794  77.3648259   6.4827506
  36.8826509  45.2652216  36.6235161  36.1783266  45.6366491  37.1547389
  36.5340710  45.2619696  35.7320499  12.3155392  15.6633905  64.4996193
  12.6598657  15.7969716  65.3826982  12.1944226  16.5475562  64.1534813
  78.4526945  59.9767494  29.7494102  79.4032340  60.0718784  29.8098826
  78.2350989  59.3202972  30.4111910  21.5622306  40.1424789  36.8308592
  21.1774349  40.9464264  37.1799016  22.4601746  40.1431465  37.1624136
  65.8131902  58.2999229  45.7690668  66.0526816  57.6590729  46.4385319
  66.4343528  59.0178156  45.8916044  21.6922277  23.5359530   4.0849845
  21.6010088  24.3809896   4.5252435  22.1106094  22.9712491   4.7348325
   2.8657922  41.6902065  44.2351818   2.8929901  42.1725893  43.4088659
   3.1614274  40.8086729  44.0077400  23.6328793  10.2457666  34.6363759
  22.7260327  10.3794110  34.9120593  23.6619401  10.5781758  33.7392163
  26.0753989  56.8729115   7.1917707  26.2053585  55.9274340   7.1181840
  25.5073476  56.9779062   7.9550040  19.1616791  70.4578013  58.7793799
  19.4149756  71.2545295  59.2455305  18.6427975  70.7689805  58.0376525
  12.4128527  19.3446307  48.8204877  13.0919117  19.4690375  48.1574361
  12.8131861  19.6517854  49.6338861  38.0640435  48.1848621  22.5807452
  38.3277082  47.3888779  22.1190953  37.1790075  47.9980993  22.8938961
  17.5089467  61.3091135  51.2497234  17.0407295  61.3465261  50.4156923
  17.2062492  62.0803261  51.7291355  39.5995247   3.7653168  49.1484356
  40.1166629   3.3936318  48.4338379  39.5567047   3.0668648  49.8015547
  13.7121987  19.4040751  24.0182924  14.3952894  20.0632143  23.8951850
  13.8838995  19.0405619  24.8869753  32.7377343  45.4162693  14.4326580
  32.5963402  44.8539400  13.6710632  33.6407280  45.7204294  14.3414593
  35.1244354   4.2952272  40.1957846  35.6293559   4.9635726  39.7325349
  35.1893854   3.5182548  39.6405125  22.4126410  39.9313426  31.2105727
  21.6774821  40.3649473  30.7772589  22.1300197  39.8319340  32.1196795
   7.7972937  44.8345518  11.1354244   7.9563868  44.0374231  10.6299460
   8.5353726  45.4052067  10.9213638  13.8143194  29.4562912  21.2075162
  14.7459376  29.6626163  21.1316991  13.5893261  29.6917820  22.1076012
  32.7486515  47.3979998  39.8262501  32.1699357  47.6580143  40.5429888
  33.1449914  48.2171106  39.5292497  46.8281603  59.9052763  14.3333507
  46.9556904  60.8525753  14.2824614  46.1435127  59.7908306  14.9924338
  22.5511146  32.7614760  58.6632252  23.0796885  33.4584165  58.2744884
  23.0839467  32.4321055  59.3869877  23.5123301  43.3984709  54.4924402
  23.6029029  42.4464226  54.5328665  23.8739347  43.7089300  55.3225565
  18.8328195  59.5384169  22.4032927  19.7262013  59.4120169  22.7228618
  18.6760235  58.7896013  21.8280387   3.0387700  46.6064787  30.9372401
   2.3267002  45.9724331  31.0219526   2.8748983  47.0402193  30.0998354
   8.3020568  28.6396432  33.4010744   8.6744928  28.9741802  32.5852275
   8.7932855  29.0873408  34.0899086  72.6903711  55.5990076   2.2996163
  73.1166898  54.7880363   2.5767592  73.4123199  56.1763096   2.0511284
  32.8171968  51.6878891  17.4759161  32.9247308  51.0855961  18.2120633
  32.5525260  51.1286211  16.7455721   9.7403657  50.4764605  33.9771748
  10.4375982  49.8230934  33.9204931  10.1211286  51.2668800  33.5944414
  35.2908421  36.8796849  34.4258976  34.9285936  37.6771212  34.0397573
  35.8717895  37.1919942  35.1195788  23.4923935  59.3061399  57.7203131
  23.9727092  59.6281338  58.4831047  22.5776434  59.5179033  57.9063702
   5.6266981  39.8591819  58.4959985   4.8917252  40.3093296  58.0795671
   6.3310748  39.9016367  57.8492518  22.7197957  20.8112168  65.0697613
  23.2408309  21.5248871  65.4377747  23.3144045  20.3678799  64.4646835
  10.9006929  53.3569574  51.4263868  10.2260375  54.0359735  51.4231634
  11.7164338  53.8305950  51.5890741  18.5733235  35.8621955  51.9473696
  19.5046043  36.0683417  52.0276880  18.4461617  35.6878591  51.0148096
   1.9647748   3.5449799  40.5777740   1.9434507   3.4178456  39.6292973
   2.3736722   2.7487763  40.9170198  35.5196404  50.5815983  18.3214450
  36.3571715  50.3975153  18.7467504  35.7209826  51.2642288  17.6813614
  26.2862468  47.1012163  15.0550210  25.8676934  46.3998795  15.5541956
  26.5891695  47.7201748  15.7193696  38.0820012  52.1007776  42.9300690
  38.6976767  51.5243196  43.3826971  38.3382964  52.0492029  42.0092630
  19.2648137  38.1147742  40.5784178  19.3732321  39.0405273  40.7962608
  19.7656548  37.6506233  41.2492037   7.4922549   7.1916111  25.6646109
   7.6955437   6.9605931  26.5709972   7.9700422   8.0069359  25.5123186
  21.1791563  55.5040836  42.9464912  21.0206866  56.2076807  43.5758305
  21.6899014  55.9164238  42.2498226  23.2950616  71.9220829  43.5761642
  23.5507607  71.7536592  42.6692581  22.3383808  71.8926954  43.5646820
  47.1139740  71.3279483  11.3045661  46.5500569  71.5842625  12.0343129
  46.8672907  71.9181344  10.5924813  78.9442564  63.6753750  59.9142742
  79.1573913  64.2178440  59.1549730  78.7455086  62.8147030  59.5455313
  46.5827751  64.5217276  47.2676563  46.1931133  65.3331184  46.9420099
  45.8411980  63.9260864  47.3749065  41.8698203   8.3232411  20.8540344
  41.4348280   8.4266575  20.0076771  41.8585788   9.2000683  21.2378216
   7.5645131  52.0325470  57.0420408   8.1734246  52.3111200  56.3580418
   6.7024863  52.2887468  56.7141676  58.5423422  73.1704092  19.3885565
  58.2384253  72.8779650  18.5292888  58.0787849  73.9942598  19.5389318
  25.5747628  62.3421431  11.3985896  26.4423919  62.0313597  11.1400104
  25.1168108  62.4898148  10.5711210  42.9568672  35.7573843   9.0478009
  42.7814817  34.8164797   9.0347916  43.2909775  35.9508753   8.1719220
  22.7509785  32.3578691  49.9241638  23.3243895  31.9507408  49.2747927
  22.7797794  33.2919431  49.7170210  68.5679202  29.2800927  60.9911251
  68.6043005  29.3460894  61.9453526  68.1855170  30.1106572  60.7080030
  25.4663658  27.4415946  53.2094193  24.6346855  27.2152901  53.6257458
  25.3391933  28.3350468  52.8903532  10.0333941  68.6345196  18.9879298
  10.3883457  69.5104456  18.8362849   9.9785954  68.2439899  18.1157398
   1.9610089  71.4046574  33.0152607   1.9445245  70.4481077  32.9841042
   1.6397800  71.6213608  33.8905239  62.7948992  10.1414382  34.0452313
  62.3284201   9.4994324  34.5804501  63.7071042   9.8520774  34.0648365
   6.0463530  61.4950991  33.9811397   5.6950635  62.1211815  33.3480120
   6.2689024  60.7249117  33.4581518  74.9626009  14.4971693  24.4056892
  74.2857306  14.0066385  24.8720145  75.2016865  13.9344704  23.6691833
  53.2904863  50.9589911  44.7474241  54.0018702  51.0126066  45.3856134
  52.7234173  51.7008352  44.9579668  79.3940265  24.4713688   8.8023287
  79.9589763  25.1786566   8.4911931  79.2792474  23.9036679   8.0402440
  64.9989223  57.0392847  61.7999554  65.9240341  56.9741488  61.5629721
  65.0025225  57.1517038  62.7505255   9.9277604  21.9603589  61.0495551
   9.0308297  21.8478730  61.3643487  10.1906503  22.8203061  61.3775928
  23.5608077  39.9536109  21.6579080  23.0217791  40.7399845  21.5724707
  23.5850286  39.5828319  20.7757688  51.3855219  34.1494966   7.6261693
  51.0081244  33.7223697   8.3951712  51.2311363  35.0830293   7.7707845
  12.4272227  75.6293440  27.5381231  12.6139307  75.9471703  26.6547441
  13.1924164  75.1031113  27.7700472  35.3875327  47.0761633  26.2418127
  34.5203280  46.9989729  25.8440280  35.6928611  46.1730480  26.3277650
  33.8867068  42.2689533  41.1492777  32.9920244  41.9320726  41.1970615
  34.3370318  41.8582153  41.8873405  35.7711840  27.8697109  12.0694196
  35.9971070  27.6508546  11.1653769  34.8859334  27.5245643  12.1853435
  44.8131500   5.7294564  11.6188495  43.9437650   6.1299329  11.6142003
  44.7801433   5.0772147  10.9190480  60.8741605   3.4635933  25.0465155
  60.6796753   2.6619538  24.5609498  60.3965627   3.3664520  25.8703446
  46.4520073  69.6655941  31.3520241  47.0332241  70.4145002  31.4845395
  46.0582113  69.5130873  32.2110343  77.9517312  67.8295708  25.4124618
  78.0512406  67.3910284  24.5674706  78.7116729  68.4084272  25.4728508
  81.6392870  43.3154345  52.0717096  81.7049847  43.9181662  51.3310099
  82.0402995  43.7878799  52.8012419  68.5583620  41.8859625  61.3488340
  67.6023905  41.8505096  61.3819075  68.7795167  41.5715265  60.4722214
   3.3547223  66.4252138  47.9335833   4.1363576  66.1518002  48.4137106
   3.0155167  65.6173277  47.5482416  45.1748037  49.8500681  23.2732010
  45.8613873  49.5580339  22.6735759  45.5970049  50.5176926  23.8138151
  35.2322650  44.1944838  40.1341438  35.9925842  43.7842178  39.7220421
  34.7405362  43.4643555  40.5101109  71.0066478  57.7706528  30.0910449
  70.5893151  56.9645643  30.3948307  70.2770452  58.3507347  29.8732901
  22.3523760   2.2479346  41.6215181  22.4885821   2.8023392  40.8532000
  22.1274328   1.3901868  41.2611008  74.2354195  33.7175059  16.4111435
  74.6988694  33.5795450  17.2372258  74.1364406  34.6674657  16.3477945
  12.6927137  43.1823826  33.8036084  13.6433911  43.0827093  33.7535191
  12.3848927  42.3576355  34.1794682  53.2224237   8.1219013  29.7515821
  52.3840248   8.1832226  30.2093554  53.4930932   7.2112377  29.8684788
  21.1673856  68.0001307  16.6497612  21.6851068  67.5796032  17.3363137
  21.6230631  67.7798843  15.8373058  17.8579617  45.5061626   3.2044241
  17.3598993  45.4013681   4.0150928  18.4599912  46.2281370   3.3848280
   9.1600335  58.8571215  48.0986786   8.2908398  58.5806131  48.3889866
   9.7222078  58.7195158  48.8610840  47.1653759  76.6939018  63.3006954
  47.9600894  77.0245232  62.8819466  47.4636411  75.9546293  63.8305521
  11.7543614  41.6605139  42.4401140  12.3925662  42.3006582  42.7549839
  11.0318649  41.7150164  43.0656195  42.0649624  30.6838417  29.1075921
  42.8970337  31.0289311  29.4313288  41.6964006  31.3971066  28.5863948
  46.2246084  33.5595441  51.1846447  47.0049238  33.5001564  50.6334496
  45.7264948  32.7680135  50.9806919  57.3652029  28.7518406  64.3425131
  56.5475464  28.7359071  63.8451004  57.0885086  28.8254309  65.2558899
   6.5308666  67.3951817  49.3883896   7.0133275  66.5785456  49.5171165
   5.8826411  67.4039602  50.0926352  17.0600283  37.0671511  12.2360456
  16.5683985  36.7184925  12.9796648  16.3883519  37.3854947  11.6329372
  46.3571930  73.8746262  43.1742477  46.1650276  74.5174026  42.4915028
  45.5781651  73.3193779  43.2065582  52.5418605  13.4492021   2.0996205
  51.6907842  13.0119329   2.0732371  52.8827052  13.3638196   1.2092464
  25.7546949  39.5829892  15.4341543  25.2495313  39.4874907  14.6267378
  25.8306670  38.6921191  15.7759345  39.1614437  39.5888901  27.9005718
  39.1311479  40.0772667  28.7232518  39.6599603  40.1503992  27.3069215
  72.8981118  47.6825237  35.1724982  73.2457040  47.9583883  36.0206223
  72.9337542  48.4710932  34.6310854  34.3311596  51.0244799  30.4953814
  34.4109869  50.4471874  31.2547207  35.1782489  51.4668369  30.4407144
  29.5043111  43.5275459  27.9902816  30.2347660  43.0061769  28.3232141
  29.2615795  43.1020594  27.1679235  37.1387935  42.9064703  38.5050368
  36.9387937  43.6104679  37.8880954  38.0650830  43.0270910  38.7140083
  30.0955772  50.5680895  21.0153508  30.3908062  49.9973059  20.3059316
  29.9846077  51.4247847  20.6030560  16.7691708  21.7277145  36.0011888
  17.6501191  22.0826221  36.1203647  16.3471520  22.3337626  35.3922224
  67.7576952  41.6127586  35.2774334  67.7146475  41.7322397  36.2261701
  68.6660985  41.3627720  35.1084852  27.4312854  25.8188772  52.0616388
  28.0404401  26.5514827  51.9696999  26.6789722  26.1893940  52.5231314
  81.9323751  73.0377007  39.3481469  81.6125201  72.2874784  39.8492408
  81.5401419  72.9316378  38.4814644  16.1366975  72.8653097  61.3196039
  16.9576085  73.0713177  61.7667007  15.7166541  72.2120237  61.8790770
  64.9080420  70.4317093  36.4708352  64.2707777  71.0844898  36.7606735
  64.3837118  69.6546984  36.2770152  29.0720422   4.0060814  28.5830593
  29.7401292   3.9486416  27.8999829  29.1989762   3.2166203  29.1092300
  38.6957002  49.8684931  27.3840094  39.4233727  49.4652987  27.8574634
  38.8436007  49.6295547  26.4689875  50.3348637  58.3805656  31.7589021
  50.7999420  58.0689621  32.5353265  50.6313658  59.2839766  31.6485882
  50.8766937  56.7434311  19.9510443  49.9513769  56.6629982  19.7196257
  51.1354256  55.8602238  20.2141714  52.3312759  72.3004103  39.7339272
  51.7852879  71.5474367  39.5077372  51.7214966  73.0375767  39.7654247
  69.7148371  46.6757774  39.9360442  69.2143583  47.4835873  39.8211813
  70.5512285  46.8487024  39.5038652  24.1673827  54.0032959  30.0045896
  24.5816731  53.2304049  29.6208763  23.2284617  53.8286495  29.9400949
  31.3010597  66.4634228  32.0233297  31.1438251  65.8304501  31.3227177
  31.7449021  67.1933317  31.5915108  26.1194754  43.5215473  45.3808975
  26.7430592  43.3798456  46.0931444  25.6003475  44.2745209  45.6633234
  38.7162518   7.5725373  64.0244389  39.4731044   7.7245053  64.5904016
  38.4455764   8.4475525  63.7463760  51.2057114  74.0449095  52.3940849
  50.3521538  74.3272829  52.7226210  51.4444780  73.3050442  52.9524899
  45.6259632  74.3554401  16.0265625  44.9247169  74.6881866  15.4664135
  45.2948904  74.4685841  16.9175279  47.7460623  62.5260592  37.4560642
  48.1433439  61.8147564  37.9585028  47.3752594  63.1091499  38.1184411
  75.7947289   0.4225357  44.9375105  74.9670731   0.4218300  45.4183578
  76.1018120  -0.4826633  44.9879694  67.6564884  47.9133940  30.5590677
  66.7658854  48.2073212  30.7505345  68.0671787  48.6608696  30.1245022
  25.9256864  47.1080875  12.0981860  25.0826073  47.3597717  12.4751556
  26.3055348  46.5081549  12.7400804  37.8844976  72.3766947  42.2114229
  37.9185081  72.0137215  41.3263655  38.7141275  72.1139765  42.6100779
   7.8433466  45.7315111  56.9039106   7.4985427  45.0778627  57.5122595
   7.3184782  46.5143967  57.0707464  51.1988497  72.5573444  32.9945016
  52.1143198  72.5159025  33.2709718  51.2320662  72.4687672  32.0419884
  60.5493669  50.5069399  52.2537565  61.0862307  51.1355734  51.7712355
  60.8588128  49.6508360  51.9578409  42.0094204  70.2791929  50.8294153
  41.9498444  70.9242392  50.1247215  41.1105394  69.9734020  50.9508324
  56.8708563  45.7300377  46.5971518  56.6012907  45.4191685  45.7329035
  56.6999722  46.6716433  46.5770292  14.2698383  57.2876644  27.5962448
  14.1666758  56.3399792  27.6827073  15.2169967  57.4256849  27.5875568
   9.4934243  50.1973057   3.0537817  10.3836370  49.8664951   2.9341182
   9.5488006  50.7599545   3.8261744  31.6322517  43.3211470  36.8803525
  32.2711158  43.2909727  37.5925136  30.9113669  43.8466215  37.2273850
   0.6551020  70.8673716   7.4492943   1.2295440  71.4589214   7.9354203
  -0.1950863  71.3071537   7.4471784   0.5900498  36.3196588  19.4219887
   0.5945797  37.2113013  19.7701061   0.0902195  35.8146620  20.0633740
  55.8615828  46.4775038  25.2730680  55.7023048  47.0922470  25.9892750
  56.7885160  46.5900850  25.0624752  56.2548923  51.2926912  42.8862095
  57.0797110  51.3422728  42.4030447  55.6906271  51.9403696  42.4638939
  72.4382401  39.8120546  48.5234404  73.0991268  40.1997948  49.0971279
  71.6472435  39.7735095  49.0610933  34.4546652  46.4290667  21.3811326
  33.6580396  45.8983946  21.3823771  34.5391679  46.7363501  22.2837234
  54.9429213  17.7363213  27.2045970  54.2360508  17.5484474  27.8220677
  54.7721087  17.1574600  26.4616394  25.7325424  21.9491723  64.2803531
  25.9131587  21.3223031  64.9808130  26.2152112  22.7362254  64.5329607
  24.1913295  37.5798321  23.8151860  23.4161067  37.3529625  23.3015823
  24.5696902  38.3312178  23.3585715  73.9458358   8.4112175  42.8666830
  73.7783992   7.4949463  42.6461220  74.7386920   8.3875759  43.4024525
  48.7287188  71.2362337  24.0010548  49.5415497  70.7493830  24.1371322
  48.9679384  71.9369888  23.3944678  47.8846598  76.9610739  59.3450165
  47.0596552  77.4424219  59.2825508  48.4772158  77.5594425  59.8000622
  35.0021529  19.6118391  35.3988576  34.6030807  20.2992702  34.8655534
  34.9642801  19.9503326  36.2934065  29.1190100  66.7348719  15.1086402
  28.2452798  66.4466047  15.3727007  29.6927786  66.0052299  15.3423929
  47.0361780   1.5346297  21.9188738  47.1754526   0.6805666  22.3280358
  46.0885560   1.5893801  21.7953992   6.9128920  74.0829058  61.1721273
   7.4832369  74.8478432  61.0959448   6.0735489  74.4381471  61.4646019
  37.5365853  59.0242863  46.6066170  38.3541965  59.1956568  46.1393070
  37.3709345  59.8266363  47.1016169  47.3021746  54.4286156  19.4037509
  46.4797258  54.4700336  18.9157963  47.7217865  55.2728176  19.2379940
  43.7994194  48.4891987  56.9320297  43.6725569  49.3916321  56.6391993
  43.0083084  48.0315971  56.6474628  56.9825248  31.5253735  48.1546116
  56.6803889  30.8814621  48.7951756  57.2880153  31.0014081  47.4140978
  14.5102704  37.6421022  37.0496893  14.7986495  38.5353518  36.8621421
  15.2769315  37.2191262  37.4364114  23.2572269  66.7005205  52.9473877
  22.3975492  66.9577360  52.6141787  23.0664659  66.1960411  53.7381744
  63.5040645  57.4055672  44.7758579  64.3912868  57.7263451  44.9376297
  63.1593613  57.9863405  44.0975428  81.8737065   8.4994133  34.8437071
  81.4233100   9.0919598  35.4455829  82.6701152   8.2446297  35.3095961
  11.3072658  56.0744190  16.3242817  11.0270870  55.1703167  16.4668524
  10.9284723  56.5608501  17.0564938  19.7055686  54.9333143  21.7472267
  20.0763559  54.7755289  22.6154733  18.7645352  54.7999525  21.8608117
  74.5339727  45.4218292  37.6111913  74.9277878  44.5804071  37.3806453
  74.9189949  46.0436869  36.9937134  49.3347597  75.8244419  50.0495768
  48.3989000  75.8852005  49.8579741  49.5923710  76.7191935  50.2715778
  42.0661992  73.9714522  48.7991972  41.9667393  74.7638674  48.2715471
  42.3608202  74.2877860  49.6532233   1.9312878  61.7448902  50.8572435
   2.8155346  61.9701815  50.5681229   2.0632096  61.0933781  51.5459776
  15.7510233  58.2768822  51.5180540  16.3385832  57.8704071  50.8810425
  16.3270199  58.5616064  52.2275543  33.0183291  44.1889811  27.6144648
  33.8080502  43.6559772  27.7065444  32.4171329  43.8422346  28.2736778
  26.1232119  25.5983647  40.1855135  26.7514139  25.6944855  39.4697261
  26.6125854  25.8492001  40.9689856  15.0932884  61.0409307  56.2595510
  14.8033309  61.7257977  56.8621445  14.5035470  60.3065109  56.4300156
  37.8042436  75.5851746  60.4420424  37.6169753  76.5230179  60.4821682
  38.7535477  75.5350685  60.3300428  37.1942496  29.6910644  22.2581577
  37.6130223  28.8390136  22.1362066  36.5452814  29.7416186  21.5563607
  56.5789366  61.1702061  41.6950035  55.7069254  61.5505600  41.8006372
  56.4875698  60.2706957  42.0092678  76.9620679  29.0830283  18.6880795
  77.6252650  29.0158515  19.3750207  76.3122033  29.6906762  19.0411679
  33.3706236  66.2994385  44.8384428  33.1286144  66.6014338  45.7139206
  32.5534105  66.3278770  44.3408632  48.3089828  51.9800520  18.8556457
  47.9452276  52.8610086  18.9441204  48.4997225  51.7084026  19.7534537
  55.5037880  48.4323740  46.6354609  55.6475544  48.4180117  47.5816917
  56.2105751  48.9802408  46.2941027  41.1075020  15.6668675  14.5720530
  40.1774025  15.8794355  14.6492875  41.5549517  16.5056801  14.6834648
  61.5583467  56.1035490  28.5061979  60.9620190  56.6219425  27.9659295
  61.0297394  55.8372021  29.2584395   9.6446580  71.2669802  24.4809103
   8.9008188  71.8164492  24.7279334  10.4044974  71.7070484  24.8619843
  49.0895796  72.7550697  26.8982053  48.5055971  73.4675503  26.6382670
  49.7862148  72.7648163  26.2418222  39.5399976  73.1303215  22.5281668
  38.7525964  73.4977007  22.9297423  40.0812387  73.8922644  22.3214602
  17.7319002  39.8952675  22.5126672  17.6727629  38.9447021  22.6083779
  17.7786100  40.0383663  21.5673757   5.4991973  34.2246679  54.6929033
   5.3759373  35.0930217  55.0763019   6.3569654  34.2689517  54.2704053
  18.7558103  45.6201029  34.2684126  18.7034106  44.9200439  33.6177158
  18.0929959  45.3915024  34.9200630  41.8870603  27.9322441  52.9423475
  41.5153312  28.8136013  52.9067945  42.2828078  27.8741081  53.8119698
  52.2048532   3.8823136  45.7395267  52.8465735   4.5758827  45.5866003
  52.1098601   3.4522732  44.8896599  31.8644953  54.1519499  38.6585689
  31.4665985  54.0273523  37.7969527  31.1740017  53.9151907  39.2777610
  37.5114059  68.5810089  35.1797318  36.6317153  68.3188963  35.4511642
  38.0401754  68.5033846  35.9738398  52.8883791  42.1976185  54.3753242
  52.8491020  42.1467304  55.3303623  52.7218533  43.1192350  54.1775274
   8.3963878   0.2495297  34.1920567   7.6350887   0.7367523  34.5071244
   9.0122611   0.2676018  34.9245906  15.5184937  75.0552082  54.0820408
  16.2606096  74.7686291  54.6143675  15.7439768  74.7854042  53.1917667
  22.2772002  41.6171598  48.2703686  21.7947578  41.0716915  47.6491261
  22.2960782  41.1021090  49.0769720  53.7325525  46.6737127   7.7070391
  53.8756990  47.5832319   7.9687911  54.3735075  46.1749649   8.2136530
  32.4404097  63.5120058  23.5055947  31.9568896  63.7057590  22.7025390
  33.3251023  63.3007050  23.2074285   7.6828909  65.6842184   3.1431764
   8.1803292  66.2639856   2.5664127   8.3480841  65.1508760   3.5782570
   1.1338050   3.0569275  43.4502363   1.1193282   3.4922226  42.5978661
   2.0163257   2.6925286  43.5181236  34.1664290  47.6603556  31.2349987
  33.4056473  48.0386829  30.7941937  34.8248768  47.5750875  30.5454993
  49.3092346  53.7839651  28.1053710  50.0865602  53.6820173  27.5561857
  48.7642717  54.4144249  27.6344419  44.3663740  41.0024643  10.8072019
  43.6288071  40.5542183  11.2210906  44.7545624  41.5239191  11.5097880
  14.6203983  56.8808174  38.2332277  15.5194509  56.5838909  38.0926228
  14.5514250  56.9952679  39.1810536  56.5625095  45.0605106  35.2007604
  57.4556732  44.9511719  34.8743534  56.5728712  44.6544600  36.0675049
   0.7119519   6.0547169  49.0627146   1.6648347   6.0231693  48.9775610
   0.3857238   5.7893761  48.2028294  66.0134589  20.8951100   8.5105664
  66.4386546  21.6428002   8.0905604  66.7354166  20.3810127   8.8721073
  55.1762962  30.0332117  49.8177719  55.5650282  30.4370189  50.5936956
  55.2252197  29.0924311  49.9873924   3.9188630  14.5798214   7.2637540
   3.3015639  15.0771530   7.8002572   3.3656509  14.0211971   6.7177415
  42.3370457  59.7943544  36.2485933  43.2392359  59.8074341  36.5681481
  41.8308115  59.4311523  36.9752622  74.8448467  70.7887363  18.4723437
  73.8945055  70.7721758  18.3591413  75.0284910  70.0580454  19.0627658
  32.1986413  66.8445301  56.3500690  31.2976146  66.5345764  56.2588835
  32.3382521  67.4032736  55.5855131  66.2004280  61.3346672  25.2481437
  67.0161295  61.7993593  25.4350138  66.2717009  61.0868979  24.3263173
  75.0364850  60.7373142  45.1621723  75.0543289  61.3679075  44.4422674
  74.6178989  61.2082434  45.8827591  65.4849195  46.3486195  47.6537418
  65.0020695  46.5729189  46.8582678  65.2057123  47.0015812  48.2955456
  64.9383723   1.2824352  31.4607644  64.7424971   1.8877037  30.7455611
  64.0857255   1.0868653  31.8493247  34.1962123  73.7800980  17.9099286
  34.8358750  74.3652821  17.5041950  33.7562251  73.3577585  17.1721804
  36.5039878   6.1128147  38.9008164  37.2144323   6.4365776  39.4546032
  36.4766138   6.7239865  38.1646419  37.5890517  59.3763256  11.8729019
  38.3234549  58.8080502  11.6406322  37.0586824  58.8498640  12.4710476
   6.1987025  68.7202311  47.0909786   7.0345420  68.9604473  46.6911077
   6.4380002  68.1519651  47.8231287  13.1392139  42.8939824   5.9356420
  12.7371210  42.0262437   5.9754102  12.6152700  43.3714967   5.2924506
  33.2126863  16.8123444  46.5485668  32.6087434  17.2207554  47.1688032
  32.6448781  16.3769730  45.9127331  57.5898695  62.6690578  21.1067390
  56.7037153  62.9632473  20.8959913  58.1555748  63.3829021  20.8123970
  62.2717190  47.4506330  29.8476362  61.9024658  48.1066561  30.4388332
  62.0168495  46.6116810  30.2316093  14.7136390  70.1535273  35.3308463
  13.8352096  70.5246735  35.4135752  14.5733607  69.2067528  35.3176141
  73.0133550  64.7894001  28.1825495  73.7143533  64.2344761  28.5244441
  72.2375171  64.2288685  28.1929207  73.4884059  17.6036556  48.8406038
  72.7581631  18.0522259  49.2669344  73.1386410  17.3286732  47.9930878
  44.1731739  75.3379297  56.2426376  43.4350491  75.7958221  56.6448069
  44.8699093  75.9932089  56.2052584  59.8470794   8.6681088  22.4105597
  60.7179677   8.2894619  22.2905302  59.6670615   9.1207417  21.5865731
  38.0572248  64.7267866  44.6162033  38.5242033  64.2803955  43.9098740
  38.4830475  65.5815125  44.6821308  46.9404089   0.9163197  42.9973316
  46.7754268   0.2391918  43.6534643  47.8272783   0.7364758  42.6853180
   8.2685417  22.6767354  10.4835860   7.6887769  22.8662066  11.2212865
   7.9614157  23.2527356   9.7834937  26.1586928  53.9871264  34.0961170
  26.3887215  53.1635904  34.5263553  26.6602135  53.9796829  33.2808566
  26.4023328  66.5482426  24.2061615  26.0920429  66.8710804  23.3601546
  27.1445513  67.1133661  24.4205832  44.8026657  56.6089869  30.7695484
  44.7434759  55.8532619  31.3540196  44.6758175  57.3653030  31.3423705
  37.3455358  68.1650019  50.0377798  37.3255467  67.7560139  50.9029722
  36.7897868  67.6053572  49.4954062  61.9080019  46.7860889  12.9373443
  61.5448189  47.6010513  13.2840049  61.5432167  46.1029243  13.4998822
  41.5082239   0.3589543  36.9105458  41.1371028   1.1962183  36.6321659
  40.9259807   0.0591620  37.6086497  78.6532552  50.7970428  50.1850271
  79.0080760  51.6226292  49.8552656  78.2781078  50.3724241  49.4135380
  53.2550812  47.7963781  44.6609259  53.2101679  48.5694313  44.0982485
  54.0406990  47.9311943  45.1908875  23.1553411  46.8972111  44.4012260
  22.9547453  46.2788534  43.6986399  23.4744382  47.6782084  43.9490604
  55.9379470   8.7008484  39.8794627  56.3683116   9.2878731  40.5010891
  55.2764641   8.2445439  40.3995180  71.0591793  75.8347654  54.9442720
  70.3267002  75.3247070  55.2900267  71.1791229  75.5076504  54.0527344
  51.9327545  63.2321262   9.9326473  52.0151806  63.0113697   9.0049052
  52.8262901  63.1790495  10.2717805  49.7149754  38.8969469  47.4522209
  50.0283146  38.4550405  46.6630650  50.4978371  39.2994595  47.8281784
  54.3359958  16.4141472  36.6264319  54.7229706  17.0440586  37.2344518
  53.4915697  16.7976196  36.3895249  22.7890182  73.8715506  49.7584677
  23.1631207  74.7465611  49.6553469  21.8447638  74.0194273  49.8109102
   5.2490050   2.8291519  24.9841833   4.4813163   3.2057579  24.5540142
   5.5991037   3.5429390  25.5172586  19.7766387  29.0857077  15.4977417
  19.3641067  28.6476707  14.7533143  20.3203464  29.7675729  15.1031852
  67.9357993  18.3285053  32.1647382  68.5756528  17.7817543  31.7087936
  67.4980008  18.8168629  31.4675522  38.5112667  67.7219582  62.1974754
  39.2112494  68.0311489  61.6224480  38.6270237  66.7722225  62.2264099
  37.9432344  66.7255020   5.6761271  37.2617006  66.0955906   5.4417008
  37.7323484  67.5074863   5.1659703  64.3919134  55.0682926  48.6615992
  64.0780878  54.1923094  48.8861036  63.8616943  55.3267622  47.9077482
  63.5044848  17.4006947  46.1779737  64.4235837  17.5038250  45.9312868
  63.5277378  16.8616398  46.9686127  80.1718318  20.6004246  27.1148515
  80.9082829  20.2807339  27.6360679  79.7660958  19.8083313  26.7624450
  32.4491095   3.0660446  47.7563334  32.9675572   2.5550945  47.1347380
  32.1976533   2.4369486  48.4325361  56.4062881  67.5699615   4.5967349
  55.7644939  67.2995996   3.9400458  56.5887165  66.7735624   5.0954378
  51.9784498  60.4903507  31.9900632  51.3302755  60.9923410  32.4841356
  52.8090763  60.6744432  32.4287009  63.1085539  60.7607126  21.7394161
  62.4413109  60.6961823  21.0561514  63.3275414  61.6919184  21.7731500
  75.3523730  50.3303533   4.1320769  74.6368574  50.3271394   3.4962623
  74.9755405  50.7325177   4.9146955  43.6446333  44.8760223   3.7426931
  44.5633078  44.9622440   3.9973232  43.1666279  44.8613644   4.5718670
  68.7517929  48.1950569  55.6551218  68.7181711  47.2608185  55.4494524
  67.8435135  48.4318495  55.8427095  31.1342382  64.0499115  39.7916460
  31.1103272  63.3484554  40.4425049  31.8091512  63.7770557  39.1701341
  43.9252590   0.3787049  13.5406780  43.3723389  -0.1300566  12.9476571
  44.6685719  -0.1950542  13.7264657  35.8134747  55.9682941  53.3343506
  34.9021268  55.6759167  53.3204985  36.0572219  55.9488106  54.2597914
  70.0288296  71.4075089  66.3336182  69.8097038  72.1413517  65.7594252
  69.1815805  71.0635853  66.6166735   7.7891881   0.1634892  60.3509617
   8.1161267   0.6786783  59.6134520   7.3235328  -0.5675260  59.9447393
  49.0386146  22.4789243  13.8008039  49.3512243  23.3343844  13.5063664
  48.5371155  22.6672225  14.5940702   8.7590069  20.6998305   5.1665322
   8.4951228  19.7982793   4.9826877   9.7138757  20.6880384   5.1008050
  61.5359873  15.5281978   6.7035310  61.5927977  15.8194261   7.6135842
  61.9775862  16.2151485   6.2042110  41.2806089   7.2951039  55.1025438
  40.9907396   7.8450115  54.3746614  41.6372449   7.9120739  55.7416010
   2.7310331   9.0285500   6.0358077   2.0382936   8.3686169   6.0647297
   3.4974391   8.5571297   5.7092798   1.2839801  14.5364578  41.8197870
   1.0686977  13.9682492  41.0801792   2.1782453  14.2915829  42.0575953
  77.7382231  70.8498096  22.4180698  78.1513691  71.4625168  23.0264544
  77.0663214  70.4107952  22.9396462  66.4896059  45.4594517  30.0888467
  66.9277334  46.2700605  30.3480530  65.9921503  45.6958342  29.3059707
  74.7664487  25.0492295  49.0066242  73.8953149  25.4248627  48.8791275
  74.7369515  24.2128189  48.5421085   7.3876006  21.6571053  21.7525864
   8.1333215  21.9899567  21.2532401   7.2318656  20.7825001  21.3961554
  80.5582237  40.1736307  62.4889183  80.8089447  41.0256910  62.8458118
  81.3475323  39.6382618  62.5702047  68.8700949  19.0491684  25.6227088
  68.6525952  18.8609799  26.5356755  69.6148097  18.4790238  25.4314828
  72.2390496   1.2875899  48.0003691  72.3813807   0.8360489  48.8322878
  72.1610152   2.2111662  48.2394314  77.8998588  50.9145455  11.7452828
  77.4558161  51.0995393  12.5728337  78.8300799  51.0231023  11.9431130
  19.7973973   3.5097130  44.2466450  20.2619512   4.2576512  44.6221590
  20.4908378   2.9369744  43.9190292  56.9782244  11.2955101  29.3828106
  57.2335445  11.6140469  28.5170269  56.0670578  11.0215672  29.2781186
  10.8152217  40.5750327  21.8232171   9.9372357  40.2211194  21.9650476
  11.1270827  40.1327472  21.0336797  78.6484515   9.9588211  46.8783665
  77.8932654   9.3709477  46.8604231  78.3062922  10.7977684  46.5696192
  62.0204937   1.5313061   6.1857975  61.5568887   2.3588904   6.3138878
  62.9404413   1.7824419   6.1029953  48.6665869  71.2749004  53.4369326
  49.4895887  71.1065674  52.9780579  48.8600969  71.0821056  54.3543291
  51.7744684  61.0675526  29.3607950  52.0672369  60.7704163  30.2223206
  51.3923979  60.2888632  28.9559531  48.3691692  30.8581161  18.5797739
  47.6365328  31.0792160  18.0048037  48.2712412  29.9199510  18.7425280
  54.8200130  45.9345245  32.1464562  54.4676971  46.4691448  31.4349198
  55.7433319  45.8169127  31.9231153   1.6165441  24.4289880   7.4114673
   1.9201392  25.3308015   7.5153701   1.2172216  24.4093995   6.5417640
  32.8712791  56.3687425   6.9514052  32.5561565  56.1343389   6.0784881
  32.2560638  55.9450345   7.5499122   9.2594755  60.7348490  32.8240371
  10.1651680  60.5412960  33.0658841   9.1763508  61.6808033  32.9444265
   7.3355621   2.8955989  38.3267037   7.6506060   3.0441051  37.4351136
   6.9794887   2.0072465  38.3100526  14.8960066  72.4731255  39.9278617
  15.3366458  72.1546745  39.1400433  14.2298114  71.8114138  40.1137352
  71.7919051  17.7449806  39.7185159  72.1689974  16.9898995  39.2669725
  72.4295508  18.4464176  39.5857930  11.4866877  54.0630722  62.0115900
  10.8493376  53.5765266  61.4888239  11.3334703  54.9800014  61.7835474
  80.9501453  65.0870800  20.7675552  81.5231393  65.4526281  20.0935507
  80.1072465  64.9721003  20.3287697  82.1393871  73.4308863  63.3582067
  81.8334579  74.1312122  63.9345551  81.6257000  72.6658916  63.6173010
  60.3863621  63.4887791  37.7688575  59.7076416  62.8601694  38.0146599
  61.1028194  62.9491901  37.4345422  45.7157326  70.3525925  37.6014853
  45.0581646  69.9303436  37.0487237  45.2648449  70.5123472  38.4305859
  52.9172802  67.6971102  34.8263025  52.0591688  67.2955990  34.9629402
  52.8769541  68.0520725  33.9382672  37.2713828  58.2268000  37.3338127
  37.7273941  57.8490400  36.5817618  37.1930146  59.1573620  37.1237135
  35.1859212  61.0153913  25.9202909  35.8449483  60.4668427  26.3457441
  34.4292617  60.9780598  26.5053582  15.1331289   3.8140782  22.6759052
  15.6596906   4.1689022  23.3921885  15.0378043   2.8851135  22.8860927
  25.8094692  56.1268473  30.3217292  25.4807353  55.3165102  29.9324703
  25.2785754  56.2469053  31.1091113  25.3356022  28.6144309   0.8634488
  24.6594137  29.2174630   1.1722486  24.8496288  27.9020886   0.4479568
  40.1218224  62.6230001  11.6955805  40.8390856  62.9226494  12.2541285
  40.4154968  61.7748308  11.3630259  47.4250460  44.3869114  49.8386097
  48.2765961  44.7321701  50.1067448  47.5261211  43.4362793  49.8866415
  58.3563124  11.5656098  21.0386992  57.8176414  12.0666035  20.4262710
  59.1125333  11.2886532  20.5213404   9.8905952  53.1370743  22.4608922
   9.7539670  53.3310421  21.5335631   9.2547137  52.4492844  22.6579404
  60.1671540  16.8659313  50.3343487  60.1574718  16.2719067  49.5838356
  59.4713127  16.5411957  50.9058237  26.7618366  14.5549687  20.3550673
  26.8569207  15.4013260  19.9181831  25.8423819  14.5238312  20.6193876
  13.8721597  67.1586895  42.8065825  13.4353447  67.1712971  41.9549608
  14.2175734  66.2694740  42.8854561  68.1408059   4.2331989  63.4091377
  69.0851914   4.1029461  63.3230734  67.7535283   3.5287293  62.8895569
  53.4146881  72.1766186  45.7602024  52.7670860  72.7852917  45.4047346
  54.1442776  72.2150421  45.1417732  64.6898162  20.2705296  24.7890854
  65.6213295  20.3342922  24.5782590  64.5101368  19.3303879  24.7982836
  57.0429932   7.0915421  29.4974566  57.1828925   6.1791142  29.2442060
  57.7381551   7.5736817  29.0496588  56.7062103   6.4470013  34.8281550
  57.6399314   6.6289433  34.7218847  56.3471996   7.2499474  35.2058005
  63.6682034  75.9733820  46.8820477  63.2970190  75.7360744  47.7318335
  62.9844618  75.7488966  46.2509155  22.3764610  66.9030714  37.1203160
  21.9184494  66.0761309  36.9698834  22.1267557  67.4536228  36.3781762
  68.5731316  58.2634878  23.1699944  68.4494162  58.1631422  22.2261405
  69.3782187  57.7813244  23.3586287  20.0481660   7.9649933  20.7917190
  19.2587478   8.0617245  20.2590895  19.9955184   8.6768444  21.4294696
  65.1577412   5.3029164  61.6564703  65.7819783   5.6729611  62.2806692
  65.6017219   5.3614338  60.8104849  72.8130293  48.1493235  42.5586939
  72.2728777  47.3618507  42.4926996  73.5075188  48.0181837  41.9131565
  74.7609615  69.8666716  12.9213321  75.5390215  69.7217989  13.4597218
  74.0943050  69.2974567  13.3057666  39.8450017  60.7098389  19.9212480
  39.1076279  60.8854389  20.5057764  40.4544735  60.1968956  20.4519677
  30.9544992  35.0400329  16.6590858  31.8296289  35.1168394  17.0391905
  30.4024744  34.7503257  17.3854256  62.4205386   0.3590353  32.3842835
  62.0052349  -0.3483907  31.8910289  61.8036281   0.5532702  33.0899215
  22.9534841  65.3712416  33.9778924  22.4131632  64.6107388  34.1921926
  22.4249363  65.8734560  33.3576918  62.0481205  64.3636084  26.1056328
  61.3887978  63.7762260  26.4750981  61.7176247  65.2423286  26.2923336
  20.5343747  74.8082733  42.6926565  20.8755660  74.7971249  41.7984009
  20.8601260  75.6285810  43.0630827  32.4314255  23.3420377   0.7533805
  32.7640289  23.4244494   1.6471498  33.2165569  23.2562022   0.2126090
  16.1763662  55.8779244  18.4983460  15.6143278  56.4663606  19.0024201
  15.7639355  55.8333592  17.6357095  55.9702956  19.2243202  50.6699181
  55.1995074  19.1646965  50.1055050  55.7690489  19.9377068  51.2755728
  75.4527903  73.7374210  40.7424784  76.2985802  74.1342068  40.5340719
  75.3421545  73.8884974  41.6811800   9.9063081  28.2896857   1.5420262
   9.0018457  28.2542663   1.2306945  10.0359315  29.2028909   1.7979352
  30.8741879  45.7738066  23.8483977  31.3363481  46.5889835  23.6531281
  30.0450754  46.0552740  24.2351556  36.9455385  65.4394913  23.6465287
  37.7114201  64.9818897  23.9933133  37.2587395  65.8563757  22.8438187
  44.4950867  77.0885563  50.4739904  43.8861561  76.4219046  50.7918167
  43.9773607  77.8932571  50.4486036  74.7170483  13.0800446  21.9526339
  74.9527680  13.6504086  21.2209558  73.7754761  12.9394730  21.8530488
  60.7295620  27.9250344  21.7265582  60.1302396  27.7584847  22.4540925
  60.1960837  28.3825596  21.0767102  79.2922436  14.9756535  45.3349829
  79.9703299  15.3303154  44.7599697  79.5137822  15.3129299  46.2029696
  54.8952961  54.9756908  57.8653860  55.3274536  54.9249172  58.7179708
  55.6140518  55.0220060  57.2349262  77.8210818  28.9666851  49.3619871
  77.0553624  28.7057694  48.8502932  78.4573733  28.2669266  49.2146683
  47.6223230  59.7295856  31.5918112  47.7493858  58.7814426  31.6251230
  48.1862164  60.0713348  32.2856832  49.7018480  59.5850086  44.6645451
  49.5659018  60.4406071  45.0716066  48.9971638  59.0391350  45.0133610
  76.4738499   0.7107123  62.1396351  76.7989718   0.9896620  61.2836456
  77.2487532   0.3802355  62.5940990  26.0368872  62.3602915  46.9782066
  25.1427650  62.0314789  46.8851566  26.2546086  62.2053814  47.8973532
  81.1570489  57.5275524  55.9380674  81.9619929  57.0274933  55.8030128
  80.6739175  57.0301159  56.5978909  37.0786245   3.4012993  53.6810732
  37.8283364   3.4433373  53.0874348  37.4660833   3.2816418  54.5481253
   3.5370678  25.7514434  21.2348191   3.7285775  26.0934310  22.1080892
   2.6146954  25.9634213  21.0915582  59.4811117  21.6650112  43.2525873
  59.8696243  22.0504196  44.0379238  59.8693930  20.7918652  43.1970739
  36.5010381  52.7534437  30.7839704  37.2466755  53.1232738  30.3112316
  36.7852068  52.7285624  31.6976786  47.4620724  64.7903442  38.9849401
  48.2086182  65.3002882  38.6705256  47.7346277  64.4724560  39.8456907
  79.9126339  23.2392025  65.3429842  80.5580139  23.7997818  64.9123192
  79.2893171  23.8499737  65.7362604  75.7664776  66.6626406   5.3197223
  76.0203123  67.3107243   4.6626207  76.5735531  66.4809990   5.8012426
  17.8216159  69.0775919  27.2479033  18.6423326  68.6939192  26.9389534
  17.7871192  69.9379778  26.8298435  32.0041442  72.1580935  40.9995270
  32.0639133  72.6932764  40.2081728  31.6460586  72.7491045  41.6618824
  39.3251252  53.4692669  16.2777948  39.9688697  53.9457369  15.7535803
  39.2230844  52.6307058  15.8276427  58.9696503  44.0208006  54.3135452
  58.4288502  43.2637215  54.0886021  59.5176840  43.7171364  55.0372028
  65.3315841  10.0452431  47.1923447  65.5533301  10.9759815  47.1640587
  64.8664176   9.9349507  48.0216169  38.9133031  25.0704869   6.2711519
  38.6038453  24.2617615   6.6791070  38.1291539  25.4577645   5.8821017
  48.7797356  62.1107244  56.2630033  48.6525488  62.3301220  55.3400087
  49.0759945  62.9274845  56.6647100  60.1591264   7.5670155  47.7570820
  60.0457036   8.5114868  47.6505661  59.2796241   7.2060879  47.6455879
  57.2390544  21.8002804  19.2374492  57.0647895  21.2169178  18.4988368
  56.4093005  22.2540482  19.3852186  19.7986948  70.4755926  33.6825967
  20.5951977  70.7530165  33.2299900  19.3022299  69.9944925  33.0205560
  52.9230833  60.5800486  48.4004831  52.2429848  60.0137758  48.7652159
  53.5524178  59.9756289  48.0069828  65.1122952  65.2587509  42.5088739
  65.2335644  65.8594847  41.7735910  64.9468327  65.8292389  43.2594728
  32.0663524  53.2279062  47.6490736  31.5412259  53.2600117  46.8494225
  32.6179218  54.0089655  47.6049232  64.5584547  33.0223282  48.4873533
  64.5908415  33.9420422  48.7506390  65.4676353  32.7270039  48.5363817
  33.0588126  70.3018761  47.2580290  32.2202754  70.3458405  47.7175426
  32.8234291  70.2947378  46.3302469  47.1221597  21.8871506  65.3307772
  47.1529157  20.9752091  65.0415564  46.3563211  21.9311531  65.9032965
  18.7996650  49.6911430  27.0310163  18.7275851  49.3312168  26.1469960
  19.0401256  48.9417648  27.5758529  36.7644477  54.5018148  43.5388994
  37.3066950  53.7205553  43.4301329  37.1331358  54.9447536  44.3031693
   7.9857738  23.0995568  57.0822334   7.0473153  23.1991013  56.9221783
   8.2639463  22.4242123  56.4635515  17.0074403  55.0690508  46.5997839
  16.4769983  55.0477791  47.3962831  16.4112222  54.7841120  45.9072781
  62.9177152  14.8262318  32.4760151  61.9836723  14.9944599  32.6004863
  63.2294046  14.5551403  33.3394909  57.6069366   2.5849303  33.5119390
  58.0604302   3.0933293  34.1843295  56.9183599   3.1688317  33.1938958
   0.8112390   2.5577791  52.6395512   0.3627546   1.9010123  52.1068668
   0.2261550   2.7034004  53.3829927  31.3011456  46.3748217  18.4590662
  31.8580818  47.0460749  18.8533592  31.0020137  46.7641306  17.6373672
  14.0345711  29.5273643  24.5126550  14.6392912  28.7853770  24.5126168
  14.3531889  30.0960593  23.8117330  47.2254515  46.8712664  41.2415886
  46.2783861  46.7498398  41.3090324  47.3782206  47.0527363  40.3142452
  68.4200859  59.8778582  58.2362032  67.8289938  60.4456520  57.7417803
  69.1864491  59.7798395  57.6711273  10.2359009  63.1312466  42.6951790
  10.1484227  62.1804094  42.6281786   9.5417130  63.3936262  43.2997370
  49.6802521  72.6520920  35.3743911  49.7427368  72.2015381  34.5321727
  49.8663521  71.9735622  36.0233927  58.4283161  75.4529858  21.8644977
  57.8305864  75.4591513  21.1168909  58.5980654  76.3779354  22.0430684
  61.8972789   2.4313982  66.8837595  61.6249811   2.3394783  65.9707212
  62.7990448   2.1107109  66.8982077  58.9967953  20.1488312  37.1233821
  58.1195413  20.0484760  36.7538095  59.5867120  19.9912556  36.3862228
  41.3079023  57.7297878  28.8533878  40.6331348  58.2200670  28.3837676
  41.8831825  58.4026480  29.2174530  48.6827946  47.3493481  31.3435245
  49.0894175  47.7158689  32.1287298  49.0312529  47.8768921  30.6248426
  26.8143136   9.7512634  45.8548403  26.2069852   9.6567066  45.1210499
  27.1664865  10.6364353  45.7617283  36.4772201  71.9423771  30.0715566
  36.5301514  72.7760506  29.6041989  37.2077107  71.4282179  29.7276759
  68.6847518  58.9186387  17.2599427  68.8088678  59.8068433  16.9253938
  68.3404599  58.4276204  16.5138833  64.0513039  71.6325998  23.5978627
  63.1494665  71.5404034  23.2905793  64.5705128  71.7086458  22.7973199
  76.1054932  16.9525250  31.2817192  76.8696200  17.4825485  31.0549641
  75.3991114  17.5879868  31.3977051  72.9010045  35.0634392  66.4251137
  72.1012389  34.5848187  66.6431332  72.7410542  35.4098328  65.5472422
  41.6488778   8.2951649  37.9627085  40.8100735   7.8517254  37.8362083
  41.8423592   8.6888798  37.1119523  32.4378443  58.6501074  25.6481361
  32.9132628  58.9093924  24.8588443  32.6257849  57.7165651  25.7451344
  19.5033097  59.5860386  60.0826740  19.0674829  58.7416649  59.9672842
  19.0555286  59.9868631  60.8276987  13.8025946  18.2941585  38.7500970
  13.4650225  17.5513511  39.2506234  13.7285513  18.0204158  37.8358666
  39.4278425  64.3285089   8.1521575  39.4236034  64.7149663   7.2764508
  40.3367084  64.4039636   8.4428565   7.6017018  71.5384102  34.7632480
   7.6277752  71.2168312  33.8620615   7.9545136  70.8176613  35.2850485
   8.3856476  43.1358245  66.9003246   8.7463439  42.2580245  66.7754270
   7.6276887  43.1685928  66.3166656  34.9066186  65.9581375  53.5031748
  35.5249810  65.9481382  52.7725840  34.1366148  65.4962206  53.1715775
  33.6988902  72.3408079  53.7775755  33.9636803  72.9250479  54.4880533
  32.9416013  71.8694162  54.1247606  40.0921876  47.0976647  62.9878044
  39.4227845  47.5218971  62.4509907  39.9611337  47.4594887  63.8642406
  76.7061424  76.7090082  26.6452718  76.5661573  77.0852280  27.5142336
  77.4433517  77.2029114  26.2863612  72.3535681  58.5447502  24.6576095
  72.2637224  58.9882469  25.5010986  71.4677811  58.2496166  24.4466376
  43.8951063  61.1694527  33.4593344  42.9694605  61.4112616  33.4899592
  44.2429304  61.4454126  34.3073273  78.2867326  70.6975698  51.0119534
  77.6714651  70.0460577  50.6754923  77.7361543  71.4382315  51.2659597
  56.4576530  72.7821541   8.8469863  55.9673691  73.5166025   8.4776145
  56.7159700  72.2603464   8.0872351  66.7888069  74.9281359  35.5067778
  66.1048079  75.2370548  36.1008716  67.1798897  74.1810083  35.9596395
  65.9003401  73.8370848  33.2168674  66.2596750  74.2307568  34.0119362
  65.2109241  73.2515383  33.5300303  22.4544055   9.7997006  42.1495485
  21.9030721  10.1663311  42.8408098  22.7175529  10.5567463  41.6262388
  75.9035683  58.9866829  37.8030729  76.1574745  59.4197989  36.9881058
  75.8381081  59.6969080  38.4414458  13.9380033   6.1790188  45.8615446
  13.0407769   5.8567532  45.9473419  14.1871745   5.9578045  44.9642086
  54.2202150   6.2266930  38.4281564  54.5587050   7.0861347  38.6791754
  53.7098014   6.3924607  37.6355481  45.1859093  57.0241928  13.2368457
  44.7208786  57.7814341  12.8810859  45.9961462  56.9804478  12.7290678
  61.2107719  67.7915195  65.7926087  60.6594337  67.0451549  66.0275619
  60.6124652  68.5386565  65.7862608  73.7546956  38.8021382  25.4343820
  74.3789803  38.6399372  24.7271419  72.9935109  38.2671841  25.2093339
  56.6569471  53.3872747  46.3489389  57.0738316  53.8311434  47.0874643
  55.7751131  53.1821108  46.6595936  54.2962837  56.4415932  33.6715293
  54.1061258  56.4250612  34.6095037  53.8972616  55.6404686  33.3320951
  63.6590719  68.1155825   1.6972643  63.3317995  68.6457539   2.4239305
  64.3713760  68.6346436   1.3238649  35.6446743  76.0601950  58.2465887
  36.3348532  75.7936239  57.6392746  36.0888028  76.6207886  58.8827562
  73.3386075  10.1166065  37.7566147  72.6809870  10.7884796  37.9364610
  72.9436099   9.3040951  38.0729055  76.4161622   8.7286862   6.6213131
  75.5649506   9.1461857   6.7530793  76.5158831   8.1454190   7.3737055
  34.1105890  60.1786661  42.1062183  34.0693736  59.2341137  42.2557402
  33.6345434  60.5590153  42.8444242  37.8201199  64.7389174  31.0892296
  38.3595824  65.4479694  30.7392979  36.9353104  64.9375391  30.7828140
  24.1279554  72.2992611  16.8375027  23.2090950  72.3755693  16.5803969
  24.2103100  71.4052820  17.1695507  79.8971580  53.9877801  24.7955338
  79.5714949  54.0697770  25.6918923  79.1181754  54.0850263  24.2478482
  70.5735588  66.0819292  24.8743296  70.7581520  65.1881790  24.5855904
  69.8759985  65.9849405  25.5225849  56.6024256  59.2545843  31.1728954
  55.7016134  59.3830681  31.4699888  56.8564987  58.4070635  31.5381145
  40.5242014  59.6375847  34.3400526  41.0561800  59.9375963  35.0770879
  40.7709599  60.2135468  33.6164427  53.4759426  73.7653732  57.6618052
  54.3902779  73.6007452  57.8922796  53.0459309  73.9413261  58.4986830
  69.7667872  12.7331265  -0.0789840  69.2211138  11.9708737   0.1145392
  69.5322692  13.3725365   0.5936096  81.2646268  48.7065320   2.4905698
  82.2064470  48.8389401   2.5986259  80.8776353  49.0825467   3.2811944
  42.7083969  30.3449416  58.3891296  43.2015133  30.9927368  58.8925457
  41.8559647  30.7546020  58.2415628  41.0522652  66.6297531  33.1897068
  41.6667223  67.2461700  32.7913308  40.1894999  67.0076323  33.0191660
  56.8686687  10.8106907  35.0960469  56.7810356  10.8640106  36.0477352
  57.4856912  10.0931843  34.9521685  73.1866776   2.7461632  34.1610861
  72.4303567   2.3512181  33.7272310  73.6683165   3.1788071  33.4560513
  67.9639470  22.6654156  43.8494396  67.8065860  21.9472130  44.4623470
  67.1404921  22.7557953  43.3698797  50.6976700  50.7267046  36.9802547
  50.7426023  50.9910107  36.0613680  50.6740236  51.5512896  37.4657798
  65.8231365  11.6921623  33.7613487  66.5915715  12.2209843  33.5466862
  65.2304160  11.8192013  33.0205560   8.4706552   9.6012696  25.8653164
   7.7673919  10.0686749  25.4145551   8.4609515   9.9542053  26.7550230
   2.4422093  56.1320066  18.2167006   3.3408757  56.0548258  17.8962719
   2.1368332  56.9717503  17.8734732  32.7180726  10.3294190  17.6528788
  33.3049638  10.3054341  18.4086704  31.9115312   9.9174889  17.9627717
  53.3517927  22.7851491  16.7274873  54.1436380  23.1725841  17.1004693
  53.6317533  21.9264798  16.4104192  76.0324465   8.5131272  20.4223299
  76.0175883   8.3436306  21.3642859  76.3107573   9.4259175  20.3475833
   2.6685828  35.4405026   0.5185859   2.4047488  35.0456910   1.3496987
   2.9155988  36.3366609   0.7468621  60.0482082  55.5875540  38.2814002
  60.8137655  55.0501680  38.4847999  60.3306580  56.1409473  37.5532460
  78.4251582   2.9532822  52.8303909  79.0518033   2.8007038  53.5376883
  78.8586699   3.5870846  52.2588968  54.4418818  61.0383506  66.1067609
  53.6794931  60.8460755  65.5608444  54.1401726  61.7190332  66.7083213
  74.2542397  26.7887696  51.4125061  74.4472777  26.0795029  50.7993889
  73.4492480  27.1831234  51.0767889  80.5315304  72.1355343  36.7887974
  80.2426910  71.4100218  37.3423648  79.8679304  72.8133869  36.9167948
  45.5411339  71.3571119  40.8061886  45.9564972  72.2192049  40.7838583
  44.6041107  71.5441179  40.8631516  56.9478559  41.7231369  56.2859201
  56.4059591  42.1320724  56.9607162  57.4336338  41.0410547  56.7496204
  55.1542865  16.0858258  18.4794497  54.1986334  16.1293038  18.4467673
  55.3439104  15.1897248  18.7574470  47.2744751  75.6482935  17.7884746
  48.0824804  76.0542965  18.1023526  46.8428469  76.3352776  17.2805560
  14.2457050  23.7553601   1.7990081  13.7993330  23.5330396   0.9819667
  14.9186033  24.3851810   1.5406100  77.6325070  28.0741127  60.4200268
  77.0431267  28.2907017  59.6975660  78.2779443  28.7809571  60.4227257
  -0.2523606   1.1658962  11.1686146   0.3396613   0.5094965  11.5358698
   0.1544959   1.4184006  10.3397954  42.7903802   6.3736637  50.9080315
  43.3559663   5.6651600  51.2152243  41.9479329   6.2082489  51.3312864
  48.8781834  72.2415829  42.2825289  48.2889986  72.6840544  41.6715384
  49.5370197  72.9010296  42.5000000   7.7613504  11.2306221  17.5291443
   8.4530170  11.8917950  17.5549972   7.0094115  11.6853340  17.1495914
  40.0427240  28.1893640  11.9833486  40.9667438  28.4334092  12.0368926
  40.0026840  27.3160415  12.3731439  52.6129484  54.4248533  52.2181940
  51.9032478  53.7972546  52.0815563  53.2062292  53.9864635  52.8281641
  17.9847963  30.9657105  19.4848609  18.5184581  31.6308029  19.9197078
  18.0284364  30.2061852  20.0657654  70.6025362  76.8295145  63.4616280
  69.7489166  77.1861410  63.2159042  71.1825657  77.0794106  62.7423525
  27.4855947  64.3998957  20.7749343  27.1378398  63.9728165  19.9920535
  27.5774240  65.3194141  20.5253673  52.2928654  21.2915524  59.5849800
  51.3728916  21.2375077  59.8437405  52.4189769  20.5503662  58.9925480
  27.5655502  57.7906232  10.0509469  28.2526106  57.6776223   9.3941323
  27.1803802  56.9196134  10.1469485  68.5003376  69.2442846  24.1808820
  68.6353493  69.2326069  25.1284385  67.7717876  68.6407471  24.0353012
  12.4674279  29.8019512  60.1253080  13.3022268  29.3416985  60.0386524
  12.6115329  30.4278191  60.8350611  16.9675452  10.9893807  50.4290819
  16.8007190  10.1091679  50.7661629  16.8882520  10.9011372  49.4792604
  65.9536886  52.7306414  65.4302835  65.0420284  52.4463129  65.3649950
  65.9149742  53.6825085  65.3370905  23.8994622  72.3250580  22.1575403
  23.5256600  71.6073275  21.6463017  24.8299098  72.1110535  22.2261119
  13.6596257  23.6103733  19.9915040  13.6029203  22.8978832  19.3548167
  14.3111617  23.3128651  20.6264949  20.6643867  64.5511818  38.2996464
  20.9538913  64.5266485  39.2116857  21.0296822  63.7563896  37.9109406
  47.5884104  72.5470734  62.7333021  47.4891138  73.3097506  63.3031225
  47.8358507  71.8365669  63.3250666  16.4564855  53.3450993  31.1171150
  17.2457606  52.8362759  31.3025212  16.7772109  54.1337784  30.6796861
   6.6723843  65.0662518  34.2798662   6.3430996  64.7664356  33.4325695
   6.3134594  64.4422388  34.9107456  12.6372201   2.9118927  19.4855917
  13.5685975   2.6951798  19.5280755  12.4350984   2.9177197  18.5499918
  28.9613223  69.6950865  38.0014920  28.9932299  68.9578199  37.3918629
  29.8784995  69.8749352  38.2080650   0.9164531  19.7119339  34.0065694
   0.9960134  18.9580830  33.4220910   1.7235572  20.2078350  33.8690853
  62.0505082  39.2296036  53.5763645  61.2377297  38.8882931  53.9493704
  62.6395666  39.3174847  54.3257141  20.8677871  34.6272286  13.7567687
  21.0198028  35.0053986  12.8906763  21.7064006  34.2329128  13.9964962
  24.2807317  48.6768484  13.9674926  24.0805197  49.1930103  14.7483385
  24.9868560  48.0916929  14.2417455  66.1110449  67.0702505  31.8331957
  65.7017660  66.2054062  31.8055201  66.8669271  66.9962692  31.2506151
  21.8439538  21.2020882  54.2691565  22.4014384  21.7399224  53.7068510
  21.3558013  21.8338593  54.7971773   8.5278661  13.0452545  24.1229463
   8.0113370  13.7980183  23.8352489   8.8618142  13.2987126  24.9834490
   1.5145131  56.1772251   2.3825504   2.1683903  55.6890440   2.8829029
   1.4087601  55.6762743   1.5737891  48.5147858  75.5746603  25.4906559
  49.0564537  76.0680866  24.8747349  47.6164389  75.8203697  25.2696753
   1.5921422  52.5471926  35.7300639   1.7271538  52.3760891  36.6621184
   2.1855660  51.9408703  35.2868247  58.6214972  67.8525066  60.7110214
  57.7929544  67.5402737  60.3473425  58.9190531  68.5187626  60.0915098
  25.4843290  21.0401543  38.4487462  26.3777883  20.7474526  38.6284161
  25.5020578  21.9819554  38.6188507  30.7835764   5.0216489   3.2434241
  30.0769180   5.4531531   2.7631347  31.1916775   5.7233195   3.7507121
   3.5406549  19.0395172   1.5337120   3.1985385  19.7873123   2.0236045
   3.0663545  18.2858856   1.8848763  61.0698497  15.0021752  37.7538276
  60.8442795  14.9816330  38.6838436  60.2565657  15.2526673  37.3155880
  74.6013295  26.8973168  23.1352830  75.1915633  26.1796864  22.9053545
  74.8892295  27.1749504  24.0049171   8.0269356  31.9796944  57.1808577
   7.5313397  32.7818966  57.0162868   7.9965992  31.5047789  56.3503361
  22.6520463  70.3136969  55.8209658  21.6951104  70.3255033  55.8014822
  22.8749009  69.4270945  56.1046886  54.4608068  60.8863449  44.5021152
  53.9682293  60.0857210  44.3215466  55.3500986  60.5839968  44.6864319
  48.2724661  48.6489301   3.3005635  48.7871403  48.8245683   2.5128524
  47.7176231  47.9058652   3.0634133  28.6317498   6.7967613  39.2301488
  27.9803521   6.1881741  38.8815403  28.8351781   7.3762806  38.4959769
  40.0055885  76.5228224  51.8881083  40.2575827  77.3816586  51.5488005
  39.2439294  76.2727261  51.3650751  52.8155433   8.0806835  55.9902048
  52.2977387   8.8856800  55.9803867  53.0911338   7.9620751  55.0812387
  63.0896181  66.5773110  21.3964765  62.7460474  67.1745877  22.0608918
  63.9892668  66.8708997  21.2527005  61.0161554   6.7489536  42.8383875
  61.3084232   5.8415611  42.9246902  61.1404287   7.1245487  43.7100077
  12.1721704  19.2382916  58.5497236  12.2435529  18.5652741  59.2266035
  12.8675563  19.0264042  57.9270077  59.3514644  26.5327557  51.3971281
  59.3654834  26.4241513  50.4462099  59.3887912  27.4798592  51.5306044
  52.8518163   6.8772133  32.5493836  53.0609667   6.3750180  33.3369708
  53.3157527   6.4234455  31.8457556  81.7762982  14.9445065  43.9910030
  81.4902245  14.0709313  44.2579365  82.3865687  14.7869690  43.2705975
  73.1039619  76.6726589  46.9577026  72.6273108  77.2415972  47.5621414
  73.2261133  77.2062588  46.1724758  56.5758413  63.0399327   8.5350816
  56.5280622  62.4988179   7.7469508  55.6794638  63.0541711   8.8705461
   4.2689807  21.1596878  24.1570234   4.5350654  20.5117233  23.5046625
   5.0774295  21.3793095  24.6200609  70.9664059  74.3085527  33.8507962
  70.0837040  73.9942837  33.6550784  70.8322144  75.0385046  34.4552755
  44.2875058   8.8473328  56.6426420  44.6697766   9.6934326  56.8754911
  44.1674859   8.8916500  55.6940317   9.9539382   5.7742222  53.2143545
   9.1551406   6.2903317  53.1057596   9.6456058   4.9104126  53.4881926
  18.9871712  65.9830093  26.9059205  19.5745583  66.7212057  26.7438483
  19.5495053  65.2110195  26.8422890  72.1024418  68.4439659  44.1284418
  71.9648552  69.3677235  43.9187431  71.2966728  68.0115652  43.8455963
  68.9792967  74.9170017  21.4300442  69.3475008  74.2851686  20.8124328
  68.8409662  74.4144678  22.2328877   9.2190416  20.1033600  24.4705081
   9.1457660  20.6778153  23.7083650   9.8346002  19.4224938  24.1989493
  29.5958097  29.9096783  43.0374908  30.3125817  29.7120388  43.6403227
  29.9268110  30.6287869  42.4993849  67.8225756  66.5478086  36.3919044
  67.5829268  66.5366364  37.3185515  68.2346058  65.6971407  36.2407970
  16.1374194   8.0320652  44.7284126  15.9915693   8.7522801  45.3418016
  15.6538589   7.2961720  45.1037312  31.9466836  23.6705597  40.9357738
  32.3309953  24.4630440  41.3106203  31.8522985  23.8678177  40.0038862
  26.8275411  19.6672638  28.2319307  26.8431813  20.6111725  28.3901143
  27.1785505  19.2838677  29.0356898  38.2977438  69.2621756  37.7854633
  37.8322768  68.6254787  38.3278584  39.2240047  69.0804434  37.9443431
  61.7953169  20.1760109  58.4360504  61.5669762  20.0790032  59.3605375
  62.5642549  19.6180065  58.3194351  76.9694901  75.5933475  65.1096678
  76.8333769  76.5406609  65.1271725  77.5627947  75.4230690  65.8412600
  13.6437124  32.3547988   4.7242467  14.5045895  32.3770385   5.1421325
  13.2412952  33.1906467   4.9601523  79.0091353   6.7904199   6.3308112
  78.5766631   6.9967569   7.1594398  78.4769326   7.2291673   5.6671159
  33.6109328  61.4998960  54.5482445  33.1012201  61.6761160  53.7574434
  33.5463858  62.3065376  55.0595093  10.9020765  27.6524838  53.0598402
  11.0356004  27.0166596  53.7627840  10.6753976  28.4651955  53.5118723
  74.8304211  39.3227871  59.8925018  75.4396712  39.7415932  60.5004883
  75.3568541  39.1390141  59.1144753  16.6461618  44.7165592  35.8888674
  16.9114120  45.1245506  36.7131352  15.9124238  44.1499718  36.1272907
  28.2754177  32.1173244   1.8916909  28.2122940  31.3615661   1.3076798
  28.0606932  32.8672700   1.3369720  79.2464863   1.3969429  39.7461915
  79.5263659   2.2043236  40.1775026  78.3951937   1.1994513  40.1367474
  36.7999036  10.6713589  51.1383724  37.1209867  10.4527004  50.2635479
  37.5539834  11.0626133  51.5794086  59.1616070   8.7150963  41.9701242
  59.3698346   9.6074875  42.2467327  60.0075113   8.2676705  41.9479799
  63.3930492  57.5910091  22.4845314  62.8426361  57.4899197  23.2610989
  63.8531733  58.4188271  22.6231933  74.9561214  69.0711927  21.0128736
  75.4377317  69.3883038  21.7768908  74.0560865  69.3622589  21.1593437
  67.2448479  27.8014286  45.1663733  67.3242342  28.7422283  45.0088263
  67.0753609  27.4272640  44.3017864  75.5026232  38.9680584  42.4536419
  76.0517918  38.7002762  41.7167997  74.9107014  38.2287129  42.5923157
  23.8203478  61.5606356  27.5021029  24.1874027  62.3342943  27.0743752
  23.6866999  61.8301058  28.4108138  66.6549683  64.3950129  54.4352102
  66.7465162  65.2578354  54.8394299  65.8028793  64.0789509  54.7356701
   5.2910239  29.9882134  12.7856851   6.2114103  29.7362431  12.7106524
   5.2029283  30.3090294  13.6832094  23.3888096  24.0290837   7.0075528
  22.5047010  24.3927627   7.0557467  23.2732386  23.1721406   6.5970342
  53.7107909  34.1724828  47.0122500  53.6113799  33.4218553  47.5978322
  52.9905856  34.7572377  47.2480448  13.0203063   9.1975601  21.2929702
  12.1023090   9.4171150  21.4520454  13.4440000   9.3082054  22.1441293
  10.6806469  70.9592819  44.2944527  10.6639433  71.8792820  44.0307331
  11.3070750  70.5502939  43.6973333  62.8044521  52.0623024  66.5200329
  63.2672393  52.4403961  67.2677660  62.8566705  51.1167153  66.6592407
  73.5038792  -0.0957577  55.6548691  73.0566870   0.6537541  56.0479116
  73.3887517   0.0240095  54.7121954  11.6140039  18.5184773  63.6595964
  12.2227485  19.1643151  64.0181446  10.7567937  18.7886818  63.9888477
  37.8386283  48.2039690  62.0556736  38.1960487  49.0864706  62.1540260
  36.9406581  48.2717037  62.3801661  27.8241009  49.8030190   2.1603553
  28.7669128  49.9681096   2.1692101  27.7227157  48.9687352   2.6185290
  13.9822585  10.0576027  56.2483025  14.4914300   9.8985394  55.4535246
  14.1146381   9.2719372  56.7788076  38.6797714  67.5793171  55.0280380
  39.5235085  67.5113392  55.4749393  38.1447744  68.1216526  55.6075907
  81.8843972   3.9681061  24.0851641  82.0383870   3.5244663  23.2510734
  81.9371068   4.9002274  23.8739777  33.1525285   4.4015702  58.1683254
  33.5318238   3.8433750  57.4895144  32.2950704   4.0146168  58.3451462
  13.2684667  33.3662804  12.6835072  12.8485973  32.5062187  12.6991737
  13.0406196  33.7284764  11.8272769  12.8909035  42.8556108  59.5071554
  13.6892529  42.3316479  59.4413328  12.3831101  42.4324703  60.1994944
  42.0634025  49.0004735   1.3542096  42.6296848  49.5385652   1.9073979
  41.1817974  49.3367963   1.5150992   7.8276164  45.0786885  49.4969273
   7.0957477  44.5507630  49.8161221   7.5874097  45.9788235  49.7166920
   1.5923233  68.1022167  29.9626923   2.1783371  68.7321234  29.5431232
   2.0741864  67.2754335  29.9408650  57.2175585  15.0070675  22.4877167
  56.6096102  14.5825299  21.8824100  58.0719220  14.6346195  22.2696018
  35.2010305   1.5656241  52.8365946  34.6203763   2.2264441  52.4592447
  35.8709867   2.0705517  53.2975006  27.0364374  48.9980416   9.6795146
  26.6118807  48.6175637  10.4484241  27.4594873  48.2558923   9.2477004
  46.0056496   4.1205519  49.7100782  46.8531895   4.4451529  50.0142956
  46.2195635   3.3534497  49.1790152  78.4202545  51.3668792  60.1077175
  77.8401678  51.8524520  59.5212460  77.8284281  50.8705394  60.6730700
  32.5964737  18.4094441  66.4573574  32.0132875  18.9655507  66.9739532
  33.1079316  19.0232456  65.9302044  58.7674215  70.8725671  28.9936924
  59.4776752  70.4770796  29.4990230  57.9895305  70.3734795  29.2427468
  24.8913980  38.2112479  32.0238400  25.0122499  38.4398437  31.1022258
  25.1001048  39.0153050  32.4994063  17.9999709  16.4481306  43.6817980
  18.2905376  17.3441064  43.8521767  17.2081935  16.5494788  43.1535482
  57.3506858  63.1267063  44.2048073  57.1309737  62.2071294  44.0553522
  56.7578532  63.4041480  44.9032402  16.0727371  72.6266048   7.2423369
  16.3083471  73.4341742   7.6990104  16.2393058  72.8162481   6.3190156
  56.8679505  38.8722885  54.7415407  56.9274622  38.9650677  55.6923731
  55.9298020  38.9105503  54.5554085  11.9576478  38.7660432  23.5245538
  11.3629389  39.2979503  22.9957557  11.8019557  39.0548944  24.4237518
  52.5988202   9.4768375  19.5237064  53.0110864   9.2246723  18.6974621
  52.7203183  10.4250455  19.5724154  16.5740788   8.1791210  51.1524296
  15.6378520   8.1355077  50.9579897  16.9977033   7.8221059  50.3718472
  10.6087054  65.6437306  55.8959675  10.6258357  66.4313475  56.4396572
  11.2643827  65.8064822  55.2178621  61.3256363  33.4833670   6.1298263
  61.3312177  34.3382049   6.5604669  62.1102981  33.4862208   5.5816197
  39.0210699  48.1747702   5.1661984  38.5356414  47.5417426   4.6371762
  39.4830047  47.6418522   5.8133809  67.0460909  72.3213778   0.9278925
  66.3219123  72.1709607   0.3202981  67.5781589  71.5279774   0.8674727
  50.4929965  64.2276923  53.5004663  50.4380452  64.2808513  54.4546080
  51.0895344  64.9349336  53.2551432  80.0014656  59.2090849  48.1159019
  79.8814004  59.4164376  47.1891785  79.1244715  58.9841728  48.4265900
  31.2080825  67.8812830  25.6645203  32.0306028  68.3178280  25.8861661
  31.2253536  67.0676879  26.1685014  50.8904982  23.2188153  45.8132648
  50.9671545  23.8137007  46.5592289  50.0367355  23.4223843  45.4313231
   1.5364107  16.0771692   8.0396712   1.6573520  16.8640327   7.5082093
   1.4484124  16.4040613   8.9350086  59.0480357  44.6776516  62.0193722
  58.5605270  45.4869117  62.1732091  58.4518486  43.9823408  62.2974654
  80.9842915   1.5219630  29.0229702  80.2066313   2.0274763  28.7864685
  80.7117671   0.6085096  28.9359903  51.0492679  59.1480295  51.2225437
  51.4010205  58.2646302  51.1125088  50.5759399  59.3204598  50.4086256
  76.7253321  66.9158975  23.0087924  76.3328641  67.5132714  23.6454606
  76.2204902  66.1073570  23.0961323  65.2255265  29.2706823   5.1390129
  65.1722185  29.7744226   5.9511930  64.5715408  28.5794401   5.2425408
  63.6974208  17.4909604  32.6785898  63.3777885  16.5907264  32.6182032
  63.0324726  17.9471266  33.1943297  64.4575779   7.7458525  53.7294960
  63.8050727   7.1129227  53.4297132  64.8096339   7.3642486  54.5336485
  55.4281479  33.6153699  53.7664683  56.3236076  33.8991080  53.5824163
  55.2671820  33.8991014  54.6663685  25.5538964   8.6228591  36.2326598
  25.1505542   7.8398693  35.8578634  25.1087427   9.3518066  35.8005643
  44.1325188  25.4437757  14.6754968  44.9269295  25.8758569  14.9892747
  44.4506979  24.7210026  14.1345775  24.5455194   8.9762551   3.7563998
  24.1430688   9.0339488   4.6229658  24.2173290   9.7439861   3.2883060
  39.8762494  31.9509770  55.2811153  40.1926130  32.1225746  56.1680766
  40.0317854  32.7689393  54.8089107   0.6987561  51.3070409  41.2652349
   0.0661863  51.2078921  40.5537224   1.4561928  50.7928602  40.9857082
  71.1299038   2.8911230  23.0378866  71.5044975   2.2592610  22.4241590
  71.7951775   2.9863241  23.7194848  46.6270113  12.4884605  12.1563053
  46.5619373  12.7643645  13.0705667  47.0677757  11.6395772  12.1930909
  26.9397736  22.1050906  15.2577353  26.9930315  21.5823722  14.4576347
  27.5854564  21.7113423  15.8444953  45.4935360  10.9847164   6.9928932
  45.7258701  11.6896355   7.5973284  44.6099138  11.2040901   6.6974002
   9.3792690  75.5488531  41.7858791  10.0969995  76.0717822  41.4286089
   9.0913666  75.0047804  41.0528517   1.4717352  31.7921233  43.0541039
   0.9323007  31.3262963  42.4151611   0.9083299  31.8825865  43.8226271
  46.4903307   7.0558864  19.2759562  45.6884718   7.1636999  19.7874522
  46.6972303   7.9376447  18.9662361  24.5534229  41.6507530  43.8776493
  25.1596427  42.1845484  44.3912554  24.6113205  40.7790756  44.2688751
  40.6034290  55.1669690   7.8908174  39.8606729  55.7674977   7.8282897
  40.2052581  54.2979678   7.9411189  61.3753442  22.5958633  64.7199774
  61.1396222  21.7421484  64.3568850  60.8112316  22.6939297  65.4870462
   8.2960802   4.7253242  44.0741062   7.8819728   4.4005913  43.2745457
   7.7966225   4.3211964  44.7836494  38.6825388  68.3442066  32.7016425
  39.3107324  68.9983062  32.3954439  38.2931559  68.7340705  33.4843445
  16.6018665  28.8462067  23.6631274  16.4250457  28.7931442  22.7238989
  16.8585503  29.7569871  23.8074422  58.2094382  77.0564151  33.8067102
  57.6404028  77.6999907  33.3845258  58.6855351  76.6471515  33.0841684
  32.5368643  11.9839585  33.4921098  31.8077946  12.5293803  33.1968069
  33.1684613  12.6046419  33.8555241  21.4155984   0.4308109   8.3034706
  20.7853794  -0.2732674   8.1507331  20.9251595   1.2336792   8.1271100
  27.9073537  75.9978684  36.8290997  27.6605953  76.4397902  36.0166669
  28.7438262  75.5778522  36.6287637  19.4080627  22.6917648   6.7870289
  19.0665412  22.4632072   5.9225309  19.1016483  23.5861397   6.9368172
  77.0441071  60.1803705  17.5047891  76.7977086  59.5265791  16.8505113
  76.6080323  59.8927113  18.3068673   7.0483524  30.9592152  21.8412209
   7.8340846  31.1692762  21.3365126   6.3224578  31.1988926  21.2651443
  41.3234568  11.2359679  10.7042813  40.9879589  11.8058276  10.0122321
  41.4849091  11.8243742  11.4418066  31.5473795  17.6703167  37.5945544
  32.1001410  18.3889151  37.9016447  32.1044374  17.1817434  36.9885707
  36.1488324  63.5570459  26.7016387  35.7997124  62.7117495  26.4191151
  35.8463686  63.6512915  27.6048923  10.6016624  27.2633028  12.6188827
  10.9863842  27.0900369  13.4780669  11.2991536  27.6968217  12.1271515
  44.7512203  24.7534187  65.2556400  44.8202067  25.4382892  64.5904897
  45.6541175  24.5956964  65.5315608  63.0251264  63.9304022   7.8695673
  63.8604998  63.5159365   8.0854428  62.3815548  63.2259230   7.9454464
   0.4031739  35.4153204  16.6895390   0.2873864  35.8734536  17.5219691
  -0.3967803  34.8998618  16.5865421  44.4604445  22.3757029   8.0030894
  44.1877937  22.1679354   8.8968045  43.6572409  22.3109388   7.4864680
   8.8749658  18.5012576  11.2073676   9.4487368  18.4310743  10.4444186
   8.5992693  17.6016566  11.3832776  20.4161286   1.4047015  37.7989864
  20.4346943   1.3599777  38.7549591  20.2199101   2.3214543  37.6058650
  29.4312096  10.0391340  27.9397488  30.1381898  10.5257487  28.3635592
  29.7335601   9.1309440  27.9372025  34.3654275  28.2897139   3.2944170
  34.4537139  29.2402005   3.3652300  34.7425246  28.0770874   2.4407077
  61.4208323  75.4646273  59.1384526  62.0540410  75.0498028  58.5526200
  60.5765444  75.0964828  58.8779123   7.2799551   0.2919756  42.2525883
   6.4252514   0.0190016  41.9191217   7.8841025   0.1235326  41.5294933
  46.6198801  53.8609561   7.2829787  47.4565016  53.4066018   7.3822705
  46.2888490  53.9512774   8.1765620  33.7673963  67.0704011   8.0042446
  33.7092984  66.5354661   7.2125995  34.2637170  66.5323428   8.6210018
   9.0680277  14.0627861  26.7255521   8.6895710  14.8293006  27.1562004
   9.9188048  13.9461768  27.1484137   7.6979715  32.3196602  36.2527776
   7.5298882  32.5788617  35.3467989   6.8939042  31.8800187  36.5292239
  64.8413092  38.8185517  58.2737161  64.3885189  38.2082468  58.8557299
  65.7242948  38.8856649  58.6371209  16.8264736  62.5084273  19.2942059
  17.1297801  62.5303928  20.2018142  17.5132860  62.9573075  18.8012242
  18.0260396   6.8019921  63.5486984  18.3108497   5.9916735  63.9711905
  17.8913128   7.4145669  64.2717695   0.4992736  76.9782289  48.3749056
   1.1808337  76.6530431  47.7867174   0.9507788  77.6028861  48.9425135
  74.1236310  53.8486306  30.6991792  75.0733750  53.8316576  30.5811477
  73.9455014  54.7063867  31.0848689  60.1950472  76.9177655  45.5373764
  60.7997130  77.5674089  45.1788044  59.9084746  77.2915412  46.3706827
  18.8509762   5.2330196  65.7800150  18.0539823   4.7659186  66.0307074
  19.5573652   4.6098968  65.9502029  68.6803680  76.7256334  11.8947983
  67.7661603  76.4641513  11.7848730  68.6781531  77.6716030  11.7486203
  24.4731069  23.3958864  39.6550536  24.3780279  23.1685925  40.5800009
  24.9956250  24.1978812  39.6579814  26.9144964   1.2692870  29.4151640
  27.3479891   1.4575928  30.2475452  27.2075486   0.3871602  29.1866803
  78.1455581  66.0004524  45.6900787  77.3326915  65.4980103  45.7451248
  77.9481595  66.7089955  45.0775194  43.1105702  67.3153655  58.8334036
  43.4374218  66.4585130  58.5591745  43.8489287  67.7183954  59.2901611
   0.8815818  32.6940274  55.9985495   0.1840844  32.2365832  55.5290031
   1.2514311  33.2950616  55.3518629  17.1566439  19.0518570  36.9664264
  18.0550814  18.9754438  36.6451764  16.9075620  19.9546874  36.7687201
  28.3084917  51.7509317  17.9702282  28.5777736  52.2917128  18.7127078
  27.4750638  51.3673210  18.2431197  46.1467613  60.1046185  49.8076725
  46.2425102  59.1899447  50.0730705  45.5004991  60.0828342  49.1019106
  46.2625140  40.0692299  55.5492218  46.0061711  39.7939469  54.6690293
  45.9525806  40.9722848  55.6175192  47.1477121  67.0250673  54.3077584
  47.5179630  66.8405766  53.4445615  47.0411688  67.9761739  54.3243726
   3.0867697  75.1319261  65.1002905   3.4759261  75.4126735  65.9285242
   2.4829842  74.4306107  65.3449030   2.8095330  76.5361246  15.3952086
   2.1719993  77.1263223  15.7970166   2.2777808  75.8775957  14.9482071
  78.2596455  36.8763137  53.3263588  78.1313453  36.7436481  54.2655993
  77.6018564  36.3168478  52.9133892   6.2307180   5.3422263  38.9370425
   6.7269195   5.6386474  39.7000297   6.4422930   4.4118503  38.8604219
  20.0858569   3.3942932  35.2479291  19.6126711   3.8217518  34.5340610
  20.8375096   2.9808572  34.8232889  50.3500271  25.5808210  15.7596028
  49.7163105  25.0159168  16.2017751  50.0651312  26.4702892  15.9691608
  46.5550553  60.3384558  10.2341604  45.6648456  60.5183117   9.9318182
  47.1167867  60.8096008   9.6187639  33.7374413  13.2931299  46.4926131
  34.6408689  13.3940001  46.1928208  33.6669826  12.3696275  46.7342933
   0.4159860   3.3871192  27.7668977   0.0495358   2.8858578  28.4953785
  -0.2354158   3.3079317  27.0700216  49.3749296  41.0973629  11.8960921
  49.4831359  41.5025183  12.7565448  50.2651035  41.0252044  11.5516870
  35.4018712  38.1012477  65.0439587  36.0099095  38.5106413  65.6595217
  35.1314932  37.2915919  65.4770698  81.5412324  52.8119604   1.3399732
  81.6954511  52.0228712   0.8205644  81.7330687  52.5477211   2.2397554
  54.6342117   3.8170770  66.4693030  54.9473382   3.7414029  67.3706671
  54.6926232   4.7521451  66.2731650  30.8959675  24.7200918  26.9194722
  31.5148306  25.4484630  26.9715786  30.0361609  25.1287270  27.0193768
  33.7299789  76.9954893  19.1257298  33.0076850  76.4150171  19.3656754
  33.7963641  77.6099722  19.8566437  48.2234049   3.6463931  12.7563655
  48.4605837   3.2807258  13.6085784  49.0012026   4.1301581  12.4784553
  34.8018420  28.7574489  57.3783441  34.5690065  29.6508474  57.6310469
  34.5813173  28.7064309  56.4482911   2.5470716   8.9739549   2.0845011
   1.6615640   9.3037820   1.9317849   2.4196480   8.1698167   2.5878468
  10.4459465  47.0974398  54.3688440  11.0526943  47.3991394  55.0449085
  10.8702123  46.3259792  53.9932394  26.2391877   3.3457959  53.7102938
  26.7413306   4.1463047  53.8628387  26.1926842   2.9249814  54.5687723
  63.4368937  13.0213821  39.3885159  63.5020260  13.8900554  38.9917850
  62.9644279  12.4974382  38.7416077  35.5051196  56.8792788   7.9282790
  34.7181953  56.7783396   7.3927450  35.1866306  57.2373621   8.7568760
  52.6152992   4.4764233  58.9692831  52.5717831   3.5429370  58.7620592
  52.9644632   4.5080212  59.8599672  14.1809583  54.9679852  45.7065153
  13.2674563  54.7210741  45.8506727  14.4617736  54.4267654  44.9686432
  64.7262292  73.6432822  59.6045446  64.6690404  72.7184848  59.8447752
  64.2486846  73.7058372  58.7773371  22.6500845  70.9256363  37.4394846
  22.8088617  70.9943676  36.4980507  23.3650684  70.3779411  37.7636075
   5.8528811  26.4408088  17.1828175   6.2888110  26.5750813  16.3412893
   5.9804845  25.5114245  17.3730612  64.2025177   7.3091179  43.4702301
  63.2785062   7.3195410  43.7198830  64.2151455   7.6696014  42.5835943
   9.9489897  22.6116371  20.3144336  10.2511919  21.9888186  19.6533716
  10.7249629  22.7936363  20.8445024  26.3297391  36.4891124   6.4831626
  26.9516802  36.8324327   5.8416396  25.5175996  36.9642949   6.3074821
  38.3729887   1.5244648  20.2817726  37.6374793   1.4828178  19.6706069
  38.1453872   2.2341314  20.8824420   3.1285259  40.7566881   1.0814935
   3.3988750  41.6729546   1.0215103   2.5642645  40.7235336   1.8539843
  43.7805939  38.9327884  14.5648098  44.4687796  38.9265227  15.2300882
  44.2522144  38.9111614  13.7321401   5.3341657   8.9035016  12.0399666
   5.8452594   8.2279480  11.5942740   5.3436202   9.6473902  11.4376616
  75.3836291  70.7339100  59.2698669  75.3941148  70.9031675  58.3278084
  76.0097592  70.0202690  59.3919802   1.1972405  21.9401629  54.3287988
   1.2192847  21.0234947  54.0540870   0.3745629  22.0261211  54.8105069
   5.7973612  43.5971371  38.3238387   4.9607099  43.1405727  38.4121203
   6.2921561  43.3432142  39.1028976  39.1590380  18.0394885  13.7736623
  38.5283529  17.5447699  13.2504861  38.6305796  18.6947271  14.2293279
  34.0028448  73.4070145  62.9546775  34.8672361  73.7945592  63.0920379
  33.4055156  74.1547095  62.9350235  36.4934254   1.7522936  18.3717394
  36.1267662   0.8859993  18.1947398  36.1653805   2.3012961  17.6595485
  11.6545165  13.4944201  39.6398711  12.5237155  13.1358802  39.4604945
  11.6890335  13.7573981  40.5595875  38.4159303  19.0629125  44.2160416
  37.9746413  18.2569325  44.4841719  39.1030788  19.1888261  44.8704195
  40.0268149  75.5019352   0.6038253  39.5772111  74.6581122   0.6491248
  40.8734261  75.3449866   1.0219733  18.6818576  57.4457169  20.6525183
  17.8113508  57.1629572  20.3723478  19.1826594  56.6340542  20.7339573
  68.3475309  52.2307582  45.6656178  67.7983385  52.9599173  45.9536179
  69.1378027  52.6473362  45.3218658  21.3498605  77.1622951  63.3895588
  21.5129293  76.6994603  64.2114019  21.7343772  76.5996115  62.7174234
  12.3403299  24.1392183  15.2320468  11.4975524  24.2965674  15.6577194
  12.9882205  24.4715524  15.8533537  64.2706347  47.9817009  11.9519746
  63.3187914  47.9675150  12.0521092  64.4315767  47.5231123  11.1273372
  75.8177536  72.4552182  12.4188435  75.6268423  72.6938589  11.5117419
  75.5201333  71.5487192  12.4957407  74.2582004  71.7479317  65.9960747
  73.9766877  72.6627282  65.9846687  73.9949839  71.4056657  65.1417875
  78.8500197   9.6332848  55.2744865  79.3492202   8.8412416  55.4737329
  79.2891387  10.0073481  54.5106268  43.0308282  56.7899010   9.3368976
  42.8690361  56.0703227   9.9470298  42.7734577  57.5755021   9.8194139
  77.8423803  71.5988950  63.2442570  77.6516931  71.7077063  62.3125744
  77.1892040  70.9697835  63.5505438   2.2740710   7.2823781  55.3643799
   2.4603850   8.0743265  54.8600626   2.5870293   6.5668344  54.8109484
  37.0385575  55.0178099  20.7072306  37.5738287  55.2493095  21.4662600
  36.5690732  54.2284870  20.9770060  13.3411062  17.3673069  36.1886454
  13.8391495  16.5505171  36.1564255  13.5260332  17.7937615  35.3518844
  32.9534984   3.6325622  17.9757452  32.3969316   4.1485524  17.3924649
  32.4311757   2.8572205  18.1813073  46.2564110  64.0417866  18.2311773
  46.6693466  63.8883940  19.0809929  45.4562627  64.5249645  18.4374154
  53.7419490  50.5623190  52.4293900  52.8398163  50.6001345  52.7471304
  54.1892458  51.2698881  52.8936148  16.2760186  59.6777725  46.9623137
  15.6779599  59.0262794  47.3285341  17.0996666  59.5358515  47.4288893
  33.1086516  27.1202350  45.9580326  33.8587093  26.5602732  45.7578039
  32.4775147  26.5346718  46.3763762  27.8007186  58.0572955  29.1999698
  26.9551433  57.6478521  29.3832445  28.1119312  57.6197974  28.4075212
  23.6264181  22.6259947  42.1667433  24.0101743  23.1703353  42.8542471
  22.7115560  22.9042077  42.1236658  39.8881030  42.2116661   3.4665823
  40.4445839  42.1322346   4.2413411  40.0754595  41.4243889   2.9553840
  40.1711655  12.3602343  41.3792992  39.5038486  12.6033974  40.7375908
  40.9143543  12.0664871  40.8524084  17.4967909   5.2248561  40.5306482
  16.9803989   4.7814742  41.2036896  18.3170855   5.4515952  40.9687567
  31.4922523  14.3017614  44.5960093  31.1345315  13.8729763  43.8185740
  31.6566014  13.5860658  45.2100134  42.2696114  25.2892303   2.8183940
  41.4162302  24.8979044   3.0050248  42.7883959  24.5709896   2.4561402
  13.6353172  56.0044448  33.0495811  13.7008012  55.1861350  33.5418391
  13.8038934  55.7520096  32.1417880  28.8354015  42.1599627  30.3569865
  28.6970043  41.2758493  30.0172520  28.9759254  42.6969385  29.5771551
  73.5342174  14.0067437  52.5012846  72.8113776  14.5089343  52.8774984
  73.6376207  14.3607715  51.6179927   2.4816839  26.9084072  11.6470504
   2.9346487  26.4159727  10.9625340   1.7306523  26.3618255  11.8782008
  67.4977690  64.0960259  51.8964084  68.3516413  64.5228310  51.8259223
  67.3832995  63.9427633  52.8342994  50.9653521  20.4688549  13.7874544
  51.5721178  20.5986810  13.0586088  50.2878332  21.1321425  13.6561203
  74.2442160  75.8214634  26.3804817  75.1155632  76.0863053  26.6751742
  74.0373342  75.0498060  26.9077182  38.3336473  10.4438877  27.5500464
  38.5016298  10.2042758  26.6386747  38.2593989   9.6066523  28.0080366
  46.4040947  24.4026804   6.8305033  45.6031132  24.3379641   7.3505771
  46.2358952  23.8564491   6.0626662  36.5763497  34.4491005   9.1322011
  37.2629237  34.6443272   8.4944445  36.0735226  33.7391281   8.7330317
   4.5581938  12.8348751  59.7700836   4.7050978  13.7806721  59.7591044
   4.5165183  12.6097388  60.6994958  40.0594521  37.4364161   5.5341882
  40.7819128  38.0298233   5.3288788  39.6034074  37.8574157   6.2628961
  79.0134423  61.9351856  19.0336037  78.2951896  61.8696837  18.4042728
  78.8719313  62.7742020  19.4720757  77.4008482  58.6381523  48.4721184
  77.2222321  59.4615356  48.9263916  76.6182678  58.1075768  48.6214161
  23.9311290  43.4234810  49.5424843  24.1067243  42.7177620  50.1648664
  23.4963560  42.9916477  48.8071442  10.2105177  75.3650349  17.2186136
  10.8357323  76.0291496  16.9282842   9.3699706  75.8222693  17.2440839
  67.7992427  67.9922983   4.5300834  67.9617249  67.8899285   3.5923497
  67.4250352  68.8693163   4.6139876   1.3770612  30.7776546  17.8059733
   1.0078824  30.1004696  17.2390890   1.2874730  30.4241800  18.6909926
  31.3718724  35.0968146  51.4469051  30.4574680  35.1923990  51.7132950
  31.5399671  35.8572698  50.8904171  23.9292645  38.2908726  13.6505771
  23.0314636  38.5637069  13.4615159  24.3741345  38.3277416  12.8038406
   5.5578321  16.9886315  35.9058857   6.3756436  16.8379271  35.4318571
   4.9421415  17.2817338  35.2341366  37.7599591  75.5000014  56.4090486
  37.4780005  74.5918984  56.2991305  38.0464285  75.7691569  55.5362816
  36.5812206   7.6005954  11.1395478  37.3527765   7.2728229  11.6016078
  35.8996820   7.6414686  11.8104184  10.5467820  23.4971309  28.7174511
  10.4420626  22.7652884  29.3254566  10.5441511  23.0907655  27.8507948
  64.8493110  37.1020584   2.8684680  63.9919149  36.8589914   2.5191514
  65.4259526  36.3832366   2.6095979  44.5836795  69.8789791  55.9872007
  43.7231792  70.0035016  55.5868721  45.2027620  70.0030957  55.2677774
  22.1328235  18.5871863  29.8543119  22.8254247  18.2687414  30.4332161
  22.5650096  19.2347443  29.2974305  48.0598307   1.3090992  57.7268982
  48.2930183   0.3849375  57.8151083  48.7792921   1.6907024  57.2239208
  80.5174258  15.4725981  41.3526630  81.3074764  15.8941674  41.0145330
  80.6954238  15.3422642  42.2840929  65.6354801  21.7053390  56.4030361
  66.5066676  22.0816898  56.5280390  65.3985171  21.3589597  57.2633266
  59.6025663  51.5191777  65.9388872  59.9471694  52.3699601  66.2102708
  60.1861769  51.2381120  65.2341674   4.4490427  17.0937097  47.9045486
   3.8607472  17.7542329  47.5386953   5.2152574  17.5892162  48.1937218
  72.1592776  25.8724880  22.7450585  73.0009691  26.3247848  22.8017664
  71.9121115  25.9411883  21.8228769  70.6280260  53.7886286  22.1304607
  70.6864588  53.3689451  21.2721586  69.8765437  54.3771410  22.0586443
  15.3449190  59.3833447  64.2015648  15.0588703  60.2938890  64.1286230
  15.5781519  59.2787266  65.1239967  54.5540768  53.0522103  41.5920122
  54.7681886  53.2808681  40.6875213  53.5972625  53.0388589  41.6156085
  27.7253842  31.7683196  51.7048502  28.2818937  31.0153937  51.5057755
  26.9485474  31.6427183  51.1598873   3.4974229  10.3367507  15.3051090
   4.1635981   9.6497071  15.3254676   3.4464169  10.6477666  16.2089336
  19.1892791  33.2930064  33.2600474  19.7272730  34.0081310  32.9203534
  19.0243363  32.7353549  32.4997520   8.7535727   7.4205637   8.9507908
   9.6902394   7.4873608   9.1363323   8.7085152   6.9862622   8.0989784
  42.2149849  33.5093737  27.4078989  41.4202690  33.8250256  27.8380442
  42.2064829  33.9319873  26.5490866  41.5212727  21.2650490  11.3993454
  41.4804411  20.8477092  12.2598064  42.4573946  21.3527894  11.2198818
  30.8768630   6.9635570  43.7194109  30.7403302   6.4383483  42.9308987
  31.3118601   6.3691807  44.3307400  78.4005691  28.3328724  14.5047474
  77.5261645  28.1175613  14.8292303  78.6982484  29.0439343  15.0722075
  21.0061097  12.9152250  19.2317545  20.2554131  13.4065104  18.8981020
  21.7320180  13.5385072  19.2033815  57.0461750  12.2995770  26.8105888
  57.0667934  12.8601670  26.0349965  56.2114525  12.5042999  27.2319627
  19.8173654  31.4058375  31.0776567  20.0554109  30.5625463  31.4629197
  19.6543896  31.2101555  30.1549554  33.6288500  45.5830383   9.6843076
  34.2675185  46.0001516  10.2625370  34.1503239  45.2426958   8.9573514
  41.0241747   2.8046560   8.4556961  41.3368750   3.1214249   7.6082838
  40.4739380   2.0512518   8.2415688  36.6097372   7.2619065  27.8215027
  37.5061905   7.5973900  27.8141427  36.6894137   6.3732250  28.1680965
  39.2990422  46.3544464  37.3204684  39.9041867  46.0924625  36.6266394
  38.4903002  45.8815861  37.1240735  18.4764541  66.1869959  20.7294059
  18.8186563  66.4338438  21.5885878  18.3167089  65.2456180  20.7966590
  32.6458716   6.8115419  31.2702036  31.7403650   7.0188051  31.5011430
  32.7283764   5.8736396  31.4427257  61.3322906   8.0901247   8.1446856
  61.2821702   9.0349168   8.2899034  61.1677889   7.7063519   9.0060157
  71.5411882  42.9416990  54.6079779  71.2750868  43.4237099  55.3909779
  72.3836396  43.3257580  54.3650627  21.2903619  44.3354940  17.4145055
  20.8565974  45.0199652  16.9050133  22.2245908  44.5189714  17.3155999
   8.4714830  38.3304405  64.6446753   8.0803055  37.8912187  63.8894987
   8.1768358  37.8190923  65.3982925  41.9040537   7.1184361  58.6334658
  42.5919247   7.6467609  59.0383577  41.1372948   7.6913178  58.6223555
   5.3639972  37.9496193  21.4304924   5.3716844  37.0070982  21.2636828
   5.4502499  38.3469319  20.5639291  19.5019674  46.9127083  41.9778728
  20.0422931  46.2668800  41.5226984  20.0089931  47.1432352  42.7563381
  48.7245684  72.5107146  21.2402248  48.0003594  73.0844818  21.4903140
  49.4175785  73.1082810  20.9593630  80.4629084  24.6757221  36.5188837
  79.7635129  24.9588108  37.1078968  80.0093639  24.4092894  35.7191682
  30.0325513  35.5623913  12.2289467  29.6251631  36.2884331  12.7013111
  30.5971146  35.1415634  12.8773344  35.1297712  11.0332775  19.8094952
  34.8666310  11.9534147  19.7911727  34.5879602  10.6428254  20.4952216
  10.1381958  27.7279305  50.4721785   9.3786335  28.2282639  50.1739168
  10.0773406  27.7466798  51.4272594  11.5491617  22.2859240  45.1442766
  11.0537875  22.0024586  45.9127045  11.5878367  23.2391381  45.2224874
  12.2022343  13.2551253  22.0426106  11.3619649  13.4612656  22.4521041
  12.6635110  12.7277267  22.6947665  27.5517559  26.0795736  11.7874610
  26.6051841  26.1790180  11.6857493  27.8946137  26.9708729  11.7221451
  26.9674339  16.1281988   1.4070003  27.7580952  16.0634705   0.8713738
  26.7152634  17.0499083   1.3513963  35.8746696   1.6181859  29.0367818
  36.6704345   2.0977819  29.2669535  35.7734513   0.9724782  29.7361016
  17.7728380  74.6096424  43.7939930  18.6057866  74.8264320  43.3751535
  17.2221578  74.2884443  43.0799770   7.5382912  18.6069095  53.7935352
   7.0680845  19.3914747  54.0756607   7.9826558  18.2972157  54.5827484
   9.1735488  14.7797120  48.5591412   9.5715672  14.4394588  49.3604183
   8.3130306  14.3620503  48.5231113  51.3003397  32.9161882  64.5139027
  51.3791752  32.0058012  64.2289257  51.1425066  33.4068346  63.7073135
   3.8348189   6.4759690  17.0722663   4.3514723   7.2403425  16.8172479
   4.0180209   6.3633960  18.0050015   0.9272056  19.7513413  11.7780697
   1.0978518  20.6908321  11.8449283   0.5581622  19.5138109  12.6287270
  29.0134549  42.1964216  11.2682402  28.7141800  41.6209030  11.9721210
  28.2461309  42.7246428  11.0481739  15.1408017   8.2537162  32.5262141
  15.2060783   7.9257286  31.6293335  15.7615638   8.9815110  32.5608611
  38.6854815  32.1581745  22.8288555  37.8974462  32.6516080  22.6013541
  38.4003806  31.2445211  22.8424978  35.5662441  41.6405058  24.2887878
  35.1056862  41.2333155  23.5550904  36.2076783  40.9848547  24.5624971
  27.9185152  10.6257188  56.9048786  28.2559896  10.5780971  56.0104084
  28.6550808  10.9522069  57.4217033  47.2901058  22.8727221   9.1104209
  47.5915766  23.7652040   9.2801958  46.4201212  22.9827142   8.7266707
   6.4485759  41.7257595  26.9461489   6.7921710  41.4855576  26.0856390
   5.5953896  42.1187830  26.7621946  22.2981000  18.0615890  65.6800604
  22.0752740  18.9416313  65.3765678  21.5087223  17.7551270  66.1263752
  59.8646062  75.3975834  14.2244041  59.8829805  76.3434121  14.3703568
  59.9871700  75.0185054  15.0947547  16.3011587  64.5178795  14.8575342
  15.7003748  65.2171278  14.5999587  16.1276877  63.8116837  14.2350972
  13.2522405  68.1710051  46.9724846  12.3154391  67.9781930  47.0106649
  13.4480632  68.5759370  47.8174210  63.7921397  10.6976163  63.4515047
  63.9882915  10.7306814  62.5152016  63.8806180  11.6037881  63.7469006
  25.6271458  15.9632945  11.6145051  25.2761602  15.0976491  11.8235517
  25.1113081  16.2558401  10.8631337  31.3922954  14.3497026  47.7757788
  31.3197136  13.3952749  47.7813530  32.2607756  14.5217419  47.4119425
  21.7201532  75.3896327  29.9818182  21.5778554  76.1200819  29.3797994
  21.0802949  75.5268544  30.6803751  63.8720392  63.2102172  16.2115359
  64.4533544  63.7342707  16.7626011  64.1992568  62.3151914  16.3014781
  39.7908354   7.6266605  43.3304644  38.9967895   7.0921427  43.3267832
  39.5050406   8.4823328  43.0104971  65.3949290  54.5084400  60.5724146
  64.7540599  55.2104766  60.6849463  66.2387019  54.9586053  60.5320187
  10.1345241  26.6662908  20.5576205   9.6165097  25.9641075  20.1641345
  10.9067500  26.7375231  19.9965274  59.7783375  21.6682410  24.2984796
  59.3961954  21.7237115  23.4226251  59.2744350  20.9824491  24.7366619
  72.9709326  53.8196835  16.6303365  72.5217568  53.5977027  17.4459283
  73.8951241  53.8751051  16.8733041  65.3001004  66.0177962  65.8843136
  65.5624419  65.1118438  66.0475874  64.6336972  65.9545724  65.2001047
  50.2113253  66.0701413  66.5519281  49.8715287  66.6434474  65.8648409
  49.4556075  65.5502934  66.8255740  34.3226576  28.5599709  28.5069895
  35.0701976  28.0741405  28.1585884  34.6103740  29.4729042  28.5093117
  67.0255041  17.1389377  41.0579777  67.9720402  17.0974052  41.1942816
  66.8606424  18.0449688  40.7969046  81.5003116  10.7892847  27.1518397
  81.8768707   9.9163008  27.2628975  81.8657012  11.1043394  26.3251233
  70.5493729  66.1368100   8.7360388  71.3707142  65.9030716   9.1684693
  70.0794225  65.3073530   8.6501354  45.4015970  25.3733850  57.5374556
  44.7450447  25.0179315  56.9384384  45.9194136  24.6135688  57.8034973
  25.8977246  12.8036177  39.4366264  25.1712561  12.9109907  38.8226676
  25.6772470  13.3764744  40.1711035  22.5841689  34.9010849  29.3670321
  22.4010253  35.8264589  29.5294285  23.4800029  34.7756982  29.6800685
  25.7277584  20.7325435  43.5130596  25.4779339  19.8108804  43.5790730
  24.9575686  21.1635160  43.1425190  24.3272031  56.5472881   9.3298614
  23.5633910  55.9703962   9.3339628  24.9711669  56.0959594   9.8756129
  56.3924429  72.7784402  57.2745323  56.9274100  73.4477628  56.8478584
  56.8357619  72.6118527  58.1063700  37.7433705  24.5521450  39.8734593
  37.9704285  23.6960077  40.2363682  37.1552444  24.9389100  40.5221128
   1.8349805  13.6004245  18.8134491   2.2780186  13.4827280  17.9731536
   1.1069100  12.9794848  18.7893867  20.2342272  43.8662434  28.0065513
  20.5779672  44.0890455  28.8716722  21.0104203  43.6565351  27.4871492
  10.5433071  48.8691847  21.8827891  10.8456100  49.1693227  21.0256076
  11.3217891  48.4922449  22.2928095  39.8824763  31.2474608   3.0036703
  39.0854239  30.7240176   3.0870080  40.5025673  30.8372092   3.6065090
  28.5046220  18.4510100  44.6643353  28.8699555  17.5721645  44.7662878
  28.4761858  18.8032520  45.5539131  77.8439061   1.9470309  43.6902857
  78.7020026   1.5595686  43.8628387  77.2188018   1.2719783  43.9544439
  31.5796256  33.1010723  -0.1434124  31.2144995  33.5424161   0.6234827
  32.5263453  33.1221199  -0.0037292  13.8307619  28.8331079  16.4892721
  13.4572911  29.5215702  17.0395172  14.6067524  28.5395241  16.9666409
  11.5398943  16.5129030  39.9662137  11.8966579  16.8010604  40.8064032
  11.9284153  15.6496644  39.8244333  35.6681360  59.5923261  34.0658760
  36.3243926  59.7922544  34.7333980  36.1768735  59.2973797  33.3106112
  27.8323698  19.6317697  31.0926723  27.0196819  20.1353407  31.0458851
  28.2137895  19.8705482  31.9375014  25.1476431   6.3134682  24.7020197
  24.3717170   6.8640262  24.5968747  25.0517011   5.9281719  25.5729818
  53.2890034  39.8459435   4.9289128  54.1108179  39.3870282   4.7549844
  52.6204395  39.3099260   4.5023715  44.1844810  48.6557786  33.9700437
  43.6417449  48.5123865  33.1947351  43.5772956  48.5754768  34.7056437
  14.7064662  19.4046056  47.2798252  14.8787630  18.5019600  47.5477362
  15.3708923  19.9208641  47.7361679  28.6199725  68.2565270  24.5842671
  29.4373525  68.3488403  25.0737572  28.3451284  69.1557763  24.4052625
  72.9185884  67.0408992  47.8477812  73.3231800  66.9454138  46.9855642
  72.7163928  66.1451690  48.1179953  37.6673579   5.4941612  31.6913128
  38.5234571   5.8745563  31.4947724  37.1801329   5.5638224  30.8703446
  64.4086599   2.1206705  22.0778227  64.0719128   3.0075479  22.2054148
  65.3592920   2.2142978  22.1391773   8.5631084  12.3653102   5.5742282
   7.8253746  12.0281434   5.0659966   8.6063796  11.7943633   6.3412863
  76.5762602  25.2614331  45.1846886  77.0905842  25.1148391  45.9785509
  76.9574480  24.6663857  44.5390511  67.7237564  76.1281986  66.9763532
  67.3474318  75.3259869  67.3383825  68.5546690  75.8502502  66.5909188
  19.9828112  20.8014727  40.5275869  19.8838818  19.9225008  40.1617241
  19.2056119  21.2739325  40.2293062  52.9542999  22.2132993  44.3449211
  53.1983571  22.9631209  43.8023043  52.1552472  22.4915290  44.7925091
   8.5429621  32.5665164  51.2702036   8.6256069  32.4276948  52.2136736
   8.1528139  33.4368563  51.1894464  30.5442762   5.5612338  41.4685297
  29.7819376   5.3278887  40.9387922  31.1838579   5.8892471  40.8364105
  43.4746695  32.7670121  31.2283158  44.0379238  32.7973032  30.4549742
  43.7941313  33.4769416  31.7852521   5.3581583  51.3266897  50.7096815
   6.1817563  51.6694593  50.3626537   4.8855424  51.0128832  49.9387121
  32.5997543  44.1631889   4.8563334  32.4897480  43.8235474   3.9682037
  32.7933478  45.0927258   4.7350174  78.1132804  23.9463305   0.4963697
  78.6057101  23.1296158   0.5783636  78.5692440  24.4330263  -0.1902566
  37.7562708  60.4663415  60.9180863  37.3226362  61.0851068  60.3304459
  37.7854830  60.9175415  61.7617668  37.8448629  29.2867184   3.1944969
  37.9308319  28.3708596   2.9298356  37.6391768  29.2478204   4.1285267
  41.3683939  49.4995546   7.6889127  41.8809319  48.7907696   7.3001182
  41.6149616  50.2765322   7.1871734  51.5053844  32.8498363  15.2160490
  52.0385551  32.7128386  15.9991145  50.7719040  33.3864260  15.5165625
  28.9333415  54.3480587  10.5832875  29.5218754  53.6292171  10.3527939
  29.1364312  54.5396900  11.4988542  14.7045243  49.0197897  28.8755226
  15.4741144  48.4860754  29.0732908  14.3255401  49.2200136  29.7313905
  10.2300835   9.5031786  43.9741850   9.4118863   9.0141761  43.8866568
  10.8728957   8.8478923  44.2455244   1.7201222  25.4639676  50.9407003
   1.2216748  24.7246507  51.2888284   1.0641897  26.0155585  50.5143960
  41.5832949  23.7186193  26.4839268  41.2397242  23.7319565  25.5906105
  42.5118923  23.9294600  26.3865709  34.1828752  41.2694931  17.9610384
  33.7646747  41.9659233  18.4673250  34.1425467  41.5749121  17.0547700
  20.4523301  17.1507704  28.3831835  21.0957241  17.5017238  28.9989018
  20.8594275  17.2591376  27.5236726  35.9917283  24.7065902   6.3428885
  36.0700393  25.2581906   7.1212423  35.3321338  25.1441312   5.8046299
  46.6821098  71.1214590  25.7691407  46.4436293  72.0451069  25.8480740
  47.2338867  71.0824680  24.9879551  45.5929899  39.0214562  29.6561408
  46.1715460  39.3268561  28.9574027  44.8145008  39.5732880  29.5808482
  22.3116326  43.0963659  26.2938547  23.2342863  43.0811739  26.0394692
  22.1576977  42.2377872  26.6880322  12.0012796  52.6230335  30.7972741
  11.3506222  52.5858927  30.0962043  11.4844680  52.6498604  31.6025186
  22.8595209  44.7608376  33.0469871  23.3200502  44.0414953  32.6149106
  22.5201321  44.3767071  33.8553739  31.4633965  37.1705675  54.6706581
  32.3646522  37.4416471  54.4960642  31.4971042  36.2139630  54.6725178
   8.2806319  39.0060377  12.7764177   7.3308134  38.9861274  12.8933835
   8.4897816  39.9343395  12.6727593  40.0617599  33.5013723  35.6645823
  40.9962845  33.6642885  35.7924747  39.8505664  32.8116536  36.2938023
  23.3060551  23.9641047  31.8661523  23.5715818  23.8735843  32.7813196
  22.5336719  23.4046626  31.7844033  22.3769964  27.0014146  66.6590450
  23.2985366  27.1695760  66.4622788  22.3460735  26.9232228  67.6125448
  50.5532742  19.1474092  18.3514023  49.9876595  19.8407459  18.0114079
  50.8741045  18.6957109  17.5708461   9.3618619  44.9563074  34.2175341
   9.0683132  44.5100975  35.0118637  10.2036834  45.3435564  34.4575477
  34.2873454  53.9664268  24.1949606  33.9777184  54.5897532  24.8520947
  35.1383638  54.3091631  23.9219570  26.0500574   2.1290123  48.1963968
  26.2364292   1.1969479  48.0834627  25.6898808   2.1958157  49.0807247
  20.7833862  42.6267576  37.1249032  21.0421538  43.5051489  36.8461561
  19.8340988  42.6069450  37.0036888  32.4981141  38.7976074  28.0008626
  33.3160615  39.1835046  28.3143497  31.8121982  39.3025112  28.4376955
  61.1976337  12.1238208  18.1714904  60.6285143  11.4646339  18.5687375
  61.1491919  11.9472492  17.2319651  51.2259966  67.3456593  58.0596741
  50.4718190  67.4309964  57.4764379  51.8914634  67.9166431  57.6757933
  18.3933949  30.7372522  34.8454928  17.4649847  30.5692101  35.0068855
  18.4520078  30.8688784  33.8992000  54.9640846   0.2363098  12.5546968
  55.7529020   0.3531210  13.0841815  55.1170206  -0.5767333  12.0732367
  72.7496653  60.8963029  41.8888855  72.3774021  60.9735934  41.0104370
  73.3666139  60.1673083  41.8242836  78.0305630  65.4719038  63.5722439
  77.7994448  66.2958522  63.1433810  78.9407354  65.5903525  63.8438843
  25.9021688  51.6982794  37.7791572  25.3868032  51.3010693  37.0771194
  25.7382965  51.1420584  38.5407305  24.2722011  39.3721414   3.3804968
  24.0777683  40.2245522   3.7701371  23.5535097  38.8084149   3.6667290
  77.8146511  67.9007168  62.4865283  78.5706526  68.4866137  62.5241999
  77.6719290  67.7536936  61.5515168  16.3308263  25.3884411   0.3072826
  16.9938862  25.4795623  -0.3770271  16.0517931  26.2853694   0.4913747
  14.6374905  60.2364635  30.8482099  14.1052985  59.6034622  31.3302040
  14.2282081  61.0821581  31.0312939  61.3728672  76.3183064  65.2363809
  60.5392223  76.1280389  64.8061910  61.7480498  77.0353146  64.7251375
  13.8878549  75.7530146  43.6040163  13.6708511  74.8727849  43.9111614
  14.7803415  75.9023431  43.9161015  62.8930187  41.9175243  12.5614214
  62.2813177  42.6537609  12.5591278  62.3968363  41.1950779  12.9462743
  40.4405451  35.9510660  32.5921369  40.2524996  36.1790562  33.5025716
  40.5481768  34.9999738  32.6007271  79.9492365  75.6634707  57.2363688
  79.1757923  75.5872269  57.7951177  79.6318060  75.4537196  56.3580330
  50.2005577  44.4565296   9.6519852  50.9467745  43.9365625   9.9503678
  49.5114994  43.8132286   9.4858664  19.6511531  51.2417936  19.9243689
  20.0852323  52.0799494  19.7653127  20.1554871  50.8414745  20.6326246
  24.9217653  45.1758623  63.0630112  24.9360061  44.3038082  62.6686192
  25.1242089  45.0245285  63.9862394  15.0266409  40.1193476  19.2682528
  14.6255374  40.8858967  18.8586807  14.6278477  40.0759554  20.1373410
  38.3551192  15.5706704  40.6633663  38.2030106  15.0510705  41.4527416
  37.4961495  15.9326148  40.4456615  22.5593305  46.5973902  40.0316477
  22.4846625  46.0612822  40.8211040  23.4945726  46.7878675  39.9590540
  28.5944843  47.5332212  34.1475868  29.1406822  46.9407558  33.6309767
  27.8891039  46.9788790  34.4813180   3.4522796  15.8162916  24.0986919
   3.4516346  15.6168675  25.0348878   2.8749406  15.1573622  23.7130451
  24.5227408  45.0338316  16.2071383  24.3181443  44.1692686  15.8509064
  25.1359248  44.8596716  16.9212162  66.2180519  55.5777740  22.4061084
  65.7608366  54.9525833  21.8436837  65.5641651  56.2499189  22.5981593
  33.5806537  30.3378177  31.3264990  33.8051200  29.4074678  31.3092709
  34.3355227  30.7587528  31.7378640   5.5365342  57.8185940  26.6361213
   5.6841439  56.9509459  26.2597895   5.4736876  57.6633692  27.5785565
  11.3158633  48.1510611  62.5967796  10.8297612  47.3388500  62.4544807
  12.1737124  47.8649379  62.9105635  16.9993961  46.8684244  42.6897907
  16.4836359  47.3701811  42.0585537  17.8613889  46.7846966  42.2821283
  60.0239502  63.3934240  45.5120325  60.6691068  64.0293304  45.2027941
  59.2153361  63.6331443  45.0593615  30.3107240   4.4391258  45.6226349
  30.6088587   4.1531857  44.7591591  29.7867493   3.7077625  45.9494209
  40.2847147  35.1592255  28.4893036  39.3740606  35.3137445  28.7404227
  40.7648230  35.8984113  28.8625789  40.3111506  28.9193368  29.8213863
  41.0066271  29.5125771  29.5374656  40.7738352  28.1583524  30.1721811
  24.1016984  25.5430508  17.0157015  24.7353244  26.0446572  16.5027285
  24.4345665  24.6457982  16.9964170  38.2721972  24.7990680  30.4235721
  39.0990973  24.5942497  29.9870872  38.5320616  25.2015424  31.2522554
  65.6079435  14.1008222  20.1639867  66.1473560  14.2286980  20.9443188
  65.0105810  14.8487353  20.1605606  38.8694334  40.5435514  15.5421352
  39.8095322  40.6288195  15.3834641  38.4670854  40.7016134  14.6881068
  31.0420942  67.1032619  40.7963848  30.9509134  66.3809156  40.1749849
  31.3856721  66.6940641  41.5905809  75.0114685  41.6506280  62.4046533
  75.6697899  42.3259134  62.5684719  74.4965798  41.9906069  61.6728492
   8.6289275  13.2577518  59.2026617   8.4860624  13.0038598  58.2908721
   8.6255420  14.2148355  59.1881295  27.7773833  25.3927422  22.4696159
  28.6400461  25.5457759  22.8551364  27.1790338  25.3854966  23.2167149
  27.5910473  14.4179392  14.9702215  27.2314501  13.5564613  14.7586167
  27.9593158  14.7330868  14.1448176  43.0057383  11.6079795  14.9290931
  42.8845024  11.6822398  13.9825094  43.5088396  10.8017516  15.0436068
  47.5915575  39.0592670  10.6545281  48.2213354  39.6890759  11.0051668
  47.1250820  39.5417094   9.9719727  43.1659079   8.1171268  42.6396513
  43.2362509   7.1764916  42.4768972  42.3487377   8.2151836  43.1283760
  35.6794357  53.7353754  28.0859041  36.2143826  52.9744959  27.8597951
  35.7871914  53.8312435  29.0321755  37.0368934  22.1234035  11.3664758
  37.8538060  21.6466689  11.2194717  36.6698647  21.7310882  12.1586955
  28.2841182  40.4066229  13.1754029  28.6049485  39.5424819  12.9174066
  27.9253531  40.2766371  14.0532553  26.8381000  33.8703537  16.3536382
  27.1089029  32.9647326  16.2028182  26.3770890  33.8460064  17.1921539
  37.6096630  34.7920823  54.4990683  37.0885611  34.1996694  53.9570999
  37.0639014  34.9554276  55.2682829  33.6091638  28.9865851  38.4070158
  33.0225301  28.2473159  38.2470894  33.0746031  29.6162438  38.8907576
  73.9191972  32.1358991  53.1048489  72.9742150  32.2176361  52.9761648
  74.0798871  32.5349808  53.9599180  53.0113316   4.6923399  16.9754779
  52.7808189   3.8662246  17.4004829  52.2112274   5.2158916  17.0197558
  35.5282950  31.0634255  28.6184955  35.4796004  30.9927344  29.5718384
  36.1947060  31.7324018  28.4616566  34.3252589  69.5392175  56.8900772
  33.4810568  69.8534031  56.5662880  34.7352816  69.1273828  56.1294802
  11.6773295  50.1259375  29.1387320  11.1621106  49.4659042  28.6749101
  11.8444395  49.7389317  29.9981117  37.8098106  51.6982460   2.1592431
  37.6829290  52.2808409   2.9080528  38.5082841  51.1040831   2.4337082
  15.6690049   3.4380296  18.6325634  15.4118383   3.5718203  17.7203155
  16.5396047   3.0435836  18.5806012  22.5419998  46.2980270  26.9859147
  21.9320345  46.5700102  26.3002014  22.8990960  45.4669094  26.6729426
  20.1687884  20.7197857  30.0388527  20.4767513  20.9894776  29.1736031
  19.6509349  19.9318457  29.8739052  33.8483453  23.1488681  27.7444696
  33.5382318  23.5124946  26.9151092  34.4822764  23.7903833  28.0651283
  38.2961429  12.5961211  60.0174578  37.8510869  13.3871558  60.3214552
  37.6115001  12.0885614  59.5817055   2.0645273  77.3166847  39.5083880
   1.1331309  77.0962390  39.4967294   2.4583185  76.6623598  40.0854683
   3.7773110  69.0575094  61.2013038   4.5151879  69.5552988  60.8492001
   3.8162829  68.2167335  60.7454433  57.7815771  31.2456727  16.9266737
  57.2065020  31.8735003  17.3641074  58.6621380  31.5990734  17.0529866
  30.5294633  40.6212902   0.9904945  30.3137255  41.5411139   0.8368299
  31.2214017  40.4286337   0.3577740  30.2726316  64.9598646  29.8095608
  30.1827550  64.0342522  29.5828438  29.5057607  65.1496267  30.3500533
  55.1923037  20.6873584  46.7076731  55.9763527  21.2168527  46.8530512
  55.1034498  20.6473875  45.7554436  37.0447731  15.0465918  56.8696070
  37.5895309  15.8070922  57.0723629  36.1543369  15.3949320  56.8247223
  76.1382781  46.9542885  50.5819464  75.7372479  46.1373186  50.8785439
  76.9610409  47.0075750  51.0682106  16.2493086  30.6673408  46.5606785
  16.1555588  31.3291526  47.2458410  15.3559661  30.3664064  46.3945103
  21.5259457  35.6507111  19.1050160  21.2207437  36.5135145  19.3854690
  21.9124913  35.2660275  19.8916745  36.0562038  14.0360796   6.9967580
  35.4074574  13.4654534   6.5847582  36.2348175  13.6243498   7.8422207
  32.2804022  56.1832714  10.8662820  31.8661499  56.5628052  11.6412520
  33.1071234  55.8240128  11.1883104  27.8122139  20.1913762  13.6931634
  28.6690378  20.1345754  13.2702458  27.3237681  19.4450021  13.3459163
  22.6113868  50.3596354  19.7872972  22.5221777  50.4006767  18.8351476
  22.4113584  49.4498682  20.0076079  39.4018304  67.1050903   8.1166284
  38.6777996  66.9277045   7.5161759  39.6558618  68.0079386   7.9254119
  44.4999330  74.6190445  45.3162909  44.3942397  75.4177714  44.7994757
  45.4442047  74.5471073  45.4556036  18.1815863  42.2505188  36.6844130
  17.4814713  42.9030657  36.6683745  17.8404665  41.5467644  37.2363186
  11.3235223  58.4148169  21.4791894  12.0505679  58.9357042  21.8202376
  11.4646137  57.5402927  21.8418622  40.0918674  57.3460674  47.6753044
  40.1869202  57.8635740  46.8756914  40.5200291  56.5138912  47.4743366
  46.0463715  44.0762377  35.3311539  46.0621023  45.0203848  35.1744175
  45.3720188  43.7460899  34.7374487  13.3087451   2.5946482  26.5575361
  12.7389915   2.3086031  27.2715330  13.1784970   3.5418518  26.5119815
  46.1442566  51.4367867  45.2158594  45.8725929  51.5574694  44.3059874
  46.7249632  50.6761885  45.1935625  57.8468657  54.4176388  48.8786697
  58.3593607  53.9898062  49.5646238  57.9486418  55.3534794  49.0520954
   6.4774269  18.7368207   8.1077687   7.1676725  19.3425183   8.3778064
   6.0276002  19.1891103   7.3941009  71.1934137  71.9467831  10.5664062
  70.2397346  71.8736506  10.5292368  71.5113783  71.1626053  10.1189709
  35.8798432  45.4420519  34.1440439  35.3848553  45.3017282  33.3368707
  36.0587764  46.3823175  34.1548848  61.3939762  75.6685400  32.9361820
  62.1496105  76.1021376  33.3327150  60.9168148  76.3727474  32.4972701
  54.3005085  54.8675251  39.2519498  55.2438974  54.9833965  39.3652153
  53.9292192  55.7299185  39.4381213  62.0165873  55.8827209  32.9912162
  61.9420910  56.0797310  32.0574760  62.4998569  55.0571251  33.0239940
  73.9981978   2.7548698  51.1674757  73.4006589   3.2006410  51.7678638
  74.2279427   3.4210399  50.5196603  12.0405598  31.8779993  28.0034709
  11.2235661  32.3766446  27.9932022  12.7277775  32.5442886  28.0082560
  67.5858259  50.8996725  29.8842072  67.4655247  50.8849812  30.8337045
  68.4688187  51.2477112  29.7600126  41.7428780  68.9886856  25.8970904
  42.6498938  69.2943907  25.8871150  41.7162704  68.2961464  25.2368546
  48.5167408  56.7535877  18.6184859  48.0697823  57.5216103  18.2626760
  49.0296984  56.4138842  17.8852022   9.0080697   1.6421374   5.6070602
   8.7390382   2.2052153   6.3328683   9.8964984   1.3672837   5.8337319
  33.5699582  69.1325235  17.5870633  32.8044677  69.6059322  17.9128599
  34.0900183  69.7985840  17.1374679   5.1230663  73.6207628  22.1052384
   4.5287609  73.3316422  21.4128232   5.5068505  72.8121853  22.4445653
  39.5953488  47.1067667   7.7123791  40.0273514  46.7257023   8.4768367
  39.6876931  48.0520296   7.8314871  43.5072231  52.0196867  31.3341236
  44.3163300  51.5912342  31.0548353  42.9508781  51.3039064  31.6413236
  51.3875151  47.1172905  54.3674850  50.9558630  46.2636852  54.3319368
  52.3154068  46.9118929  54.4817686  18.4754443  50.0732994  33.8007379
  18.6760449  50.9949064  33.6375666  17.5544178  49.9817991  33.5566711
  59.4879532  42.9392338  17.3796940  59.2681074  42.0409203  17.1328425
  58.7729359  43.4671021  17.0242572  55.2578878  39.5716143  41.1472702
  54.8527670  39.7083354  40.2908707  56.1752415  39.3817258  40.9506989
  -0.0785999  66.8951654  63.6444283   0.8727475  66.7906046  63.6598635
  -0.4167633  66.0577965  63.9617300  42.8039312  33.6113548  36.0424232
  42.5340986  34.2471409  36.7051435  43.5339212  34.0330863  35.5891180
  49.3517113  65.0930738  42.8551197  49.1895676  65.0484419  43.7974310
  48.6932659  65.7057524  42.5275421  43.6609030  49.1578054  20.6395555
  43.3398342  50.0546026  20.5452085  43.9752960  49.1096973  21.5423679
  11.1865164  62.7131577  66.1962193  10.7749201  62.1723504  66.8702720
  10.6406666  63.4982605  66.1526918  48.1449652  57.8222990  46.1327887
  47.3637724  58.1761503  46.5579414  47.9638910  56.8870497  46.0392284
  73.2047749   4.2796397  54.7422266  73.6330843   4.9561739  54.2177439
  73.9142179   3.6904570  54.9987078  12.5476653   5.0852497  42.0213890
  13.4732158   4.9447354  42.2210121  12.5330884   5.8942517  41.5099812
  72.4270248  57.6202393  47.9646301  72.0275259  57.4513912  47.1113300
  72.0901299  58.4786797  48.2211685  25.5917668  32.7002048   9.1822982
  26.5391302  32.8337646   9.1523421  25.2337766  33.4006023   8.6368454
  61.2910843  72.2353983  59.7045279  61.7834377  71.8016195  59.0076447
  61.8949509  72.8921223  60.0513649  65.1080084  56.3122320  16.6072154
  64.4853973  57.0299530  16.4911902  64.5599365  55.5393600  16.7433035
  73.3042145  76.6922140  56.2412596  72.4980021  76.2794447  55.9316206
  73.5701084  77.2668171  55.5233717  46.9395971  62.6780415  43.8951445
  47.6948881  62.3877525  44.4065189  47.2673941  62.7402210  42.9979706
   2.4022091   9.6872237  58.7125530   3.2776631   9.9710563  58.4493978
   2.4239338   8.7340215  58.6279412  52.4375677  72.8220081  18.8057697
  53.1243896  73.1066656  18.2028770  51.7089701  72.5715399  18.2377529
  40.6333828  24.2980576  28.9093661  41.1985111  23.6778188  29.3699813
  40.7426310  24.0798664  27.9837918  53.2292175  71.8053198  66.9927454
  52.6272202  72.5119352  66.7592430  54.0754128  72.2386312  67.1042442
  81.8692398  62.6605558  16.9488657  81.9166183  61.9416380  17.5790620
  81.2909794  63.3025026  17.3608685  13.0430174  33.8463378   0.0981646
  13.0446041  34.7878456   0.2707635  13.1424320  33.4444523   0.9612039
  41.7136288  61.1419868  25.7963681  41.3898563  61.8205118  26.3888288
  42.5002861  60.8050537  26.2251830  60.4832554  72.1532393  36.1807895
  61.1719799  72.5915718  36.6805482  60.1860046  72.8123856  35.5535698
  53.6395645  67.4856186  43.3972645  53.6518192  68.4409761  43.4553289
  52.8465271  67.2860575  42.8997707  20.6350613  48.1701899  28.1256413
  21.3828659  47.7092981  27.7453828  20.7807398  48.1243658  29.0705800
  45.2659607  69.0031004  17.4550855  44.8246288  69.8093557  17.1878529
  45.7346869  68.7156248  16.6715741  53.4118843  64.3167830  60.6548786
  53.2557011  65.2304220  60.4159117  54.0969896  64.3574858  61.3221169
  42.7754272  42.8862289  60.5058356  43.1443227  42.0058540  60.5771996
  43.5200370  43.4395316  60.2699341  74.0575409  45.1803160  17.0725894
  73.5706663  45.3055286  17.8871477  74.5739603  45.9805489  16.9768000
  17.7426720  46.2810898  17.7058446  17.6572180  46.2965012  16.7525923
  17.3448384  47.1021748  17.9952884  64.3438911  45.9580660  31.8664503
  65.0080681  45.6418610  31.2539792  63.7547684  45.2132368  31.9864488
  61.2744427  61.2956238   7.4894089  60.5249596  61.7106915   7.9162866
  61.6442251  60.7213306   8.1599897  11.0868283  73.9895868   1.9182056
  10.3446026  73.7158632   1.3793057  11.5320130  74.6544123   1.3928001
  36.8041444  44.3107653  10.5149245  36.8528700  44.5597696   9.5919657
  37.4366450  44.8818922  10.9507978   7.0745678  52.4870777  21.5573645
   7.5278779  51.8714523  22.1333408   7.0684166  53.3109093  22.0446992
  72.7349091  58.0893517  54.2407513  72.6626396  57.6335144  55.0793362
  72.7080059  59.0183020  54.4700050  27.6326043  28.5425766  46.5366316
  26.8734796  28.0620487  46.2064028  28.3697374  27.9466160  46.4035606
  56.6485167  58.4199619  42.6256275  57.2722054  58.2109690  43.3210135
  57.0919180  58.1568098  41.8191671  39.8126221  51.7799902  23.7582088
  40.1408863  52.3819780  24.4261074  39.6852040  50.9529638  24.2229891
  30.9054542  53.3099842  25.4121351  30.0857592  52.9472303  25.7479095
  31.1428118  52.7333975  24.6858811  65.7766563  60.5152864  63.2511418
  64.9357515  60.6617970  62.8179605  66.3418347  60.1624222  62.5639056
  14.3786825  21.1542562  61.3168897  14.3214954  20.2413228  61.0349138
  14.8740114  21.5888026  60.6225903  59.6452427  73.8840866   6.3561034
  59.4201946  73.1938839   6.9799680  59.9122286  74.6231890   6.9026202
  53.2577038  50.1643181  14.2409635  53.7180233  51.0035419  14.2350221
  52.3515797  50.3866339  14.0270782  29.4156718  62.6698446  32.6076341
  29.8321009  61.8218660  32.7617383  29.5568991  62.8403234  31.6763854
  71.6894019  48.3173850  55.9446426  70.7764114  48.0460742  56.0398682
  71.6810287  48.9334682  55.2121122  44.7271538  53.6452484  20.4916596
  44.4688988  53.4148312  21.3840961  45.6153631  53.9907074  20.5809903
  52.8810215  53.4181976  56.8167639  52.0643330  53.8821650  57.0011330
  53.5595703  53.9566135  57.2240829  77.7500807  10.2962883   9.6927607
  77.4747407  10.4323872   8.7861741  78.4656512  10.9188278   9.8217714
  48.7558079  47.7059507  39.0132570  49.0796995  47.5196075  39.8945069
  48.7925577  48.6597347  38.9412785  38.0917168  40.6637812   5.7598859
  38.4657478  41.3025045   5.1529527  37.5949335  40.0654554   5.2018118
  59.1814709  68.8189363  63.4420538  59.7419977  69.4443798  62.9828501
  58.7591457  68.3183575  62.7439928   5.9655435   2.7607926  53.2060099
   5.7452209   3.3541401  53.9240837   5.2384669   2.1388777  53.1775427
  74.9198901   3.1004341  46.3075018  74.6688639   2.5474699  47.0474052
  74.2769419   2.8976639  45.6279850   3.4157868  51.9357061  10.9820616
   3.4140988  51.1790943  11.5683770   2.6167222  52.4132395  11.2049747
  51.0908699  46.8397474  39.7509956  52.0151711  46.6069126  39.6633148
  50.8964539  47.3489237  38.9641190  28.7943697  41.9352102  19.1755307
  28.6577463  42.8517151  18.9355707  29.3991828  41.9692659  19.9166596
  56.0911322  51.6446352  12.0455241  56.6603708  52.3086977  12.4343944
  55.2721977  51.7140532  12.5362027  49.5647669  60.3566217   3.0084440
  50.1367807  59.8001480   3.5369986  50.1645422  60.8840132   2.4808460
  66.6682053  53.1110096  38.8755655  66.6443682  53.2989359  39.8138332
  65.7686186  53.2515383  38.5802197  74.6427965  46.0453749  33.3744884
  74.6022463  46.8069649  33.9529085  75.5529737  45.7535839  33.4261322
  42.4058164  34.6865752  56.7623456  41.6738666  35.1197103  56.3231714
  42.0036853  34.2216924  57.4961050  64.1262328   1.7334707  12.9794490
  64.1946756   1.7842968  12.0260525  65.0209128   1.5651663  13.2751727
  58.7091351  57.3080873  24.5599771  58.2648659  56.5061426  24.2847562
  58.3964157  57.9764509  23.9502835  29.5586443  53.6166477  19.8246908
  29.3332505  54.5406008  19.9330115  30.4846525  53.6228180  19.5824003
  53.8262033  63.7137508  13.9535904  54.1649008  64.1079521  14.7574091
  54.6076679  63.4402466  13.4732318  73.8268042  28.8567162  16.1983287
  72.8899384  28.6607647  16.2090254  73.8712263  29.8113608  16.1443496
  71.7337691   3.8481816  48.7173843  72.3883712   4.3711861  49.1801929
  71.4662301   4.3970116  47.9802036  33.7684608  29.6814227  24.6608210
  33.3566570  30.2417231  25.3186297  34.7073531  29.8293924  24.7740340
  74.4130516  73.8087034  31.2828302  74.8166800  73.3529806  32.0214987
  74.1941786  74.6748781  31.6264462  28.3721471  29.4220567  18.5878861
  27.4408937  29.5236993  18.7845266  28.6958313  28.8257933  19.2631137
  76.1304986  25.6807907  29.7291446  76.7641389  25.2540405  30.3058720
  75.2773272  25.4205139  30.0763965  80.7775974  55.9844446  41.4397573
  81.3937569  55.4015732  41.8834162  81.1252785  56.8628073  41.5941238
  53.1026602  69.3266869  46.6661787  52.9186249  70.0133324  47.3071814
  52.4157286  69.4242811  46.0067558  43.3599377  39.1056371  17.6398516
  42.5009727  38.8086128  17.3395348  43.3244467  40.0589943  17.5618541
  27.2432000  14.0148457  50.0488806  27.8324277  13.9788731  50.8023691
  26.8954236  14.9065693  50.0591373  62.6523542  74.3780804  44.2873716
  63.3930063  73.7778902  44.2010927  62.4877930  74.6851492  43.3958197
  54.7307873  44.2053699  39.7916317  55.3379536  44.1859770  40.5313635
  54.3173981  45.0671339  39.8436093  67.4157619  57.5968409  15.3693187
  66.5878201  57.1858931  15.6180573  67.8173065  56.9770956  14.7602963
  66.1420774  28.2642007  39.1702580  66.3329887  27.4110532  38.7804842
  66.4216709  28.1790614  40.0817490  53.4872007  51.9750261  26.4381671
  53.9443827  51.4435625  27.0899081  54.1762114  52.2674370  25.8415174
  44.9312830  58.0184174  22.4688911  44.1002607  58.4888506  22.4031305
  44.7225237  57.2329998  22.9746294  49.9276686  63.1652069  23.4649658
  49.9689007  64.1168880  23.5589647  49.0283775  62.9397535  23.7030387
  70.6323039   3.4463318   4.3815461  71.2485587   3.2595738   5.0897694
  71.0725772   3.1320389   3.5918540   7.4770457   3.1560143  41.5781212
   7.2497947   2.2898968  41.9163942   7.8771693   2.9829128  40.7259703
   2.8534735  40.7880500  60.9888394   2.2038377  41.4812854  61.1055751
   3.6880697  41.2026218  61.2074961   4.0400512  19.9100121  40.6122398
   3.4787852  19.6421536  39.8845959   3.9931781  19.1816815  41.2315750
  51.8460417  73.3027744  26.1322904  52.5000620  72.6804304  26.4503694
  52.0690966  74.1268301  26.5651989  71.7603159  72.9785252  62.5917721
  72.3954010  73.5970306  62.2307253  72.2664452  72.1822214  62.7529001
  43.2790518  54.6850634  40.1382303  43.1299782  53.8258553  40.5329037
  44.1278410  54.6047497  39.7030926  32.4184472  13.3563526  40.3681850
  31.5350969  13.3314331  40.7359982  32.5197656  12.5109108  39.9309230
  11.1856688  36.6477969  56.0679551  11.4933956  37.4860528  55.7231911
  10.9517706  36.8341401  56.9772394   5.4554933  44.8848152  44.7386360
   5.2640104  44.6121311  43.8413048   4.6964657  45.4075289  44.9972534
  26.2589109  -0.2062361  54.0860796  26.3425173   0.0961884  53.1817722
  26.0149180   0.5771549  54.5790291  79.0140711   2.7577027  19.5603955
  79.4093978   3.6294277  19.5667219  79.6168362   2.2251185  19.0414917
  17.6406920  73.7435102  36.2259197  17.4810708  73.6913586  35.2835655
  18.2928371  74.4377899  36.3203192  51.8514347  63.8331795  32.6055527
  52.4864435  63.5403109  33.2591796  51.0609007  63.3284426  32.7966619
  31.2790442  60.4637146  27.0906806  31.1135840  60.1055241  27.9627776
  31.9193983  59.8665094  26.7039990  41.7892647  62.1888971  44.8779058
  42.6894188  62.4529362  44.6875525  41.3319445  62.2767925  44.0416241
  51.9164324  49.3825483  31.4251804  51.7574596  48.9167690  30.6042004
  52.7777815  49.7838402  31.3099742  55.9897483  23.9301542  61.6654278
  55.5185664  23.2220987  61.2262578  55.8656658  23.7576345  62.5987400
  54.9911464  28.0522159  63.0495580  54.5621265  27.9679254  62.1980493
  54.9424518  27.1752742  63.4301372  65.3395605  62.5118303  42.9659176
  65.3769636  63.4337807  42.7112722  64.9304247  62.5187635  43.8312435
  82.2663021  52.5658703  31.4869165  81.5783978  53.0829763  31.0678458
  82.1299744  51.6764927  31.1603451  23.9509392  57.6063728  18.9638281
  23.4740996  58.3792257  19.2664123  23.8529205  57.6219893  18.0117881
  57.3524701   3.8022812  53.5215855  57.4468934   3.1313523  54.1977310
  56.9634687   4.5486649  53.9774656  58.9301443  60.5929422  46.7629290
  59.8266935  60.7740402  46.4807272  59.0120792  60.3640461  47.6887417
   6.5453358  47.7241421  23.2931757   7.3983689  47.2928667  23.2425427
   6.3706894  48.0153561  22.3982310  75.4227149  15.7595165  50.3607559
  75.2587449  16.6696175  50.1136303  76.2617957  15.7836922  50.8207464
  34.2757858  27.1865228  66.8137827  35.2273286  27.1883634  66.9176891
  33.9944328  28.0296663  67.1689940  15.5636174  39.5788010  28.6509347
  14.7390325  39.3640907  28.2148266  16.2284429  39.1013725  28.1546450
  67.2734976  75.0102377  18.3210170  67.2450781  75.8264399  18.8202572
  68.0589390  74.5635176  18.6368501  15.3260155  42.7077818  36.8630981
  15.4132672  41.8220329  36.5108681  15.4002305  42.5969982  37.8109622
  48.2133783  22.4844411  62.3914062  47.3074973  22.2482732  62.5909983
  48.7351383  21.9841054  63.0188327  17.6966185  63.8285451  24.6047418
  17.0829958  63.4531884  25.2362554  17.7574629  64.7518830  24.8496358
  27.8830112  37.9182246  60.0287481  27.5239623  37.0581344  60.2468468
  27.1854270  38.3512071  59.5366712  21.5699393   0.5340393   2.6482469
  21.5175492   0.3194197   1.7168908  22.1371801  -0.1423351   3.0183604
  44.3659973  42.0603752  13.8428962  44.5260668  41.6776419  14.7055233
  45.1876736  42.4970484  13.6184001  66.2570572  58.3935881  19.9094880
  65.6152344  57.7409506  20.1894236  65.9516191  58.6753893  19.0472090
  70.7090013  18.3975604  47.4023612  70.5246823  19.3366531  47.4212857
  70.9948223  18.2276157  46.5047772  58.2473755  16.0487854  63.0323362
  58.5494518  15.2295995  63.4246588  58.6536026  16.7331541  63.5641766
  70.5100012  46.3010406  46.3447380  69.9854469  46.5058565  47.1187735
  70.1611757  45.4658985  46.0331440  61.1956549  45.6283903  56.4279985
  61.3878775  44.7978354  55.9927320  62.0406485  45.9210682  56.7694092
  13.4810693   5.1324661  14.2901003  13.6579711   6.0603722  14.4448245
  12.9787643   5.1169975  13.4754348  56.1499214  60.7218885  49.1198492
  55.9425640  60.5633116  50.0407696  55.8997822  61.6338587  48.9716196
  43.2110691  57.4721432  26.3704586  43.7802935  56.7063189  26.4461422
  42.6182365  57.2596264  25.6496096  57.2552109  49.2784643  33.9704943
  56.5632248  48.6261892  33.8612890  57.9543638  48.9861202  33.3857274
   4.1139085  70.5718633   4.2733686   5.0345666  70.3249428   4.3608491
   4.1270311  71.3536641   3.7212436  54.4233030  20.6464009  15.2149980
  54.7274012  19.8249536  14.8290269  54.2345327  21.2086301  14.4636743
  73.3762061   2.8143795  24.7134423  74.2460381   2.5649222  24.4013572
  73.5239970   3.6109074  25.2232790  65.7044888  63.9021587  27.6378083
  65.8223724  62.9737711  27.8388739  65.4229307  63.9152384  26.7230463
  37.5017071  63.2406282  19.4511580  37.7700424  63.1240511  18.5397649
  36.5662861  63.4376431  19.4020975  -0.0716536   3.4718331  17.0206940
   0.1597221   3.8669785  16.1801231   0.4828651   3.9222153  17.6577950
   1.3911934  59.6617079  14.4503498   2.0183964  60.3337669  14.7171390
   1.4444371  58.9979267  15.1379502  24.6140146  56.2956524  27.1773076
  25.3923202  55.7592201  27.0266056  24.8205781  57.1370602  26.7703700
  77.2848558  44.3290234  36.9748950  77.2216129  44.1791344  36.0316229
  77.6571369  43.5182905  37.3218131  46.3106680  55.5363894  45.5329943
  46.6861629  55.4575872  44.6560526  46.4642191  54.6822834  45.9369183
  75.8816671  64.2422533  23.0176306  75.9416389  63.4902048  22.4285126
  76.6316080  64.1469574  23.6047792  65.9606123  43.8201952  44.7031736
  66.3927889  43.0108261  44.9758911  66.4502048  44.1048670  43.9314938
   6.1872060  32.0602425  43.5303879   6.3783128  32.5819023  42.7509117
   5.2360589  31.9533070  43.5197496   2.6196785  38.3414078   9.3071860
   2.5276394  39.2027998   8.9000458   3.5638066  38.2277656   9.4164318
   0.3509636  37.4402833  33.4019780   1.0409279  38.0922771  33.2791567
   0.4945488  37.1033001  34.2863202  39.3794536  28.4462174  42.7218390
  39.0100097  28.1431206  43.5512209  40.3267943  28.4078510  42.8533840
  56.6362715  68.3102417  41.6281796  56.9142962  67.7086067  42.3188114
  55.9811068  67.8192663  41.1322689  68.3258581  64.5106840  59.5108509
  68.1095886  65.3178263  59.9777412  69.1350603  64.2059708  59.9214268
   7.6736868  45.6039718  60.3628554   6.7796028  45.9436801  60.3248365
   8.2125080  46.3065341  59.9990954  81.0886192  24.9165750  40.0087023
  80.3438091  24.9918890  39.4121957  81.6327381  24.2279315  39.6266937
  58.8246298  64.3334007  42.4841595  58.2674456  64.5774984  41.7451096
  58.2716036  63.7697172  43.0251360  68.5238457  33.1645560  44.4278431
  67.8900003  33.4752917  45.0743103  69.3638134  33.1862879  44.8863268
  14.3953937  39.0203290  16.7296807  14.0921587  38.1149201  16.7968957
  14.5898718  39.2753606  17.6315419  51.9225836  57.0376730  57.8413820
  52.6910782  57.2153997  57.2991085  52.0082712  57.6376867  58.5822392
  46.3316917  50.5730152   3.7256923  46.7947245  51.1550713   3.1231630
  46.8314552  49.7569847   3.7019438  72.4352503  58.6458254  38.2230473
  73.1324291  58.9114237  37.6233554  72.3354673  57.7057409  38.0729914
  13.0943830   7.9347904  12.3711705  12.5959117   7.9727371  11.5548861
  14.0100486   7.9253014  12.0924294  13.7608583   6.9588383  28.9418650
  14.3533094   7.4365528  29.5223975  13.1120116   7.6094635  28.6737132
  31.3597035  68.6831474  48.9771891  32.3023987  68.5719585  49.1004658
  30.9747672  67.8865910  49.3426323  28.7440515  68.4769011  29.0002513
  28.7191939  68.8140392  29.8957682  29.5356584  68.8597488  28.6220813
  20.6790931  28.9195927   9.0274155  21.1662299  29.5922287   8.5515052
  20.1286323  29.4095906   9.6382517  55.0372744  71.2303972   1.9773321
  55.6111765  70.8467817   2.6404369  54.9590015  72.1499634   2.2313115
  32.8773069  59.1149282   4.0385884  32.8986883  59.1752481   4.9936464
  31.9560313  58.9616728   3.8288417   3.2915491  62.6360226  22.2805381
   4.0858299  63.1701660  22.2871947   2.6329705  63.1807613  22.7115440
  62.3266220  44.7683144  46.3026905  62.2460985  45.2239513  47.1406269
  61.4312696  44.5106936  46.0831308  70.8330059  28.0870867  24.5900798
  70.8351374  28.8608170  24.0265465  70.1150417  27.5493956  24.2559385
  62.2397709  43.1483603  42.2763634  62.7111769  43.4683371  43.0455303
  61.5156889  42.6355124  42.6354170  51.9863224  66.6605711  28.9018512
  52.6399374  66.3574839  29.5320582  51.1767673  66.2246943  29.1680574
  32.2180427  34.0330747  64.4210448  32.7936376  34.0904763  65.1836910
  31.8966974  34.9259713  64.2957546  48.9143467  60.4472351  38.5400200
  49.2135000  59.6633720  38.0792689  49.6270847  60.6569767  39.1435432
  10.1877601   2.2092827  50.9597921  10.6971700   2.9742058  51.2274075
  10.5528218   1.9638737  50.1096535  22.5568254   8.0601605  28.7041116
  23.4894378   8.1839283  28.5276127  22.4309833   8.4124859  29.5851684
  33.8733251  18.8613899  27.5241256  33.6675317  19.6162995  26.9727755
  34.1089971  18.1700810  26.9054317  49.2759651  25.7629972   8.7806193
  49.0149921  25.4458909   7.9159991  49.3879122  26.7066770   8.6658875
  71.7965543   5.2984913  15.4848540  72.2059285   5.4139813  16.3423526
  71.9636428   4.3829449  15.2610338  68.4780455  66.1446333  19.8807597
  69.2143345  65.6452990  19.5275223  68.5459518  67.0016432  19.4598639
  40.7470417  62.0500040  32.6435542  40.5315542  62.7530003  33.2564068
  39.8994255  61.6829157  32.3925114  72.6526737  52.4350023  40.9911060
  72.8305817  52.9554176  40.2076864  73.1959057  52.8328848  41.6714144
  31.0417134  11.7121323  14.0410697  30.2270372  11.4456852  14.4671631
  30.9355313  12.6508625  13.8870132  53.0895185  36.7858791  60.5932808
  53.2905674  36.8979454  61.5223932  52.6003504  37.5740838  60.3573132
  53.2079029  66.5666437  24.3654966  53.1916332  67.5191259  24.4590020
  52.7218246  66.2431765  25.1240015  66.7258835  50.2510786  48.9003277
  65.8876371  50.1940584  49.3589449  67.3007774  49.6521044  49.3767262
  33.2648563  64.2568493  13.1734014  34.0081406  64.8207808  12.9595280
  33.6624503  63.4317446  13.4515250  40.2866268  57.6081562  25.1810145
  39.5902038  57.5679159  25.8364606  40.1126623  58.4147787  24.6959138
  66.1959267  70.8737850  27.9286814  66.1397600  70.5246449  27.0391989
  66.7965841  71.6156435  27.8573084  13.6741424  46.2594557  13.3477485
  12.8311801  46.6889763  13.2022905  13.4505773  45.3442478  13.5169947
  58.4756565  62.7273655  34.3396759  58.6905670  61.8638420  34.6923327
  58.4965849  62.6101875  33.3899045  59.7089624  66.1534929  54.6900702
  59.8435068  66.8081474  55.3753138  59.1575813  66.5936995  54.0432119
  79.6048260  55.1324129  66.3639879  79.0938997  55.9123850  66.1475801
  79.4465160  54.9938679  67.2977829  54.8397600   6.5219696  23.0827260
  55.6833708   6.2217625  23.4209967  54.7089874   7.3779209  23.4907508
  60.3534651  22.5307679  45.6237221  60.9355831  21.8260860  45.9079695
  60.4514265  23.2072997  46.2937498   8.3981044  67.2580931   5.5161874
   8.0838782  66.5175769   4.9974124   8.2090194  68.0258533   4.9767224
  63.1065178  69.8201990   8.7824988  62.5400686  69.1540527   9.1718781
  63.9867735  69.4483185   8.8380516  54.2494488  73.9683342  51.9039059
  54.2983341  73.8037872  50.9622240  53.3217430  74.1357422  52.0699501
  76.7850924  53.4234905  32.0437407  76.7567587  53.0518007  31.1621070
  77.0758772  52.7003050  32.5993276  15.6439502  36.3181885  14.7039306
  15.5746419  35.3643616  14.6632516  14.9020536  36.5893944  15.2445424
  69.0046406  58.5125017  44.4030905  68.4298515  59.1827631  44.0334940
  69.8474169  58.6557245  43.9724493  63.3641720  63.9778376   3.4761479
  63.9255095  63.9338350   4.2502257  63.7489843  63.3494329   2.8651991
   7.3416920  68.3640480  62.1006536   8.2336922  68.2427740  61.7752981
   6.9508954  68.9967871  61.4980316  63.4540272  40.1697016  43.1173849
  62.5474501  39.9672508  43.3483982  63.8565063  39.3162584  42.9565287
  78.8205366  74.2451859  32.7345634  79.1489942  73.3647251  32.9165864
  79.5965752  74.8039103  32.7772903  69.6763182  67.9382610  14.0139568
  69.2134476  67.8774738  13.1783187  69.2459774  67.2919416  14.5736969
  59.9459989   3.2528122  30.8059955  60.7080896   3.2001885  31.3827825
  60.0554425   2.5222691  30.1972628  69.2180824  61.4051056  55.1668262
  69.9649334  61.0576916  55.6544161  68.7867022  60.6307125  54.8056364
  72.2842073  36.4339399  33.9991927  73.0283070  35.8905125  33.7398887
  71.6626215  35.8189106  34.3885517  81.5301895  44.7106171  44.8211670
  81.9789696  44.0389490  45.3346682  82.1937561  45.0264025  44.2078161
  65.9598541  56.7303991  50.8044767  65.4811287  57.5042772  50.5075598
  65.5082798  55.9955406  50.3893948  37.0195955  15.3965097  24.0721623
  37.2152323  15.2082782  24.9900548  37.3352188  14.6275811  23.5974423
  58.4474039  74.1472054  51.0622215  58.6889744  75.0210142  51.3693666
  58.4654045  73.6031151  51.8495369  26.4246631  53.7981033  46.5778780
  25.6745696  54.0007591  46.0188437  27.0545268  54.4954538  46.3956499
  55.2552366  74.0578556  31.0015941  54.3623447  73.8926506  30.6988120
  55.1571560  74.2777967  31.9280076  51.6571999  56.0907412   8.0954123
  52.5438118  56.4500761   8.1274724  51.1046267  56.8368912   7.8626812
  49.0350496  11.6862114  57.8630686  48.9010178  10.7392510  57.8238916
  48.9796721  11.9738491  56.9517946  74.5995855  55.4086065  20.2992225
  75.0589561  54.8742533  20.9470487  74.7052813  56.3072109  20.6115842
  52.7631950  76.0557461  27.7200413  52.9184437  75.5263853  28.5022855
  51.8247032  75.9676504  27.5536060  19.6314240  61.3400888  20.2317405
  20.1453042  61.9762611  20.7291770  19.2745018  60.7494020  20.8950114
  76.5535402  75.6480598  32.6016879  77.1289825  76.2971687  32.1970177
  77.0477438  74.8294735  32.5579309  72.4501801  58.0240726   4.9627483
  72.7338266  58.1553078   4.0580094  72.7973127  57.1642351   5.2002549
  20.3519780  12.0087536  29.8213983  19.8287065  11.2146862  29.7124362
  19.8089750  12.7058037  29.4533062  44.2918301  37.0472646   1.0757898
  43.7981510  36.9093609   0.2673983  43.7231684  36.7043209   1.7651707
  39.2137599  67.1027756  45.2384233  38.3489943  67.4807167  45.3983450
  39.7619009  67.4532986  45.9404993  55.9743595  62.3509693  55.1619148
  55.0358629  62.2502804  55.0027847  56.2535000  63.0177546  54.5344543
  41.5879869  49.7955227  36.9667172  41.8254185  48.9482450  36.5899229
  41.4246845  50.3572750  36.2090898  56.6305017  54.1809988  32.4591279
  55.7061911  53.9795876  32.3131323  56.7154980  54.2394018  33.4107566
  27.1301610  32.2926815  26.6250587  26.3967855  32.8953369  26.7483521
  27.1092946  31.7287071  27.3981810   0.8468396   4.4218262  14.2345381
   0.6726701   4.6662148  13.3255994   1.7620189   4.1413410  14.2359841
  33.8524361  63.0471754  50.5535316  33.9170189  63.3039999  49.6336937
  34.6192379  62.4938488  50.7021189  50.0797653  51.5607786  52.8317404
  50.5576515  51.4128637  53.6478186  50.0697708  50.7056904  52.4016809
  78.8106953   3.0746277  35.5784202  79.6437871   3.5425957  35.5218029
  78.6442363   2.7730091  34.6853662  73.7690067  66.5979481  45.4513597
  74.4368553  66.3482237  44.8127270  73.2437038  67.2601032  45.0020933
  55.5282688  68.9873266  58.2175732  54.9173594  69.2910337  57.5461674
  55.0097513  68.9676332  59.0219259   3.0166681   5.9147843  22.4682093
   3.2376773   4.9930104  22.3350954   3.7449605   6.2639340  22.9819393
  68.9964485  62.8351068  33.4516621  68.4573603  62.0443773  33.4326982
  69.8959923  62.5107384  33.4945464  74.2341458   1.7290648  10.8702528
  75.0812422   2.1694000  10.9393191  74.4275366   0.8085497  11.0476828
   1.8815021  68.2638264  22.6356411   2.6966429  68.1205940  22.1547437
   1.2056593  68.2920551  21.9583893  30.4716832   7.1519001  24.0760207
  29.6151597   6.7404946  23.9605045  30.9914262   6.8344410  23.3375645
  40.5528927  45.8695650  15.8120370  40.6197214  45.7651567  16.7611766
  41.2032366  45.2629948  15.4579747   0.6581504  16.7929657  33.9976549
   0.5060250  16.6143807  33.0696487   1.6110284  16.8267544  34.0819955
  41.0677970  40.7801679  66.0280971  40.6379903  41.5969852  66.2816808
  41.9620717  41.0391000  65.8056958  24.3385942  12.0412548  23.8669586
  25.0808580  11.7745503  23.3246017  24.6713264  12.0033749  24.7636676
  67.3341309  30.4563816  37.9757261  66.8194567  29.6837528  38.2089210
  67.1775424  30.5746563  37.0388556  56.8708765  13.9260300  57.4309874
  56.1417805  14.5198639  57.6098824  57.1201216  13.5869797  58.2907295
  35.6729007  68.4960508   1.4510487  35.7470655  68.0162716   0.6260969
  34.7310233  68.6099243   1.5780520  80.7484566  12.1829231  44.5725918
  79.9540126  12.7129753  44.6368933  81.0226046  12.0511921  45.4801846
  16.4171035  11.7913254   3.2414156  16.9664151  12.4832352   2.8729677
  16.0992105  12.1529110   4.0687227   1.2917621  10.8455666  10.7477713
   2.0808990  10.4162510  11.0781968   1.1870773  10.5037506   9.8598319
  66.1987734  44.6576786  62.3799658  67.1008921  44.8534393  62.6331282
  66.1229801  44.9917316  61.4861536  12.1430595  37.5266941  12.4842656
  12.0677001  38.0569657  11.6909420  12.3617370  38.1550225  13.1724668
  14.5729549  15.7370671  45.0946999  13.8908059  16.2968071  45.4656363
  14.2754991  14.8453434  45.2752209   6.4883292  38.1741095  37.1446323
   5.7340616  37.7116776  37.5099659   6.8199807  37.5901031  36.4625955
   0.6712641  56.7124181  10.7042806   1.0416998  57.5572114  10.9598796
  -0.1262460  56.6324239  11.2275521   7.6714904  17.3633106  51.3679838
   7.7647407  17.7947720  52.2173214   8.5649116  17.3055371  51.0293198
  16.6127355  14.5848950  49.3051577  16.0069711  15.3006848  49.1129541
  16.9638593  14.7941693  50.1706886  41.3931507  25.3765111  20.4051034
  41.5981239  25.9694676  19.6821897  41.8748945  24.5748715  20.2013127
  21.7470462  10.0284107  31.4713860  22.3045499  10.7656677  31.7201138
  20.8977182  10.4250534  31.2776375  78.1358528  66.4436102  14.9522257
  78.6213207  65.6885815  14.6198332  78.7357283  67.1813726  14.8422706
  66.1608540  16.7624768  34.1615534  66.6638242  17.2871311  33.5386682
  65.2538764  16.8452843  33.8669991  16.6983897   8.0009182  38.3440351
  17.2652681   7.6770218  39.0440130  17.1087033   7.6861389  37.5385594
  51.5608060   7.3378762  58.5529709  51.8490206   6.4411267  58.7232828
  51.6740309   7.4506863  57.6092100  33.1226850  61.1963797  20.5728221
  32.5450039  60.5662489  21.0034657  33.9342332  61.1623096  21.0792398
  78.3913994  62.0492029  47.1787882  78.8716316  62.8007793  46.8313074
  78.6390162  61.3219595  46.6077948  64.5879269  49.3080568   4.1044188
  64.2806625  48.4160805   3.9425671  63.8424969  49.7476435   4.5134717
  56.9002336  15.2190166   0.2869527  57.8019518  15.1797919  -0.0317843
  56.6194528  14.3046908   0.3243987  78.3550488  26.1715229  27.4073553
  79.0682303  26.4084728  28.0001879  77.6449620  26.7716797  27.6349950
  80.8475971  28.1915736  47.7752590  80.7899666  29.0485907  48.1976700
  81.2171268  28.3746648  46.9114590  72.8272247  45.2856874  27.8941679
  72.6183701  45.7229424  28.7196493  73.5424709  44.6886301  28.1136632
  57.8070736  70.1467514  26.3264060  57.1487617  70.8258915  26.4734745
  58.4168005  70.2417421  27.0581460   3.3303172  12.3847779  40.3112698
   3.0282218  12.6074417  39.4307065   3.3248908  11.4278038  40.3314972
  59.7427320  60.6000423  49.4817686  59.2944241  60.3919220  50.3014851
  59.7022581  61.5545321  49.4222832  70.0874567  20.2606726  41.5613365
  70.7225418  19.9407613  40.9205866  69.7763824  21.0893846  41.1970568
  30.3528554  24.9214943  53.5447407  29.9047143  25.6492718  53.9757204
  29.6550805  24.4399746  53.1003428  47.1048689  62.0254040  59.1946745
  46.6819859  61.7712259  58.3744383  48.0257654  62.1447468  58.9624166
  73.1605517  13.7612732  17.9363728  73.4563672  14.2374142  18.7122667
  73.5058247  12.8760918  18.0524611  12.9080922  11.2749298  23.6576319
  12.1933419  10.7561405  24.0267110  13.6992223  10.7824715  23.8763332
  80.3857422  71.1889172  59.0020895  81.1251926  70.5852699  59.0731716
  80.5719185  71.8725586  59.6456766  63.2564116  73.8543081  21.2820244
  63.3216429  73.4943914  20.3974700  62.3223209  73.8166046  21.4876652
  77.9486882   7.6845749   0.1746493  78.2097851   8.4172066   0.7326035
  77.6005542   7.0325382   0.7828295  69.3060064  70.8488178  12.8451955
  68.8469791  71.6669178  13.0355525  70.1430798  70.9319782  13.3019507
   8.4289224  27.4568375  27.4381924   8.7431056  27.8934868  26.6464496
   7.4948795  27.6635082  27.4710870  42.2577273   7.0240410  11.8544471
  41.6653930   7.1772774  11.1183131  41.6848170   6.7456063  12.5689220
  53.7931061  73.2972002  34.4967532  53.5273409  72.4547100  34.8652768
  53.1052351  73.9050102  34.7681093  48.1698847  46.0441780  55.0461102
  47.2315598  46.1977100  55.1566124  48.3758211  45.3550100  55.6776762
  13.0592401  21.4833267  14.3170118  12.9953534  22.3679455  14.6770000
  12.3607022  21.4394196  13.6640608   0.2329499  11.2651356  21.0111666
   0.9312875  10.6264408  20.8675742   0.6524236  11.9726666  21.5007281
  30.9372759  33.5885906  14.0030754  31.1318445  32.6793647  14.2304194
  31.1858892  34.0883708  14.7806633  40.8608545  15.6854060  60.4609354
  40.1420844  15.6807473  59.8288097  40.5179466  16.1729053  61.2099303
   4.7920151  70.0728655  16.5501356   4.5933838  69.1686058  16.3070500
   5.5655976  70.0060034  17.1098876  69.3256617  23.2424378  60.8149958
  69.1435194  24.0752077  61.2503672  68.4637213  22.8476524  60.6829405
  78.1510436  20.4701145  39.2374921  78.6529910  20.5237206  40.0507641
  78.7554824  20.7781990  38.5622311  68.3935868  18.5302551  43.8526344
  68.9793669  19.2230423  44.1578341  68.9092433  18.0480870  43.2062244
  65.6510984   1.5470703  65.8548355  65.0578415   1.4300831  66.5968513
  65.6012713   2.4814947  65.6533432  27.9381711   4.1991337  40.2280235
  27.2292669   4.7553452  39.9050355  27.7113683   4.0287502  41.1422205
  14.5988763  46.4040664  47.9715820  15.3626407  46.8850806  47.6529499
  14.9663842  45.6661704  48.4580787  11.5989800  50.4235983  12.5849330
  11.8126984  50.0172091  11.7450511  11.3330575  51.3149214  12.3589540
  46.7854357  59.8805475  22.4514437  46.1351109  59.1834211  22.3658800
  47.5628042  59.4418192  22.7970481  79.2290878  53.7562132  43.1262589
  79.2202759  54.4794273  42.4992704  78.3072901  53.6151886  43.3422041
  73.0187225  70.8445024  39.7721291  72.8916550  69.9095249  39.9330831
  73.9336443  70.9186411  39.5007253  53.4015512  72.5405216  11.7488801
  52.6427889  71.9585466  11.7914522  53.3649445  72.9178953  10.8699727
  75.3859793  74.2794153  14.7712628  75.5038535  74.1020605  13.8380544
  75.4240739  73.4173676  15.1855771  64.3877041  27.6477631  52.1981049
  64.8413169  27.7979763  51.3687038  64.6464240  26.7629441  52.4557686
  39.4781644   1.0453184  55.3247833  38.9887769   0.3260811  55.7240772
  39.0713079   1.8367108  55.6774902  77.7758121  55.2715969  57.7051401
  77.3644924  55.9176922  58.2792568  78.5934973  55.6843281  57.4271536
  15.3645147  41.4528182  59.3920483  15.3376497  40.6054929  59.8365171
  15.3060163  41.2370256  58.4613259  64.5258080   0.1681097  20.1710844
  64.4313370   0.8731755  20.8115435  63.7824260  -0.4105942  20.3405523
  33.1002402  60.8963680  47.6843071  33.4635258  60.3613758  48.3900309
  33.0220199  60.2949286  46.9437790   2.7062150  65.5891752  41.5084076
   2.1655388  65.7121897  42.2886419   2.2511311  66.0773563  40.8222485
  48.1655025  53.6182737  35.9516430  48.4905529  53.3576345  36.8134069
  47.2297716  53.4184408  35.9781170  40.5580139  64.2995262  20.5022192
  40.4687977  65.1332664  20.0405335  39.7174931  63.8611555  20.3695774
  56.2555361  59.3133545  26.9161940  56.6809940  58.6204195  27.4212289
  56.2522364  60.0697279  27.5028086  18.3169610   7.3760613  36.0058117
  18.9164359   7.1846016  35.2845573  18.3485324   6.5944107  36.5574098
  38.5923249  11.9657620  15.6184435  38.4434278  11.5091427  14.7904587
  39.1692598  11.3834580  16.1127114  30.8835745  76.2207794  22.4823308
  30.4187751  77.0344067  22.6777959  31.0344982  76.2521791  21.5376258
  73.9936202  51.8068603  52.9301365  74.2157750  51.1030486  52.3206158
  74.6251600  52.4996188  52.7365239  21.3866210  63.5193920   7.7755457
  21.9488716  64.0221500   8.3649015  20.8025455  64.1711140   7.3877984
   2.8654404  34.6506977  39.9195385   2.3179646  34.0577269  39.4048619
   2.5835820  34.5126700  40.8238268  16.5963418  10.6029614  42.2187376
  16.3462169  11.4387520  42.6125765  17.2448594  10.2388104  42.8212738
  46.1421776  47.0197248  34.7405386  46.5371799  47.5948954  35.3958106
  45.5007505  47.5715256  34.2929745  42.0370633  17.6564892   4.3937075
  42.0923001  17.2006806   3.5538143  42.0888288  18.5848339   4.1662681
  21.2289436   0.0407561  61.0944986  20.7616956   0.2509125  61.9030428
  20.6201179   0.2820547  60.3963995  80.9820544  42.1967800  21.1300445
  81.0425841  42.7991112  21.8715048  81.5770613  41.4811047  21.3536620
  72.9657590  31.7799767  47.2636461  73.7421595  31.4068611  47.6810455
  73.0729472  32.7261837  47.3608255  34.9084616  75.7446718   9.7690862
  35.7669997  76.0116529  10.0975120  34.8357081  76.1706066   8.9149666
  57.2503722  74.3282035  65.6065935  57.5590289  74.3339923  66.5126427
  57.8221477  74.9488452  65.1548079   9.9617154  11.1681851  46.4673996
   9.5290763  12.0192917  46.3991308   9.3006189  10.5395230  46.1776209
  19.5714433   7.6237591  13.8718832  20.3457648   7.3359497  14.3554389
  18.8328798   7.3163136  14.3974578  68.7295587   4.9674423   7.4224377
  68.2820089   5.5580624   8.0283296  69.5979173   4.8440178   7.8057843
  58.6148930  72.2574949  54.9091434  57.6642895  72.1909666  54.9994993
  58.7524891  73.0650520  54.4140148   3.1950303  62.2849083   2.1294284
   2.8648110  63.0969000   2.5139529   4.0019150  62.1026421   2.6110289
  14.1059609  59.2026043  22.6354313  14.6302147  58.5810661  23.1404853
  13.4162922  59.4798136  23.2385373  23.9599092  19.5116719  54.3658829
  23.1481130  20.0035008  54.4896936  24.2081697  19.6839436  53.4576321
  81.0395145  66.3089991  40.0920153  80.4495144  65.9416819  39.4338250
  80.4708576  66.8290043  40.6598711  60.0588846  50.2762079  21.0257983
  60.3068256  49.5108938  20.5070972  59.5213652  49.9216223  21.7340183
  24.8855121  17.9359539  29.6982074  24.6208579  17.0193108  29.6210551
  25.1382930  18.1878384  28.8100147  53.5209465  57.8996897  12.1529770
  52.6758146  58.3310843  12.2790003  54.0371990  58.1564093  12.9170501
   4.4549091   3.1833561  20.5179000   5.1340205   3.8473614  20.6367803
   4.6429403   2.5258692  21.1876655  68.0065966  64.9919701  41.2888384
  68.8676596  64.5894432  41.4018869  67.8871822  65.5265427  42.0738268
   1.6041476  37.6795967  26.1553669   2.4719913  38.0277355  25.9507322
   1.5838535  37.6335247  27.1112418  46.1205508  70.1316709  53.4310396
  45.4013945  70.3096909  52.8249474  46.8255736  70.7115383  53.1430681
  75.6524038  69.2769432  24.0111756  74.7321367  69.2791319  24.2744827
  76.1262083  69.5575857  24.7941089  76.0448885  36.1222219   1.6549373
  76.3711023  35.2879906   1.9923916  75.3112602  36.3423800   2.2290038
  33.6021566  61.3109875  33.3942580  34.3289685  60.7618523  33.6882424
  34.0207529  62.1066999  33.0658460  77.0243298  16.1689289  44.2790842
  77.2358643  17.0714768  44.5176029  77.7552211  15.6534775  44.6201563
   5.7685907   9.9537094  31.6658330   6.0684688  10.7923897  31.3152480
   6.3236434   9.8016175  32.4306965  74.3729925  36.2350702  26.7610192
  73.5528994  35.8804226  27.1043849  74.1536093  37.1265411  26.4901233
   5.1618596  39.9266219  19.1619468   4.8762627  40.8396339  19.1947162
   4.3758507  39.4384360  18.9168262  75.2403450  66.7164946  11.1145377
  75.1148224  66.5273285  10.1846504  75.9106636  67.3995876  11.1316395
  15.8321327   4.9707751   0.6792514  16.1708921   5.7593493   0.2554242
  14.9441618   4.8762565   0.3345792  55.2817535  75.1369572  37.9490495
  55.0128889  74.2714071  37.6411963  54.5241499  75.4648256  38.4335876
  41.2015111  10.0886162  25.7329512  40.3680951   9.7902115  25.3688002
  41.3620240   9.5043286  26.4739537  48.5331583  45.0318861  17.0783639
  47.9293633  45.3380299  16.4016533  48.0890179  44.2820311  17.4742055
  73.3500390  55.6667129   5.5299670  72.8628104  54.8462693   5.4544008
  73.8957994  55.5504123   6.3076890   3.2074177  48.2142258  28.7803030
   3.9475939  48.0870819  28.1868315   2.4484843  48.2954216  28.2026696
  21.6256595  26.5892482  46.7386198  21.3524866  25.8008027  47.2076178
  21.2981272  26.4637303  45.8480024  19.2245674  28.3080769  28.6366940
  18.4055412  28.5073924  28.1831527  19.0531719  27.4818611  29.0886021
  14.2684711  65.6918268   7.3511696  13.5141719  66.1905543   7.0372605
  14.8981489  65.7314090   6.6313297  33.6261797  18.4857869   4.8008060
  34.4768453  18.9045739   4.9320242  33.8348866  17.6359427   4.4129398
  30.3363776  21.6415167   3.8589680  30.7882595  21.9535303   4.6429852
  30.3672004  20.6873441   3.9285144  60.2719527  37.9191062  59.1154052
  59.8569423  38.7815091  59.0993406  59.6335369  37.3383324  58.7014516
  23.2382917   0.1096337  29.1379929  23.5595369  -0.0885428  30.0176287
  24.0124655   0.4110007  28.6625290  36.1534076  55.1804082  32.0514774
  35.4809647  55.7957141  32.3438001  36.9096511  55.3705446  32.6066136
  71.0704248  61.4355282  30.7080221  71.0848229  60.9523813  31.5342140
  70.5474656  60.8899383  30.1205897   6.9049633  74.3104891   1.1488812
   6.3933194  74.4799582   1.9399124   7.6484049  74.9101659   1.2114470
   2.3349989  68.2562022   6.7460805   2.9899848  68.2388310   7.4438792
   1.6646398  68.8621257   7.0618463  50.1833623  69.0709327  13.2044661
  50.9563207  69.0819500  12.6399803  50.5215933  68.8384567  14.0692127
  73.5830074  22.5055928  41.9108899  72.9586512  23.2265468  41.9923599
  74.0737396  22.5197227  42.7326043  30.0265325  36.8513481  14.7801936
  30.8923686  37.0353739  14.4159257  30.1942075  36.2455122  15.5020535
  76.7154459  22.4101377  37.5654817  76.8601923  23.1800008  37.0153975
  76.8664275  21.6667914  36.9816399  79.3312924  73.6854706  15.3359735
  78.8990562  74.4903431  15.0503445  79.3294924  73.1244395  14.5604265
  56.7493230  41.4476306  60.5487116  57.3756939  41.8670068  61.1386396
  55.9424645  41.9506241  60.6592126  18.3865989  73.0990405  11.0712647
  18.4324611  73.5191457  11.9301248  19.2608846  72.7334030  10.9364915
  23.3452667  59.1353945   5.0920880  23.6045755  59.1268985   6.0134560
  23.7259734  59.9415032   4.7435489  27.9210771  70.9057466  18.8832498
  27.8899730  70.4606060  19.7300756  27.2073997  71.5425090  18.9210272
   2.1428332  35.5726266  23.0883598   3.0097401  35.3121495  23.3995771
   2.0911901  35.2196455  22.2001195  40.7664054  73.1553669  55.3688784
  40.3667122  72.6400180  56.0695155  40.6112438  72.6423521  54.5758005
  24.5587420   1.4314030   0.5281092  25.2295470   2.0767194   0.3049118
  24.6642756   1.2919278   1.4691943  53.6958885   8.0633134  17.1312070
  53.0952787   8.4420699  16.4893007  53.7356997   7.1345448  16.9030941
   8.8797605  10.5711949   7.6368028   8.2988268   9.8763859   7.9466236
   9.7576940  10.1949346   7.6992011   6.1898196  14.3469357  31.6639304
   5.2437681  14.3402529  31.8094420   6.5557551  14.6810889  32.4828720
  33.2780671  15.1405907  19.6783578  33.9952731  15.0270665  20.3020239
  33.6937475  15.5123878  18.9004064  22.4712575  76.3395562  32.9559588
  22.0326961  76.9599999  32.3737669  23.0241741  76.8854433  33.5149932
  76.0474603  59.0045456  14.1997218  76.5605777  58.7228076  13.4423804
  75.6759517  58.1956236  14.5516586  74.8664468  62.4358682  43.1825495
  74.1092770  61.9048337  42.9357147  74.9794333  63.0454735  42.4532700
  44.2123175   0.8942457   7.0535338  45.0180960   0.5275613   6.6895384
  44.0870714   1.7157781   6.5785277  64.9196863  14.3061209   2.0680742
  64.8808432  13.5652089   1.4632818  64.7841644  15.0748634   1.5140888
   1.1627806  51.0513799  48.4748220   0.3044141  50.7420508  48.7642288
   1.0012735  51.4337484  47.6123047  30.2990545  71.9263891   7.0596164
  29.8016275  72.7231122   6.8751365  30.3059638  71.4506308   6.2290514
  81.2218564  66.5515940   0.2627428  81.4768880  66.9766192   1.0816102
  81.0750621  65.6368164   0.5032956  50.9921169  15.6310380  16.2153006
  51.6286230  15.4904234  15.5143607  50.2254248  15.9954989  15.7730472
  30.0407184  72.0058237  45.9997845  30.6817497  71.9711522  45.2897787
  30.3735555  72.6817576  46.5901804  70.5960946   5.9765303  33.2939363
  70.9284369   6.7772108  33.6997557  71.2068312   5.2947599  33.5739732
  20.3360535  64.2682166  61.2261571  20.4385640  63.8992853  62.1034326
  20.0016429  65.1525326  61.3757928  69.2108727  12.9923689   3.7826988
  69.0970612  13.2595336   4.6947849  70.1260090  13.1932366   3.5866985
  67.6176405   6.2420887   2.6443318  68.0797291   6.9802660   3.0415672
  68.3105183   5.6265503   2.4050328  36.2304688  26.4837408  15.9500825
  36.9064856  26.6477156  15.2925527  35.5069995  27.0575905  15.6980479
  27.9596866  72.4082006  15.7498956  27.5133813  71.5979080  15.5039847
  27.3727954  72.8223942  16.3825357  30.4514027  17.5544250   7.0077795
  31.1416674  18.2111466   6.9156653  30.7430553  16.8225312   6.4641786
  22.1249914  18.8677585  37.3717570  22.2818899  19.3528724  38.1818676
  22.9822445  18.5141397  37.1344829  57.1885824   1.4205956  16.8220055
  57.9912758   1.3106109  16.3122845  56.5075207   1.0125664  16.2873089
   1.1536277  44.1513602  30.8473539   0.3295625  44.5803134  30.6168127
   1.6461743  44.1222922  30.0271201  55.6647378  64.5553250  62.0632409
  56.1699968  65.1401896  62.6279335  55.8621055  64.8509355  61.1744823
  11.9250798  23.7971497  22.1209955  12.5831628  23.5321617  22.7636003
  12.3893380  23.7855434  21.2840009  29.8481655  20.0978661  12.0108664
  30.6225586  20.3525186  11.5091729  29.3965626  19.4668162  11.4504540
   3.0857064  21.3392980  56.5437837   2.5752474  21.5461166  55.7609113
   3.0987765  20.3827102  56.5753980  27.9053402  12.6795197   8.6113679
  28.3197784  12.9377782   9.4346386  27.7861786  13.5012317   8.1351095
  12.6881003  29.8043942   4.1750416  13.0884182  30.6434059   4.4031602
  11.7670214  29.9053311   4.4151637  11.9269884  67.0353715  20.0420547
  12.0075024  66.4741627  19.2708254  11.3201631  67.7253566  19.7738826
  70.0863068  70.9463630   5.9281307  70.9229176  70.6165503   6.2560618
  70.2160459  71.8913780   5.8484668  62.7869463  36.4509368   5.3416061
  62.5163507  37.2233152   4.8451778  61.9833136  36.1408663   5.7590467
   3.3394054   1.5946622   4.1918805   3.2070935   0.6496343   4.1167310
   3.8064137   1.8354972   3.3917972  20.1604581  20.3866267  43.0780268
  20.0671554  20.5904126  42.1474409  20.8237386  21.0009933  43.3924246
  13.2618583  70.2719186  40.2843523  12.6876510  70.9668396  39.9624825
  12.7383579  69.4741825  40.2082205  81.7923790  60.3647799  65.6297043
  82.0078808  60.9774728  66.3328381  81.1565453  60.8340664  65.0895968
  14.5594848  75.6815828   6.2371570  15.0837482  76.4450454   5.9952724
  13.9125789  75.6033717   5.5359983  30.9991431   6.2880331  35.0678802
  30.7335138   6.0327846  34.1844082  31.4764953   5.5290997  35.4031229
   4.1914186  50.5415392  17.2116566   4.8505455  50.6401968  17.8987145
   4.1265225  49.5962286  17.0759702  80.2870481  45.5456774   7.0361316
  80.1077192  46.2410561   6.4032650  80.0222771  44.7414152   6.5897101
  65.7397038  75.7126470  49.6571966  66.0290080  76.6195316  49.5567222
  66.4601356  75.2808900  50.1163228  75.5129044  71.5207748  39.1181946
  75.6798642  72.0538149  39.8955131  75.5240243  72.1451191  38.3927274
  52.2091824  52.0906050  63.6458586  52.4939090  51.4096303  64.2553134
  52.1452194  51.6446681  62.8012990  29.6535206  43.7897539  15.0466609
  29.0225840  43.1064844  15.2731371  30.3789020  43.6578035  15.6571054
  41.7849541  34.5166397  25.0415134  40.8684874  34.2777395  25.1802468
  41.8151093  34.8371315  24.1400671   1.9120801  45.5042879  24.2235923
   2.0466150  44.5785682  24.0206742   2.7952255  45.8550755  24.3386269
  59.5551252  21.0398650   4.4218504  58.7216520  20.9342575   3.9631587
  60.1772118  20.5225086   3.9104003  28.2252754  49.6105401  32.3408818
  28.3631194  48.8070766  32.8425574  27.4323905  49.4419925  31.8318129
  50.4469687  10.4502721  47.6549967  51.3199621  10.1648755  47.9245563
  50.0008708   9.6440644  47.3956533  44.1426229  53.1524706  23.4519434
  45.0781345  53.3550119  23.4571457  43.9009285  53.1131220  24.3772912
  50.5235434   9.0572065  36.2935495  50.5285931   8.9914346  35.3386259
  49.9176693   8.3727521  36.5775728  59.7236061  22.7337623  17.6270425
  59.2339659  22.2384501  18.2836604  60.1484394  22.0648527  17.0901012
   9.0624787  60.3463216  24.2261823   8.3747651  59.7054143  24.0458615
   8.7816788  61.1356182  23.7631543  15.7593787  74.4560037  15.4781282
  15.9599651  73.8498135  14.7650158  14.8742259  74.2174033  15.7534647
  43.1986761   6.1956298  38.5778332  42.7156448   7.0086616  38.4298658
  43.6426067   6.3297826  39.4151855   1.4092315  72.8799648  21.7203593
   1.2410367  72.8298930  20.7793856   2.0839632  72.2196970  21.8785310
  43.1818026  35.8556141  62.1454273  42.3199683  35.7514639  61.7421569
  43.6913544  36.3439832  61.4988335  44.1790241  40.6535843  60.8820726
  44.8063642  40.7183519  60.1620151  44.7148436  40.4517153  61.6491307
  40.0465107   7.4359894  10.3008413  39.8570108   6.4977539  10.2949452
  39.6193051   7.7715802   9.5127392  25.2778746  56.1709125  60.2679672
  25.1885869  57.0281513  60.6843819  25.2083756  55.5457504  60.9894760
  55.4889518  26.1691899  58.6176737  55.9883124  25.6710739  57.9705627
  54.8202067  26.6240914  58.1057395  72.5806003  71.2719611  24.4334006
  72.6051622  71.2588165  23.4766054  73.4441977  71.5947662  24.6907473
  19.6205044  25.7680464  41.7012024  18.8072908  25.2673364  41.7660427
  19.3651450  26.5852141  41.2731075  33.4520245   9.7330308  62.9138517
  34.0193272   9.0899885  62.4885321  33.7578154   9.7596514  63.8205051
  52.0105362  48.9336777   8.7227261  51.9803905  48.5144615   7.8627378
  51.9614601  49.8708439   8.5341936   8.5492064  54.6992035  48.2870312
   9.4090582  54.9846179  47.9781242   8.0837418  55.5119629  48.4845121
  54.6377373   5.5469549   3.4756407  54.6284628   4.5965424   3.3622298
  54.2177916   5.6910855   4.3236417  32.2027421   3.9298555  35.8441901
  31.7518830   3.1259313  35.5859995  32.4201465   3.7967893  36.7668271
  27.3899651   8.9613223  24.0168405  27.6189733   9.8892379  24.0693784
  26.5592146   8.9461869  23.5415983  79.8887341  53.3572308  15.1287937
  79.7154348  54.0612571  15.7537293  80.8406632  53.3549396  15.0284958
   6.0372521  62.2329946  65.7277838   6.4794232  63.0799575  65.7858695
   5.3155877  62.2961588  66.3534326  53.3230495  24.2242694  22.1880341
  52.7879477  25.0177526  22.1711469  53.0986452  23.8016510  23.0170488
  53.0534081   4.5202821  20.5244446  53.2434062   3.6620325  20.1455784
  53.1853609   4.4014099  21.4650226   6.4995188  18.0862904  14.3356156
   6.0205954  17.2681642  14.4680285   7.4192864  17.8463125  14.4481766
  40.6348610  10.5838645  16.7612636  41.3634634  10.7619393  16.1665726
  40.5658245  11.3730597  17.2985125  67.8610199  68.6922721  11.8521428
  67.0625298  68.8310097  12.3614526  68.3305590  69.5242832  11.9114971
  79.9274435  35.1353145  13.5565126  79.3555055  35.7668972  13.9926565
  79.4239659  34.3212557  13.5494685  39.2554331  21.1930513  13.5040438
  39.2615914  22.1502328  13.5049701  38.6684895  20.9566164  14.2222548
  57.6629335  60.6795878  56.4020260  57.8652078  60.4124708  55.5053838
  56.9642645  61.3269730  56.3072403  14.6708727   5.2641284  52.2435093
  15.6120658   5.0905818  52.2599268  14.5987940   6.1642158  51.9258976
  81.3838249  32.5165815  60.6604816  80.9356886  33.3117051  60.3720607
  82.1276432  32.4311401  60.0641062  56.2467886  66.3873450  19.5703661
  56.4951707  66.5439169  20.4814219  55.3102259  66.5827648  19.5404744
  13.7383378  15.6794381   6.2259054  14.3546569  15.2325213   5.6456912
  14.2851079  16.0406029   6.9236404   7.7819134  29.5483763  50.2712114
   8.0662800  30.4314215  50.0354143   6.9626357  29.4246049  49.7919472
  21.3451554  39.7476383  34.0167459  21.3721491  39.8468453  34.9684079
  20.4232003  39.5827303  33.8191827  14.8903024  50.7819748  34.3171406
  14.2752600  50.8131790  35.0499296  15.1901519  49.8732281  34.2946506
  21.6932869   8.3230048  65.3860760  22.4150157   8.9285344  65.2167416
  21.0561633   8.5110587  64.6969175  29.2207397  64.6772019  44.4958687
  28.7083400  63.8861326  44.6628714  28.7025703  65.1679901  43.8580132
  49.2061138  17.4069798  38.7101340  48.8898706  18.1886685  38.2571626
  48.9253664  17.5258970  39.6174788  18.1578290   9.9513328  16.3051486
  17.4450183  10.2485466  15.7396436  17.8402066  10.1096559  17.1941268
   8.6949933  25.6331992  22.7854967   9.1604042  25.1544785  22.0996022
   7.7786130  25.3797579  22.6748300  11.5736068  41.3960926  12.1000183
  11.7508019  40.9048478  12.9022110  11.4814676  40.7250683  11.4236557
  64.4697391  61.0902378   1.9135539  63.6418354  61.4653608   1.6134040
  64.4492685  60.1851579   1.6026847  36.7538274   5.7079604  65.2483066
  36.4845384   5.1220992  64.5408563  37.4865449   6.2037614  64.8828779
   2.1106189   4.0794054  18.6970496   2.9218858   3.6825052  19.0141428
   1.7136665   4.4683138  19.4764149  25.2967119  19.6931899  25.8579659
  25.3745842  20.5577612  25.4546285  25.7603908  19.7750437  26.6913533
  11.2036693   9.3716979   7.3832124  11.7989480  10.1048398   7.2270775
  11.7518127   8.5931003   7.2854525  33.7394142   7.3597771  18.0332839
  32.8884602   7.2503680  17.6088572  33.6011100   8.0610037  18.6699820
  42.7614784  34.9451303  17.8877282  42.8081322  33.9986706  18.0228913
  43.1901264  35.0879788  17.0438743  30.3990006  28.4183192  13.9027941
  30.0138521  28.5759759  14.7647882  30.7428598  27.5264597  13.9535880
  25.7668376  28.9648080   5.7980150  25.9784675  29.1716623   6.7083204
  26.5181398  29.2849779   5.2987462  51.6228437  10.5378962  55.8721781
  51.7948532  11.3523412  56.3447475  50.6883907  10.5724454  55.6676292
  74.5147937  73.5356484  10.1283658  73.9365750  73.9854703  10.7444477
  74.0304261  73.5341076   9.3027645   8.4057487  66.9714431  58.6891937
   8.9708579  66.3498775  58.2303476   8.0173720  66.4620916  59.4005013
  81.3700461   5.3705919  12.1879089  81.4632974   6.0949409  11.5691566
  81.0464153   4.6425599  11.6573763  46.7505741   2.2626647   2.4802056
  45.8440781   2.3419499   2.1831964  46.7114973   1.6383120   3.2046977
  73.9486723   6.1688617  66.3001739  73.0939405   6.5122083  66.5605129
  74.1961878   5.5780175  67.0114192  36.2237954  20.3439832   1.4399835
  36.3765168  21.2544703   1.1871579  35.3027558  20.1885796   1.2307683
  35.0572634  18.9125347  46.4029741  34.4832039  18.1771529  46.6172171
  35.1656842  18.8629639  45.4532290   1.7190276  39.9736834  33.9454031
   2.5528070  39.5079494  33.8810921   1.5624976  40.3076839  33.0621290
   1.1205471  77.1051857  27.0667696   0.6169999  77.8474809  26.7325997
   0.6250585  76.3349348  26.7884922  27.7601290  22.5960469  12.2644210
  26.8619108  22.8354764  12.0361531  27.7627683  21.6389036  12.2544372
  76.9584566  62.4787517  58.0120017  76.6434103  62.9769511  58.7661751
  77.0081240  63.1213255  57.3042841  17.1973670  10.3721738  19.1922891
  16.7342043  11.1289239  19.5515120  16.8299222   9.6222621  19.6601009
  10.5331052  13.0191425  50.5123969  10.6783212  13.3707431  51.3907607
   9.6831120  12.5823501  50.5667575  55.3047210  56.6139395  65.9961920
  54.7578627  56.7855604  65.2295606  55.3475767  57.4541409  66.4527630
  68.5502737  51.9971792   3.8965943  69.1935377  51.6093818   4.4899374
  69.0021448  52.7476565   3.5108134  17.1967614  76.7474591  41.3155317
  16.8747104  75.8460703  41.3119936  17.2980464  76.9619711  42.2428703
   3.2242025  71.5900461  30.8182907   2.7245487  71.2658529  31.5676069
   3.9401329  72.0925270  31.2071204  28.3147502  45.8590317  28.4287477
  27.4923038  45.5808592  28.0257154  28.8921285  45.1004124  28.3429646
  26.0637832  19.8479605  10.7958925  25.8627605  20.4519129  10.0810039
  25.2593875  19.3433380  10.9164631  51.1488771   3.7710491  41.6588879
  50.2092791   3.7208611  41.8345881  51.2913084   3.1554395  40.9398794
  63.4640985  63.6189417  11.4441228  63.6147760  63.4467308  12.3735690
  62.5637912  63.9414338  11.4031649  11.7646433  59.5371146  65.6235664
  11.4782549  60.2212067  66.2287383  11.0252215  58.9308090  65.5801852
  75.4775292  56.4547904  59.3916948  74.6988016  56.9884605  59.5498587
  75.7892281  56.2209136  60.2659811  48.0395323  59.7917743  61.0672505
  48.5451966  60.0133843  61.8491860  48.4006649  60.3533502  60.3813584
  32.5889516  57.2205210  39.0202761  33.5122228  57.0987940  39.2416048
  32.2904539  56.3516092  38.7517285  25.1811385   4.4465950  12.2977734
  24.5161629   4.3680376  12.9817820  24.7117448   4.2596096  11.4847922
  37.9969085  61.7948560  24.4637156  37.2526611  61.7234115  25.0613976
  37.6139034  61.6989795  23.5917377  34.4002628  31.1726379   4.6462405
  33.5992241  31.6953540   4.6096888  35.0583577  31.7118740   4.2076445
  35.4278827  10.2111030   8.2891506  34.5130825  10.1014709   8.5486740
  35.3855324  10.4914498   7.3749053  28.9485086  56.7539136  27.0687056
  28.2130922  56.9226758  26.4797139  29.6587671  56.4744822  26.4910531
  42.3899425  67.9621397  41.0258436  42.1064819  67.4781726  41.8015099
  43.2045282  68.3876572  41.2934589  13.6539721  20.2443647   7.0345968
  13.1817067  19.4693029   6.7304939  13.7416518  20.1161456   7.9791093
  33.9364834  42.2186422  21.7208910  33.6602517  42.7931356  22.4349546
  33.8587399  42.7592564  20.9348083  57.8581095  21.3089442  29.5495796
  57.2224331  21.2454104  28.8367605  57.3504591  21.1261106  30.3402090
  45.3907585  53.9799213  31.9388747  45.9362221  53.2622528  31.6169286
  44.5200634  53.5942125  32.0355868  15.7271099  40.1818275  35.6851649
  15.4110086  39.4925714  35.1010108  16.2830079  39.7246861  36.3162184
  13.6515570  25.7982492  47.3583651  13.3835316  26.5341878  47.9086304
  13.2482529  25.9752822  46.5085173  22.2433233   6.1647201  48.2589865
  21.5182471   6.6495526  47.8647327  23.0282283   6.5449232  47.8645182
  61.5916348   5.7775998  27.2478366  61.4070368   6.2130046  26.4156222
  61.2138987   4.9035627  27.1498203  67.7684634  76.4986086   4.9626634
  66.9398802  76.2796006   4.5363811  67.7283650  76.0515527   5.8081013
  10.6887937  30.8918166  22.2646308  11.1360562  31.2688398  23.0222869
  10.6316471  29.9567366  22.4610853  24.6066141  12.8649640  19.1713047
  24.1369963  13.5320330  18.6705947  24.3374777  13.0123746  20.0779843
   3.5556819  32.2328867  18.6645825   2.9457690  32.9358227  18.8884528
   3.0395056  31.6288818  18.1307538  21.9250596  40.7745735   8.3903462
  21.3342393  40.6837956   9.1379571  22.5812877  40.0897280   8.5191351
  13.7794435  15.9635246  24.3942952  14.1247749  15.4763842  25.1424074
  12.8641534  16.1306143  24.6191454  46.2493181  20.5448222  20.7481623
  47.1754026  20.4298615  20.9612083  46.2511015  20.9273481  19.8707211
  77.1636503  72.4169357   4.3678135  77.5934642  72.2184507   3.5358906
  77.8600638  72.3444487   5.0204897  71.0505336  69.8663078  54.0843487
  70.8784859  69.8086391  55.0241899  71.5961688  69.1033636  53.8934803
  41.4050245  33.3667254  32.7164292  41.8657827  33.9617324  33.3079553
  42.0413256  33.1730151  32.0280743  72.5216930  73.6172871   8.1593913
  72.0962792  73.2777540   7.3720080  71.7987733  73.9031349   8.7178808
  24.9235654   1.1941597  59.9276447  24.7305846   0.6565624  60.6957483
  25.7540059   1.6216648  60.1370239  38.2498908  17.0788491   4.3297613
  37.7325392  17.2579849   5.1149291  38.2369375  17.9020143   3.8414332
  72.4199873  56.0586317  66.6107784  72.7505547  55.4657502  65.9359102
  72.5429922  56.9334264  66.2422209  31.8507171  54.1245985  17.5521672
  32.0917392  53.1988573  17.5860071  32.6473403  54.5690536  17.2622025
  79.0583651  72.3230736  12.9980314  79.2003577  71.3852231  12.8695548
  78.1535261  72.4683921  12.7216625  14.8453166  62.1789117  46.2978991
  14.1549183  61.9174929  45.6886037  15.2977587  61.3629122  46.5116151
  58.5868788  29.9043489  11.5058720  58.3861017  30.4581976  12.2603059
  59.5402098  29.8192573  11.5181649  16.0437429  36.2711000  23.5860872
  15.5064261  36.9515753  23.9916444  15.6059086  36.0832596  22.7558780
  27.4983478  39.0824533   9.2306036  27.8886747  38.7060094  10.0193787
  28.1892180  39.6317768   8.8602346  37.9735804  46.9046688  11.7658019
  38.8348317  47.3043251  11.6443336  37.9862142  46.5771294  12.6651311
  59.0530729  14.9580252  26.5228748  59.7215414  15.1416481  25.8628273
  58.4238958  15.6736565  26.4320970  40.5558205  16.6259778   0.8731670
  40.5851460  16.1106086   0.0670862  40.8130503  17.5075829   0.6032848
   6.9184567  39.3623995  54.9508663   6.6168334  40.1431228  54.4864030
   7.3773362  39.7028879  55.7188042  46.5973186  43.3174896  10.3897822
  45.6784296  43.4764481  10.1738846  47.0848370  43.7090731   9.6650618
  42.8843880  44.5596695  21.5201688  42.9807615  44.4897032  22.4699330
  42.0800781  44.0788221  21.3249755  15.1840855  67.0394177  59.1667445
  15.4377009  67.4798722  59.9778612  15.8613707  66.3765116  59.0323015
  16.6664517  16.7746341  52.8741932  17.1897364  17.1897924  53.5597897
  17.2865665  16.2173522  52.4039507  41.0365343  64.5893669   2.7639443
  40.2653933  64.0915394   2.4923825  40.6935453  65.4500961   3.0042365
  61.4315844   6.9398421  10.5713475  60.6255484   6.6608846  11.0057628
  62.0344448   7.1363890  11.2883961   8.6523259  34.4648163  14.7811925
   8.2744158  35.3192131  14.5728111   9.4594777  34.4283287  14.2679644
   0.3089250  66.7271201  19.2588449   1.2202204  67.0135645  19.3198419
  -0.1680147  67.3205416  19.8390269   3.3213635  35.2416658  17.2369707
   3.6806698  34.6153665  16.6085720   2.4225350  35.3879142  16.9421160
  33.9392757  21.0996389   5.2266604  33.4741068  20.3747392   4.8090851
  34.3610930  20.7054281   5.9901375  65.5423212  19.9698031  18.3231425
  65.0220537  20.1022124  19.1156220  64.9077988  20.0227594  17.6084328
  26.2985814   1.3482097  66.9101004  26.9172061   0.7826808  67.3723851
  26.4587892   1.1711434  65.9831638  56.3665295  36.8896556  18.3451414
  57.3144674  36.9685102  18.2382512  56.0185146  36.9610000  17.4563062
   4.0719052  26.1983037   9.5678943   4.4004937  25.6410313   8.8624102
   4.1256733  27.0868587   9.2160249  75.4846626  63.9925189  50.2667101
  75.3439909  63.8727398  51.2059100  75.8920723  63.1753845  49.9794181
  30.3216791  37.1580791   3.7604699  31.1705184  36.8308163   4.0581322
  30.4430509  38.1045270   3.6847240  59.4383860   8.5653615   0.6612920
  59.0974808   7.8270006   1.1661062  58.6738396   8.9170235   0.2051890
  59.5316172  30.9752202   2.4102928  59.5959759  31.7162204   3.0127940
  60.3443480  31.0056543   1.9055364  60.3559828  27.8740335  14.9895120
  59.8227692  28.2249379  14.2762244  60.9280062  27.2327709  14.5678437
   3.4790345  36.7903614  43.2524395   4.1772957  36.7770910  42.5978422
   3.1652565  35.8866882  43.2862806  25.5538344   6.4097136   8.9460379
  25.7368588   7.1508074   9.5235449  25.7290721   5.6377393   9.4841641
  61.2124354  32.9874862  64.8504788  60.6626803  32.3546846  64.3883519
  61.4436942  32.5503595  65.6700343  78.2083893  27.3953748  43.6503696
  77.8030729  26.7038369  44.1735649  78.0376196  28.1988192  44.1418505
  81.2818628  62.4200864  56.0833366  81.1335236  63.1927223  55.5381210
  81.3159186  61.6920395  55.4628356   4.6906263   5.4104733  35.1825333
   3.9852378   5.1605028  34.5857286   4.2407262   5.7478869  35.9571123
  44.7958517  20.4246259   3.2492787  44.1817331  20.6804323   3.9375034
  44.4254303  19.6209908   2.8843266  39.3261814  38.8804102  31.2512732
  39.0447402  38.7073541  32.1496463  40.2698708  39.0253615  31.3196397
  50.3493744  46.5524055  57.5645264  50.2708536  46.9165040  56.6827674
  51.0907012  45.9493799  57.5095113  71.3872545   4.3111757  52.3559924
  70.8472293   5.0997976  52.4077983  71.8302231   4.2681268  53.2034345
   5.7958628  76.8277426  66.2652403   6.1481883  76.8244429  65.3752472
   6.3859297  77.4012132  66.7543055  62.0681715  50.6391573   4.8793745
  61.4191246  50.9165621   5.5259192  62.6174068  51.4114618   4.7447789
   1.4257456  60.6518073  57.0188661   1.3766266  61.3970418  56.4201649
   1.4977004  59.8885102  56.4457770  16.2192380  44.4180012  15.2688241
  15.9527266  44.0179491  14.4410813  16.6972733  45.2061749  15.0109494
  59.3742132  59.7352695   0.7567829  60.0521612  59.9763680   1.3880426
  58.6196947  59.4963741   1.2951702   3.0042113   2.4169782  64.6791206
   3.8416208   2.0984224  65.0160118   3.1136096   3.3663276  64.6243556
  50.7686567  22.4735785  21.4831901  49.8419428  22.4921799  21.7221236
  51.1888075  21.9853735  22.1912551   5.8586287  48.2063150  13.3966446
   5.5402619  47.5767660  12.7496946   6.3215774  48.8664770  12.8807950
  81.0751785  10.7335571  39.2224725  81.1791862  11.1811975  40.0621350
  80.2393974  10.2731898  39.2983873  62.3102099  53.0143459  63.7978594
  61.8593842  52.1703405  63.7725495  62.7525478  53.0242522  64.6466659
  15.6404912  10.8649397  23.3383155  15.6081069  11.0817182  22.4065495
  15.9425056  11.6689444  23.7609220  30.7545686  30.4173899  31.1536026
  31.7033482  30.4158044  31.0269260  30.4039669  30.7640147  30.3331375
  30.5112184   3.1863406  66.1057829  30.9441675   3.9087442  65.6509055
  29.8201621   2.9054597  65.5059670   1.6167320  19.1966441  54.5426090
   1.1565603  18.4115794  54.2457147   2.5393642  19.0158084  54.3629559
   2.0971549   5.6940892  42.2443684   2.0873106   4.9406055  41.6541179
   2.0004214   5.3152087  43.1180532  77.6584816   9.3883824  17.5965476
  77.1736288   8.5805696  17.7656209  77.6794243   9.4598842  16.6422510
  60.7510948  33.9826584  19.8138583  60.1756620  33.2710910  20.0945354
  60.5519724  34.0994525  18.8849115  49.3358469  45.7800865   3.1099841
  50.0176573  46.4517784   3.0956960  49.2153358  45.5415440   2.1908511
  67.2523260  46.7763567   0.6875680  67.7448559  46.9351816  -0.1176795
  67.3442459  45.8363581   0.8430941  22.3270715  72.4073450   3.5020828
  22.6672424  71.5423594   3.2733604  22.6889146  72.9910130   2.8352746
  38.6252904  34.3291664  13.1146967  38.0863476  34.0161300  13.8411832
  38.0022812  34.7347379  12.5117016  47.7582502  35.2774191   9.5213079
  47.6555872  35.5325031   8.6044520  46.8628168  35.2091312   9.8526239
  47.3492461  64.1622372  53.9786847  47.5298768  65.0391073  54.3173583
  46.9212967  63.7085004  54.7047801  45.6081606  67.2865195  56.8003662
  45.0035884  68.0114622  56.6416653  45.8662249  66.9941230  55.9262152
  16.1391986  70.8479975   9.0274239  17.0148052  70.9545569   9.3991643
  16.0423244  71.5871445   8.4269994  13.4626961  -0.0822998  46.2410879
  13.4052646   0.7590436  46.6939402  13.9629221   0.1066740  45.4471779
  39.0506172  15.1252806   2.6314378  39.5078111  15.5951118   1.9339678
  38.7718987  15.8104396   3.2389775  54.9829149  54.7948456  22.9924870
  54.8912525  55.7397985  23.1145287  54.0929031  54.4883204  22.8188419
  22.4573827  31.0392570  29.9477386  21.9111633  31.1949611  30.7182145
  22.1865988  30.1769876  29.6324658  32.6889133  21.7462730  20.0714159
  32.7170444  22.6726484  19.8321080  31.9919181  21.3794446  19.5274782
  40.2963257  11.4980102   4.0963918  39.6638751  11.0263288   3.5543996
  39.8102736  12.2519326   4.4304404  67.7604914  19.6382594  11.9345975
  67.0974541  19.4610906  12.6018524  68.5198116  19.9485707  12.4279201
  57.9301167   8.3992273  13.3826363  58.1292820   8.0407500  12.5177324
  57.8059816   7.6296270  13.9380980  16.6828419  31.4020545  65.6952839
  17.5077893  31.2452514  66.1547527  16.5400244  30.6071789  65.1814665
  54.4181633  46.1730242  18.9744437  54.9184608  45.4566336  18.5836518
  53.5785055  45.7782793  19.2097843  26.0808158  13.5081208   2.4644518
  26.4409423  14.3059027   2.0770448  25.8697963  13.7534571   3.3652920
  16.6181123  39.4485664   6.2196618  16.0148549  40.1371670   6.4992064
  17.1096802  39.2253876   7.0100951  80.6026077  25.5219746  45.4794073
  80.7920837  26.0709882  44.7185421  81.3009357  24.8673296  45.4822540
  68.9533621  54.8336215  49.0005668  68.9013392  53.8850601  48.8832839
  69.7455746  54.9675364  49.5208557  38.3649659  12.0266092  39.0267491
  37.5167489  12.3421764  39.3384862  38.1821871  11.1546981  38.6766124
  60.8868157  72.1926376  -0.2258618  61.3884031  71.3814804  -0.3075011
  60.5032002  72.1499035   0.6500642  56.2264919  40.4386282  20.2789521
  56.0081816  39.6124315  19.8477066  55.6297922  40.4838371  21.0260367
  49.5125055  24.4881868  29.8943639  49.9155664  25.3398252  30.0631523
  49.5883131  24.0184951  30.7249498  59.5561409   3.6818901  27.3925352
  59.7201633   2.8933066  27.9097056  58.8318968   4.1170079  27.8424001
  65.9938961  40.2830894  53.5280068  66.2173968  39.5897248  52.9071005
  65.7552796  41.0293074  52.9780515  62.2077876  52.9421468  47.8206106
  62.1724325  53.8183780  47.4369438  62.9813677  52.5391216  47.4264331
  16.9439900  40.4521608  25.7518077  17.3156285  40.4559803  24.8697066
  16.9673526  41.3690901  26.0255241  32.9779733  75.3429389  15.4182780
  33.2786573  75.5426634  16.3048041  32.6670183  76.1811458  15.0762999
   2.6096524   9.8067525  62.3229824   1.9138468  10.4413655  62.1516465
   3.3560122  10.1270631  61.8164434  43.8960600  22.3887467  10.9058452
  44.5738745  22.5114322  11.5704870  43.4474516  23.2332015  10.8625305
  18.3313920  68.4794302  61.0617520  18.4742762  69.0719528  60.3236927
  18.9362933  68.7873359  61.7366757  26.3037324  30.6451535  28.9532280
  25.5471349  30.1557302  29.2761207  26.6543007  31.0832667  29.7287202
  57.6662689  58.0062206  48.7373157  57.5322395  58.1402059  49.6755667
  57.5345689  58.8718362  48.3505400  30.1589561  34.4001317   4.7915956
  29.2560291  34.3372345   4.4801506  30.1685238  35.1833391   5.3418005
  15.1323093  75.7396194  35.5054641  16.0712398  75.7862039  35.6856537
  14.7493947  76.4268293  36.0507631   3.1048573  22.4765638  61.0378422
   3.2006920  22.5936130  61.9830121   2.1934689  22.7081350  60.8590146
  43.3325481  17.2610056   9.4200134  43.7982893  17.4641740  10.2312124
  42.4133396  17.4365699   9.6211714  61.0942298  39.7425686  62.1899863
  60.7321888  39.8161959  63.0730136  60.3685194  39.4123220  61.6603513
  28.2724822   2.1139243  57.5850810  28.6931766   1.5492919  58.2334985
  28.5823692   2.9943898  57.7971561  68.7399298  62.8345318  26.1249526
  69.0649801  62.9247375  27.0207413  68.3950335  63.7004204  25.9069760
  73.6938906  32.0356250   5.7801312  74.2472696  32.4314713   6.4534152
  73.9061165  32.5184345   4.9813285  44.6707869  10.4076600   2.8100574
  44.1781473  10.5352318   1.9993404  44.5448399  11.2217748   3.2974851
  59.5327854  64.6672487  29.3816805  60.4842329  64.6475506  29.4845653
  59.3943739  65.0109529  28.4991050  38.3719659   3.3760464  56.1737299
  38.8095379   4.1754106  56.4666128  37.5165987   3.4003070  56.6026735
  39.1721201  37.3269892  18.4653294  39.9666953  37.4565554  17.9475510
  38.4819818  37.1934891  17.8156233  47.2416127  14.0114644  56.9161172
  48.0825818  14.2341617  57.3153849  46.6159929  14.0472511  57.6396825
   2.8806706  22.2449446  31.5839005   3.3171578  23.0964971  31.6076064
   2.9534073  21.9135141  32.4789381  32.0741773  27.2231150  27.1855569
  31.4594626  27.8612113  27.5477576  32.9335999  27.5245810  27.4800777
  16.9346619  49.6495581   5.9721798  17.1936548  50.5582952   6.1249870
  17.6585829  49.2753935   5.4700118  43.6109018  34.9520183  33.1557894
  43.8119125  35.6508851  32.5333667  44.2798233  35.0366735  33.8352084
  26.5096831  28.2316351  21.6981316  26.2816167  27.3042917  21.6329122
  25.9307551  28.6653233  21.0712433  36.3486528  44.6097612  20.4060674
  35.7155681  45.2824020  20.6570482  36.6381621  44.2315960  21.2363744
  17.4273205   0.3987789   9.7284931  17.9675317   0.7378787  10.4422259
  18.0387723   0.2775156   9.0020955  56.0293961   1.3376880   7.3636901
  55.6841755   2.0971330   6.8943316  55.7369375   1.4609769   8.2667404
  12.1184802  42.8325796  36.9852352  12.2477615  43.1775236  37.8687119
  13.0043888  42.7002621  36.6477609  69.4309092  19.7837377  16.1650777
  70.1183796  20.4025269  16.4114809  69.1434002  19.4023430  16.9946003
  44.0483952  13.2346427   2.2095273  44.1952038  13.0940413   3.1448936
  43.0964708  13.2817256   2.1209088  30.6813920  74.1780896  52.6880121
  31.0686506  75.0253759  52.4680805  30.5648292  73.7417228  51.8440771
  70.8576304  36.5730394  60.6409718  71.5762907  37.0515702  61.0542150
  71.2898356  35.9144906  60.0971468  32.7928329  35.0262070   4.1509181
  32.4020028  34.4649673   3.4812218  33.1229281  34.4169068   4.8112378
  72.0349073  30.9400558   0.2772499  72.6994848  31.6282701   0.2467168
  72.5333071  30.1306462   0.3898680  12.3101139  53.9737844  43.6271763
  11.5436208  53.8987875  43.0587578  11.9470465  54.1167784  44.5012283
  71.1381960   7.2057563  10.5868399  70.4401255   6.6220927  10.8839417
  71.9466543   6.7367500  10.7933652  53.6634207   8.0465889   0.3021486
  53.1032085   7.6799595   0.9862371  53.4670925   8.9834183   0.3083221
  44.5830727  21.8910766  16.2698901  43.8168955  22.4473548  16.4104354
  44.2624331  21.1762738  15.7199049  47.3527396   3.1139329  66.9703296
  46.9479144   3.9619878  67.1523860  48.1436599   3.3274272  66.4752568
  42.5549316  23.5132098   0.3210506  42.7951145  24.3640089  -0.0459441
  43.3502674  22.9861474   0.2443849  31.2496567  15.1769340   5.9236491
  31.3338017  14.3540347   6.4053023  31.7694736  15.0446546   5.1308537
  67.3519998  24.7277263  51.5767177  68.2385342  25.0872615  51.6087039
  67.1753519  24.6086648  50.6435235  41.5442085  50.3242493  32.1719599
  41.3464069  49.3948793  32.2876143  40.9870815  50.5988741  31.4436579
  41.2420321  33.1031489  11.3087583  41.8533421  32.3985577  11.5234220
  41.4265966  33.3095026  10.3924692  12.6857495  15.4673874  15.4836690
  12.5276482  14.5272267  15.3980398  12.1138334  15.8670974  14.8284006
  41.8134546  19.6324337  20.0610852  41.7247677  18.7124729  20.3101587
  42.7326918  19.7252703  19.8108399  45.2601624  25.2539253  17.8986442
  45.6825972  25.4113030  17.0542455  44.7460508  26.0449743  18.0603850
  30.4528594  11.5038979   9.6230537  29.9916744  11.1663377   8.8552052
  29.7591901  11.6943014  10.2545583  72.7410656  68.2194943  39.7577818
  71.8037754  68.0340142  39.7002109  73.0687433  68.0752201  38.8700612
  36.1379218  32.9780793  22.7725744  35.7508898  33.6044455  23.3842158
  35.4024363  32.4356842  22.4878001  59.0503407  17.8436852  15.0490737
  59.9036694  17.4101305  15.0586569  59.0323877  18.3550179  15.8580542
  62.2009039  39.0614319  20.6351423  63.0235147  39.4885254  20.8741546
  62.3809195  38.1259131  20.7280636  77.9551057  61.8094826   9.0052044
  77.0624243  61.9824219   9.3042761  77.8440310  61.3461971   8.1749856
  41.5893615   1.1386278  65.5827904  42.2806228   1.1259249  66.2447799
  41.9269431   1.7123702  64.8949729  78.6124378  72.2269506  65.8358515
  77.8184277  71.9724650  66.3059731  78.4124762  72.0526929  64.9161337
  44.2921019  63.0135298  11.6657507  43.5645390  62.8797150  12.2731864
  44.1392899  62.3790550  10.9655201  55.4461199  68.5844035  62.9311492
  55.1004773  68.6058636  62.0387919  54.8426372  69.1305013  63.4349503
  56.9451666  13.2160223  19.3180370  56.1795950  13.1245029  19.8852718
  56.7033720  12.7572334  18.5135007  37.9647207  30.0558591   9.9149895
  38.4150791  29.6724033  10.6675661  37.8669310  30.9810185  10.1402640
  11.9891144  68.7942500  26.2214215  12.2025277  69.5655007  26.7466481
  12.7232863  68.7079568  25.6133254   0.7192542  36.8466648  56.6420908
   1.5709664  37.2811214  56.5966745   0.7527901  36.1813719  55.9547098
  23.4385204  27.2898889   2.9123604  23.5260653  26.4270258   2.5073457
  23.3701658  27.8952146   2.1740252  59.1006565  49.9945259   3.8917339
  59.1336584  50.6942987   3.2394591  59.0399218  49.1898680   3.3768874
  63.5208321  41.5020275  29.2466378  63.8468409  42.2038269  29.8100424
  62.9053259  41.9357300  28.6556339  15.8257510  63.2817192  58.8326539
  16.4109732  62.9400153  59.5086594  14.9468829  63.0702252  59.1474505
  14.9510552  71.1935897  63.1423246  15.5157734  70.6166716  63.6566098
  14.2707612  71.4717312  63.7555669  77.8010988  22.0925808   3.3455279
  78.0940819  22.5235868   2.5426418  77.0391941  22.5999331   3.6254042
  80.7882267  55.5413694  52.1456964  81.0857111  55.1879580  52.9840501
  80.3467661  54.8068697  51.7192491  70.4769802  17.0779884  13.2294643
  71.3385487  17.4940073  13.2587147  69.8724127  17.7929437  13.0305386
  48.8602638  24.2838430  17.7836227  49.7379827  23.9616060  17.9885781
  48.6993837  24.9694443  18.4319282   0.9823151  41.1533451   3.2466444
   0.3287240  41.6619158   2.7666315   1.0813542  41.6154718   4.0790275
  68.6104012  55.5845737  13.2759154  68.9846182  55.2569437  14.0937507
  67.9193020  54.9581766  13.0608797  65.2661193  21.5905765  65.9248914
  65.1739562  20.9875253  65.1872833  66.2110103  21.7112878  66.0189437
  52.3226023  51.6408682   7.1693325  52.7745247  52.3133945   7.6789546
  52.3926258  51.9399118   6.2627447  13.9145733  65.7313342  56.0483153
  14.5135619  65.6629391  55.3048296  14.1926552  66.5236468  56.5078207
   9.0938593  47.9665734  64.7985801   9.1740014  47.6716859  63.8914691
   8.2032372  47.7236588  65.0515996  53.1271106   0.1402230  54.3455656
  54.0232140   0.2404995  54.6667822  52.5771171   0.3620834  55.0969084
  77.2283798  61.4561362  65.5296920  76.3476664  61.1586614  65.7579106
  77.7174765  61.4090080  66.3511519  36.9320250  35.7087255  11.4446783
  36.0908461  36.1424637  11.5879309  36.8029308  35.1926064  10.6489468
  76.7787409  26.8262553  12.6845407  76.5129852  26.1046767  13.2545662
  77.3494291  26.4189863  12.0328629  49.1375971  36.5413022  11.9882059
  49.2006350  37.4522710  11.7011654  48.6313629  36.1081171  11.3009584
   8.6974014  71.7580078  21.7131424   8.9404000  71.4964829  22.6012802
   8.8746274  72.6981870  21.6833663  60.0413036  29.4437385  19.4617057
  59.3196201  30.0602841  19.5852923  60.8277130  29.9892068  19.4776821
  57.5545645  13.9824998  29.9039292  58.1920338  13.8263154  29.2071724
  57.4318266  13.1257319  30.3127289  25.4066623  11.6253379  62.2746952
  25.8621324  11.3836768  63.0811562  24.7121919  12.2188571  62.5604876
  52.9213172  29.7069700  58.6474891  53.3213621  30.5609204  58.8116922
  51.9792968  29.8746271  58.6744066  53.2667542  16.7461812   4.1913566
  52.7920961  16.4763808   3.4051383  53.7978411  17.4900579   3.9070565
  24.7277498  26.3207722   5.2370965  24.1303420  26.5857983   4.5377421
  25.1593399  27.1324468   5.5038279  49.5279890  50.8516545  45.7744010
  50.1507622  51.4555449  46.1790021  49.0994459  50.4191191  46.5129765
   3.2552554  43.8676424  57.2977956   3.7651135  44.3521227  56.6485222
   2.3489071  43.9511634  57.0014914  41.6575193  35.4595947  12.5989676
  41.4365387  34.7866726  11.9550931  41.5691233  35.0200963  13.4446967
  58.0298968   3.2100061  45.7577093  58.8866242   3.5372213  45.4835232
  58.1718456   2.8816751  46.6455610  64.7788244  52.3073740  50.4370268
  65.6525498  52.6539023  50.6180175  64.3120915  52.3881454  51.2688132
   0.4484952  68.3852021  14.2600393   0.6379164  67.7349482  14.9364424
   0.0641335  67.8803287  13.5433805  73.1931734  35.1723671   2.1546164
  73.7208509  35.5006266   2.8826499  72.2994232  35.4422593   2.3658128
  53.4910965  53.1327868  18.7986517  54.3697977  53.4990501  18.6987960
  53.6016703  52.1964836  18.6332929  45.4658175  10.1611137  19.9590278
  45.4537487  10.1687789  20.9161210  46.3481283  10.4518402  19.7282863
  12.7975197  17.5008106  32.2160769  12.5550766  18.1350768  32.8907347
  13.7014695  17.2641063  32.4236298  79.9829817  57.7610397  24.5331836
  79.7115707  57.1556950  25.2232051  80.7896328  58.1557322  24.8644733
  57.8103447  23.8313127   3.0204344  57.0332909  24.3831229   2.9314458
  58.5371208  24.4504023   3.0893877  40.4212427  48.6971664  16.5767920
  40.0785303  48.6228800  17.4674451  40.5557013  47.7921200  16.2956381
  48.0439425  69.9667835   9.0686125  47.3563671  70.0141382   9.7328657
  47.5740385  69.9939346   8.2351351  50.9328276  69.8933525  44.5200570
  50.8650428  70.8474250  44.4829138  50.5411440  69.6579714  45.3611358
  72.7164078  42.4072933  10.7971954  73.1872129  42.5883484   9.9836880
  73.2044554  42.8851175  11.4678097  74.1034126  61.1098576  14.1152763
  74.1667557  60.1815128  14.3397522  74.9922848  61.3554192  13.8586843
  61.5635586  43.2539368   3.7670514  61.1340523  42.4126577   3.6121133
  62.1807861  43.0804348   4.4777972  18.9591958  75.8795352  48.1432624
  18.0443169  75.6354446  48.0030818  19.2182328  75.3970165  48.9283140
   8.5313721  24.8401070  19.5638645   8.9007588  24.0667176  19.9900711
   7.7565690  24.5141482  19.1059816  72.7153826  67.0242739  12.2451365
  72.5271034  66.1179113  12.0016432  73.6277008  67.1568918  11.9876063
  24.9945838   2.1056851   3.4782007  25.9464223   2.1823796   3.5442483
  24.7289045   1.7020949   4.3044955   5.4365178  51.6165638  36.7281532
   4.7111912  51.0443115  36.4778376   6.0025425  51.6372919  35.9565187
   8.1299180  50.7313013   7.1476614   7.6751810  49.9630547   6.8023449
   7.4282521  51.3212729   7.4230379  50.7761955  14.5411992  20.7157278
  49.8578072  14.7993588  20.7941604  51.1216688  15.0948846  20.0155044
  24.0606798  20.2804998  62.8062435  24.5582069  20.0002673  62.0380189
  24.6220887  20.9284881  63.2318847  32.8009629  37.2522712   0.7603716
  33.1806207  37.3037410  -0.1168066  32.6037621  38.1604362   0.9896712
  72.8957831  10.2959545   0.6494679  72.3405873  10.2699955  -0.1298360
  73.7275731   9.9182423   0.3636493  17.5823332  61.6184039  60.0398387
  16.9371344  61.2184186  59.4567795  18.3965613  61.1513419  59.8524435
  72.3540688  38.0093861  22.3431873  73.2412004  38.3651066  22.3951006
  72.1492672  37.7447653  23.2399940  71.4456940  36.3304090   5.3764725
  71.2385893  37.2417688   5.5832654  70.9136677  35.8195233   5.9865355
  80.5364895  15.0037968  13.5159838  80.9561729  14.9781823  12.6560724
  79.8908758  14.2976391  13.4885371  52.5854588  75.8709764  21.3818765
  53.3371830  75.3803015  21.7141104  52.5047255  76.6169500  21.9762158
  64.8468971  53.5678387  21.1107349  65.1469994  53.2666492  20.2531505
  64.1010952  53.0037451  21.3152003  38.8948978   9.7014526  45.4168184
  38.9167846   9.0902522  44.6804817  39.7714103  10.0856546  45.4353149
  35.2562261  68.6353779  29.2940187  35.6278849  68.4028196  28.4431267
  34.3099856  68.5601759  29.1707015  30.2443528  45.9687710   1.4735256
  29.7402716  45.8619833   2.2802031  30.3739858  46.9139338   1.3954489
  37.8222965   5.5230053   8.0505651  37.9849171   6.4528187   8.2094145
  38.6269449   5.0876244   8.3320194  54.6436691  23.9851546   5.0694412
  54.6591616  23.3878946   5.8172864  54.8519468  24.8416591   5.4426038
  73.0811644   0.0712052  45.6584215  72.9928589   0.9321795  45.2495718
  72.7487707   0.1931418  46.5477324  57.0988607  64.7623825   5.7425296
  58.0120897  64.5113707   5.8812261  56.9308281  64.5563078   4.8230028
  50.5211700   3.8258985  47.7781804  49.6560539   3.8470033  47.3690839
  51.1328567   3.7860492  47.0430036  61.6252708  39.7090459   1.8809550
  61.2035179  40.3423166   1.3001594  62.5528097  39.9444556   1.8588217
  42.6124954  27.9193544   2.7269176  42.4559164  26.9893122   2.8904277
  43.2878113  27.9329252   2.0486864  64.9501085  71.3334656   4.0737957
  65.2852058  70.9647179   4.8910883  65.6212091  71.9587898   3.8002560
  35.2297187  20.1290202  19.9590206  34.3964028  20.5717230  19.7983027
  35.1645231  19.8159707  20.8612299  67.7221060  52.4580002  24.8565364
  66.7687702  52.3856497  24.9028134  67.9080772  53.3546162  25.1353335
  77.5909668  66.9934220  59.8724152  77.8346449  66.2248940  59.3564536
  77.9408222  67.7346129  59.3779750  36.9906724   4.4763663  49.3850131
  37.8469861   4.3755248  48.9693339  36.9025195   3.7032703  49.9424966
  69.4041491  68.5895300   9.1065109  69.9166679  68.9594173   9.8253602
  69.8964739  67.8147697   8.8352263  56.8583536  21.1149263  16.4998460
  57.0628500  22.0278502  16.2973976  56.0549927  20.9354234  16.0113537
  27.5504994  58.8911104   5.9762728  26.9583416  58.2721329   6.4034063
  27.5169635  59.6734524   6.5267694  63.5384560  28.0395651  39.4751763
  63.5202503  27.2024775  39.0112972  64.4099426  28.3931661  39.2971158
  59.7135973  68.9635611  11.0986912  60.1940775  69.6667862  11.5355551
  58.7974453  69.2377377  11.1401844  78.2603651  62.0803733  54.0699418
  77.8702217  61.5255947  53.3944853  78.9396435  61.5342231  54.4655807
  55.6215477  44.4460869   5.8089650  56.1887169  45.2150488   5.7519197
  56.1085129  43.7554216   5.3594357  76.7371798  12.3921943  18.2625210
  76.5996313  11.8792832  17.4661326  77.1447229  11.7794561  18.8746405
  22.6140709  50.2697945  17.0741808  23.3953305  50.6507111  16.6732061
  22.5789662  49.3773890  16.7297745  44.9264431  50.8214664   6.0013735
  45.6262350  51.1347818   6.5744001  45.3230143  50.7966805   5.1305407
   3.9219017  52.0952129  56.6020489   4.3169709  52.3867846  57.4237156
   3.5670872  51.2287712  56.8010902  16.4952965  31.2361717  32.0769978
  16.4899178  32.1175551  32.4503160  16.4223500  31.3755298  31.1328101
  22.6224340   6.6011432  51.0354813  22.5126851   6.3762954  50.1115604
  23.3741391   7.1935609  51.0501559  75.8417606  16.0500968  28.6669135
  76.4776182  16.4646816  28.0837917  76.1123753  16.3174820  29.5452666
  68.7201267  52.7808256  66.4400650  68.7252384  52.3517640  67.2957003
  67.8555637  52.5848539  66.0790189  55.1942635  37.8576732  12.9269409
  54.4422102  37.7619529  12.3425722  55.0307226  38.6760688  13.3956778
  40.8715743  70.6142492  40.6217630  41.0286265  69.7860355  40.1683028
  40.5300182  70.3573532  41.4782532  33.9705223  74.1978331  55.8704038
  33.2629120  74.0919609  56.5062578  34.7139066  73.7380714  56.2605710
  56.2567806  66.4015245  34.6923304  55.5718851  65.9238482  35.1602817
  57.0702457  66.1343288  35.1202464  16.9454791  67.8858800  56.4012201
  17.5804164  67.8741283  55.6850143  17.2076489  67.1586318  56.9656761
  20.6706025  67.0394249  62.2356860  21.5430953  66.9838376  62.6254232
  20.8123614  67.4669070  61.3910593  21.9884086  21.8270874  18.6841929
  21.3616729  22.5264597  18.4989440  22.8143358  22.2826076  18.8472152
  66.1026764  40.8807278  15.1808643  65.4235268  41.5269232  14.9874198
  66.4399815  40.6235695  14.3227696  43.6077929  35.4705572  14.7796428
  44.0103197  36.1842060  15.2745283  42.6784658  35.5178976  15.0040102
  70.5874920  37.4398351   9.6244168  71.3654280  37.8855228   9.2891395
  70.6911802  36.5313935   9.3411982  44.7499657  66.3339043  24.9319816
  44.3112040  66.1753130  24.0961790  45.5795717  65.8618355  24.8603463
  21.3085902  22.2537091  50.8907242  21.2847770  21.3011506  50.9817894
  20.4770482  22.5505212  51.2604161  58.0473197   7.4119762  67.1005428
  58.5493816   7.3282531  66.2898906  57.1474803   7.2061017  66.8473135
   5.9891434  42.5365305  17.8760290   5.8153935  41.6332817  17.6111042
   6.9174405  42.5433350  18.1094050  49.7371352  21.6721490  52.3311980
  49.9571431  21.4068797  51.4381929  48.7975038  21.5055993  52.4059065
  26.1320901  58.3771420  44.3778324  25.3757429  58.6727047  44.8846006
  25.7637072  57.7887821  43.7187767  28.8378389   2.8077801  17.3850060
  28.7008626   3.4430798  18.0877578  29.3680913   3.2752045  16.7395747
   3.0171145   5.3917602  52.9995008   2.5458873   4.6000913  53.2591911
   2.6895369   5.5884460  52.1218677  66.3483858  74.6631384   3.7476406
  66.0114670  74.7565365   2.8565764  66.9427681  73.9142561   3.7016919
  79.2308712  49.2518139  20.6506157  79.7193098  49.7823524  21.2800527
  79.7456455  49.3013763  19.8451459  40.0473369   2.8718188  58.6838927
  39.4531453   3.3024982  58.0693318  40.7077897   2.4578813  58.1282957
  56.9925261  73.9034462   5.0571024  57.9411793  73.8502789   5.1731408
  56.6509676  73.1411123   5.5244505  52.7826595  57.1676016  39.7617698
  52.5559330  57.9449892  39.2513776  53.1000519  57.5130558  40.5961275
  45.4980850  15.9477127  14.4175100  45.8158684  15.5240071  13.6201906
  44.6726274  15.5038130  14.6119428  78.5292768  53.9558411  19.9744225
  77.8229666  53.3274794  19.8243582  79.1859627  53.4646463  20.4681110
  51.2443399  41.8157578  17.1276152  51.4518070  42.7349758  17.2956109
  51.9818020  41.3319349  17.4994981  37.5445628  74.2187786  23.9170218
  37.4977899  75.1622963  23.7626767  37.3175049  74.1157150  24.8411727
  28.1557751  34.4044781   0.5786760  28.0045342  35.2858591   0.9200352
  28.7303138  34.5351171  -0.1756912   1.5717907  71.4968729  16.9366765
   2.0599099  70.6744623  16.8965304   1.3345738  71.6792345  16.0274422
  30.0997615  18.3377218  25.9737110  29.4172955  17.6913440  26.1544490
  30.3588128  18.6602533  26.8369031  56.9628859  64.8410416  31.9523287
  57.9196835  64.8624468  31.9347310  56.7150307  65.6194448  32.4512148
  66.1228704  56.2615919  38.0506182  66.5118122  56.0429239  38.8974619
  65.4870939  55.5638981  37.8917432   7.7438367  14.7613767  53.0879779
   6.9168509  15.1455072  53.3791311   8.2015932  15.4802945  52.6522632
   7.2061463  41.6287899  15.4052854   6.3376542  41.2787533  15.2066946
   7.6958962  41.5319538  14.5885897  80.7950579   9.9287995  15.7679808
  80.3989398  10.6975563  15.3576970  80.0511538   9.4154556  16.0831285
   1.1584718   1.0407074   6.0218281   0.4797322   0.5500754   5.5583382
   1.8814857   1.0978754   5.3971571  52.1779966  22.9569340   9.4942689
  51.2892437  22.6405025   9.6562111  52.2756672  23.7071991  10.0806093
  64.2895222  45.4971743  18.6188662  65.1457119  45.9250784  18.6266041
  64.4517088  44.6441650  18.2159984  50.1669741  34.0763497   2.3339869
  49.6225071  33.4569502   1.8480523  51.0031271  33.6239791   2.4455266
  54.3393660  49.3541288   4.3717441  55.0696659  49.2505121   4.9817878
  53.8726282  48.5194445   4.4129074  53.9802647  65.5272007   3.5717192
  53.3751822  65.8115482   4.2567396  53.4317684  65.0456667   2.9524374
  55.1901102  63.0968952  20.0349164  54.8998737  62.9501820  19.1346526
  54.5764112  63.7443590  20.3819084  60.0623954   0.9345225  62.4690409
  59.4759429   1.3026956  63.1299113  60.9409393   1.0845450  62.8181730
  79.6166903  53.2513292  56.8760784  79.0005976  53.3411748  56.1490388
  79.2226082  53.7558277  57.5877042  44.5593561  19.1102937  55.2952726
  44.1259158  18.3836702  55.7429131  45.3350366  18.7168601  54.8955663
  58.2334763  69.0482206  66.2237607  58.3184844  69.0502758  65.2703452
  58.1495339  69.9723287  66.4587308  57.3895836  66.0690117   0.8928175
  58.0907536  65.7957935   1.4843728  57.4184608  67.0255709   0.9128312
  15.9965337  13.0452111  43.7466772  15.5131973  12.8071025  44.5378263
  16.9144977  13.0459502  44.0179308   6.3943692  46.0245466  18.1040978
   6.1260243  46.4408636  17.2850096   6.9785519  45.3165102  17.8327358
  69.9590302  22.7288961  17.1859968  70.0330877  23.5060024  17.7399397
  69.0318632  22.4942684  17.2252321   8.0880757  61.2940788  55.6361008
   8.5135003  62.1098948  55.3721142   8.4376736  61.1130714  56.5085936
  64.2861080  65.9614658  29.0065098  64.3704891  66.6476631  28.3445096
  64.8931646  65.2782536  28.7220120  55.6046356  13.8588241  63.6737140
  54.8137248  14.2496064  64.0451898  56.1364044  13.6251739  64.4345389
  77.2741371  74.9293394  61.8487336  77.3419148  75.0661845  62.7936737
  76.7563921  75.6711311  61.5358241  55.9227514  56.7200994   8.2930827
  55.3742790  57.1805668   8.9282084  56.4114761  56.0839939   8.8153356
   4.5556469  65.0214958   7.8166962   5.1034947  65.3873158   8.5111535
   4.1786404  65.7860136   7.3812580  52.3504686  46.4357042  11.7933714
  53.0240345  46.9831038  11.3897693  52.8081894  45.9694052  12.4928617
  19.7399254  30.6676507   2.5532806  19.7829743  30.0431252   1.8291637
  19.7443696  31.5260649   2.1297994  49.7520638  42.9176855  14.1358280
  50.6270218  43.0275917  14.5081127  49.5825958  43.7397051  13.6756170
   6.8473317  42.2860847  40.3209622   7.7437188  42.5461547  40.5332954
   6.9251753  41.3799651  40.0224336  43.7191343  55.7996035  23.9720988
  44.0852594  55.1193953  23.4068513  42.7979708  55.5588531  24.0707397
  39.5218849  49.5549726   2.3498847  38.9788580  48.8299179   2.0406216
  39.8679185  49.2536926   3.1899562  73.0666351  65.2220249  20.5343175
  72.7196598  66.1075401  20.6424999  73.0065632  64.8329926  21.4068294
  68.5890484  34.0541005   3.6602262  69.1207790  34.8485637   3.7084302
  69.1944122  33.3789587   3.3537105  64.5573693  58.3749933  64.4140648
  64.9026114  59.1496129  63.9702116  64.9065119  58.4330173  65.3034263
  52.9129124  63.1406546  39.8470688  52.9587603  63.0061388  40.7936621
  52.6293564  64.0494823  39.7477555  69.6597862  56.9539261  11.1705315
  70.5713844  56.6629028  11.1477304  69.3336391  56.6536140  12.0188665
  57.5548059  74.6268077  36.3621314  57.7586394  73.7039371  36.5137775
  56.8466288  74.8197718  36.9765265   5.9435857  14.7913364  46.0060032
   5.8624137  15.6911472  46.3222058   5.0765932  14.5800212  45.6597336
  76.4770508  31.0641646  33.7079072  76.8102407  30.2982593  33.2403517
  76.1808491  30.7201934  34.5506287  56.6941309  33.7665939  17.4871969
  57.0357800  34.5734906  17.1019363  57.0384836  33.7630844  18.3803034
   7.0257152  77.4607316  41.3714743   7.9188073  77.1184179  41.4094257
   6.4690102  76.6912368  41.4905882  40.5361713  17.0450118  57.1955492
  40.0920833  16.2124685  57.3564418  41.3376010  16.8031886  56.7313667
  62.3056936  48.8612175   7.5886762  61.6609240  48.6424923   6.9158745
  62.9224873  48.1293392   7.5762689  56.6844749  29.5753837   5.2269030
  56.1948395  29.2186117   5.9679866  57.4789906  29.0431070   5.1862317
  57.1706730  66.6112800  63.6035748  56.5705401  67.2773857  63.2683493
  57.7385265  67.0846887  64.2115675   3.7618949  66.6579027  59.9933554
   3.9493157  67.0720453  59.1509833   4.0441348  65.7500644  59.8819848
  57.4830246   8.0910504   7.1292293  57.0186329   7.2599310   7.2283030
  58.4007502   7.8736031   7.2927135  21.2246062  60.6187172  58.3802332
  20.5572249  60.1538153  58.8849129  21.0576321  61.5443559  58.5578419
  35.8747209  25.6809190  41.6076620  36.1685193  26.5911010  41.6461976
  34.9263109  25.7301000  41.7273458  65.8368587  49.9192333  28.1116891
  66.2210989  50.3097057  28.8966250  66.5175867  50.0041628  27.4441361
   6.1552830   5.1042247  13.4194684   6.9581051   4.9062550  12.9372656
   6.3499089   4.8525739  14.3222558  58.5490036  22.4276853  12.2977006
  57.6792097  22.6651859  11.9763196  58.4990788  21.4837813  12.4486339
  63.1986666  41.4982510   9.5110536  63.4739017  41.5468073  10.4265428
  62.3022699  41.8339634   9.5123190  71.4658798  45.5289176  42.1691592
  70.9944309  44.7955230  42.5642474  71.0450137  45.6538490  41.3185723
  56.7664016  28.7347749  53.9870937  56.0476936  28.1045297  53.9373298
  56.4399017  29.4253305  54.5639475  33.2333434  43.9100173  59.0223761
  33.0114139  44.6668533  59.5647617  32.9409612  43.1552222  59.5332797
  66.9830275  12.6423693   8.7372965  67.6940584  12.2170711   8.2579350
  67.3120642  12.7224147   9.6325958  14.0935917  68.4127283  24.7067523
  13.8277646  68.0023527  23.8838553  14.8847981  68.9036703  24.4849396
   0.3173562  43.3413267  33.4883070   0.7318993  43.6505795  32.6828623
   0.5345746  42.4099112  33.5271263   9.4069500  29.4266319  15.5174208
   8.5524579  29.1865063  15.1590621   9.2415638  30.2275372  16.0148501
  63.7539148  53.1949854  52.8757715  63.4842539  53.9429808  52.3428345
  63.2077217  53.2502556  53.6598969  10.7412453  56.7345762   7.8172535
  11.4624329  57.3639297   7.8226745  11.1667653  55.8835840   7.7124792
  53.5657044  63.3096313  53.5591888  52.8627797  62.9940081  52.9912901
  53.6093445  64.2500591  53.3862066  42.8971481  63.6047935  41.1465645
  41.9605684  63.7697601  41.0377502  43.0555487  63.7314129  42.0820379
   6.6936799  58.7119055  18.1839252   7.4811955  59.2503548  18.2622087
   5.9919091  59.2618561  18.5322142  71.5535021  67.5512886  21.3713861
  71.1303854  67.5479221  22.2299862  71.7262363  68.4757423  21.1931181
  44.3509722  52.0257807  37.5780821  44.8984528  52.7611637  37.8532267
  44.8501444  51.6040993  36.8786240  29.8024333  10.7511237  48.3205243
  29.7708619   9.8003247  48.2145961  30.4064906  11.0480121  47.6399358
  42.4896867   2.4919184  17.1602595  42.8760869   1.6187199  17.0935559
  41.7240007   2.3727186  17.7221787  58.3381796  48.8451147  22.6287818
  57.5142717  48.9959574  22.1654677  58.0732346  48.5146046  23.4871531
  45.7445920   9.8103002  60.2467384  46.6646589   9.7561887  60.5051597
  45.7142032   9.4008973  59.3820436  75.1473236  57.1235991  48.2424974
  75.1366329  56.4264011  47.5867224  74.2515039  57.4607897  48.2482195
  73.5904264  40.2524424  40.5712938  72.7305317  40.0045300  40.9109306
  74.2125702  39.8429465  41.1725283  30.4592820  48.3725023  22.8261733
  29.7014161  48.9221764  22.6268268  31.0442658  48.4905577  22.0777869
  67.9464041   2.1699389  11.1953139  67.6525389   2.0023974  10.2998781
  68.0744302   1.2994250  11.5722084  81.3496780  76.7124748  38.6605859
  81.1706352  77.1635914  37.8355598  81.7157745  75.8681345  38.3973432
  64.5153570  37.9424596  41.9660234  64.1276217  37.5922346  41.1640024
  65.3764009  38.2618332  41.6961432  66.0252190  38.1476855  39.3582511
  65.8729124  37.2428131  39.0857768  66.9660473  38.1912589  39.5290542
  36.9797541  50.8639295  65.7169654  37.3879458  51.2228627  66.5048606
  37.6288153  51.0015495  65.0270285  45.4983056  16.1664680  40.3950508
  45.7217515  15.4184297  40.9488900  44.6043409  16.3946584  40.6499727
   0.4740735  57.6115322   7.7032858   0.4528447  58.5654163   7.7800077
   0.5579682  57.3005533   8.6046666  60.2091455  75.4277372  36.5952325
  59.8553896  74.8005152  35.9646106  59.5585108  76.1291265  36.6261554
  36.3913035  37.1657038  17.6423848  36.4084816  38.1149483  17.7643239
  35.5473542  36.8931913  18.0025506  68.0639219  49.7037172  26.6029716
  68.8840389  49.3790722  26.9747949  68.3310223  50.4075432  26.0117745
  18.4267146   4.0282639  33.1607485  17.7905852   4.6290787  33.5488033
  18.3134086   4.1366013  32.2164726  25.0433184  75.6142492  61.8988349
  25.5315711  75.8251471  61.1029954  25.2411152  76.3333602  62.4988242
   8.9962025  68.7636089  38.0045319   9.0299912  68.8760900  37.0545650
   8.6248322  67.8902435  38.1292486  31.1890101  55.1203108   8.7727463
  30.7520485  54.3001366   9.0021139  31.6414928  55.3829384   9.5743197
  63.8471699  62.5728083  31.1760759  64.6823883  62.2341585  30.8536434
  63.5205507  61.8882751  31.7600012  64.4900990  48.7113905  21.2991166
  64.0547562  48.6545658  20.4485416  65.4172325  48.8192320  21.0869169
  30.6636388  14.2479046  13.6207008  30.8485181  15.0261791  14.1463840
  30.2597100  14.5884236  12.8225017  56.7914963  50.8167791  27.6215434
  57.3838806  51.3429117  27.0844245  57.1584129  50.8688879  28.5040903
  15.9707887  14.3120201  31.5440321  15.4230029  13.7694653  32.1112990
  16.8552692  13.9659222  31.6629624   9.4880594  43.5621837  63.5976564
  10.1546491  43.4117702  64.2679288   8.6808766  43.7079051  64.0910648
  21.2048864  31.0851550  14.0813673  20.7977843  31.5553021  13.3537269
  21.8070221  31.7198873  14.4696724  19.0606219   8.7927635  33.0687833
  18.2973582   9.3007000  32.7937198  19.6120841   9.4219120  33.5338473
   7.2993870  70.6940222  38.9682770   8.0905266  70.3006554  38.6000490
   6.9813939  70.0474453  39.5983958  58.8622236  47.0630360  57.4594498
  59.7221851  46.8294334  57.1099901  58.3298874  46.2780809  57.3302174
  18.7480676  70.3058100   9.8699778  19.4038856  71.0012197   9.8195529
  18.8272238  69.9661207  10.7613671  77.5469780  59.1301537  24.0122747
  76.9425583  58.5222435  24.4381332  78.4077406  58.7247133  24.1168427
   5.0339623  26.8841028  45.5152750   4.9800606  26.2958097  44.7621250
   5.8321400  27.3910856  45.3665447  69.7841263  47.4747801  32.3062348
  68.9495468  47.7480936  31.9254351  70.3512669  47.3163414  31.5515971
  29.9435663  66.8285799  17.9561305  30.3929591  66.9424629  17.1186888
  30.6369400  66.5828037  18.5685515  77.7176094  41.4509106  25.0408363
  78.1728649  42.0219564  24.4220638  76.7980385  41.4994287  24.7795558
  46.1724008  38.9722303  66.5713912  46.2410892  38.4147981  67.3464911
  46.0081065  39.8483279  66.9202379  12.5406397  32.5803807  65.5509272
  13.2679094  33.2008365  65.5024910  12.9243625  31.7412189  65.2963759
  51.6802322   6.5316971  41.1416960  52.1277177   6.5608795  40.2960396
  51.3172924   5.6472977  41.1902237  75.6356287  61.0178041  49.8898792
  76.5841579  60.9959555  50.0165319  75.2798557  60.5944395  50.6711721
  74.0758133  35.8891940   6.7029405  73.3735514  36.3912177   7.1165055
  73.9400578  34.9918866   7.0073104  64.0198768  18.2492307  62.4689560
  63.2435573  18.4471801  61.9451495  64.7534240  18.3750966  61.8670394
  54.9575961  53.5326579  64.4114228  54.1331352  53.9900783  64.5765007
  55.6002487  54.2322257  64.2937945  21.7519023  68.9145560  35.2198918
  22.4892975  69.4224925  34.8815425  21.0158803  69.5264764  35.2120216
  17.5770814   4.5027836  13.5606897  17.1069247   4.2601402  14.3583798
  17.3580272   3.8129242  12.9343247  67.6169395  33.9916945  27.9953504
  66.8001652  33.9763808  27.4964738  67.4251652  34.5458841  28.7518740
   9.0877552  47.9797173  59.9667931   8.8170929  48.7589025  59.4811535
   9.2550393  48.2967710  60.8543348  28.4090675  21.5385011  51.7733784
  28.9109147  20.9825614  52.3694606  27.6681484  20.9948734  51.5055318
  44.1282272  71.8059635  43.6313868  44.5334911  71.0576630  43.1931639
  43.6289644  72.2451639  42.9428577  71.0089064  49.1432285  10.4140806
  71.3507509  48.3662176   9.9717832  70.1471996  48.8767624  10.7345343
  49.8900890  56.9018221  28.8628054  49.0194178  56.5068245  28.8165450
  50.4240513  56.3748837  28.2682896  60.7417583  61.7867804  19.5289183
  61.1627913  62.1023178  18.7292933  60.8788729  60.8395672  19.5140457
  53.1572676  74.7422266   1.0656441  52.7247620  73.9109564   1.2609826
  52.7700281  75.0248098   0.2371373  59.2969227  70.3733444  19.1692817
  58.7357950  70.9905958  19.6387172  58.6896133  69.7373915  18.7911749
  76.2833834  43.7094450  30.6478620  77.0975542  43.2068825  30.6197071
  75.5981588  43.0655813  30.4685855  35.3280473  63.4450769  22.2707891
  35.3379703  63.9481449  21.4565086  36.0928249  63.7571669  22.7544713
  51.7680836  58.8156128  27.1889544  52.4266768  59.1327238  26.5709496
  52.2084904  58.1147289  27.6696157  32.9773211  49.7892094  15.4904079
  33.9250970  49.6796989  15.4132044  32.6288104  48.8988972  15.4444253
  73.6997175  40.8204699  51.1142635  73.1892395  41.6013908  50.9002399
  74.3793964  41.1346149  51.7105675   8.3807679  44.1454840  46.9893885
   8.1313630  44.4924402  47.8459215   9.3312092  44.2536497  46.9546652
  69.8521757  49.5589447  46.3696909  69.1024685  50.1390839  46.2369823
  70.0652122  49.2385721  45.4932117  73.5704184  45.9858656  22.9512787
  74.3425655  46.4917612  22.6981163  73.4645939  46.1620426  23.8861561
  29.6296807  40.1013899  22.4980998  29.1155262  39.5766377  21.8844914
  30.4683705  40.2334166  22.0560646  57.3001003  70.9617519  33.7924314
  57.4337339  71.5693665  34.5198822  57.3644066  70.0936556  34.1905522
  75.0783002   3.8082989  58.2028008  74.2980515   4.3619164  58.1718445
  75.3692042   3.7532814  57.2925377  78.7373018  77.0137453   7.9158568
  78.9236689  76.4196444   8.6428630  77.8247881  77.2720814   8.0455416
  37.9893589  41.4431238  21.6020298  37.2322536  41.2238979  21.0589290
  37.7349949  42.2476387  22.0540094  70.2297592  25.2081180   2.0036526
  70.4284286  24.3917179   2.4621888  69.2953444  25.3478026   2.1572170
  19.2082704  31.1452964  48.4432133  20.1144851  30.8370975  48.4388633
  19.1732467  31.7760375  49.1623600   8.7466259  39.9451113   9.5115876
   9.3136521  39.2222238   9.7801924   8.3201523  39.6314168   8.7141269
   1.4263901   7.0717815  61.6566082   2.2909435   6.7845395  61.3629057
   1.5507015   7.9869512  61.9080861  57.6625395  68.2451296  17.9840147
  56.9619989  68.5599947  17.4127579  57.2062969  67.8416586  18.7224519
  38.9879650  14.7183709  16.4172475  38.5769028  13.9747100  15.9765260
  39.7820562  14.3552880  16.8094461  79.9375629  60.8802271  25.8958244
  80.4146290  60.8166790  25.0684166  79.0806723  61.2302303  25.6519628
  74.3474960  20.3149605  15.2616227  74.8403692  20.7381463  14.5586133
  73.6788464  20.9553981  15.5044734  72.9459238  75.0253153  11.9824326
  72.3448277  75.0675726  11.2387061  73.3186865  75.9051085  12.0394027
  61.2201977  39.5429611  40.5375767  61.0809422  40.2562284  41.1605453
  62.0808315  39.7208714  40.1582527  75.5556154  58.1015539  19.9293065
  75.0337601  58.5174990  19.2430913  75.4391623  58.6655998  20.6938481
  55.4848731   6.5308574  66.3042983  55.3888000   6.8331674  67.2074108
  55.2086318   7.2765163  65.7714555  37.2874314   7.3328407  15.2589977
  36.7085035   6.5719803  15.2126062  36.7065770   8.0631073  15.4724538
  64.8281956  26.9756722  46.2775564  65.7430029  27.1281314  46.0406876
  64.3695784  26.9211674  45.4391479  65.2418804  59.2103052  49.9594545
  66.0015011  59.7525740  50.1719522  65.0005722  59.4735670  49.0713692
  81.1601353  54.9685144  30.3862810  81.6617775  55.4179525  31.0664177
  81.6844082  55.0745153  29.5924711  65.3139687  31.8512082  18.3998883
  66.0547352  32.1970987  18.8977385  65.1880789  30.9660268  18.7417030
  19.5367314  55.0493867  58.1309427  19.4876553  55.6602116  57.3956086
  20.2723815  54.4755740  57.9169710  68.5918509  11.7312058  19.1581857
  68.2146870  10.9804733  19.6168542  69.5181739  11.7183312  19.3989956
  50.3060722  38.7990761   4.0597659  49.5836067  38.2172847   3.8235620
  50.8276510  38.8700223   3.2602954  57.7255201  47.1960402  28.7022805
  58.1141520  47.7717352  28.0436683  58.4065056  46.5491581  28.8867688
  66.0122633  73.4902287  13.1428719  66.0924339  73.6464262  14.0838325
  65.0918913  73.2599592  13.0158699  70.1649857  68.8334942  32.3136306
  70.4657841  69.7335815  32.4385118  69.5091248  68.7029457  32.9984927
  18.9979006  73.5497327  62.6448052  19.9341704  73.7282677  62.7328666
  18.6017825  74.4103379  62.5081091  71.1738443  44.9841785  22.1684694
  72.0137119  45.4408789  22.1207070  71.1800909  44.5604515  23.0267525
  12.1594537   9.3523029  63.0734466  12.6144279   9.8469833  63.7550058
  11.6138161  10.0017694  62.6299249   5.3264924  44.4823074   3.7189695
   4.3698235  44.4509697   3.7126380   5.5958863  43.6544514   3.3210921
  81.1847401  38.2967257  45.4936600  80.9465885  38.7986183  46.2731600
  80.6654167  38.6861229  44.7901678  80.0238514  46.2647200   2.0787202
  79.6722794  46.2577724   1.1884511  80.2602100  47.1788883   2.2357658
  59.0221643  59.0791893  37.0974684  58.9486456  59.8109436  37.7101326
  58.4860563  59.3392324  36.3483381   1.8295689  62.6589060  42.7199268
   1.4345189  62.9147482  41.8864346   2.1398564  61.7652893  42.5736284
  28.2243945  71.0788650  52.4833925  27.4417807  70.5280037  52.4661978
  28.8871981  70.5679007  52.0188005  38.1322098  62.2093821  31.8495321
  38.1063080  63.1548452  31.7023683  37.5825047  62.0719194  32.6209974
  32.0884473   7.2984131  13.0631649  32.4760396   6.6896446  12.4343443
  32.3581369   8.1639584  12.7560437  71.4582062  61.4324760  39.3716049
  71.3021231  62.2958469  38.9889050  70.7928371  60.8705759  38.9743805
  57.5262976  46.9863844   5.8440799  57.3880148  47.4647379   5.0265920
  57.8733397  47.6417398   6.4493060  57.6429898   2.3572739  38.2683206
  58.3689363   2.8492268  37.8846288  56.9322736   2.9946144  38.3383346
  18.6134549  72.0933676  26.3150358  19.1495247  72.8449965  26.0622120
  17.8429146  72.1477699  25.7497597  49.2752171  40.0160742  18.5877752
  49.9541664  39.3514895  18.7043524  49.7585773  40.8285522  18.4378588
  15.8771522  10.1762589  28.7771869  16.5201575  10.6975468  28.2965302
  15.5673654   9.5318135  28.1408191  44.9756384  47.9256439  43.8268423
  45.8873320  47.6796198  43.9834261  44.7634649  47.5324535  42.9803085
  58.8540614  27.3426440  62.3216553  58.2880653  26.7263416  61.8568392
  58.2834876  27.7445749  62.9767375  71.7164946  55.7262564  32.6270819
  72.1419764  55.0852776  33.1965947  70.9130239  55.9624529  33.0906320
  41.8444347  32.1344376  17.4661922  42.3647785  31.5269375  17.9919481
  41.0109615  31.6828966  17.3332810  75.9172010  63.6735249  37.0390034
  75.6554270  63.5431910  36.1275673  76.5946102  64.3486452  36.9994402
  60.9202849  44.8441227   8.3291227  61.6351306  45.2895745   8.7838727
  60.7404911  44.0713413   8.8645828  66.3715935  43.0699587  23.7951684
  66.6598988  43.1387138  24.7053242  66.0056639  43.9313030  23.5941243
  60.4518366  67.8790379   8.7295365  60.0982094  68.2825565   9.5222235
  60.9880733  67.1533346   9.0489614  58.5650886  63.0109362  14.0635705
  58.5886348  63.7806956  14.6320331  58.3365024  62.2883300  14.6482277
  26.9431032  26.3106778  42.9743870  27.7277673  26.3100627  43.5225924
  26.2328161  26.5414718  43.5730989  43.8819373  27.6879075  66.2000560
  43.0030406  27.3367932  66.0569189  44.1191638  27.3891547  67.0779525
  79.0831190  58.0125101  52.9684384  79.5072323  57.1690626  52.8104551
  79.6036154  58.4159274  53.6631127  15.1791115  17.2115314  17.5153947
  14.5100232  16.6009128  17.8247392  14.7052212  18.0291402  17.3631656
   7.7962704  40.2901983  20.4796934   8.1717320  41.1199045  20.1849914
   7.1374436  40.0772667  19.8187602  61.2177420  73.2183886  46.4535379
  61.6744328  73.6997080  45.7636118  60.3490257  73.0459118  46.0904741
  55.6864500  39.9538016  16.1796761  55.0370598  40.2949619  16.7946041
  55.4181099  39.0479159  16.0260570  67.0030022  39.0791798   4.0792191
  66.1082602  39.2638397   3.7936217  66.9366837  38.2507086   4.5540538
  14.8622621  34.0863946  65.6477627  15.5540860  33.4249356  65.6383893
  15.3270210  34.9201015  65.5759314  37.1203685  66.7921066  21.1315608
  36.8157721  66.7674255  20.2244544  37.9258204  67.3083115  21.0997939
  59.6335697  51.4120388  26.7881918  59.4499540  51.8735886  25.9699678
  60.5089569  51.0449791  26.6648889  60.5212164  42.3646355   9.5737767
  60.0002527  41.6805887   9.1531765  60.1231289  42.4717999  10.4376471
  19.9811041  73.2892990   8.1797171  20.6441355  72.8621769   8.7221050
  19.9386048  74.1850758   8.5143954  70.0077868  74.8314905  29.3699265
  70.7184267  75.2885628  28.9201427  69.5431137  75.5201912  29.8453307
  59.3732929  60.9708500   5.1776415  59.6881533  61.8711615   5.2585059
  58.8351011  60.9755230   4.3860883  61.6344894  15.7002023  55.7325073
  61.5683330  15.6470493  54.7790773  61.2937320  16.5682939  55.9482189
   5.7794059  22.7688268  65.3271148   5.0765360  23.4175876  65.3634137
   6.5043295  23.1742051  65.8029144  56.6216230  25.1409554  43.5550785
  57.5691795  25.2656198  43.6082506  56.5138435  24.3397713  43.0425215
  38.3168996  20.0135711  48.3538325  37.6194633  20.6663802  48.4143038
  39.0183080  20.3606847  48.9049836  66.1008549  43.5231781  48.1866980
  65.6961870  44.1914320  47.6336050  67.0338297  43.5727739  47.9785252
  63.3214998  60.7085800  13.4803045  63.8103628  61.1507559  12.7862394
  62.8362989  61.4096069  13.9154792  74.2010069  67.9533052  27.1674824
  73.8649940  67.8039265  26.2837315  74.8664379  67.2759438  27.2883868
  52.1517671   2.5884584  66.4513853  53.0518401   2.7271989  66.1566818
  51.9193614   1.7239431  66.1125106   9.6545714  75.4315615  24.3183231
   9.2560935  74.9600077  23.5868287  10.0742102  76.1907864  23.9137149
  66.0400486  44.8309660  50.9376097  66.0828352  44.4370317  50.0662756
  65.6692934  45.7008839  50.7892227  63.3903980  68.0484915  52.1791315
  62.8481960  67.3019552  51.9243050  63.4179401  68.0092621  53.1351280
  53.7883806  57.3600388  19.3723524  52.8710365  57.4212456  19.1059685
  54.2687845  57.8207922  18.6844921  67.6824509  21.7799099  63.4101009
  66.8405496  21.3403519  63.5293674  68.0951916  21.3136872  62.6831102
  55.2449322  57.0352221   1.6387531  55.5918455  56.6606855   0.8290563
  55.0388813  56.2764025   2.1846162  80.7870483  52.7664852  35.1898026
  80.5225372  53.1315660  36.0341859  81.7355347  52.8920937  35.1611042
  38.5158021   1.6096361  43.6210489  37.6510770   1.4870556  44.0127659
  38.3497579   2.1214255  42.8293848  36.3853093  69.5426512  23.6499047
  36.4608689  68.8486338  24.3047810  37.2603341  69.6072245  23.2672930
  77.0105219  35.8291888  22.7419281  76.1814213  35.6442332  23.1830835
  77.6448441  35.9210062  23.4528685  45.6853199  73.5880756  48.2709074
  46.5683413  73.4391785  47.9327726  45.1287413  73.0086613  47.7505875
  13.6832352  74.6270037   8.9630556  13.8691540  74.9235678   8.0721486
  14.5457860  74.5032978   9.3592107  65.2097797  41.3590813  32.2056365
  65.7660055  40.8156347  32.7637696  64.3541718  40.9306526  32.2303963
  72.2251844  58.9376068  32.3687744  73.0530405  59.1575241  31.9415450
  71.7080212  58.5126591  31.6845274  32.4409253  10.4487045  58.1116819
  33.0384786   9.7515972  57.8411055  32.8924997  10.8840187  58.8347387
  62.9081488  58.4523296  50.8454323  62.6870728  58.8904285  51.6672754
  63.7375736  58.8485241  50.5783892  47.4076980  20.7951217   2.3837153
  47.8279299  20.0678067   2.8426806  46.5085834  20.7980542   2.7120797
  72.3643494  72.0687103  53.3092880  72.5306129  72.4006939  54.1915464
  71.8371487  71.2813950  53.4450436  78.1095934  49.8698235  37.9814720
  77.9899931  49.7802639  37.0360065  78.4578371  49.0228844  38.2601309
  16.8649495  41.8888953  49.1672404  16.2868226  42.0890907  48.4310873
  17.0952571  40.9675935  49.0472479  62.5785685  61.1682844  28.6155891
  62.5507545  62.0902777  28.8713074  62.3827505  60.6902218  29.4214082
  33.2558651  55.8296871  26.3671732  32.3815938  55.6797314  26.0074425
  33.1229992  55.8603382  27.3146105  26.9644321  16.1068443  46.4960440
  26.9769157  15.5138066  45.7447894  27.8777755  16.3702825  46.6084369
  31.3717229   0.0954827  32.5566769  31.0932023   0.9551151  32.8724170
  32.0364148   0.2871474  31.8950987  72.4081802  31.6117954  15.7780302
  72.1486616  31.6287422  14.8568380  72.8921652  32.4277139  15.9055674
  60.3771114  42.1168947  38.7185025  60.1046991  41.7484903  39.5589209
  59.5865250  42.0938635  38.1793547  23.3473451   2.8838261   7.7593923
  22.8713376   2.8149040   6.9318074  23.0243118   2.1507366   8.2832778
  52.4463129  70.5167150  51.5377855  52.7239895  71.0087729  52.3104477
  51.5220833  70.7413244  51.4301729  21.6870029  19.7081478   8.4165365
  21.0686452  19.7462757   9.1462040  22.5118835  19.4317826   8.8158232
   5.4894187  23.3637638  55.0199564   5.2018334  23.5342426  55.9168752
   4.7286917  23.5776181  54.4797810  21.9865669  62.9421036  18.3854640
  22.6323713  63.1878440  17.7230573  21.9998468  63.6650328  19.0127027
  73.7495333  15.9312243  59.2253401  73.0866438  15.2410145  59.2457952
  74.0371853  16.0140605  60.1345290  68.2821458  77.3026824  41.7709970
  67.9435163  77.9186274  41.1212492  68.2106083  76.4463428  41.3493395
  64.0604353  37.2763681  16.5727687  65.0070429  37.4178576  16.5606177
  63.9290762  36.5911198  17.2280622  12.6996768  64.8900275   3.4619436
  11.8536008  64.6794335   3.0669272  13.2289375  65.2169148   2.7344418
  17.4031366  68.7462709   0.4067691  17.1706546  68.8095109  -0.5196138
  16.7364038  69.2649380   0.8569750   6.2970044  11.9792838  41.8420608
   6.1591746  11.0541005  42.0452054   5.4994608  12.4126334  42.1459706
  27.2093643  64.4732014  15.1236463  27.7126230  64.5360104  14.3118477
  27.7607358  63.9523916  15.7075775  30.3317512  72.2198002  16.8458080
  29.5336259  72.0435707  16.3476443  30.0942529  72.9378546  17.4325120
  25.9067702  24.2634368   0.7739541  25.1246667  24.5914435   1.2177514
  26.6075206  24.3635821   1.4182788  14.0360403  13.3497655  46.2583113
  13.6409748  12.5297105  45.9622288  13.5286880  13.5943127  47.0322752
  60.8943230  52.8341682  59.6800180  61.0175472  53.7777956  59.7830506
  61.7428952  52.4553449  59.9094768  45.6715250  27.2037482   8.2366586
  44.7411633  27.0307565   8.3806401  45.7324219  27.4288583   7.3083007
  33.0081952  60.1003603  11.4184535  33.5049117  60.5836479  12.0787120
  32.2859824  59.7032527  11.9052184  17.5401898  13.4426904  39.8518372
  17.3241826  13.2429874  38.9409637  18.3794613  13.0069268  40.0000381
  54.8232204  23.7766023  55.1796182  53.9450127  23.9426119  54.8369463
  54.7704679  22.8993149  55.5588479  24.3500926  77.0605559  65.9878107
  25.0754286  76.4580865  65.8230396  23.5865285  76.6255898  65.6083329
  22.0767034  19.2044346   2.4034020  22.3633874  18.9090959   1.5392151
  21.1228574  19.1284124   2.3782462  53.8735437   2.7701405  36.8127060
  54.3777180   2.0547251  36.4251280  54.0561676   2.7112618  37.7504778
  54.1602755  26.7067862  16.2783122  53.9724302  27.2767758  17.0240068
  54.4642162  25.8891487  16.6724145  70.3760910  34.7850060   8.1907403
  70.5312347  34.1716599   7.4724317  71.0772419  34.6032810   8.8165170
  70.8886582  36.3311444  37.5740488  70.6483322  35.6960131  36.8994506
  71.8077904  36.5318185  37.3975213  26.1370017  63.7304182  51.3916870
  26.4350344  63.4846945  52.2674890  25.5784918  64.4945807  51.5343745
  76.0207558  15.8211803  13.1940365  75.3228378  16.0803246  12.5923860
  76.2627602  16.6310680  13.6432028  72.9194975  12.3646605  25.4233861
  72.1680212  12.1684361  25.9828615  72.5542116  12.8786385  24.7032309
  63.2192386  72.3683799  53.6541510  62.6450218  72.6182602  52.9302216
  62.6227439  72.0729039  54.3419838  15.5410172  55.0812085  61.9192912
  15.7484128  54.6750040  61.0777344  14.7053935  54.6902640  62.1744873
  30.6551994   5.4132178  48.2271870  31.4288390   4.8506549  48.2623382
  30.3319038   5.3201583  47.3310550   9.3489779  62.2745399  11.5080965
   8.9328159  61.5042714  11.8950427   8.6752380  62.9535870  11.5427327
  24.9773515  15.0984100  53.5616680  25.2381242  14.4730380  54.2377861
  25.0540984  15.9538558  53.9842267  58.9040565  24.8807144   6.8828696
  58.1631517  25.0660300   7.4598891  59.4594479  24.2878318   7.3890930
  42.5025988  10.1866162   0.8006272  42.1873522  10.4128182  -0.0744079
  42.2146130   9.2833972   0.9328905   0.4510422  15.6160021   3.8212410
   0.0986405  15.1912355   4.6033025  -0.2609996  16.1755216   3.5111383
  78.6390162   9.7594750   1.6178142  79.2774248   9.4332254   2.2520277
  78.0435610  10.3020298   2.1348214  34.6896006  74.3031950  66.1679822
  35.6264617  74.1164536  66.1074741  34.4899108  74.2267461  67.1009937
  70.1322275  55.3292139  65.2028284  69.8815209  54.4300444  65.4146592
  70.4664856  55.6849606  66.0262044  54.3714094  32.4045587   7.4361724
  53.7649870  32.6279974   8.1422627  55.1606989  32.1018052   7.8851622
  80.5066162  68.6541266  62.1394272  80.5687767  68.4302158  61.2108632
  81.1176973  68.0571432  62.5711890   7.1954133  52.0974238  42.6247318
   6.9223239  52.3656566  43.5020597   6.8514325  51.2094374  42.5278314
  49.7185898  18.3906603   4.7793826  50.6667089  18.4227514   4.9069360
  49.4779110  17.4902618   4.9975324  48.1200279   4.9544194  51.4130040
  48.7782157   5.3510860  50.8423217  48.2903112   4.0141204  51.3575597
  13.3700574  29.9102596  46.0722669  12.5593961  29.8737004  45.5646022
  13.0904163  30.1626208  46.9522365  23.0826974  37.5199890  34.2279124
  23.4730220  37.5818372  33.3561015  22.5162530  38.2889414  34.2918277
  31.6898632  14.3735623  37.4448299  31.4937925  14.4575524  38.3779621
  31.9439149  13.4572506  37.3349977  17.6147677  63.5483522  42.5535257
  18.0660512  62.7120705  42.4386032  17.3713328  63.8130350  41.6664441
  50.6335097  59.1762252  48.4528609  50.5681020  58.2387645  48.2708724
  49.8326355  59.5483441  48.0835898  39.4419778  71.1168836  26.4628124
  39.7297729  71.9022022  25.9973240  39.6689475  70.3946088  25.8771205
   2.2922350  34.7672273  50.1373048   3.1926848  34.7057436  50.4561098
   1.9956042  33.8589035  50.0808223  48.8081360  14.9889958  14.0347314
  49.0600443  15.9120512  14.0619528  47.8958511  14.9981368  13.7450969
  47.2849989   9.4582635   8.9553970  46.4386129   9.8341107   9.1974729
  47.1969986   8.5250914   9.1495043  69.6267319  54.5941925  27.1838188
  69.0926790  54.2927408  27.9187679  68.9921999  54.8233891  26.5048003
  71.5665251  70.0586290  35.0990732  71.0491997  69.2625184  34.9773725
  71.3288504  70.6144996  34.3569477  42.8321218   2.9215634  13.2041097
  43.4725618   2.3075320  13.5633278  43.1166744   3.0635548  12.3012805
  27.7979972  75.3852577  63.5322441  27.8523566  76.2088485  63.0474986
  28.6610438  74.9858518  63.4233694  16.8078734  65.5664082  62.6602556
  17.1502139  65.5330653  61.7669900  17.5784422  65.7218261  63.2064261
  61.6377497  20.5847120  26.0312653  61.4035320  20.3143978  26.9191289
  60.8012342  20.6404614  25.5693483  73.1005859   5.7829982  11.5466392
  73.1507635   4.8348311  11.4254248  73.5955620   5.9484065  12.3490536
  68.2488441  16.0907280   3.7231410  67.9310656  16.9259286   4.0661985
  67.9872847  15.4464960   4.3810037  53.7214285  63.9088721  64.9889724
  52.8619462  64.1615505  64.6518132  53.5678798  63.7123890  65.9131205
  80.3081076  18.1297210  57.9054018  80.0337379  17.5256398  57.2154458
  81.0041540  18.6505941  57.5048502  31.9877768  21.5937233  26.1701441
  31.6629267  21.0601449  25.4448843  31.8379569  22.4964261  25.8892322
  68.3610821  54.4143772   5.9394175  69.0159988  53.8209820   5.5717313
  68.2435131  55.0867701   5.2683741  79.7835295  68.6187146  15.4540062
  80.0645058  68.7302117  16.3622200  80.5847519  68.7233595  14.9408531
  64.5881510   2.5221685  10.3484440  64.9618196   2.3819520   9.4784200
  64.0499640   3.3081061  10.2541435  44.4393826  15.6357753  20.5315685
  44.9153948  15.3406978  19.7553134  44.2584181  16.5607178  20.3643417
  43.4555721  23.8689494  19.4631064  43.9828396  23.4158039  20.1210451
  44.0360880  24.5461965  19.1158760  52.8962326  20.2068067   0.3602119
  53.5359478  19.5282304   0.5759308  53.4223461  20.9911537   0.2045347
  12.0965786  34.5763969  22.3947477  11.9969578  33.7831640  22.9211378
  11.3098355  34.6028447  21.8501687  66.4639902  49.1116762   1.7163864
  66.5673780  48.1911802   1.4750719  65.7832718  49.1078663   2.3893194
  54.5464897   1.8407591   1.7994267  53.9599419   2.1501166   2.4897084
  54.1619349   1.0128123   1.5115863  68.1001520  23.1896615   0.6718076
  67.9011345  23.5125279  -0.2070443  67.7220583  23.8444042   1.2588260
  52.8210020  27.2661281   1.4215085  53.2361984  28.0802274   1.1367527
  53.1564045  27.1230197   2.3065260   2.4232318  68.9430423  63.9763884
   2.4573733  67.9876585  64.0244241   2.5767876  69.1420598  63.0527847
  10.5826069  57.1848042  58.3115591  10.2649905  56.6527445  57.5819929
   9.7880103  57.4840732  58.7534739  12.9739774  66.9160084  22.8056073
  12.6023281  66.0418729  22.9239249  12.7861274  67.1345977  21.8928289
  64.3390417  22.5862169   6.3888681  64.2458677  21.8208051   5.8216846
  63.9288950  22.3247647   7.2132796  50.1278413  76.4174214  23.3264565
  50.3912557  75.5504337  23.0179453  50.2634395  76.9913435  22.5724936
  63.2859195   0.6850365  53.0208714  63.0857719   0.5606869  52.0931263
  62.7600444   0.0233296  53.4701283   2.3865069   2.3141530  59.2534711
   2.7989639   2.1842054  58.3995254   2.1266139   1.4354375  59.5301344
  77.4592447  16.5182352  18.5554790  77.7930832  15.8379400  17.9706860
  78.2223701  17.0621979  18.7503600  81.7083126  63.5386581  50.9718962
  81.0425383  63.1570835  50.3997250  82.4530941  62.9411812  50.9044118
  74.9403272   4.8091313  26.1682940  75.3345726   5.6813419  26.1611390
  74.9476103   4.5505479  27.0898747  20.2171589  63.1023927  64.0433799
  19.2780568  63.0926366  64.2283775  20.6094386  62.6181145  64.7698951
  75.6793308  36.6630435  30.8007598  76.2252665  35.9872270  30.3989458
  75.1233006  36.1865759  31.4172363   2.1272923  63.9804239  65.0574547
   1.2637259  63.8414044  65.4462467   2.3233248  63.1577845  64.6090484
  68.7412958  68.6002646  18.7593007  68.8850503  69.2389033  18.0609405
  68.1509297  69.0417949  19.3698335  58.6398655  51.3611491  59.2963846
  59.5068604  51.7235942  59.1142221  58.7947327  50.4263611  59.4320943
  68.2554007   3.2460234  28.8308191  67.7625036   3.5151756  29.6059585
  67.9233837   2.3715606  28.6275697   0.4195805  30.1680446  13.2888210
   0.4922791  30.8358860  13.9706814   0.5140324  30.6520796  12.4684417
  25.6205190  64.8831145   8.8452280  25.0064243  65.5680696   8.5807312
  25.0681032  64.1220371   9.0236431  51.6620445  30.1071477  16.7765510
  51.8361282  30.4842973  15.9141779  51.2817430  30.8267355  17.2803330
   3.5870625  45.8223541  62.8538428   3.3227612  45.5331339  61.9805004
   3.4735896  45.0492526  63.4067168  36.1559701  61.7284107  29.4366384
  37.0101571  61.7457628  29.0050220  36.2645030  62.2886658  30.2051234
   8.7562396  62.9240246  44.9256213   8.9650895  62.0822830  45.3306993
   7.8102662  62.8929515  44.7828086   0.8398177  44.2134894  55.8537658
   1.0276724  44.9454577  56.4412733   0.7135989  44.6205909  54.9966951
  64.5938855  74.0902777  55.1802702  64.2353111  73.6959381  54.3851908
  65.5131799  74.2564125  54.9716278  30.4995322  28.6285663   1.1808653
  30.6662130  29.2477942   0.4702278  30.2029204  29.1741300   1.9092965
  35.2256419  40.7080388   3.6660274  34.5525481  40.3257726   3.1029590
  36.0529353  40.4280752   3.2743056  54.0569019  43.9946413  13.4099519
  54.4360065  43.1341648  13.5891008  54.3617439  44.2119694  12.5290024
  27.6412786  12.5179532  47.6756127  28.2689346  11.8302921  47.8978820
  27.6376212  13.0948833  48.4393974  59.7173548  17.1570063   4.4506606
  60.6600523  16.9920874   4.4317755  59.5797539  17.8362238   3.7903869
  48.1169891  59.2017603  17.4330282  48.7440300  59.6143675  16.8390560
  48.3191872  59.5743036  18.2912564   0.3890730  30.0156189  66.4372090
   0.5634381  30.9161545  66.7108241   0.9883906  29.4853981  66.9624854
   1.5275062  12.8678134  59.5660515   2.0376409  12.4054197  58.9010795
   1.0799182  13.5631421  59.0839525   8.4290136  56.7572443   9.6755171
   7.5977219  57.0906488   9.3378383   8.9867581  56.6766183   8.9017922
   2.1655633  60.3613181  62.0258363   1.9933774  60.2871079  62.9644935
   1.5232636  60.9989328  61.7141797  23.0807889  63.6288409  15.9803259
  22.1849502  63.9139263  15.8002281  23.4483636  63.4349744  15.1180422
  46.1588907  26.2880898  11.1434400  46.1021662  26.5139031  10.2149880
  47.0910454  26.1326408  11.2956059  61.2025785  22.0791483  21.7478085
  61.0224009  22.9976439  21.5474772  60.3495836  21.6490507  21.6874504
  42.7496875   9.9124530  62.7104859  43.6392797   9.5628122  62.7616115
  42.4528755   9.6841672  61.8295665   2.2916856  15.8700907   0.5701342
   3.0941480  15.6338215   1.0353895   1.7864795  16.3767040   1.2060123
  10.1035763  34.1284762  60.5729051  10.1492716  33.5180784  59.8369982
  10.3899075  33.6148949  61.3282080   8.4166791  74.6484370  46.6554339
   7.4779870  74.4785233  46.5765746   8.8270928  73.7949629  46.5162333
  44.8967552  54.2475796  17.4299359  44.4274330  55.0702620  17.2914958
  44.2983723  53.7158585  17.9547632  67.1761668  63.2623736  12.9132009
  67.8225768  63.1399898  13.6084759  67.3635257  64.1330997  12.5625360
  36.7729820  59.9975912  42.6214170  36.9642938  59.1348283  42.2536278
  35.8331550  60.1142303  42.4822760  28.0950475  38.9877748   0.3400737
  27.4943709  39.2932129   1.0198728  28.7959528  39.6395779   0.3292910
  51.6760635  11.4829099  26.9297433  51.2531090  11.8864191  27.6877141
  52.0021534  12.2217453  26.4159155   7.2314860  65.2178712  63.9690013
   7.4748828  66.0376091  64.3991392   6.2742926  65.2211804  63.9713402
  72.4378257  51.8900220  11.1226189  73.3043652  51.4839141  11.1022067
  72.0096510  51.5810577  10.3242207  72.4907261  60.2520795  61.9412680
  71.9156080  59.7710032  61.3462587  73.3470207  59.8380656  61.8336429
  75.1303053  53.0970335  25.0901651  74.3256426  53.6002302  25.2148390
  75.8238125  53.6688852  25.4192019  49.7459316  28.2339215  16.6058171
  50.5677557  28.6569166  16.8546438  49.3045712  28.8763070  16.0501444
  82.1629143  29.2583942  19.8745310  81.3530064  29.6851420  20.1541209
  81.9665146  28.3224010  19.9142647  25.9566760  32.6663756  37.6974869
  25.1010990  32.4650431  37.3184276  25.9874177  32.1536827  38.5052180
   5.3712953  67.1044747  21.4123297   6.2454332  67.1167652  21.0225081
   5.4087580  67.7637957  22.1052408  19.5013262  55.9641941  35.0092371
  20.0802733  55.3009064  35.3848680  19.4039656  55.7058210  34.0927251
   8.9696766  66.0034056  44.1567286   9.0522315  66.9194169  44.4219382
   9.7560336  65.5818791  44.5034106  59.3121624  10.2651310  39.5073152
  59.0018034   9.6303231  40.1530170  60.0747204  10.6719255  39.9187207
   9.6853293  69.5969192   9.6126932   9.1050351  70.2960042   9.9139780
   9.1237248  69.0311472   9.0828502  54.8351222  62.9653187  37.8686650
  54.2478329  63.2422705  38.5719569  55.1416021  62.0998735  38.1394203
  18.3567645  73.8571234  58.3029784  17.5880791  73.8596220  58.8733675
  18.6017777  74.7793264  58.2271935  60.2536227  65.8869286  62.6024328
  59.6198298  66.5202112  62.9393174  59.7601058  65.0700493  62.5290243
  15.5551895   2.2605613  53.3817311  16.3025936   2.0974687  52.8063901
  14.8046383   1.9046548  52.9060872  46.8683290  44.3835735   1.6882947
  47.7443552  44.4183731   1.3041027  46.3386011  43.9256287   1.0356804
  57.1267414  35.5664134   1.7352869  56.7673206  34.7554517   1.3755772
  57.8959465  35.7477546   1.1952224  55.4404068  68.2635593  52.7241802
  56.0523653  67.5916100  53.0245543  55.2912569  68.8129139  53.4937239
  28.8118900  11.0766366  51.3156720  29.5882715  11.0113767  51.8717344
  29.1518606  11.0234025  50.4224642   4.7064419  36.4774370  29.7824073
   4.4210740  36.2934089  30.6773543   5.5969258  36.8148375  29.8795652
  55.4500151  67.6833630  29.7114706  56.2682104  67.7396727  30.2050400
  55.2159309  66.7556953  29.7408557  61.2029134  14.4405468  19.5201671
  61.2045299  13.8453205  18.7705433  60.4216992  14.9796112  19.3962848
  21.4156164  13.0027011  57.5504525  21.5691484  13.2926610  58.4496661
  22.2703374  13.0762294  57.1258547  51.6953135  25.5554914  10.3314674
  52.0645761  26.4305902  10.4501116  50.9720945  25.6819463   9.7173029
  61.2778915   9.4710258  54.6788867  61.0733665  10.1904967  55.2761848
  61.7485488   8.8369992  55.2199276  17.0451857  73.9143653  49.0600284
  17.1444155  73.7481375  48.1226094  16.9854952  73.0434628  49.4527085
  37.1712160   5.0106633   3.5236865  37.6652813   4.4491562   2.9263246
  37.0892930   5.8427072   3.0576146  52.1031475  20.2846909   4.2045033
  51.3883066  20.7958889   3.8251504  51.8949556  20.2375174   5.1375961
  59.8398590  41.0548353   3.5630694  60.0651407  40.3542948   2.9509264
  59.2462969  40.6426954   4.1908067  10.9713669  49.8406935  19.3910336
  11.8055840  49.9787903  18.9424253  10.6449910  50.7231903  19.5668364
  58.4998971  63.6012239  64.9022472  58.6279708  63.2330604  64.0280129
  59.0328842  63.0496187  65.4748646  37.5835002  29.2288354  51.1917634
  38.4855283  29.0675739  50.9150477  37.6129115  29.1758302  52.1470411
  65.5554069  12.8621438  46.6999228  65.4069961  12.6071933  45.7893165
  65.8632816  13.7670043  46.6481717  65.2179670  56.6027546  11.6932440
  65.4100084  57.4891233  11.3871419  65.7061005  56.0330439  11.0987794
  42.4457706  58.0830912   6.7943913  42.3552240  57.5240008   7.5660461
  41.7892040  57.7529721   6.1810631  41.5660693  47.1721346  66.8961902
  41.8164565  46.4809079  66.2832116  42.3378398  47.7357997  66.9498361
  38.7129708   0.4942447  16.0294640  39.5969220   0.3504047  15.6915748
  38.2723256   0.9942128  15.3423703  49.7565556  62.4176550  11.8863451
  50.5770350  62.4758768  11.3967979  49.0752888  62.4274635  11.2140274
  46.3102496  15.3551772  54.5782407  46.2549222  14.7855571  53.8109704
  46.4958490  14.7606090  55.3050657  69.7376633  45.6993484  26.6716456
  68.8228321  45.8978987  26.8713832  70.1432371  46.5548897  26.5309763
  46.0352135  51.0859394  12.8688681  46.3941526  51.9535351  12.6826596
  46.2337112  50.5716228  12.0863676   1.0590668  32.9766893  19.5547318
   0.3239460  33.4594679  19.9325573   0.6505032  32.2626066  19.0654552
  55.4108196  64.8278184  50.3538831  54.7692639  65.5379910  50.3709968
  54.8915750  64.0397758  50.1938696  76.5623951  42.8278303  11.1803699
  76.6839886  43.5384130  10.5506718  76.9957876  42.0749044  10.7784939
  43.2699823  64.4003963  19.1905236  43.5938120  64.0541220  20.0220633
  42.3220634  64.2738104  19.2312551  10.7159306  67.9243822  47.5458820
  10.4333140  67.0134492  47.4648865  10.8497216  68.0510325  48.4851857
   7.5900485  56.8569465  51.9180079   7.1993806  56.6232355  52.7600213
   7.9607131  57.7280505  52.0594938  56.7614616   6.0196403  55.5499835
  56.4319480   5.7354644  56.4025648  57.1924842   6.8558982  55.7264038
  47.0094980  25.4969695  54.0036555  46.2523473  25.0401405  53.6372419
  46.6555131  26.3247541  54.3287678  74.0893370  61.3824553  65.3106235
  74.3843800  62.1322293  64.7938864  73.2893664  61.6868205  65.7391588
  47.5341511  10.0736880  13.1259322  48.4623480   9.8879153  12.9839146
  47.3516035   9.7278094  13.9995897  54.5724010  64.7502947   0.3349603
  53.8346577  65.2194500   0.7246512  55.3203917  65.3344727   0.4593990
  41.1193514  37.7090979  16.6815770  41.8886280  37.5359678  16.1389232
  40.3888893  37.7258110  16.0632098  62.9437637  33.6656976  13.3230865
  63.6228895  33.4455252  13.9606905  63.1528950  33.1320214  12.5564814
  55.1167679  35.3521442  14.4570768  55.7398033  34.6651459  14.2202377
  54.9793768  35.8409834  13.6456645  32.1008517  73.6753721  58.0412974
  31.6276385  72.9052134  58.3561810  32.7797629  73.8249297  58.6992897
  64.7721434  25.8490372  48.8634920  64.8056889  26.0831714  47.9359770
  65.0507450  26.6423225  49.3209982  49.0575183  73.7772326   8.9363891
  48.3114589  74.0157516   8.3861715  48.6951125  73.7222559   9.8206246
  67.3191547  31.3486791   9.4762290  67.0022202  32.2170401   9.2277628
  67.8893852  31.5079927  10.2283514  14.2235095   3.9813622  29.5908880
  14.0952499   3.1775482  30.0945497  13.6249644   4.6124657  29.9904871
  40.5199935  57.8654404  50.3876944  40.4915740  58.8209815  50.3390499
  40.6904151  57.5848098  49.4885631  59.5486265  70.7432313  52.4563022
  58.9223033  71.2578363  52.9653545  60.1729709  71.3875670  52.1227463
   0.5214001  38.4099956  63.0331208   0.5145861  37.9365632  63.8650145
   1.3648964  38.8623478  63.0218740  42.6632500  47.2135735   6.7776370
  42.9115438  47.4248314   7.6776105  42.8039789  46.2695122   6.7056793
   9.5523949  65.6279373   9.5773101   8.6829205  65.6487322   9.1775519
   9.8102208  64.7067833   9.5421183  68.5363388  23.0531096  13.6188436
  67.9040146  22.3602867  13.8096297  68.0365181  23.8646173  13.7075472
   1.8299027  48.4075165   1.9784188   1.9671746  49.3501806   1.8847415
   2.7126046  48.0408907   2.0298751  77.2947741  33.3616781   6.1003399
  76.9616604  32.5236106   6.4211363  77.3649454  33.9072132   6.8837303
  14.4235064  56.3449771  58.3842488  15.0705649  56.8395872  58.8871469
  13.6296345  56.8781872  58.4253867  48.6958456  55.2757120  22.8996825
  49.1594839  54.9371052  22.1337748  48.7047195  56.2258911  22.7843142
  10.7633139  55.4304202  33.6760767  11.6141583  55.8589621  33.5830791
  10.2016093  55.8725197  33.0394681  70.4576635  54.3573141   3.3555228
  70.0774956  55.2347851   3.3973765  71.3210773  54.4888020   2.9637834
  74.7070932  17.5752044  17.1122134  75.5131435  17.4383819  16.6144192
  74.0679979  16.9959974  16.6971171  38.6527848  60.2672863   5.7811868
  38.3272266  59.5096493   5.2951473  39.5090318  60.4501200   5.3943497
   3.0443211  10.3016901  20.6693530   2.8656788  10.5871117  21.5653753
   3.9459248   9.9812776  20.6953073  66.8008900  74.7705269  53.5062313
  66.4445591  75.5626202  53.1039286  66.9059944  74.1584349  52.7778578
  28.8210130  28.7166047  11.7757654  29.2892170  28.5210872  12.5874233
  29.5121479  28.8792324  11.1338007  18.0362791   9.7684960   3.7635963
  18.5123104   9.6323686   2.9443948  17.4973816  10.5428319   3.6016337
  64.6636915  47.8233242   7.0867181  64.6074867  47.0293999   6.5549695
  64.7189140  48.5351849   6.4491910  67.1264839  17.5870490  18.3880055
  66.3381243  18.0040431  18.0403841  67.6908684  17.4675214  17.6241899
  76.4845085  18.1184828  14.7118402  75.8750629  18.7949777  15.0070763
  77.2776508  18.2697654  15.2259159  43.2047761   1.1211613  34.2479690
  42.7680600   1.2608674  35.0882013  42.5029338   1.1830524  33.6000355
  12.5291074  16.8591312  42.7508266  11.7585600  17.3927310  42.9451378
  13.1971896  17.1721461  43.3606799  43.0722774  15.5390123  45.7245262
  43.6416591  14.8292640  45.4273875  42.2513593  15.4013303  45.2519091
  62.3714429  58.3069940  30.3965052  62.2284013  57.6688809  29.6975167
  63.1734353  58.0131741  30.8286055  63.5713339  58.2825089   6.9191289
  62.6365757  58.3342886   6.7196763  63.6950874  57.3960781   7.2584748
  63.1431437  21.1532617  10.4414165  62.3574209  21.0423207  10.9767330
  62.8812408  21.7681313   9.7561604  78.9373064  42.9949045   6.0663438
  79.0784979  42.1185064   5.7082623  79.1553020  43.5860443   5.3457433
  73.1281525  43.1457676  66.7993087  73.4875303  42.7782695  65.9918279
  72.3473602  42.6205884  66.9747481  77.0308018  45.2349949   9.8842424
  77.9684162  45.4274893   9.8764312  76.6133642  46.0833311  10.0335717
  74.9680185  11.6590476   4.9140254  74.4165945  11.2074852   5.5529755
  74.3564224  11.9675684   4.2454436   8.5025479  72.7374907  56.4760526
   8.7070061  72.2793980  57.2912701   7.8495385  73.3912201  56.7259498
   2.7194615  15.1624000  29.2444658   1.7655201  15.1265132  29.3147373
   2.8984185  16.0142434  28.8462543  18.5196515  32.1664548   4.6503788
  19.0234585  31.8029785   3.9221632  19.1413613  32.7256680   5.1162022
  55.8879805  54.0380383   2.3103932  55.1621771  54.3485975   2.8516832
  56.6212988  53.9519310   2.9195398  30.3279711  74.3424005  48.5912354
  29.6954657  74.6025081  49.2609461  30.1082064  74.8819942  47.8317793
  66.2319851  33.6851358   5.3922540  66.8240261  33.7790036   4.6459901
  65.3556299  33.7312913   5.0100231  21.7662503  37.9130054  56.9667705
  21.7681100  38.7402476  56.4852114  21.0103585  37.9773602  57.5504811
  68.9904022  34.7001767  18.8456869  68.4933949  34.1238022  19.4262111
  68.9451313  35.5594087  19.2650962  44.4377101  19.5609048  60.6788261
  43.5835899  19.3924144  61.0767205  44.7581638  20.3459457  61.1229511
  76.8972731  33.8286328   3.2797182  77.2231340  33.6708736   4.1658092
  77.6768637  33.7830997   2.7261835  53.7133659   0.6233266  63.4553497
  52.7837623   0.7942608  63.6064874  54.0965141   0.5907562  64.3319170
  33.5244681  68.3722038  65.1446641  33.7356688  69.2915697  64.9822185
  33.7738539  68.2267995  66.0572955  10.3734376  46.7928256  57.8984286
   9.8603894  46.1928583  57.3570837   9.8534896  46.9010223  58.6947842
  19.2620456  54.1094828  24.5503879  18.5618651  54.5312929  25.0484443
  18.8286078  53.3917999  24.0885496  42.9207182  23.8326931   5.0598681
  42.1337557  24.2501760   4.7096840  43.5848522  24.5218158   5.0436085
  32.9143454  69.2867155  59.9259247  32.8526713  68.4552331  60.3960999
  33.5679843  69.7890372  60.4123993  66.5660954  56.0543060  30.7040024
  66.3433647  55.1252794  30.7634187  66.3275623  56.3011217  29.8104596
  55.8061171  59.2810917   3.0497736  56.1529732  58.5165501   2.5899929
  54.8630571  59.2498970   2.8888345  69.0465498  76.3869667  14.6101904
  69.9055004  75.9756613  14.7064447  68.8451099  76.3055277  13.6779773
  63.5523181  41.3391593  58.2954057  63.9560699  40.5035165  58.5297640
  64.0101885  41.6117290  57.5002386  73.0507755  69.4028521   9.0585589
  73.8442278  69.7588348   9.4584918  72.4743557  69.2122316   9.7985810
  24.4687535  72.2958274  65.6161499  23.7880780  72.8709717  65.2666976
  24.1377045  71.4111896  65.4610644   3.6429656  29.1356519  65.6995356
   3.3600868  28.9980653  66.6035715   4.0735877  28.3162215  65.4559693
  70.8548355  52.5838566  24.5815682  70.8429098  53.0374527  23.7387514
  69.9832010  52.1955204  24.6569204  51.4176143  13.0455354  66.1972417
  51.2282861  12.5076249  65.4284494  52.0124400  12.5108388  66.7230854
  51.4738369  48.3699989   5.7765538  51.3973951  48.2349920   4.8320115
  51.0363913  47.6114130   6.1631072  22.4127127  76.2666149  59.1000845
  21.9591786  75.5623097  59.5632149  22.9963090  75.8152862  58.4902068
  70.0158119  32.9009175  21.4482069  69.0749264  32.7318573  21.4969873
  70.1674557  33.1499887  20.5365062  13.6010577  73.4218330  63.8318794
  13.3992316  74.1760702  64.3856187  13.9469887  73.8029427  63.0248366
  54.4921684  37.4884725  16.0398459  54.5578861  36.6179228  15.6473446
  53.5552740  37.6126742  16.1916053  49.0907634   9.6944812  65.6256880
  48.9108432  10.2966121  66.3476977  49.8179830  10.0986245  65.1523392
  15.0928612  44.6424532  31.5607619  14.7623654  44.2349577  30.7601666
  15.2816124  43.9069605  32.1435618  70.1932192  41.7077255   8.0700088
  70.5648708  42.5739193   7.9032278  70.8269167  41.0982847   7.6915431
  63.6957359  71.9309902  16.3140297  62.8962183  71.8729591  16.8371284
  64.2790508  72.4883461  16.8291402   9.6284123  16.6312242  14.9169946
  10.2465554  16.9880736  14.2791998   9.2335721  15.8803654  14.4736636
  71.0176229  40.2097654  14.2871249  70.8016205  39.6696615  13.5269523
  70.8274126  41.1049843  14.0067053  79.5708656   8.0037767   9.2701203
  79.6259737   8.7319225   9.8889893  80.3488922   7.4763334   9.4509614
  57.1105766  11.0986900  23.6527658  57.5497913  11.1644268  22.8048253
  57.6884127  11.5629160  24.2584324  16.9371201  56.4769037  49.8872538
  16.2912537  56.0516639  49.3231066  17.7323128  56.5134711  49.3556936
  22.2427012  50.6854207  37.2054084  22.1156909  51.5924664  37.4835570
  22.0955445  50.7020552  36.2597330  73.9887571  38.7560987  30.0429082
  74.6825552  38.1044984  30.1443887  73.6618996  38.8982677  30.9312654
  60.6713260   4.2275527  45.2563818  61.3660587   4.4513944  45.8756359
  60.9704364   4.5863536  44.4209011  22.1846063   7.0453556  44.0766764
  22.7280719   7.1775063  43.2998800  22.1772058   6.0968693  44.2052889
  64.3433332  26.5734196  11.2166238  64.1077185  26.8776321  10.3401685
  64.1753197  27.3254991  11.7844093  10.4958458  28.1547403  22.8696799
   9.8450299  27.5754786  22.4732995  11.2344094  27.5810623  23.0737877
   5.1611825  44.8258114  20.5267549   4.2874070  44.6550179  20.1752186
   5.6633778  45.1434708  19.7763383  77.2600304   1.4039334  37.4619317
  77.5509059   1.3227280  38.3702421  77.9438626   1.9215019  37.0368123
  63.7198019  75.4572105  40.0297070  64.2449713  74.8777533  40.5816698
  63.7022924  76.2885761  40.5037880  32.0501947  16.6010678  14.2732990
  32.7052093  17.1628916  13.8591254  32.4879670  16.2563944  15.0516236
   3.0422135  50.1958466  35.9973097   2.1340390  50.0737572  36.2739992
   3.5261841  49.5074320  36.4534807  57.2829300  76.0152979  57.5115575
  58.1904632  75.7841415  57.3136087  56.9359475  76.3521953  56.6855212
  80.5099106  75.9398174  12.8608429  79.6522045  75.8932161  13.2832205
  80.9121037  76.7298079  13.2219315  63.2391787  55.4065895  26.4819574
  62.4568415  55.6526232  25.9883475  63.0936575  55.7669973  27.3566914
  35.4340148  73.3554935   8.3959377  35.2687335  74.1961527   8.8227904
  34.8694801  73.3642578   7.6229846  33.7873961  67.9493732  50.1364632
  33.8648535  68.6180396  50.8169909  34.4427134  68.1951613  49.4834860
  78.5740466  25.7063341  61.2604141  78.2185887  26.5821457  61.1092997
  77.8956191  25.1134515  60.9372139  55.7718234  55.0070672  18.7031381
  56.1277012  55.4077916  19.4962327  55.4446249  55.7446580  18.1882112
   5.5546819   6.7825802  23.8061047   5.8464586   6.0234841  23.3012557
   6.1554658   6.8205746  24.5503163  47.3552517  70.5032587  66.4814472
  46.7901449  69.9368572  65.9560204  47.2917037  71.3610458  66.0614491
  51.6988049  33.5092502  12.2772090  50.7458226  33.5625415  12.2049872
  51.8600215  33.3507209  13.2073228  80.7958130  71.1146688  63.5820103
  80.9764221  70.3123426  63.0922270  79.8411687  71.1845493  63.5835981
  58.0947114  50.2520947   8.1812922  58.9737187  50.5372815   8.4307878
  57.6378240  50.1285558   9.0132920  69.4716583  24.9484782   7.9829804
  69.3073069  25.8863692   7.8850715  70.3676318  24.8957734   8.3156793
  46.9847046   7.3820882  -0.1816924  46.9399516   6.4270215  -0.2272494
  47.3196159   7.5645642   0.6962411  37.1294009  33.0877693  58.6359930
  37.2327899  32.7070530  59.5081139  37.9090893  33.6302384  58.5174942
  77.0584763  59.8869753  52.8041029  76.1856560  59.5024538  52.8851032
  77.6545684  59.1852760  53.0658770  73.6892675  16.2674050   7.9892795
  73.3302461  16.7508035   8.7333648  73.0740999  16.4351468   7.2753732
   6.4709646  57.9300308  46.2510395   5.7122880  57.7466583  45.6969500
   6.1976707  58.6691618  46.7943859  59.1676931  71.3307858  45.9427643
  58.3037166  71.0811138  46.2705421  58.9931516  71.7409801  45.0957060
   2.0512709  66.2550163  44.2469120   2.9636493  66.4322758  44.4757700
   1.6672948  67.1203756  44.1056824   2.9775351  56.6893964  23.6556546
   2.1862120  57.1416669  23.3632676   3.6872715  57.1111207  23.1712358
  39.1772519  23.4125714  21.4620511  38.3494662  22.9601436  21.6242711
  39.7674201  22.7271657  21.1487500  35.8633517  13.6529927  20.7777612
  36.1470209  13.4465461  21.6683499  36.5949617  13.3802133  20.2240674
  11.8733966  76.6842699  42.0793533  11.6685367  77.5072098  42.5232363
  12.5182033  76.2606144  42.6458979  78.5995720  41.7947011  37.5758569
  78.5651897  41.1181359  36.8996064  79.5088242  41.7884069  37.8749387
  65.3772651   0.3278788  63.5050726  65.6439459   0.7140549  64.3393278
  65.7011472  -0.5720464  63.5433006  74.7418772   6.4527710  37.0846677
  74.7204577   7.1869858  36.4708996  75.2908551   5.7970722  36.6546631
  21.5120862   9.4641309   5.6042687  20.5851434   9.4347434   5.8412187
  21.5613554  10.1224141   4.9111096  43.9841341  59.2208072  44.3261067
  43.8399553  59.8806187  43.6478059  44.4369697  59.6915790  45.0257794
  50.8485727  39.6368270  15.2599160  50.9325661  40.3788333  15.8587567
  49.9065317  39.5540099  15.1118199  19.5193470  50.3102636  59.7681141
  19.4096398  49.7992325  58.9662123  18.8736355  51.0130215  59.6945000
  24.1657186  75.4984093  47.2989416  24.6269131  76.3274002  47.4266243
  24.8241186  74.8276567  47.4801350  62.0851366  36.4579110  21.1800687
  61.9651268  35.5795341  20.8191316  61.4596604  36.5073304  21.9029538
  63.2230060  10.7886510   5.7032697  62.8781377  10.8134036   6.5958421
  63.4129684  11.7032723   5.4944436  24.9336433  20.4197502  30.5373240
  25.0769639  19.5241249  30.2314711  24.3454504  20.8036733  29.8870444
  25.3278670  74.7346541  56.4827745  26.1706244  74.8857471  56.9107453
  25.4497471  75.0619075  55.5915467  80.6125377  38.7850480  13.9214627
  80.2273057  39.2266088  14.6783273  80.9560154  37.9635148  14.2726628
  76.6698883  30.7178073  10.2846782  76.9000529  30.6907992   9.3559567
  76.3672660  29.8314719  10.4823176   6.1956686  76.7379951  49.6821213
   5.8603442  77.5762844  50.0000191   5.5112404  76.4124393  49.0974808
  73.3226172   7.2113903  47.7642012  74.2004648   7.5854119  47.6885653
  73.1371442   6.8578156  46.8942451  69.2060677   9.7870072  42.5955296
  69.8843328   9.1171177  42.5093365  68.4284273   9.3927105  42.2005177
  65.1626961  73.3796406  47.6288652  65.7196633  74.1440487  47.4815464
  64.2902462  73.7441301  47.7778912  80.8976476  48.5750628  62.4464130
  80.6557511  49.1669798  63.1586981  80.9680276  49.1413116  61.6778803
   3.3905384  65.8454323  29.6156526   3.5315284  65.2984858  28.8428664
   4.2706573  66.1004448  29.8924065  25.4551530  63.5696268  36.0997105
  24.8612571  63.3322287  35.3875589  26.1371279  64.0928125  35.6785011
  16.0943353  61.7963314   3.0056307  15.6192958  62.1735764   3.7460729
  15.5369306  61.9737959   2.2479779  56.2719404  72.8309604  12.6237695
  55.3513347  72.7999231  12.3634784  56.4966571  71.9210669  12.8182666
  77.5342692  58.1993294  31.8044543  77.5265024  57.3350525  31.3931227
  77.7325649  58.0249357  32.7245069   5.1446724  23.2131410  35.9022713
   5.7920712  23.5959148  35.3101659   5.2601415  23.6901426  36.7240810
  28.1832925  58.5544297   2.3001735  27.5039501  59.1877124   2.5318591
  28.9945946  59.0623853   2.3010842  56.2030940  63.2087326  12.5211179
  57.1378974  63.0384111  12.6367199  56.1682777  64.0232706  12.0195723
  66.2766222  38.7117147  48.0572510  66.2644462  39.4160223  48.7053537
  65.3810887  38.3737206  48.0539894  25.1059871   6.4024742  52.1046162
  26.0332122   6.5104016  52.3163605  25.0745129   5.6152733  51.5609694
  24.3374014  54.7603846  49.3186760  23.9784241  54.6476603  50.1988220
  25.1601005  54.2712593  49.3310928  10.7427227  22.2482657  32.1231461
  10.8174086  23.0666494  32.6139617  11.5986919  22.1383548  31.7090583
  11.1359823  48.2863522  31.4825201  11.5153885  47.4435282  31.2336493
  11.4954889  48.4635258  32.3517704   5.6644410   9.5912415  20.9535646
   5.7698673   9.6076292  21.9047999   6.5368545   9.7881675  20.6124663
  64.3558232  10.9315419  49.9829817  65.0159292  11.5834057  50.2187061
  64.5302073  10.1925051  50.5657768  34.3607140  43.5324669  35.7555604
  34.6934724  44.1869211  35.1413989  33.4139848  43.6732674  35.7659459
  27.8525006  71.2726900   8.0588595  28.7982842  71.3583204   7.9388921
  27.6718830  71.7360899   8.8767068  74.7446827  50.6494236  41.3764715
  74.5768653  49.7283030  41.1774778  73.9149187  51.0894060  41.1916971
  32.5412679  30.9533525  51.2010288  33.2100344  30.7722020  51.8614578
  33.0327940  31.0687470  50.3878117  17.8435624  26.9928288  25.2113342
  17.3143792  27.3506665  24.4984889  17.3686612  27.2341251  26.0066175
  31.7790204  52.9877242   1.4893405  32.3713654  53.6819121   1.2004392
  31.4244979  52.6225921   0.6786458  10.5335879  22.3339367  40.9623337
  11.0135067  21.5134454  40.8496189   9.6274900  22.1129489  40.7469654
  10.0226676  31.7236090  11.3168120  10.9386623  31.5673447  11.0871005
   9.8669088  32.6360512  11.0730457  13.2655656  53.5618687  49.5963955
  12.7277422  54.2730331  49.2482328  12.7061045  52.7874422  49.5372486
  68.1346564  44.6068716  52.6298094  68.0672912  43.6549330  52.5556183
  67.5672774  44.9419737  51.9355345  20.0711656  52.5503111  51.4965153
  20.1597929  51.7152452  51.9559002  20.5376554  52.4201632  50.6708717
   5.9371936  74.5604679   3.8008849   6.6601240  74.1534707   4.2783324
   5.3665935  74.9119803   4.4843213  20.5799246  53.8042212  19.4132936
  20.3806615  54.2500830  20.2365398  20.2093673  54.3720007  18.7376130
  13.2459402  59.1723824  17.9129028  14.1838944  59.0401030  18.0506539
  13.1590629  59.3067408  16.9691694  68.9300804  52.7604389  32.9370236
  69.3174963  53.6239386  33.0802441  68.0420868  52.8353930  33.2864237
  36.6244841  62.0197964  58.6031437  35.7563519  62.2050285  58.9612865
  36.4666486  61.8308592  57.6781416  68.7250642  34.4281030  12.0880830
  67.9425315  34.5512366  11.5507627  68.8034980  35.2412963  12.5868809
  47.0202803  32.3559764  60.2221508  47.7020966  31.7508605  60.5140324
  47.4939244  33.0407718  59.7499819  47.3486762  35.5615807  52.6191521
  46.8984775  34.7571063  52.3615170  48.1036667  35.6118059  52.0328951
  51.9615058  52.8861475  42.0103502  52.0009117  53.0452204  42.9534149
  51.6668157  51.9787598  41.9326210  66.5789095   7.0598992  20.6826782
  65.6684223   7.1710022  20.9563661  67.0358816   6.7840203  21.4772177
  12.8749418  70.5561113  16.5262544  13.5669637  69.9138641  16.6839135
  12.1544373  70.0459337  16.1563587  57.7051620  56.3820505  35.6749153
  56.9610219  55.7874012  35.5807161  58.2892518  55.9391546  36.2904763
  71.3399975  61.4033604   3.7476283  72.1689890  60.9827375   3.5194141
  71.5901963  62.1363592   4.3100753  66.7889505  25.6599334  59.5899089
  66.2435501  24.9405435  59.9080981  66.3485747  25.9609512  58.7951191
   1.1004622  64.1203022  29.4428205   1.6746780  64.8830891  29.5111418
   0.4119805  64.3923759  28.8360262  43.7796102  36.8723779  11.3367240
  43.1950591  36.4410739  11.9600265  43.3639882  36.7366557  10.4852120
   0.3923886  20.7767585  51.1476584   0.6878226  19.8844770  50.9665819
  -0.2057321  20.6851438  51.8893381  52.0569257  65.7959747  39.7847748
  51.6400938  66.2404919  39.0466094  51.6135888  66.1470032  40.5570841
  34.5705841  36.5014987   2.6628606  34.0857314  36.7538028   1.8770520
  33.9031123  36.1556821   3.2554166  78.0441049  16.1303382   7.5832526
  77.2436383  16.0447984   7.0654027  78.2438901  15.2375083   7.8646342
  34.4154357   9.0717324  12.8357327  34.4425302   9.1981514  13.7841606
  33.6674916   9.5939644  12.5457633   6.7633337  61.5799570  30.9115505
   7.6392382  61.8701363  31.1661482   6.8937010  60.6947517  30.5714774
  76.1677073  71.8948030  52.9310465  76.2305574  71.0875273  53.4415245
  76.7137126  72.5214958  53.4057760  10.8037388  32.6119900  62.7973270
  10.0747895  32.7957535  63.3898592  11.1497128  31.7712379  63.0967760
   0.6173558  66.7517042  55.0335121  -0.0127952  66.0837603  54.7633410
   0.2600012  67.5707912  54.6905518  12.0289385  71.0560179  35.2826548
  12.0314956  70.9163809  34.3356991  12.2356200  71.9846392  35.3883815
  67.1380059  69.3516350  59.1540384  67.8422718  69.9887562  59.0343857
  67.5801353  68.5613012  59.4640875  23.7460571  68.5691497   4.8306815
  23.5255560  68.7710664   3.9213721  22.9830199  68.8570878   5.3317754
  70.1578896  39.5445037  43.6691189  70.6154959  39.7638726  44.4807243
  69.6133117  40.3102684  43.4867096  36.8239878  22.7787309   0.6524007
  36.2607084  23.4061151   1.1055438  37.3448907  23.3136182   0.0534122
   4.2464492  34.6535850  32.5157166   5.1228642  34.3112469  32.6915979
   3.9780542  35.0596142  33.3399343   8.5658634  24.9561167  29.8296666
   9.3369985  24.6404815  29.3585443   8.8581991  25.7624960  30.2545452
  16.5259718  59.4642517   5.2078931  15.8568572  59.4794938   4.5235745
  16.5063726  60.3452274   5.5817000   7.4869937  72.6934195  25.0372362
   6.7501724  73.3043385  25.0269842   7.4624336  72.3031855  25.9109354
  62.2060530  51.7924309  16.3761377  62.6057570  51.7087650  17.2418559
  61.3311367  51.4180565  16.4790869  41.9026279  39.0268016  24.2129588
  40.9900475  39.1525817  23.9529514  42.3750019  38.9236355  23.3868504
  80.8751935  67.0450258  12.6602745  80.8044325  66.7703962  11.7460513
  80.6258887  66.2697172  13.1632423  64.0534250  46.9460964  25.3599405
  64.0488688  46.0080576  25.5504608  64.7566871  47.2979307  25.9057093
   8.1751525  65.8033037  28.1260824   8.9954400  65.7716799  27.6337814
   7.5269639  65.4179859  27.5364947  57.3573150  68.8998323   1.2313382
  57.3314379  69.2761235   2.1110932  57.2131364  69.6448140   0.6478564
  60.9114413  69.0080070  42.8192472  60.3956346  69.6524239  42.3345757
  60.2694468  68.3653736  43.1210613  79.7305024  64.1034126  46.4312315
  79.0019573  64.6991014  46.2562752  80.4575358  64.4572687  45.9189415
  23.7717867  65.7238913  21.0655856  24.0073824  65.1664400  21.8071890
  22.8817368  65.4555368  20.8374810  77.2498281  60.4920769  62.5404215
  77.2670545  61.4412498  62.4179220  76.9074611  60.3710556  63.4260654
   9.6199292  73.2664299  34.6014619   8.9676452  72.6204634  34.8725414
   9.2735797  73.6288881  33.7860489  68.1901382  36.2204461   0.2628915
  69.0266786  35.8367209   0.5259244  67.6734410  36.2435823   1.0683219
  26.3063884  56.8385649  22.7117562  26.4384985  57.1373606  21.8120360
  26.4397979  55.8915567  22.6716590  72.9926924  37.9326701   8.5702056
  73.5640578  37.6939726   9.3001348  73.4797083  38.6059403   8.0950671
  45.7148182   2.2455939  31.8768096  45.3748225   2.4452742  32.7490258
  46.4547407   2.8425892  31.7657113  19.4814372  55.1149845  51.6467810
  19.6010864  54.1732502  51.5241051  18.5615277  55.2695274  51.4320421
  26.6703981  32.0231061  31.4645402  26.2317842  31.3281350  31.9553296
  27.5036425  32.1479087  31.9187943  71.9909100  26.2969565  40.3501272
  71.1483781  26.4617038  40.7734823  71.8484466  26.5325856  39.4333839
  21.0970556   7.2977074  10.2550519  21.5382545   7.9194649  10.8338392
  20.2811634   7.0857914  10.7085323  11.9864810  59.4619560   2.2478299
  11.1207020  59.0669012   2.1449262  11.8219709  60.2811861   2.7147627
  76.1518763  39.2310767   4.8782126  76.6355561  39.6508937   4.1668479
  76.1482738  38.3016067   4.6495168  66.6185914  38.2075839  15.7473390
  66.5170871  39.1590695  15.7228963  67.5635754  38.0690770  15.8110063
  43.8968711  14.1697696  66.7980568  43.5747855  14.5566085  67.6122099
  43.1165510  14.0781072  66.2513129  32.2355413   0.9184797   6.4521611
  32.4239861   1.5865620   5.7930797  32.9686134   0.9733303   7.0652097
   6.0916990  19.0525937  19.2846668   5.6105524  19.7281134  18.8067508
   5.7873201  18.2281137  18.9054346  20.6301785  63.2266378  58.7243652
  20.6167436  63.4739304  59.6489716  20.3800392  64.0249681  58.2592535
  33.9802003  16.7412865  25.9824109  33.0474257  16.5304053  26.0235786
  34.4131756  15.8935976  25.8814788   8.4926069  39.4234324  23.2991099
   8.2555610  40.2013636  23.8039494   8.1313854  39.5843434  22.4274135
  47.3652057  52.4744229   2.1728818  48.0271588  53.1365972   2.3718278
  46.6138796  52.9748921   1.8546454  42.0818495   5.0236519  25.7717252
  42.2740554   5.7173260  25.1407671  42.8882229   4.5097931  25.8157849
  20.9471965  29.5580482  35.2756906  20.1076269  29.3764114  34.8533630
  20.9174013  30.4937196  35.4753566  34.8232066  10.2942856  24.4968390
  34.6634924   9.4028385  24.8067546  34.7159737  10.2405174  23.5471845
  72.9397480  55.5220079  51.8877316  73.8164840  55.3907490  51.5267086
  73.0242269  55.2895689  52.8124285  12.1016311   4.2780789  56.9220066
  12.5331020   4.1603192  57.7682877  12.6857614   3.8528927  56.2941217
  77.1741570  48.0358458  41.3005686  77.5117223  47.5408602  40.5540609
  77.0523523  47.3802614  41.9872999  48.7762110  54.3604856   9.9769942
  48.9188801  55.0256543   9.3036286  49.3105392  53.6174302   9.6966521
  55.5651049  39.9589801  46.4764977  56.4367775  40.0355577  46.8645144
  55.7009487  39.4418812  45.6825304  37.3384476  73.6587191  52.8694963
  36.7581272  74.2737818  53.3179951  38.1884718  74.0985823  52.8549623
  19.1152018  16.8647297  54.8607063  19.5781475  17.5803097  54.4249821
  19.5264899  16.0705574  54.5195866  10.3889370  60.1310301  40.0368452
  10.7577753  60.5701828  39.2704654   9.8669809  59.4151115  39.6745467
  81.3893937  46.5970230  16.9015932  81.1047469  47.0957899  16.1357987
  80.9890731  47.0491695  17.6442516   9.4459832  34.8727512  47.8891182
   9.9382341  35.1168919  48.6729002   8.7473309  34.3039799  48.2125616
  49.7034602  61.7906713  -0.1793578  50.5161600  62.1286964   0.1967946
  49.5573835  60.9599876   0.2732488   6.4281964  63.1016588   6.5013552
   5.9937388  62.3592949   6.9213223   5.8513671  63.8457537   6.6740406
  78.0956246  57.9158783  39.1135263  77.2592811  58.1102228  38.6904526
  77.9190452  57.1425295  39.6492386  75.2081124  56.5554190  15.6756806
  75.4761223  56.0314894  16.4305961  74.9076949  55.9130192  15.0327981
  53.3406603  -0.3205911  30.3766203  53.1226718   0.4918726  30.8333635
  54.2023551  -0.1562492  29.9935985  69.1766350  69.4368267  40.9611988
  68.8975720  68.9499807  40.1857376  69.4383590  68.7612677  41.5867805
  77.4967448   7.2617364  13.2739723  76.9842218   7.7529061  12.6318634
  76.8578438   6.6972882  13.7092137  34.5620894  58.1835938  10.1990449
  35.0928521  58.7321377   9.6214437  33.8893294  58.7739134  10.5383825
  38.0282199   4.6265515  45.8892965  38.9173388   4.9540528  45.7534885
  38.0808675   3.6949833  45.6756353  55.2162294  60.0867891  22.0369005
  55.4946093  60.2168274  22.9434466  54.8906545  60.9436178  21.7610765
  66.6657011  51.4610434  43.6016417  65.9209792  51.0246515  44.0153837
  67.3000686  51.5748119  44.3093634  34.5719147  44.9464989   6.9665664
  34.0830731  44.2428780   6.5397328  34.6086502  45.6439066   6.3119638
   0.2186810  75.7499692   8.0939071   0.1789796  76.1784503   7.2388856
  -0.0339044  76.4324066   8.7157647  19.6783280  18.0400765  39.1078115
  19.6274006  17.9569316  38.1555915  19.2643869  17.2436070  39.4402599
   6.6066301  48.0094194  57.5791836   6.2278700  47.6044941  58.3594418
   7.3556811  48.5069847  57.9071808   8.6028499   4.2471604   1.9716899
   8.5586018   4.1680198   2.9245822   7.6890129   4.3100505   1.6938798
  23.3672738  67.5027466  62.7810287  23.6222148  68.3997536  62.9969215
  23.9109087  67.2741127  62.0270920  19.8297215  76.6320229  34.4377589
  20.5645680  76.4315987  33.8580513  19.0729427  76.2272549  34.0138674
  63.0310468  41.9404745  39.7736835  62.7613751  42.3226213  40.6088305
  62.2398011  41.9587135  39.2353272  20.0068771   6.7455967  29.7709394
  19.9270742   7.5259026  30.3195572  20.9481018   6.5760716  29.7310829
   9.8891562  45.8622646  62.1501398   9.0715349  45.8360243  61.6531086
   9.9313313  45.0115776  62.5869274  22.3119783  62.9814100  44.7078848
  22.3915553  62.7548409  43.7812948  21.4789009  62.5952148  44.9781942
  52.7841746  16.6948803  28.6812091  51.8841325  16.8816956  28.4142733
  52.7502834  15.8046444  29.0313148   0.2474863  38.4500146  38.3216023
   0.7384034  38.0614448  39.0456510   0.5496866  37.9770303  37.5462365
  80.0820497  52.7739096  48.8598156  79.3041695  52.9825115  48.3424950
  80.8010051  53.2011366  48.3941841  72.2589861  73.0002546  41.6797447
  71.9440643  73.7139606  41.1250591  72.7797900  72.4524212  41.0924864
  63.4696452  42.0039749  45.7853746  63.4778397  41.8097591  44.8481178
  63.8314430  42.8878069  45.8500004  77.8481610  56.0775232  41.0378361
  77.6499678  56.2533808  41.9576359  78.7974931  56.1815834  40.9732485
   7.3057282  48.4195995  33.5974312   6.6560918  48.9337969  34.0768123
   8.0918002  48.9657879  33.5985851   0.6314449  49.3023443  43.2853079
   0.1897792  48.5250425  42.9433012   0.4827409  49.9744415  42.6201677
   5.5729353  32.0079017  63.3159781   5.3410667  31.4044595  62.6100540
   5.8725268  32.7982521  62.8667259  50.0772487  67.0664117   4.0780894
  49.9680411  67.6355311   4.8399322  49.7499572  67.5848123   3.3429877
  76.9891345  23.5739716  27.4730420  76.9971024  23.5444554  26.5163302
  76.9096410  24.5044049  27.6833057  67.1500985  56.8342829  47.7461863
  67.1789698  56.5182352  48.6492443  67.8883557  57.4400234  47.6807022
  31.7209077  41.0963488  20.5571890  32.5307059  41.4427328  20.9319878
  31.9655395  40.8172703  19.6748614  27.0068431  57.1046305   0.1276318
  26.9614434  57.6068830  -0.6859507  27.3361969  57.7274942   0.7755543
  16.8671775  55.1735258  21.2012053  16.7337704  55.2209568  20.2545357
  16.1443412  54.6319389  21.5181065  24.6531510  51.1034918  24.7475147
  23.7219071  50.9926748  24.9391723  25.0132799  50.2175856  24.7889018
  16.0841513  53.7465811  48.8296175  15.7969785  53.2454538  48.0663109
  15.3132546  53.7833977  49.3958282  23.4040459  31.3762100  21.5647125
  23.1410822  30.4658135  21.6998243  24.1698074  31.4903839  22.1275687
   0.2614606  68.7077618  46.6121674   0.7095121  69.5298338  46.8113756
   0.4239627  68.5663128  45.6795311  63.7231623  34.0855460   4.4941918
  63.5593276  34.9985700   4.7303693  63.2003210  33.9448123   3.7048451
  73.8337170   5.2317150  50.2108097  73.5818516   6.0254296  49.7387743
  74.1598212   5.5475243  51.0535145  67.9032825  43.7546544  13.5649793
  67.4641608  44.4767861  13.1156175  68.7710498  44.0976625  13.7784116
  32.4702393   2.5004156  29.2513084  32.4964415   3.1578549  28.5560966
  31.9522660   1.7840870  28.8841486  14.9670684  49.0405512  44.2664623
  15.4587555  49.8366976  44.4680357  15.6379974  48.3681536  44.1482925
  77.1244533  27.8227782  33.8823032  77.7538471  27.1016121  33.8785052
  76.5876995  27.6681399  34.6596146  40.0556612  61.3818455  39.7821927
  40.5722761  61.8051338  39.0965056  39.9149776  62.0682812  40.4342985
  27.9879904  64.4249868  48.0202150  27.2169042  63.9664841  47.6864004
  27.6500201  65.2625036  48.3373499   2.2727495  50.2461147  53.9442682
   2.6439053  49.3651867  53.9936304   1.4749976  50.1997805  54.4712210
  19.0832901  30.3004003  11.0860062  18.2779396  30.1358271  11.5764725
  19.3090641  31.2071443  11.2935519  23.5334444  26.7404699  64.0586948
  24.4382906  26.5993690  64.3372202  23.0048013  26.3968587  64.7789049
  79.1415419  58.0607653  10.0283253  79.5224885  57.1846056  10.0870991
  78.6679359  58.0607128   9.1965032   6.4817458  54.9522018  41.5046930
   6.7297262  54.0618992  41.2555027   5.7954514  54.8347092  42.1615267
  35.4344171  60.1958510   8.1506125  34.6505307  60.7437417   8.1109969
  36.1551338  60.7943603   7.9541747  71.6377436   7.2979553  37.7071714
  70.9797417   7.1521672  38.3868861  72.2132432   6.5351494  37.7633858
  34.5191382  32.5021796   0.1910035  34.6199416  31.5803580   0.4283015
  35.3797959  32.7599959  -0.1391967  25.7050575  46.4285091  19.5416276
  26.4597140  46.5686259  20.1135461  25.8618436  47.0039049  18.7929170
  66.1728363  48.0893183  44.0001678  67.0375757  47.7019644  44.1358614
  65.9601395  48.4999418  44.8382473  23.8538893  26.9526108  35.6523180
  24.3798523  27.5461109  35.1162720  23.8497107  27.3546036  36.5210009
  71.0580973  39.6077466  46.3445139  71.6577355  39.7295117  47.0806074
  70.6493418  38.7575388  46.5066814  69.3310439   7.3572071  39.3519473
  68.6269843   7.3225792  39.9995065  70.0008237   7.9091652  39.7556376
  61.7460017  29.0451198   5.0323646  61.7432313  29.7723298   5.6547753
  62.3304407  28.3964019   5.4245727   0.8682299  46.4625549  57.3091841
   0.2630388  46.3727665  58.0453348   0.7289070  47.3548794  56.9920492
   1.1733781  37.2001529  41.0048103   0.3160405  36.7744708  41.0046339
   1.7305002  36.6164494  41.5197229   1.2257098  24.8806667  19.6890998
   0.7177335  25.6916213  19.7124636   1.7944267  24.9762130  18.9251208
  71.5469126  55.2737427  49.5694733  72.0248274  55.2405787  50.3981638
  71.8590109  56.0727978  49.1448069  25.4938054  46.4969540  60.6454897
  25.5053091  46.0645914  61.4994001  25.7863951  47.3903942  60.8254385
  41.0758053   3.3387383  30.9601402  41.6529309   3.5720738  31.6872668
  40.6532597   2.5269755  31.2407184  81.0771134  37.3682261  27.4792910
  81.7417198  37.4842978  26.8002796  80.3412296  37.9070187  27.1887612
  71.7487363  36.9626760  24.8400736  71.9687216  36.0609841  25.0741434
  70.9683661  37.1609211  25.3577185  30.4055047  72.0486498  61.0880709
  30.6361341  72.5518608  61.8689823  29.4681764  72.2036839  60.9714127
   5.3818107  50.7594061   9.3026763   4.8751926  50.0737906   8.8673574
   4.7929624  51.1019754   9.9750876  37.7575421  62.4426746  62.8937244
  38.0113602  62.7205563  63.7738323  37.5994492  63.2597542  62.4208450
   4.1574240  38.3607483  26.1427474   4.7921681  38.9124012  26.5999269
   4.6062312  38.0934954  25.3406382   6.8667817  58.8266706  24.1369724
   6.4733928  58.4203148  24.9092102   6.2369251  58.6655331  23.4344435
  47.7381086  74.0721369   4.3736452  48.5507107  74.4803953   4.0749216
  47.8067827  73.1622648   4.0844274  62.9433643   8.2918938  58.3115959
  63.8618075   8.4389218  58.0855942  62.5835954   7.8227909  57.5587654
  42.5360823  51.9880581  13.9178944  42.4533463  51.9595242  14.8710859
  43.4736633  52.1017122  13.7621546   4.8376721  49.1504097  52.0755148
   5.3274310  49.2713499  52.8889894   4.9587691  49.9715185  51.5987062
  14.5152259  42.0757055  17.5923634  15.0556958  41.6740370  16.9120812
  14.8668289  42.9610586  17.6859593  14.1508984  15.3895481  39.3501449
  13.8285064  14.5303162  39.0780950  14.7375333  15.2040871  40.0834227
  21.1291265  52.1964645  32.4213934  20.2535105  52.5795984  32.3690701
  21.6811323  52.9048681  32.7525759  81.2236839  73.3179760  60.6700516
  81.6512079  74.1335964  60.4088688  81.3713397  73.2618141  61.6141272
  35.5678201  57.2798824  39.3589306  36.1191249  57.0477581  40.1062012
  36.1737776  57.6609755  38.7234640  63.7428538  33.1915784  57.2406054
  63.3486883  32.9141903  58.0676031  63.6008517  32.4533463  56.6480875
  49.8981762  73.7813473  39.6614814  49.4723272  73.0573511  39.2024517
  49.7074270  74.5505571  39.1246700  23.6286259  64.5264769  27.0159960
  24.1300273  64.5213127  26.2006402  24.2130613  64.9359179  27.6539803
  68.1513706  13.3030613  23.6192703  67.2385946  13.0178936  23.5774565
  68.1515471  14.0121754  24.2622256  29.6378899  60.7651806  45.0610924
  30.4901123  61.1472178  45.2708435  29.0797520  61.5177202  44.8651409
   2.2434120  76.1489725  18.7053001   1.7061248  76.4236689  17.9622698
   2.0604584  76.7969131  19.3856883  29.2208052  69.5316792  47.3840094
  29.0516734  70.3442621  47.8608084  29.9220133  69.1060257  47.8773260
  57.8889513  64.7693682  17.8173482  58.8034582  65.0501347  17.8502226
  57.4139929  65.4428339  18.3042657  18.2683671  59.7259903   2.4251980
  17.9011250  60.5844593   2.2144949  17.9964519  59.5643473   3.3286169
  44.3865299  63.3438778  44.2802858  44.4878912  64.2948723  44.3199396
  45.2788687  63.0117941  44.1818905  12.8522694  58.8079834  36.4073634
  13.5223019  58.3460903  36.9112873  12.9098260  59.7151327  36.7073727
  29.5671439  34.2393041  18.8931787  29.3280053  33.3790660  19.2381942
  30.4810905  34.3558311  19.1527057  14.5719999  58.8888078   2.9143731
  13.8055605  59.3623738   2.5910489  15.2861971  59.1701894   2.3425500
  27.5430346  51.2825727  34.4229221  27.9365039  50.8297682  33.6770129
  27.2474384  50.5794096  35.0012088  14.1865551  55.3317499  23.4245133
  13.3283746  55.4585934  23.0199552  14.3641424  56.1581898  23.8736129
  45.8977770  19.2891129  17.6447070  46.3605212  18.9436062  16.8813431
  45.7438575  20.2102478  17.4348164  62.4122202   5.3290280  23.7811923
  61.7110430   4.8064526  24.1704202  63.2017314   5.0567921  24.2489433
  80.9334313   9.3384846  48.2671452  80.3625428   9.8543461  47.6977587
  80.3325688   8.8237007  48.8058424   6.9591832  55.9709263  12.4093628
   6.6158688  56.8076801  12.0959759   6.5147412  55.8275223  13.2449102
  27.0462894  61.5600014  49.5958042  27.0220399  62.3853493  50.0799990
  26.6698599  60.9180117  50.1977873  34.6522593  35.7989025  19.6474040
  34.8482132  36.5821910  20.1614952  35.4720592  35.3048086  19.6417916
  14.7338044   1.3993843  24.5524883  14.1472398   0.6610687  24.3879747
  14.2059409   2.0163115  25.0594330   1.4062440   8.5075577  47.2262669
   1.3264739   8.0061253  46.4148283   0.5272590   8.8532265  47.3816061
   2.5462836  54.0404134   5.8856551   1.7370457  54.5454888   5.8064906
   2.5626677  53.4900289   5.1026837  16.8058586  61.1550760  22.5339174
  16.3225126  60.6660938  23.1998801  17.6510119  60.7094526  22.4758673
  23.1647539  61.6365242  49.4976044  22.2849631  61.2627411  49.5474434
  23.4331918  61.4969635  48.5894775   9.1209340  69.1387367  45.3384733
   9.6424288  69.6442604  44.7149992   9.6454352  69.1316414  46.1391497
  81.2706715  46.5366030  36.3935971  81.0138526  46.3240623  35.4963231
  81.9855989  45.9305429  36.5880370  43.1285714   9.9645909  48.8507318
  43.0894899   9.1612347  48.3317566  42.2591650  10.0379475  49.2444086
  58.4967421  30.6232648  14.3010728  59.0814738  31.0047679  14.9558846
  57.6444407  30.5839114  14.7349755   0.8098550  57.9118681  65.3227568
   0.4873875  58.7946987  65.1415110   0.3509668  57.6483154  66.1203718
  39.1105806  12.2058113  47.9924107  39.9325906  12.6130017  47.7190495
  38.4733140  12.9199036  47.9784870   5.2450800  44.8330355  31.0294771
   5.5862570  44.6571350  31.9063401   4.4334504  45.3173304  31.1809707
  58.2951689  53.7546396  41.6519308  59.0307856  53.5413790  41.0778046
  58.5349035  53.3776188  42.4984646   8.5671472  13.1157215  64.7482347
   8.4313904  13.7556370  65.4470205   7.9221772  12.4302586  64.9225664
  32.9967403  72.5226402  43.5556316  33.8654542  72.2447681  43.8460636
  33.0018926  72.3752737  42.6098585  49.7464447  53.0708218  38.6460495
  49.3411617  52.8970337  39.4956231  50.3790931  53.7676287  38.8205361
  43.2081461  16.9452953  59.8897314  43.2988310  17.4276316  60.7115316
  42.5151157  16.3077486  60.0614262  76.1099421  53.4811314  52.4745226
  77.0384108  53.2532414  52.4271917  76.0199677  54.2402085  51.8983841
  35.2617741  76.8699598  46.6131926  34.5590711  76.3382673  46.9870186
  34.8357010  77.3798418  45.9242010  34.1212290  13.8586624  34.3593860
  35.0449025  13.7610348  34.1280270  34.1314804  14.1259297  35.2784586
  16.6897774  56.8980122  56.3733482  16.8937910  57.8110790  56.1710644
  17.4704874  56.5716076  56.8207645  73.3047317  22.7760034   8.2690732
  73.6230622  22.9745202   7.3884551  74.0262292  22.3028522   8.6835639
   3.6349678  55.0014019  20.6996417   3.9946914  54.2756271  20.1896596
   3.4306335  55.6731462  20.0490737  20.1226163  41.1421251  29.8884583
  19.5560050  41.8623638  29.6119785  19.5229840  40.4132128  30.0477099
  22.0847297  68.6652851  11.7095089  22.0906758  67.8706551  12.2431374
  21.3825583  69.1986465  12.0819449  29.7112799  45.1327419  37.5226355
  29.0197802  45.0028563  36.8736458  29.2877793  44.9556255  38.3625817
  81.5930739  43.9744997  23.2255006  80.9620113  43.9155006  23.9427948
  82.3182544  44.4848776  23.5858607  74.5373058  63.9120960  53.1532478
  73.5902929  64.0154505  53.0598640  74.6441936  63.3941031  53.9510489
  13.0095970   7.2245129  40.4497480  13.5996865   7.8426846  40.8809042
  13.2673239   7.2503384  39.5282602  72.6154076   2.2765692   6.0547543
  73.2382237   1.7556532   5.5478269  72.4078690   1.7305859   6.8130803
   5.1444763  64.4707966  22.5921988   5.2879900  64.9435139  23.4120584
   5.1288795  65.1536274  21.9215822  17.4897408  71.1718464  44.9347496
  17.6114142  70.2881575  44.5875883  16.9926548  71.6292620  44.2565870
  47.4152231  43.2012177  57.3641443  47.8336954  43.1396341  58.2228184
  47.9640627  42.6656675  56.7912674  26.8568707  61.2303305  30.4115820
  26.4475799  60.5534983  29.8724985  26.7038536  60.9443092  31.3121438
   2.8901601  42.9532433  23.8428712   3.6999649  43.3955669  23.5883164
   2.9435512  42.0950937  23.4222078  10.2126122  75.4138327  54.5928955
  10.1588070  74.8250437  55.3456640  11.1186182  75.3377342  54.2935753
  57.7473669  57.6041174  20.2429891  56.9581298  58.1084776  20.0456071
  58.3220844  58.2244205  20.6914926  12.5442803  69.9658489  32.8326821
  13.3917773  69.7200680  32.4617743  12.1505213  70.5366421  32.1728492
  25.9487697   2.5254210   8.3191699  26.2054619   3.1048973   7.6018512
  25.0695623   2.2286089   8.0843765  79.8567998  43.8634594  28.3377099
  80.4387747  43.1114872  28.2278442  78.9783274  43.5082634  28.2022429
  35.5803239   4.9892719  22.9521322  36.0632824   4.2676647  22.5493169
  35.6262874   4.8131664  23.8918686  64.8367672  60.8553934   7.1556801
  64.7354369  61.4235401   7.9193377  64.3456249  60.0646257   7.3786128
  48.7710636  29.2816404  64.8689860  48.0438386  28.7822440  65.2404450
  48.3516829  29.9347976  64.3088676  39.5593929  70.6249905  62.4541235
  39.8206091  70.3795338  63.3416748  39.9330902  69.9422026  61.8970013
  11.4463795  50.7927898  62.2107013  11.6433585  49.8634341  62.0935618
  11.1118806  50.8558181  63.1053351  11.0369551  52.7893543  33.2507372
  10.5087960  53.5507536  33.4906220  11.9402528  53.0666542  33.4036732
  45.9515034  76.8912360  24.9703233  45.6287216  76.9644973  24.0721719
  45.9913503  77.7943775  25.2849404   0.3623045  34.0152362  65.0089319
   0.6905497  34.4481853  64.2208667  -0.5902731  34.0468791  64.9204643
  44.0861797   2.2515829   0.0893874  43.8001703   2.1268852   0.9943080
  44.0559470   1.3751658  -0.2942876  10.0608683  69.1390896  30.4241848
  10.4754162  68.2959127  30.6070375  10.7869613  69.7172070  30.1900911
   7.4475950  59.5222902  29.2182755   6.8137592  60.0635099  28.7475657
   7.9280478  59.0625525  28.5297704  73.0372731  57.4685192  11.9324911
  72.9188774  58.0921459  11.2160408  73.7876205  56.9372654  11.6660655
  28.0216551  66.8355608  40.6730509  28.9744782  66.9200993  40.6382275
  27.7152300  67.6956844  40.9603262  62.3389626  63.0427170   0.7064693
  62.8832817  63.7258530   0.3149677  61.4883852  63.4611082   0.8395163
  72.0471637  69.1965628  49.0177202  72.5736879  68.4780979  48.6672783
  71.6646628  69.6122599  48.2449865  55.1045524   4.0164955  46.6245985
  54.6586334   3.2310112  46.3077354  56.0164177   3.8979443  46.3587427
  18.4452760  64.2963314  29.2059970  19.1102004  64.0699768  28.5557103
  18.9231122  64.7826385  29.8778677   7.2983950  54.3900156   5.6448466
   6.5386653  54.7097731   5.1582289   6.9292468  54.0069723   6.4406103
  75.4371850  44.2007017  41.7905998  76.1104797  43.5206461  41.7698812
  75.7301669  44.8474455  41.1486340  36.0015195   3.5182770   7.7724838
  35.9093242   2.6273068   8.1099874  36.8513935   3.8119610   8.1006521
  16.5609014  71.3332272  37.6053643  17.3418581  70.8301544  37.8361392
  16.8792105  72.0080042  37.0057130  37.0653129  43.7232256  22.7810383
  37.9077101  43.8644505  23.2130742  36.5498209  43.2277775  23.4174609
  -0.1544878  64.2348576  44.2173147   0.5158361  64.8329926  44.5476627
   0.3131733  63.6643314  43.6073780  10.9511530  53.9754963  64.5712280
  11.1202121  54.0066671  63.6295891  11.7255270  54.3754530  64.9669695
  24.2798930   9.3824490  51.5805864  24.8762447  10.0858982  51.3241386
  24.8223745   8.5938557  51.5729380  43.8980865  12.2740658   4.6359637
  43.8697290  13.0848034   5.1440299  43.0630385  11.8450554   4.8227063
  21.2602520  63.3212709  34.1397882  20.7688856  63.2818985  34.9603009
  20.9210515  62.5910044  33.6222053  54.6039092  19.3409928  53.6758327
  54.8846780  19.7794731  54.4790363  55.0124251  18.4764488  53.7195635
  63.0609147  41.7919445  62.0477295  63.5041754  41.7063618  62.8917837
  62.3651044  41.1351776  62.0749235  11.8958998  70.9168148  21.6475892
  11.5182865  71.1518717  20.8000112  11.4074159  70.1401329  21.9203138
  80.5561860  57.3634100  27.6904249  80.5828796  58.1030130  28.2974744
  80.7866157  56.6048527  28.2268238  41.5708065  59.8874140  41.4221287
  41.0296440  60.2775049  40.7356834  41.0716534  60.0241852  42.2273445
  66.6619007  43.4166336  33.3822298  67.2758822  43.2576799  34.0991640
  66.2817029  42.5577927  33.1976366  10.8934712  60.0852776  30.8724761
  10.7877648  59.7576332  29.9793315  10.1218915  59.7633410  31.3385820
  62.3529117  67.4786186  57.8981256  62.2086935  67.0078611  58.7189913
  63.0743067  67.0108938  57.4773455  20.0451326  56.4046955  38.8388348
  19.7364020  56.9512510  38.1162047  20.7996893  56.8768787  39.1908550
  37.4664164  55.2401400  56.2873745  36.5102267  55.2009392  56.3072777
  37.7469015  54.5549726  56.8940878  61.1075525  48.2244205  17.3182118
  61.8510561  48.3321047  16.7250514  60.5994038  49.0288544  17.2138083
  20.4900765  72.9450941  47.8523254  20.0738955  73.7779140  48.0746603
  20.5834675  72.9707146  46.9000340  10.8641768  50.7286310  36.6434836
  11.0919416  51.1004972  35.7913852  10.5304217  49.8544598  36.4418292
   9.2858422  46.7391491  22.7514434   9.7948599  46.2964916  22.0723367
   9.7533214  47.5603533  22.9041481   5.0200807  19.8661431  51.2554121
   4.8655545  19.1472538  51.8682337   5.2896225  19.4355400  50.4441404
  74.9863522  64.0157700  40.6437397  74.0586357  64.2333889  40.5530977
  75.4359256  64.8595572  40.5974817  23.0481291  53.3320045  47.3623943
  23.5118198  53.9073181  47.9708719  23.6461639  53.2353258  46.6212893
  28.3785605  41.3207865  15.9541178  28.6057925  40.3952026  16.0429740
  28.4931564  41.6810322  16.8335044  25.0135180  23.4690674  11.9231200
  24.3755122  23.0713185  11.3306868  24.7862153  24.3988522  11.9306457
  13.9686966  48.4081078  16.0322261  14.2690599  48.2547188  15.1364112
  13.5832989  47.5743866  16.3016856   7.8602022  42.8163958  61.1514759
   7.6449567  43.7389278  61.0142565   8.6204475  42.8317404  61.7328739
  42.1582436   3.9586933  22.4434757  41.2152182   3.8464363  22.5631928
  42.3084103   4.8930176  22.5874305  60.6090979  64.1253376  10.9885859
  59.6750621  64.2943859  10.8651555  61.0405879  64.9150085  10.6622946
  19.8388171  72.8287315  30.9229183  20.7411623  73.1451845  30.8797860
  19.7865117  72.1602964  30.2397704  38.0346393  32.7465828  10.5920458
  38.5500991  33.3226498  11.1565661  37.5921833  33.3396157   9.9847746
  71.2875859  65.4154396  34.0565705  71.9540183  65.7238817  33.4425950
  71.3612418  64.4614315  34.0306640   7.3742688  55.7182360  34.8701835
   6.9408077  55.0373650  35.3847289   6.6643363  56.2972498  34.5927453
  39.2427731  38.9582348   7.9224581  40.1313114  38.6120725   8.0055541
  39.3640685  39.8956490   7.7715570  75.2083359  51.5890121  61.6403484
  75.1064323  51.0446644  62.4210739  74.6064429  52.3204327  61.7781019
  32.9815041   3.9348419  25.3282475  33.0580353   3.2958229  24.6197104
  33.8401257   3.9274033  25.7512665  39.1575872  16.1076172  66.6681194
  38.4161805  16.5483292  67.0832348  38.8737678  15.9596546  65.7660151
  27.0525670  63.5630560  57.1422005  27.9938006  63.4972048  56.9810438
  26.9843841  64.0246058  57.9779959  34.5004511  62.9968596  40.1672983
  34.2740726  62.1178198  39.8635221  35.4401517  62.9544306  40.3444862
  18.6706579  74.0767431  39.0950680  19.4428122  74.0354443  39.6592522
  18.9724946  74.5318174  38.3089161  18.9350122  51.2349515  10.6812017
  19.6827692  51.7649655  10.4052178  18.2036871  51.5610890  10.1567714
  10.1135874  56.3542223  42.8052425   9.9873614  55.4110289  42.7018452
   9.3903387  56.7476082  42.3169899  78.0649415   8.4997853   4.5391813
  77.2741667   8.5067661   5.0784945  78.1383387   9.3956288   4.2100939
  27.9016018  59.1123152  40.0032949  28.5219812  59.5298147  40.6008339
  27.5860000  59.8258305  39.4487500  15.1723754  32.3762870  26.4659119
  14.9528849  33.1823516  25.9986687  15.7925367  31.9275928  25.8911896
  13.9116621  38.2557869  58.3504915  13.4235728  37.5890470  57.8673172
  14.5068371  37.7578306  58.9108849  68.8339285  73.9133310  49.8267031
  68.6905162  73.8636208  48.8816118  69.6916906  73.5100698  49.9603319
   2.0338678  56.1285257  63.8238001   1.6703394  56.8298435  64.3643808
   2.9504898  56.3738298  63.6978579  13.6245966  53.3515644  19.8187137
  13.7273490  54.3028975  19.7935355  14.2247522  53.0639601  20.5067039
  62.8523485  69.9430704  64.4896841  62.7460901  69.1488171  65.0132370
  62.4489896  69.7308397  63.6479616   0.4974277  18.6981304  46.0515213
   1.3033778  19.0280922  46.4487696   0.0305135  19.4843872  45.7686281
  39.8674928   6.4170178  47.7349281  40.1521157   6.3797291  46.8217850
  39.4201230   5.5834206  47.8805923  37.7584147  60.5761194  35.4553699
  38.4943366  60.3255129  34.8969364  37.7814126  61.5329742  35.4668212
  79.0260027  59.8532014   3.8615815  78.2045864  59.7183518   3.3890121
  79.4462107  58.9931684   3.8617341  75.3270481  21.3268476   9.5209186
  76.0774349  21.8288713   9.8389165  75.1111792  20.7358890  10.2423064
  64.4847012  52.9817152   2.1672790  64.2463779  53.3208227   1.3044697
  65.3808641  52.6628923   2.0601499  49.2018878  17.0412930  21.0594535
  49.6640026  17.8231056  20.7570648  49.4185769  16.9798001  21.9897747
  25.0393510  63.4883261  38.8613248  25.1002455  63.5045052  37.9062009
  24.2018557  63.0609560  39.0407228  32.2619176  62.1620417  30.8269787
  31.3560438  62.4645758  30.7629657  32.2233725  61.4152575  31.4245200
   9.6214539  60.4279757  45.8120108   9.4593531  59.7333145  45.1737309
   9.5053530  60.0038815  46.6622448  39.3780184  64.3339348  50.2832079
  39.0116072  64.4267321  49.4037962  38.7580919  63.7673187  50.7424116
  72.3959391  40.7470894   6.9406027  72.7080385  41.1415625   6.1262202
  73.1403719  40.8119106   7.5388086  28.4472694  12.0059784  24.4180465
  29.1734954  12.0213993  25.0414157  28.3831366  12.9074677  24.1026902
  58.6793566  48.0404949  11.5488422  59.2153978  48.5229397  10.9194446
  58.8325596  47.1195412  11.3376427  48.3900881  62.8946781  41.2394476
  49.1288853  62.3504829  40.9669352  48.7660980  63.5123920  41.8665648
  28.1933236  15.5760105  62.8467131  28.8647038  16.1457070  63.2221174
  27.8924716  15.0431259  63.5827494  31.3502812  60.8408451  15.7134259
  31.9058371  60.5842257  16.4494526  30.4866099  60.4906416  15.9317434
  29.0082215  11.0735564   6.9123714  28.4324430  10.3164296   6.8052547
  28.5079978  11.6794162   7.4591271  39.4516945  59.3063641  17.5463998
  39.5892119  58.4392071  17.9276550  39.5954490  59.9129152  18.2728040
  32.9071212  52.6762152  27.6025963  33.5523653  53.3775330  27.6923156
  32.4412274  52.8816509  26.7920589  44.5921516  62.4375582  55.5517912
  45.0369549  62.0881891  56.3240147  44.6209574  61.7233229  54.9151802
  75.2368914  28.9219387  21.3718963  74.8008382  28.1036003  21.1344028
  75.9123837  28.6605461  21.9976854   1.2384281  41.7980957  25.3732157
   2.0266528  41.2877798  25.5589771   1.3889205  42.1622515  24.5008755
  43.4121275  67.8828049  50.8619213  43.9438581  68.1360054  50.1073456
  43.0335474  68.7044477  51.1746740  59.6684519   1.2207421  23.1772208
  59.5418230   0.7070835  23.9749384  58.7826554   1.4541395  22.8995037
  26.8560892   1.4518698  63.6461592  27.7228422   1.1062105  63.4328699
  26.2545072   0.7388218  63.4319401  74.0083288  23.9994960   5.8814065
  74.7185944  23.4835439   5.4998986  73.7880062  24.6403794   5.2054231
   6.8471277  61.4307594  26.4795136   6.0641229  61.4153433  25.9291506
   7.5115442  61.8579102  25.9388423   6.0724479  48.3251524  31.0787535
   6.3323718  48.2792902  31.9988441   5.1178890  48.3920956  31.1025786
  39.5796572  30.8011346  17.5371091  39.2852198  30.0306134  18.0227391
  39.1685162  30.7137733  16.6771333  39.2866158  16.3653286  53.6545944
  39.6391045  17.1797474  54.0133619  38.3369862  16.4658364  53.7204409
  29.0842428   5.6317337  18.3290625  28.7035891   6.2166413  17.6739144
  28.4347545   5.6040581  19.0316498   5.0747306  11.7247112  62.4251556
   5.9561259  11.8425377  62.0708990   5.1937682  11.1409004  63.1743050
  57.0783626  11.9165047  62.5340891  57.8202950  11.8274506  63.1322861
  56.4628517  12.4835594  62.9986572  63.0241537  63.7852621  22.0385909
  63.3076477  64.6315336  21.6926289  63.5202456  63.6800528  22.8504157
  20.3437138  61.0325909  33.2280111  19.9670970  60.3744173  33.8121343
  19.7858346  61.0101223  32.4505162   5.2078158  71.8046188  44.9355030
   5.6434691  72.2995996  44.2416477   4.3157196  71.6752815  44.6135283
  33.2266849  48.9462667   0.2996223  32.4445337  49.3393235  -0.0876506
  33.9351457  49.5482545   0.0717608  40.6520628  15.8713825  43.4605646
  41.2947678  15.5790623  42.8142548  39.8480665  15.4083069  43.2252121
  76.4089225  20.9115796  28.4910790  76.7176770  21.7643409  28.1849782
  75.7437442  20.6543975  27.8526132  27.3067312   5.6706436  30.0104785
  27.5404464   6.5602978  30.2752948  27.9936849   5.4158219  29.3945265
  67.3167645  20.7975014  45.9819794  66.7661487  21.2506779  46.6204882
  66.8456184  19.9861153  45.7924986  61.2440597  15.4910668  40.6717873
  61.4090478  16.4274128  40.7825375  62.0802795  15.0742729  40.8797550
  19.6855558  27.8128150  66.6183634  20.5113996  27.3322395  66.6754491
  19.8063291  28.4096816  65.8798542  10.4702128  32.2720769  58.7852414
   9.9296988  32.2486261  57.9956050  10.3555859  31.4075044  59.1797181
  62.0717847   9.8835190  49.7036743  62.9122292  10.2967270  49.9015284
  61.9303023  10.0616558  48.7738991  73.6409085  58.1070140  64.8661611
  72.8424328  58.5728172  65.1145363  74.1319900  58.7375262  64.3393611
  55.0651418   3.1226452  24.7882962  55.6984102   3.8394745  24.7513795
  54.4948255   3.2677754  24.0333724  46.8153857   3.5065754  54.5339251
  46.4571261   4.3428047  54.8315954  47.7582704   3.6588867  54.4706678
   6.3173384  34.4115119  12.6188056   5.5042976  34.9163442  12.6371305
   6.1833161  33.7180810  13.2648866  38.7391483   4.0570553  14.2150104
  38.9718293   4.2340382  15.1264751  37.9892468   3.4647186  14.2699337
  18.8733477  40.7508760   9.1704433  19.5028013  40.5030685   9.8476522
  18.5483736  39.9177461   8.8290946   1.3478340   8.6218125  41.1928558
   0.5175450   8.4370589  40.7538605   1.6935024   7.7596933  41.4241457
  43.9560907  69.4012670  48.6506367  44.1653495  70.1981411  48.1633663
  43.0362242  69.2311178  48.4478378  20.9282112  23.3229470  42.5086975
  20.5440092  23.2169485  43.3789778  20.4720759  24.0773344  42.1357775
   4.4657817  24.6531963  57.0154095   3.6913311  25.2030921  57.1340370
   4.7014144  24.3770647  57.9011059  32.4860740  48.5713924  57.1486987
  32.9647672  48.2953240  57.9302807  33.1682294  48.7608595  56.5044947
  79.0151994   3.8869271  16.7787397  79.5808063   3.1149575  16.7983389
  79.6152659   4.6260795  16.8777633  59.7470979  23.5989356  41.5841198
  59.0895848  23.4476161  40.9051418  59.6269707  22.8755236  42.1993303
  56.8821464  46.8732311  66.1213096  56.1180006  46.9116236  66.6964962
  56.6974388  47.5139345  65.4345690  13.7609947  21.5585017  18.3785689
  14.7104812  21.6759038  18.4089649  13.6135423  20.6971216  18.7691021
   3.1457722   0.3994140  37.8143620   3.1192604   1.3127686  38.0995154
   2.9196250   0.4320432  36.8848348  34.3703854  70.6823845  61.8956711
  33.9333510  71.3874383  62.3733016  35.2938819  70.9340663  61.8891581
  64.6781807  63.1299893  45.5964184  64.7143154  62.3369471  46.1312151
  64.9793952  63.8263563  46.1800051  28.6383295   2.8996864  47.1760273
  27.9170227   2.3860201  47.5394821  29.4040823   2.6291975  47.6826763
  36.0681653   4.8672041  60.3754520  36.9933701   5.0307387  60.5584335
  35.8764982   5.4074186  59.6088600   7.4669152  39.5265293  39.6259332
   6.9441390  39.2574739  38.8705873   8.2676190  39.0061021  39.5606589
   5.2134019  24.8872972   7.2227496   5.7222503  25.4855251   6.6755491
   4.7991988  24.2882371   6.6016251  31.9135087  53.3442203  21.2517810
  32.5952881  54.0153233  21.2196946  31.3590615  53.6010949  21.9885540
  31.1846295  44.9714465  65.3024784  31.2383854  44.2391313  64.6884287
  30.2734959  45.2603592  65.2515161   8.4656834  60.1960704   8.3369653
   7.8081178  59.8933265   7.7107160   8.1562757  61.0596034   8.6104743
  16.4298302  57.3387678  66.1629066  16.3358992  56.4535124  65.8111529
  15.5312127  57.6384826  66.3003476  55.0770483  76.3442756  26.1360645
  55.7127407  76.0018694  26.7644644  54.2463288  76.3442945  26.6116047
  67.1740001  60.6718210  46.3507080  67.5757795  60.5392174  47.2093201
  67.1581786  61.6222159  46.2378740   2.6781476   1.7772634  30.5337644
   2.5696385   1.7894748  31.4847159   1.8419233   1.4508748  30.2014518
  17.6335502  27.5061488  39.8401785  17.5141633  27.6668167  38.9041424
  17.3622322  28.3225417  40.2598429  79.3100326  29.8024082  16.5969741
  78.6518334  29.8450708  17.2906494  79.4053332  30.7077694  16.3012171
   1.8691224  69.1959858  19.4678211   1.1430033  69.7904062  19.2790198
   2.2949062  69.5746994  20.2369213  22.5773232  74.6326287  23.1690478
  22.0501273  74.3083645  23.8992167  22.9832523  73.8483174  22.7998447
  26.7934084  49.2145348  46.3829756  27.5587153  49.7096252  46.6752481
  26.6740727  48.5407829  47.0523405  52.2737960  17.8480303  11.2875903
  52.2807984  17.3872173  12.1265388  53.1346278  17.6694334  10.9090352
  29.4146228  48.0612373  38.1831980  29.8681188  48.7948465  37.7679992
  29.8091316  47.2825623  37.7904391   4.0870771  60.6030321  17.8238249
   3.5924155  61.4089155  17.6751924   4.9973911  60.8462143  17.6552391
   7.7587855  29.9591660  10.7923222   7.9081500  29.4063830  11.5593648
   8.5562068  30.4830766  10.7157183  72.2834246  33.8153577  23.3064580
  72.4441515  34.4354892  22.5952363  71.9624941  33.0268884  22.8687954
  79.0904496   9.4999170  24.0465951  79.5186423   9.3659735  23.2010531
  79.4286249  10.3402865  24.3558669   1.6113078   6.1840256  34.0460801
   2.1060836   6.8949326  33.6386085   0.7828724   6.1635216  33.5670114
  79.4904290  17.9928541  27.0557141  80.0505613  18.1553125  26.2967062
  79.7740187  17.1397805  27.3844600  13.2523608  23.7230206  42.9548311
  13.9840400  23.4537530  42.3995209  12.6836014  22.9539800  42.9911900
  13.2706404  11.3405228   6.6416121  13.9914811  10.9343719   6.1602992
  12.7785516  11.8207753   5.9757006  35.0914192  39.6695352  33.7400413
  35.5992341  40.2468634  33.1699109  34.4063616  40.2319336  34.1014791
  21.7621541  45.7397318  57.9171610  22.2590208  44.9417067  57.7368450
  22.4251890  46.4281750  57.9687643  67.7090935  37.5688910  53.1036520
  68.2095043  36.8371654  53.4647608  68.1547670  38.3494377  53.4328270
  78.4313081  17.7497244  40.9622192  78.7424354  17.8952670  40.0687742
  78.9004104  16.9683695  41.2548971  81.4552281  53.0089521  44.2745161
  82.0025070  53.1730843  43.5065460  80.5991439  53.3668709  44.0394640
  26.3092113   7.0630556  65.4056215  26.9343996   6.3397866  65.3581572
  25.9502363   7.1278161  64.5206499  72.3319010  33.2912564  38.6289382
  71.9331996  33.3453059  39.4974709  71.5940074  33.3532333  38.0223870
  24.1040730  46.0883570  50.4572535  23.9122176  45.2284288  50.0831604
  23.8909769  45.9984350  51.3860893  21.6730595  26.5129232  31.8426991
  22.2460556  25.7942343  32.1098971  20.9117627  26.0809398  31.4553404
  73.7084864  35.1995921  36.8216276  74.1270868  34.5780420  36.2260771
  73.5907857  34.7094774  37.6353645  13.2945192  44.6146870  38.9738774
  13.4058344  45.2846193  38.2993174  13.8774312  44.8886156  39.6819806
  56.3661920  64.2783782   3.2473580  56.8147456  64.6618935   2.4937312
  55.5390202  64.7568676   3.3027427  21.4426613  36.3262296  16.4908946
  20.5770421  36.0279322  16.2116897  21.4553666  36.1735368  17.4357510
  78.6062656  27.5914550   8.3000624  78.9930041  28.4192514   8.0147225
  79.2813007  26.9371033   8.1201112  76.2876658  40.3863573  32.2439885
  76.8874238  39.7108102  31.9275069  76.3114033  41.0635376  31.5679026
  30.2222672  69.7090454  51.3288994  31.0031891  70.2145381  51.5544434
  30.5302003  69.0637345  50.6925173  74.6588044  11.0875428  12.6424277
  75.4108964  10.6316268  12.2646308  74.9560009  11.9909763  12.7506602
  13.9445579  21.7757106  26.6547298  13.4457576  22.4351621  26.1724925
  13.4772873  21.6816378  27.4848151   7.9859746  47.5628233  53.3926582
   7.5375301  46.7851925  53.7249565   8.8486367  47.5370646  53.8066387
  71.9157128   7.7553469  14.1850471  71.1219172   7.9735440  13.6966705
  71.6787819   6.9793248  14.6928716  71.5916042  11.5450776  16.3933313
  72.2486983  10.8552420  16.3006723  71.7982094  11.9618487  17.2299004
   4.5791620  36.5835166  38.5452509   3.9290476  35.9360075  38.8178587
   4.6416563  37.1866536  39.2858934  30.2093649   7.4048263  66.6996765
  29.8252177   8.1664646  66.2654305  29.5144606   7.0796686  67.2720528
  21.0799646  38.4181881  52.8083754  20.4707003  38.8299751  52.1956253
  21.1513519  37.5136042  52.5036383  31.0306673  72.9488203  10.3618400
  31.7189213  72.7922746   9.7152869  30.9351736  72.1123597  10.8173005
  43.5186308  68.4272866  61.6309929  43.9092272  68.6684642  62.4709368
  44.2476588  68.4542040  61.0113001  75.1575427  47.5979805  16.4301181
  75.3348051  47.5344706  15.4916215  74.5365570  48.3222246  16.5080988
   1.0701879  14.8260546  15.4611075   1.0333483  15.3173506  14.6404362
   0.5516079  14.0393102  15.2927589  13.7042463  13.6322749  53.3942890
  14.4540739  13.0941653  53.1404591  13.4464777  13.2945347  54.2520285
  13.1602000  59.5869586  -0.1295598  13.5120486  58.7400576  -0.4037745
  12.7465998  59.4121215   0.7157819  24.2579532  40.0004387  37.7724481
  23.9721966  39.1206813  38.0186176  24.6770859  39.8862267  36.9195032
  62.9269712  24.3208909  47.2654438  62.5008564  25.0343704  46.7904663
  63.6269860  24.7469449  47.7601099   0.2785400  42.7850866   5.5829763
  -0.2726026  42.2128248   6.1168170   0.8540314  43.2190323   6.2128437
  76.0565279  58.5920715  10.0912845  75.1769702  58.6430979   9.7171098
  76.1181609  59.3569803  10.6634259  79.9348815  52.2801638  21.7877007
  80.7612513  51.9128323  22.1014047  79.3282823  52.1642017  22.5190139
  63.6555926  35.9152484  39.7180820  63.7061612  35.5099630  40.5837727
  62.7790312  36.2982559  39.6837640  19.0721696  46.4006141  65.2599830
  19.9230044  46.5126422  64.8360001  19.2735117  45.9706786  66.0911573
  19.5865381  74.4056702  13.4232080  18.8884246  73.8515329  13.7722087
  19.3009460  75.2991819  13.6137342   3.8576454  22.6818538  46.5968513
   3.8924736  22.8154135  47.5440502   4.7290489  22.9296327  46.2878323
   4.7874394  55.1218557  61.0283947   4.4216329  55.3610992  61.8799686
   4.6696079  55.9037113  60.4889011  55.4766994   3.2678607  63.7777181
  55.0756546   3.1960014  64.6438770  55.0606412   4.0347531  63.3840133
  62.4301128  76.6639757   5.1507682  62.9312722  76.2452364   5.8505750
  62.5959174  77.5998306   5.2644062   5.7336235  44.2515802  41.7613268
   5.9049177  43.5672331  41.1143637   6.5912598  44.4419479  42.1413946
  16.0825062  44.2209959  18.0870223  16.7817903  44.8012400  17.7861059
  16.3869989  43.8989067  18.9354169   6.7138582  45.2958441   0.9077172
   6.9351685  44.6698284   1.5971808   5.9916842  45.8078003   1.2718517
   9.6309638  36.2791085  33.9386821   9.7412169  35.4040790  34.3107033
   9.8053443  36.1658430  33.0043387  26.9852853  40.8805656  36.0707211
  26.5065885  41.6904259  35.8940697  27.7364111  41.1560774  36.5962052
  13.9369059  50.8328533  31.2927151  13.5391545  51.5609789  30.8153701
  13.4673917  50.8081102  32.1264887  81.6896923  58.7266779  34.1514206
  81.5893594  58.1161118  34.8817396  80.9351591  59.3113518  34.2226434
  66.5401129  27.2474861   7.7906227  66.2224464  26.7795300   7.0183939
  66.6319637  26.5698218   8.4603727  13.6836982  36.8204999  22.4366641
  13.1990254  35.9972095  22.3773694  13.1579220  37.3663878  23.0212975
  60.7845525  24.9917841  18.5485494  60.6100516  25.8381987  18.1370115
  60.4359989  24.3488145  17.9310274  61.1689131  36.9861274   3.1013934
  60.8241026  36.5771203   2.3076360  61.6276495  37.7660327   2.7890746
   8.0140650  16.2600565  55.7613420   8.4711188  15.6608558  55.1711798
   8.6863303  16.5465403  56.3795805   1.1915078  18.3443606  50.3396511
   1.8113774  18.9484334  49.9308872   1.6464847  17.5022280  50.3459597
  27.6214422  13.1422284  60.7793094  27.2154725  13.0133012  61.6365130
  27.1089042  13.8419059  60.3743537  63.1782047  40.5476427  48.0499601
  63.3123784  41.0753202  48.8372231  63.4024672  41.1340904  47.3274517
  35.6658143  72.5478501  57.1146782  36.2759274  72.6586266  57.8438707
  35.2951884  71.6746969  57.2430219  79.3987124  37.3888707  41.5303946
  79.9660246  37.7862978  42.1910286  79.8957689  36.6365886  41.2090826
  75.1086502  52.2559118  22.3287082  74.3623142  51.6565800  22.3246813
  74.9919073  52.7784872  23.1221318  12.2256792  20.6163073  43.2618570
  11.5247381  19.9649012  43.2860327  12.1187329  21.1134338  44.0728140
  27.0893335  57.2305107  25.5050659  26.9072247  57.2440863  24.5654488
  26.7988300  58.0872917  25.8177423  59.0086512  13.7976658  35.0948548
  59.6381263  13.2803178  35.5971956  58.2309918  13.8352835  35.6516862
  69.9133865  29.0791106  42.8135014  70.3679053  28.5282612  43.4508467
  70.2581601  29.9585891  42.9680395  65.1274900  32.4442673  44.9701452
  64.6875267  32.3718548  45.8171511  65.6837801  33.2186294  45.0546265
  60.0162391  13.6145854  63.3016586  59.8203449  12.6794219  63.2439899
  60.7259326  13.7497985  62.6737404  23.2587624  28.1649947  20.7365036
  22.6526713  28.3768702  20.0265789  23.9352608  27.6294446  20.3220534
  11.3417399   5.3120363  44.7313881  10.4102707   5.0927818  44.7084808
  11.5507531   5.5636942  43.8318253  58.0003977  68.4512424  36.8243217
  57.2955561  68.8705349  37.3179054  58.0821753  67.5814533  37.2154951
  78.4818832  50.3596306  29.5430326  78.1842263  49.4657135  29.3740892
  78.7980057  50.3401232  30.4463148  15.6018841  14.5507646  41.5365791
  16.2352836  14.1059208  40.9734154  15.7109189  14.1372573  42.3929405
   7.0805109   4.6496633  60.4325821   6.7060912   3.8243488  60.7406284
   7.8963745   4.3961957  60.0009014  47.7925253  73.6061001  46.7258739
  47.9992676  74.1337395  45.9544563  48.6028957  73.5988092  47.2352648
  76.6584914   2.1802095  59.6916326  77.5388377   2.3907378  59.3803437
  76.0793488   2.7250770  59.1587676  18.0238104  30.8496499  39.8828363
  18.3918512  31.3854742  39.1802192  18.7820446  30.4198194  40.2785110
  81.8105097  27.7680850  40.9221029  81.3141884  27.2136879  40.3199863
  82.7184770  27.4843621  40.8156633  31.7965698  73.9573288  30.2221847
  31.7139745  73.3515167  30.9586596  31.4527822  73.4713745  29.4725919
  61.3534550  65.4258490  39.3991113  61.6731815  65.0349998  40.2122831
  61.2154107  64.6813059  38.8135934   2.6652685  63.2198286  32.2055793
   2.4342825  64.0992785  31.9065046   2.8498027  62.7342033  31.4016199
   9.6003479  42.0722485  36.0702658  10.3519046  42.5088167  36.4712667
   9.7269344  41.1449099  36.2708902   0.8222838  33.1691003  38.8281226
   0.8727305  32.5988674  39.5952725   0.3048733  32.6724958  38.1941652
  32.6511264  44.5279217  39.2533541  33.5623550  44.2425394  39.3200564
  32.6854014  45.4739046  39.3953681  29.5364332  56.5551186  21.2940931
  28.8009906  57.0126915  20.8866787  30.0775814  57.2528648  21.6636038
  70.3216283  48.5066700  28.0656695  71.2271182  48.4127998  27.7698517
  70.3556470  48.3203316  29.0039396   7.0962608  28.3238530   0.8339034
   7.1368921  29.1211200   1.3620576   6.3359225  27.8509259   1.1722182
  64.7519795  69.5005417  47.0229673  65.3492467  70.0594664  47.5200653
  63.9665274  69.4455910  47.5672817  47.6096058  50.4494762   8.7439394
  48.1781530  49.6841049   8.6591417  48.1537056  51.1845112   8.4612501
   0.5908465  14.6935058  57.6866913   1.0575350  15.1261640  56.9716835
  -0.2919634  14.5513701  57.3451138  64.2738728  42.7445984  19.1194522
  64.7219972  43.1434011  19.8653555  64.0036158  41.8824196  19.4354272
  28.5072923  52.1291018  26.0948992  28.4617496  51.2132692  25.8203006
  27.8924489  52.5828505  25.5184364  58.6140327  21.3938284  21.8515277
  57.9788689  21.8181968  21.2747169  58.2524399  20.5209374  22.0049644
  78.5990687  41.9585943  22.3450923  78.0776603  42.4789238  21.7338419
  79.4732816  41.9367599  21.9558525  58.2881431  45.4835892  37.8009844
  58.9586405  46.0533190  38.1779075  57.5945811  46.0816431  37.5225258
  10.9258103  27.7484655   7.0636922  10.8248663  27.1225405   7.7808130
  10.6998765  27.2508359   6.2778479  10.7179290  35.2774082  50.3718801
  11.0235649  34.3798820  50.5032797  11.4294892  35.8239691  50.7053252
  53.3024794  61.3060851  60.2365048  54.1296297  61.6920848  59.9483074
  53.1784683  61.6409583  61.1245997   3.7882484  75.5473883  48.9471960
   3.3372129  75.6123153  48.1054211   4.1783441  74.6732942  48.9431095
  57.7942168   8.7995294  57.3846366  58.6361199   9.0917590  57.0353027
  57.1434118   9.2052510  56.8118592  79.4239048  60.3899050  40.3141069
  79.1250883  59.4841814  40.2328205  78.9575837  60.8589745  39.6221900
  26.6365790  60.5224562   3.5419786  25.8503270  60.9172344   3.9190596
  27.0064259  59.9991512   4.2530289  72.4884842  45.5678558  48.3546495
  72.2047816  45.1643467  47.5343323  73.4372274  45.6555700  48.2628679
  10.1651657  46.3230801  43.9462185  10.0488961  46.9551706  44.6555662
  10.9926748  46.5735579  43.5354614  11.1872983   9.9248230  31.7545271
  10.6959391   9.1996473  31.3686275  11.7073512   9.5193791  32.4483514
   3.9702007  20.6704211  27.0684695   4.0319461  21.4791131  27.5768375
   4.2153302  20.9270501  26.1794877  69.5364015  62.5178051  11.2043571
  68.7182657  62.5480890  10.7084048  69.7600071  63.4364414  11.3538444
  79.1213967  21.9086790  35.5140781  79.0055741  22.5782275  34.8398972
  79.1313641  21.0820842  35.0315094  28.2439303  21.8075228  35.3948092
  27.3002148  21.7683768  35.2395678  28.3486342  21.5303636  36.3050032
   6.3820487  50.5066729  29.4458604   6.2619352  49.5584059  29.4967985
   6.5080577  50.7812691  30.3541255   9.4947470  71.6125927  41.0124063
   8.8556732  70.9003065  40.9908628   9.1713751  72.2440295  40.3697920
   5.6937581  41.5751505  32.1696448   6.3053858  41.0622168  32.6978898
   5.4268342  42.2939348  32.7426505  22.8867984  34.0209746  33.8847327
  23.7796736  34.3186045  34.0591645  22.4146628  34.8146462  33.6329317
   3.2193187  20.6558824  49.4012308   3.5101220  21.5175343  49.1025257
   3.7634909  20.4715586  50.1668215  79.7694537  32.4438500  15.8241868
  79.1042279  32.6849580  15.1795375  79.9664531  33.2609725  16.2821531
  15.4042530  31.4559865  22.6458502  16.1214328  31.8624640  22.1593738
  15.1480794  32.1155190  23.2905388   2.6019262   7.2654109  29.2521684
   2.7897905   7.9365878  29.9082677   2.3532413   6.4946656  29.7624032
  10.3269494  39.0423441  14.6466458  10.0524354  38.2978678  15.1820207
   9.7832453  38.9857173  13.8608909  26.1528897  23.0271244  26.7675304
  25.3555918  23.1161404  26.2453961  25.9781981  23.5348773  27.5599337
  16.8862557  33.5556650  40.5886602  15.9701979  33.5458684  40.8660984
  16.9911051  32.7515411  40.0801134  10.1127005  17.9612052   8.8849109
   9.4203663  17.4593568   8.4547329  10.7892346  18.0590630   8.2148689
  68.2837538  46.2744856  48.1753922  68.3677105  45.3209925  48.1808138
  67.4928085  46.4423752  47.6630926  81.6003668  31.3056898  36.8975186
  81.3149654  30.7083035  36.2062097  82.3634404  31.7510486  36.5292692
  76.6233115  56.5344429  61.8042755  77.1155570  57.1753073  62.3173237
  76.8990789  55.6864023  62.1521425  17.1113622  62.3832369  38.2232070
  16.1743665  62.2203112  38.1149244  17.2712171  63.1930971  37.7386403
  15.7742715  63.1842566  26.3044333  15.9695494  63.1824493  27.2414994
  15.2693164  63.9856529  26.1665511   1.1855678  27.7926636  24.3813396
   2.0979628  27.5397038  24.2407012   0.6786858  27.1370149  23.9023542
  60.9771352  71.6717217  17.2603917  60.9437310  71.1550949  16.4552760
  60.4603534  71.1684088  17.8895545  46.1557888  71.1828093   7.4071211
  45.4153143  71.1682717   6.8007237  46.4930551  72.0769213   7.3519194
   2.3003553  30.9073877  33.8552356   2.7643698  30.0702667  33.8428903
   1.7262733  30.8743286  33.0900121  12.2402310  17.7936423   6.7504525
  12.9031777  17.1032023   6.7555630  11.6410732  17.5451827   6.0465288
  31.5480614   4.3603030  52.4222517  30.8775878   4.8885345  51.9890451
  31.0544372   3.7318000  52.9490805  28.3484459  21.4582205   6.1202097
  29.2386937  21.6595769   5.8318549  27.8203368  22.1866250   5.7934672
  47.7505790  64.0232417   9.3809669  48.1662523  64.5388815   8.6899058
  47.5222718  63.1955621   8.9578168  53.6184697  69.6132545  39.5076251
  53.6514208  69.1652725  38.6623693  52.6894646  69.6218715  39.7380757
  77.9029952  12.0495558  25.4110718  77.8841899  11.1748254  25.7993054
  77.1751635  12.0513749  24.7893906  75.3630374  41.6493750  23.8321447
  75.1637123  40.7320547  23.6449790  74.5199989  42.0332956  24.0732312
  56.9239501  30.6404924   1.9132698  57.8315620  30.9435010   1.8875842
  56.7813043  30.3884888   2.8256172  17.1424259  39.0376952  57.0953573
  16.8917478  38.1205180  56.9849999  16.3547529  39.5305970  56.8654664
   4.3050253  21.2374663  13.9560568   4.2879012  20.5722284  14.6440959
   3.5691720  21.8139768  14.1619396  51.2850529  61.5093083  62.6634397
  50.5570704  61.1978669  63.2012837  50.9001189  62.1882982  62.1093349
  17.3911393  46.8650532  55.4144049  17.1021342  45.9540892  55.4677820
  18.3092844  46.8412352  55.6839848  67.2619442  30.6797862  44.4282007
  67.9488198  31.3238621  44.2561483  66.4984123  31.2031674  44.6717644
  29.9846905   2.4904354  39.0118098  29.9639981   1.6240175  39.4181633
  29.2303794   2.9475029  39.3837500  80.4940231  39.1906166  47.9445601
  80.2370877  40.0740242  47.6803446  81.0660532  39.3235397  48.7004328
  79.0316339  47.6760149  47.6230431  78.6608673  47.1121550  46.9442034
  79.8597978  47.9826260  47.2537661  15.9222162  33.1829119   1.6551307
  16.2711155  32.4257517   2.1254574  15.2178192  32.8253412   1.1145763
  45.7720505  75.9503291  22.1043539  45.7331329  75.2106501  21.4980602
  44.9813913  76.4560210  21.9162965  14.0710354  66.9178963  49.6869850
  14.1281629  67.8679228  49.5849180  13.2550383  66.7772341  50.1671886
  47.0391417  59.1477013   2.8509340  47.8223515  59.6948338   2.7920955
  46.6335487  59.2163324   1.9866344  75.8836911  59.8961115  22.0456815
  74.9674849  59.7928476  22.3028469  76.3767151  59.7545147  22.8538346
  31.8142533  73.9064980  38.7687612  32.0923305  74.8123360  38.6332631
  32.4858785  73.3820152  38.3327961  42.0193159  10.9590634  39.2664051
  42.2693335  10.0788506  38.9854217  41.7666792  11.4057072  38.4583735
  34.4833755  67.0684433  58.1206560  34.3329287  68.0042982  57.9873514
  33.8500857  66.6396713  57.5450468   7.9546727  34.4896844  37.9362853
   8.6275471  34.9389413  37.4247773   7.4834097  33.9563993  37.2961696
  73.7250714  18.6254370   1.6633013  73.0103592  17.9915667   1.6030760
  74.0381692  18.7195671   0.7636676  47.4151479  21.4616974  48.8338137
  47.0827150  20.7383927  49.3653631  46.7546140  21.5807064  48.1513405
  26.0074782  63.3084726   6.5092242  25.9421873  63.7793016   5.6783861
  25.7346463  63.9467525   7.1683097  20.8839417  52.4132776  13.1661379
  20.4590678  53.0804110  12.6270211  20.2316308  51.7171001  13.2439804
  11.2044001  52.9450083  40.1515007  12.1357358  53.1549263  40.0823593
  10.8526587  53.1263542  39.2799377  68.6325423  22.7767730   4.7979644
  68.3024363  22.8841949   3.9059317  69.3629686  23.3924103   4.8588082
  10.9469974  42.9361153  20.4182076  10.7822824  42.1098566  20.8725142
  11.6648412  42.7395344  19.8163044   5.0658776  64.9749155  65.8045535
   4.6952607  65.8534212  65.7202934   4.3041588  64.3976159  65.8568721
  10.5123210  58.6342192  28.8434768  10.0749362  58.9392853  28.0485773
  10.7270074  57.7191162  28.6625648  40.8849335  28.3515215   0.5243414
  41.3951635  28.2342100   1.3256741  41.0145473  29.2705607   0.2902547
  35.9517264   2.3202666  59.7261429  36.2443864   3.1301983  60.1439714
  36.7191356   1.7485722  59.7481251  76.8380521  44.5927334  23.1840825
  76.6687749  43.7377405  22.7883935  77.4072446  45.0385094  22.5567603
  15.0166035  23.5647750  29.3216777  14.3430793  24.1669893  29.0055513
  15.1866019  22.9846287  28.5795426  25.5952234   1.9779261  15.7412076
  25.4020152   2.1358927  14.8171139  25.6824241   1.0270842  15.8085275
   2.2712041  18.9023447  23.6309886   2.1743307  18.9373243  24.5826316
   1.5594983  19.4487166  23.2975459  75.2105723  61.7715502  39.2984772
  75.4754577  62.5977802  39.7027206  74.7165088  62.0326900  38.5213423
   1.7534351  19.8125196  39.2159820   0.8875182  20.0513053  39.5467401
   1.6033499  19.5759773  38.3006930  81.4215457  20.6867130  31.6536808
  81.9784295  20.6679638  32.4319863  80.8102023  19.9609287  31.7790532
  35.4931641  76.7880058  13.5889423  35.6576657  77.7285576  13.6562777
  34.6046972  76.7247391  13.2384372   7.9703689  54.0571594  32.6460600
   7.9159254  54.4828987  33.5016394   8.6520696  54.5416069  32.1804166
  39.5799756  40.4058743  23.3583260  39.7373366  41.2329912  23.8136792
  39.1790485  40.6622028  22.5277948  45.9883833  74.3310118  31.8005347
  45.1647949  74.5649338  32.2285700  46.6597843  74.7881985  32.3069191
  21.9750214  22.6763606  22.6146722  22.0027566  22.0659113  21.8779135
  21.8601513  22.1183515  23.3838677  40.6543922  54.1361284   0.1512165
  41.3640451  54.7768974   0.1964013  40.5382872  53.8431883   1.0550623
  22.0038509  26.1992311  14.8936260  22.6192141  26.9248176  14.7883439
  22.5259733  25.4155493  14.7219861  13.9237035   3.8221315  54.8196764
  14.5268024   3.0799773  54.7783406  13.9432443   4.1959909  53.9387234
  20.2656436  35.7349372  32.1199870  21.0582352  36.0966849  31.7235422
  19.8533142  35.2336264  31.4164948  27.1997608   6.0870751  13.6600971
  26.4105235   5.5455788  13.6496639  27.1928392   6.5368183  12.8151619
  50.2050523  66.9927549  38.2139063  50.4134087  66.9001055  37.2842646
  49.4172220  67.5361729  38.2297897  73.6357783  66.1638308  35.5924249
  73.6447708  65.3939438  35.0237179  72.7079288  66.3225365  35.7660317
  58.6057097  67.7066679  52.8033622  58.8304120  68.5088582  52.3319478
  58.6373979  67.0203395  52.1368928  70.4261045  40.9876299  35.0571489
  71.0437159  41.6753435  35.3058290  70.9794538  40.2595901  34.7743154
   0.5459568  13.8520718  22.8452921  -0.3609047  13.6107528  22.6566148
   0.4769488  14.6405363  23.3836174  28.0921340  54.5360804   7.5993490
  27.3330641  53.9932585   7.8123957  28.5766029  54.6038723   8.4221047
  66.1141257  52.2282743  54.4487047  66.9308154  52.0246935  53.9928484
  65.4753356  52.3604107  53.7481928  25.9032631  48.6027193  17.2917032
  24.9708700  48.6033249  17.5082088  26.2417531  49.4054508  17.6882911
  79.5713010  49.2603350  44.4395590  79.7819999  49.6186018  45.3018093
  79.6657888  50.0023365  43.8422823   1.0751273  36.8753219  36.1033010
   0.5914175  36.0933137  35.8373642   1.9935678  36.6515350  35.9529042
  68.7392776  66.7004768  29.8160982  69.2744129  66.0681097  30.2956557
  69.2481094  67.5109104  29.8389077  65.5274217  69.7338247   0.4174669
  66.4660184  69.9121809   0.3586566  65.1207881  70.4093790  -0.1252157
  74.0191625  66.2198782  16.6886353  74.5708696  66.6269493  17.3565769
  73.8525413  65.3377056  17.0206559  26.4348292  43.9326715  17.9338360
  26.1256003  44.2181396  18.7935543  26.3272214  42.9815960  17.9442668
  79.5989144  38.1422377  60.3013849  78.8972540  38.4944606  60.8489656
  80.3308096  38.0119300  60.9043598  53.9436702  57.2899055  55.8841991
  53.5729293  57.0962572  55.0232172  54.3081359  56.4560795  56.1810732
  23.4405899  69.7148371  18.3247149  23.3626246  68.7612867  18.2948840
  22.5513721  70.0328588  18.1685507  30.6945634  52.5061417   9.8802966
  31.1689806  51.6955996  10.0651884  30.3018713  52.3627234   9.0192181
  70.8273820  48.8086748  51.1083698  70.7830195  49.7421503  51.3154602
  70.8037142  48.7740993  50.1520872  12.6420867  57.3533630  43.5902929
  11.8068063  56.8928623  43.5098028  13.3006728  56.6588593  43.5775471
  30.7386220  26.8891910  60.7711770  30.0897849  27.3405221  61.3111271
  31.5816797  27.1478799  61.1434217  22.9947758  39.1773105  41.8038511
  22.5743747  39.9126792  42.2496414  23.7753034  39.5566130  41.3999462
   8.5300559  62.0317173  36.0614157   8.3269501  61.3866520  36.7388105
   7.9967713  61.7677021  35.3116584   8.6759865  50.2461815  27.5685501
   8.7416857  49.4097710  28.0293441   8.2482338  50.8311892  28.1938744
   5.5049723  60.4152155  57.3931503   5.6424963  60.0368261  56.5247393
   5.6732512  61.3502455  57.2763824  73.7598520  16.6703799  38.0628117
  74.7089474  16.7596677  38.1492670  73.6421185  16.0544208  37.3396452
  55.1172590  50.6712151  23.5681534  55.2561808  50.0911760  24.3168116
  55.1682854  51.5534449  23.9359832  27.7772641  18.1882560  40.7448053
  28.2711124  19.0078807  40.7685137  26.8680024  18.4523344  40.8853006
  26.5211415  51.9242477  42.5999165  26.5096259  50.9843636  42.7807903
  25.6159401  52.1352434  42.3711777   4.7280475  61.8520880  60.6405067
   4.5741180  61.8387938  61.5851593   4.3013236  61.0586405  60.3171158
  32.3945332  30.7833934  46.5673494  32.7831507  31.1108756  47.3784971
  32.3299193  31.5547419  46.0042524  39.4726657   0.6828840   5.8023125
  39.2763459  -0.1846639   5.4486835  38.8275480   0.8095463   6.4980203
  26.0101032  49.3726349  35.8611965  25.3230500  48.8141680  35.4974604
  26.3604593  48.8721752  36.5980959  23.6273789  50.6868362  57.9792786
  22.7687931  50.5373383  57.5834084  24.2211294  50.1229239  57.4835968
  80.0931738  67.3856735  32.7942204  79.2733086  66.9342947  32.9949927
  79.8582753  68.0182838  32.1153593  31.7493107  70.6519005   5.0828282
  31.7979112  70.2584192   5.9540574  32.6604777  70.8282372   4.8484914
  60.8805828  47.0282364  43.6853933  60.7305793  47.0788050  44.6294117
  61.7870121  47.3138809  43.5712624   1.2527987  61.4340639  47.8495550
   1.9256896  60.8199596  47.5557423   1.0804257  61.1841917  48.7573433
  43.9661741  53.6426830  26.7107582  43.2690716  53.0326748  26.9519496
  43.8490391  54.3861914  27.3021173  68.1717730  58.5194397  29.4836402
  67.9297638  58.5758543  30.4080224  67.4258804  58.0881548  29.0666676
  75.2182601  40.1291275  11.4970922  74.8886995  41.0158682  11.3511074
  76.0009621  40.0712681  10.9491313  36.5601254  38.3134246  36.4559484
  36.7842436  37.9981780  37.3315167  36.4188385  39.2533994  36.5687060
  73.5378699  54.5316458  43.0924320  72.9585109  54.0744448  43.7019730
  72.9513351  55.0758076  42.5669813  68.3943908  55.5519724  20.9105730
  67.5526635  55.7808208  21.3047218  68.7693696  56.3909054  20.6425953
  64.6876494  66.1529064  10.6874359  64.7422008  65.2780390  11.0719657
  65.5258517  66.2707806  10.2404952  66.6540829  14.8583134  25.7825184
  66.2473170  15.6932648  25.5509329  65.9305397  14.2316445  25.7839656
  67.6535670  62.8534412   9.0550441  67.6270716  61.9253016   8.8224810
  68.2474522  63.2441187   8.4140253  20.5135775  40.7295227  22.6027107
  19.6525502  40.5372381  22.2313738  20.3264165  41.2455988  23.3868456
   9.1384053  58.9032221  26.6573000   8.9780068  58.0212164  26.3217878
   9.2217201  59.4461918  25.8734155  62.5716941  59.6691370  16.5530515
  61.6365151  59.4726896  16.6085756  62.8057770  59.4658661  15.6474483
  54.3376052  17.9313572   0.5627459  53.8264620  17.2132023   0.1896370
  54.9245512  17.5075253   1.1889140  23.9660645  57.5565815  24.3018985
  24.1321135  58.3360195  23.7716818  24.6862602  56.9634724  24.0879393
  62.6054537   3.1960400  14.7104073  63.2114851   2.7774723  14.0990520
  61.7621338   2.7784260  14.5353639  42.4528520  21.3044789  45.6482037
  43.2374792  21.8373922  45.5193766  41.7777639  21.9311622  45.9085091
  40.7699823  75.3194952  33.5996604  40.2118397  75.7098198  32.9270887
  40.1629686  75.0556421  34.2911434  60.4767160  42.2976446  47.4968767
  61.4165072  42.4793673  47.4973917  60.3833489  41.5204668  46.9459581
  51.6841845  54.0729237  32.9274368  52.5093560  53.9770126  32.4519157
  51.0643248  54.3891048  32.2701430  64.5307474  21.9444804   0.5969541
  63.6380200  21.7753224   0.2958648  64.6363811  21.3796763   1.3625066
   7.4687439  71.2917900  27.2015858   7.7596116  70.4312611  27.5034499
   6.8141675  71.5627527  27.8452778   1.7374258  32.7957582  35.7666969
   1.9034953  32.3295856  34.9473476   2.6015204  33.0912066  36.0535479
  27.8358596  71.8240566  59.0708406  28.4114486  72.2112555  58.4112914
  27.0380209  72.3514647  59.0317936  31.6001063  66.9268103  61.1610903
  31.2203219  67.7605147  61.4384546  31.6151330  66.3941283  61.9562359
  66.6917150  74.7892666  29.6074033  67.1465199  73.9698362  29.4126844
  65.7761542  74.5339870  29.7206068  28.3576059  76.6614056  43.3871126
  28.3644462  76.6583347  42.4299431  27.6278567  76.0887480  43.6232567
  55.1065647   8.0295666  27.6405334  55.6681239   7.4296292  28.1314087
  54.4891202   8.3654030  28.2903051   6.9611382  48.9905643  38.5635185
   6.8917131  48.4499216  39.3503571   7.1219385  48.3653688  37.8567600
  10.0273299  77.3890257  58.0874205  10.0643444  76.4874220  58.4067583
  10.6051672  77.8753233  58.6755133   5.3634924  74.6942234  46.3197613
   4.5611387  75.1634073  46.5485191   5.2196395  73.8036060  46.6396666
  69.8307931  11.1638649  23.4810996  70.3256356  11.4894684  22.7292037
  69.2486178  11.8865116  23.7158012  73.2152192  19.4215000  22.6050544
  73.7749110  18.8235879  23.1005120  73.7962220  20.1387072  22.3515177
  34.3022418  65.3311586  38.5659742  33.6347842  65.2433157  37.8855205
  34.2423916  64.5175362  39.0666413  81.6346866  34.9672151   3.1014034
  81.2723659  34.1182613   2.8479582  81.3701989  35.5601287   2.3980325
  77.1705244  13.6663651  53.3332109  77.5060363  13.1960213  54.0963888
  76.3338582  14.0290833  53.6241722  35.3533053   9.8299225  40.0491762
  35.8586275  10.5971821  40.3178549  35.7886093   9.5229252  39.2538786
  28.4817787  15.9688290  17.0992851  28.9794546  15.3481396  17.6315451
  28.0915242  15.4330834  16.4086998  72.5762860  35.4698133  21.2128997
  72.3255221  36.3857031  21.3332891  72.2921555  35.2586031  20.3235793
  27.9899485  71.7353198  12.2542827  28.5348997  71.9169971  13.0199544
  27.1153003  71.5851685  12.6129977  78.7491332  59.4478703  21.5062356
  78.7221937  58.5344601  21.2212944  78.1530104  59.4830751  22.2543192
  19.9348760  61.8565416  45.4660749  19.2192566  61.4148521  45.0088739
  19.7608781  61.6972494  46.3937521  58.5441991   3.9046100  64.0331330
  57.7237546   3.4416249  64.2026870  58.4379875   4.2656949  63.1530388
  35.8801126  70.4900503  16.0742700  36.0500836  70.4299688  17.0143414
  35.7232094  71.4213324  15.9182823  30.8853340  56.0869408  25.1901889
  30.5868101  55.2115297  24.9436688  31.3448834  56.4103365  24.4152904
  24.1724086   4.8212042  41.6504622  23.8067079   4.6313453  40.7864857
  24.5366335   5.7025480  41.5679741  55.8675623  48.2870293  60.9514380
  55.8287144  48.3044720  59.9951839  55.5792141  49.1597223  61.2188196
  65.5055910  68.8500209  66.2123173  65.5898219  69.0846271  65.2881433
  65.6886822  67.9108639  66.2386658  64.0159421  20.5527687  37.8608370
  63.3609621  21.1807871  38.1655121  64.7765820  21.0892844  37.6376557
  42.5051737  75.3199339  51.2565851  42.7326250  74.8042440  52.0302534
  41.7752790  75.8698273  51.5413713  43.3134716  12.0841315  52.1351595
  42.8941148  12.8914741  51.8375512  42.5853496  11.4987949  52.3436172
  81.0701093  32.6987386  53.5831594  80.7959216  33.4373927  54.1267061
  81.7056928  33.0731535  52.9731798  35.8364439  50.1436520   7.0884740
  35.4364491  49.3441772   6.7463118  36.5886569  50.2985859   6.5171576
  69.8988490  75.4372692   3.1458437  69.2704312  75.7719469   3.7856203
  69.4076054  75.3985596   2.3252264  48.3645426   0.4759606  15.7059169
  48.3071243   0.2134331  16.6246200  47.6777112   1.1344536  15.6016123
   8.3324385  28.7088251  20.1600337   7.4554312  28.3322406  20.2326512
   8.9101154  27.9525185  20.0574636  71.0124902  23.1914496  34.5507646
  71.4869194  22.5764966  33.9913154  70.2840666  23.4950924  34.0090680
   3.8853574  26.5040708  26.4123511   2.9798296  26.2248278  26.5475321
   4.3936133  25.6936979  26.4470220   1.5766481  59.2606831  54.5653152
   1.2382350  60.1544428  54.5113897   0.7986984  58.7060738  54.5067358
  22.8382206  49.0778780  25.4737163  22.4059081  49.7782993  25.9623361
  22.1201181  48.5792446  25.0839376  19.4986784  65.0002861   0.4181316
  20.2413011  65.3015947   0.9415418  19.7868121  65.1045322  -0.4887002
  51.1779963   0.1234110  41.4533758  51.3023578   0.8791550  40.8792543
  52.0485269  -0.2678768  41.5261984  17.5288379  27.0749021  52.2119522
  16.6423666  26.8412733  51.9366026  18.0427754  27.0576620  51.4046097
  44.7840731   1.4034036  19.2144616  44.8000943   2.3421100  19.0278991
  44.3792789   1.3379815  20.0793870   4.0084550  36.2068796  13.1178808
   3.3652928  36.4451909  12.4502122   3.5001600  35.7492876  13.7875652
  70.7614891  25.3889775  58.5689831  71.6347150  25.7594395  58.6973095
  70.1636998  26.0825586  58.8479567  58.0743599  51.2465954  18.8385546
  57.2303343  51.0981560  18.4121537  58.0159235  50.7605457  19.6610963
  65.2152769  35.7100368  37.2929025  64.6894602  35.7696891  38.0905199
  64.9403994  34.8885369  36.8857026  34.4774652  52.1180344  22.2301030
  35.2791643  51.8351555  22.6699805  34.0531468  52.7025938  22.8581762
   8.3359158  29.1325450  39.7851348   7.6735657  28.7249207  40.3431368
   8.1565064  30.0707650  39.8466921  25.4548766  72.1046228  57.0780845
  25.3903796  72.8358979  56.4638324  25.0510575  71.3688822  56.6178103
  64.0094511  76.8376684  31.1819959  64.8691074  76.4684916  31.3843155
  63.7955968  77.3776674  31.9428492   6.1262834  32.6196432  47.2845650
   5.8374518  31.7071033  47.2755575   6.0743052  32.8782439  48.2047033
  73.4897707  11.2740111  29.0994978  73.0758183  10.7415926  28.4202290
  74.3921123  11.3850951  28.8000441   1.0486586  45.6445980  53.4191132
   0.6851133  46.5263748  53.3382845   1.8999669  45.6957436  52.9844999
   0.5749567  39.3274927  18.8489163   0.5010849  39.9675584  19.5567942
  -0.3291631  39.0818572  18.6528003  67.3188345  46.4433718  27.1623230
  66.4027349  46.2943506  27.3963881  67.3790137  47.3879862  27.0197892
  18.7943494  33.0569935  12.7246094  18.1543052  32.7417731  13.3627391
  19.4067335  33.5826993  13.2392478   1.4269317  16.1865190  66.9621665
   0.9040917  15.3959850  66.8282863   0.7841481  16.8945411  67.0041332
  30.2579355  51.8677998   3.7450987  29.5897222  52.5427818   3.8639301
  30.8389115  52.2218370   3.0717802  48.9481000  33.4015989  12.2943532
  48.5853414  34.2624116  12.5032556  48.4406070  32.7915120  12.8295887
  13.6098968   4.1255863  37.2070789  14.5112347   4.4461163  37.2399378
  13.1736349   4.5621021  37.9387641  67.1566789  66.6136503   9.3932438
  67.2575228  66.4054680   8.4644157  67.7107934  67.3824501   9.5279157
  31.1258197  17.0380998  22.6601481  31.4943457  17.5558352  21.9443464
  30.6000543  16.3672531  22.2245240  16.4766252  69.3235779  23.6893463
  16.2106359  69.0585089  22.8088808  17.2244203  69.9043751  23.5489702
  32.9631989  21.7158607  44.9752219  33.2446091  21.7173913  45.8901198
  32.0125430  21.6123107  45.0172170  22.3414057   2.3481472  22.4992609
  22.2442185   3.1123837  23.0673528  21.6015237   1.7850359  22.7266598
   6.0126674  57.7401161   9.4424510   5.2885842  57.1803474   9.1621047
   5.5950695  58.5638523   9.6940500  39.7784209  43.5958385  38.9448452
  39.7216010  43.5222912  39.8975229  40.6060791  43.1704283  38.7207174
  13.0742967  60.8433151  20.3728557  13.7359989  60.2313328  20.6951284
  12.7396512  60.4354954  19.5741498  58.2509522  58.5607004   8.8762009
  59.1679577  58.5003614   9.1439557  57.8967623  57.6858950   9.0358609
  51.8176603  59.3074703  37.0410204  51.0302782  58.8266754  37.2961593
  51.7330313  59.4205093  36.0942936  69.8363440  70.2228308  50.6950092
  70.4696457  69.7521496  50.1531410  70.2725403  71.0467005  50.9122705
  34.1597128  68.9504147  34.2499423  34.0134215  68.2995319  34.9363708
  34.6190476  68.4717226  33.5599446  74.9492936  40.0639009  34.6076941
  75.5005656  40.1888227  33.8352132  75.4043417  39.3965364  35.1212955
  68.6296242  70.1309619  44.8412943  68.4112327  69.2181800  45.0293541
  68.2439678  70.6236480  45.5657005   8.4141409  45.5796432  31.5285730
   7.5495666  45.3885317  31.1649513   8.2609153  45.6861591  32.4674058
  20.7419764  75.1438829   2.5280396  21.3758879  74.7584411   1.9232051
  20.3547322  74.3937632   2.9792563  27.9356938  74.0417476  50.3429134
  27.2809949  74.1761513  49.6576853  27.5522014  74.4432278  51.1226435
   3.5447124  49.4780684  43.1783724   2.6444179  49.7776222  43.0520105
   3.4612361  48.6855030  43.7085629  81.3492601   8.8654378  64.3253528
  80.6445067   9.0718225  64.9393238  81.6911214   8.0238727  64.6272423
   2.3909390  56.7808199  58.0137539   3.3364069  56.6804743  57.9030657
   2.2985046  57.4762726  58.6649323  72.9261111  41.9079256  33.6993909
  72.9375432  42.7131367  34.2168283  73.4970955  41.3072872  34.1783905
  27.6789832  40.6270647   6.1470425  27.9034853  41.4801884   6.5185380
  26.8192673  40.4240417   6.5156925  48.4724188  40.8480835  15.4080236
  48.6380816  41.0672760  16.3249433  48.6167908  41.6681242  14.9358726
  31.1503720  24.5000172  44.1079950  31.9659448  24.0233994  43.9533710
  30.4937816  24.0217757  43.6016273  13.6111057  54.9185753  30.6432986
  13.0196750  54.1785765  30.5060506  14.2988610  54.8002243  29.9881506
  12.9329026  59.0765333  41.3815451  12.7223754  58.1466341  41.4663839
  12.1393955  59.4695616  41.0180807  38.8885707  66.5265818  52.5094326
  38.2302922  65.8332391  52.4627932  38.9024228  66.7820449  53.4318097
  29.0123177  69.4887972  44.6651983  29.0948796  69.5480013  45.6169939
  29.2925310  70.3468418  44.3466520  76.9062125   2.1581467  20.7792926
  76.2908255   1.9726761  20.0699782  77.7549159   2.2411259  20.3444910
  77.2121005  49.9769115  47.8140211  76.3026903  49.9577951  47.5159597
  77.6080729  49.1970682  47.4250698  17.6755309  60.8154345  44.2374277
  17.1770370  60.7449484  45.0515366  17.0409298  60.6138039  43.5497808
  64.6755878  47.3162556  27.9675698  64.6802263  48.2722378  27.9195380
  63.9136319  47.1072865  28.5079288  72.1105748  23.2637170  53.6734553
  71.4112490  22.8144792  54.1481741  72.6550811  23.6508039  54.3589552
  21.2445879   6.3630813  15.6828225  21.5917993   7.1283740  16.1410832
  21.6198683   5.6150478  16.1474097  81.4898811  24.4614053  28.6666322
  82.0694826  24.2754364  29.4053531  80.8066231  23.7935185  28.7242317
  17.5793636  74.0688133  29.1615796  18.0140018  74.9216270  29.1666627
  18.2494628  73.4566593  29.4656587  46.7610312  73.4220266  23.4034538
  47.2972393  73.5462141  24.1865849  46.2263584  74.2142487  23.3511639
  -0.2823430  12.6500230   1.9704597  -0.1508933  11.7127566   1.8273131
   0.5037350  13.0599933   1.6095798  24.4319153  42.6726103  22.4852467
  23.6787105  42.5937033  21.8998528  25.1677966  42.3332405  21.9757962
  45.1556164  56.8220050  40.7757385  45.1025873  57.7090092  40.4198702
  44.4868642  56.7981501  41.4601620  31.0918995  11.3010224  45.8652020
  30.3328621  11.8417271  45.6467152  31.1359336  10.6542595  45.1609421
  14.1179788  46.4021206  37.2355533  14.0010822  47.2927427  37.5662518
  15.0669611  46.2810850  37.2037125  14.5893407  54.6544313  27.8780460
  13.8165212  54.6129894  27.3147845  14.7368014  53.7484264  28.1494117
  30.3613758  37.6781750  26.7156029  30.5217695  36.7386198  26.6276121
  31.2225151  38.0516171  26.9032574  79.0544413  40.7767248  15.5997753
  78.5598455  40.3891611  16.3218558  78.5594828  41.5615034  15.3644669
  23.9116049  21.6324043   2.0223843  24.3031859  22.0557117   2.7863926
  23.2425880  21.0526443   2.3864241  11.7369795  35.2482152  40.5199671
  12.2806072  34.4658089  40.4275465  12.3033905  35.9677196  40.2411747
   6.5581381  67.1777153  30.3489184   7.1896952  66.6263914  29.8869586
   6.8999183  67.2375774  31.2410140  33.8709712  11.6602266  30.7051277
  33.4840512  11.8808532  31.5523863  34.8010898  11.5334368  30.8923125
   7.0336735  37.2890449  62.5627851   6.7914486  38.1120992  62.1383572
   6.2946904  37.0893645  63.1374693   7.8326970  47.3223114  36.4436126
   8.0294573  47.6300383  35.5588436   8.3121359  46.4976025  36.5225124
  77.0898925  61.4949036  14.9016011  76.6973565  60.7203245  14.4988942
  77.2231777  61.2476063  15.8166468  52.5298440   8.3926399  10.3261745
  52.6045882   7.6870163   9.6837264  51.7412101   8.8694962  10.0675309
  50.3630587  24.1503862  57.5733061  51.0529765  23.7419799  58.0962320
  50.3154429  23.6161617  56.7804821  23.2687473  36.8329334  44.4369841
  23.9077449  36.3429594  43.9194536  23.7784481  37.5307894  44.8486090
  69.6399395  54.1008615  40.0959158  68.7708644  54.4660282  40.2620363
  69.4708530  53.2097006  39.7901869  69.7993211  72.2476149  56.8168545
  70.4223208  72.7677631  57.3243475  69.4341664  72.8637791  56.1818457
  56.8416964  26.7804387  67.0995237  56.0938989  26.1941627  66.9841542
  56.5073763  27.6449350  66.8605533  16.1586713  13.2176216  24.3227148
  15.7280158  13.2614716  25.1764393  16.7340135  13.9824112  24.3051171
  35.5247545  43.6915493  16.7916214  36.3573146  43.6752081  16.3195944
  34.9852633  43.0367517  16.3484335  37.9569244  13.1660759  53.2405853
  38.1982875  13.5649502  52.4045944  37.8050256  13.9085925  53.8252449
  23.3423989  13.2047895  63.0850692  22.7759879  12.4967387  63.3917757
  22.9061287  14.0046743  63.3784796  37.1262455  75.4240417  47.7200222
  36.6607714  74.5888329  47.7647257  36.4680624  76.0490894  47.4161386
  32.6520490  76.7126986   7.2081630  33.5674452  76.4430448   7.1335475
  32.1823221  75.9078357   7.4267594  33.4749055  54.8038912  52.9973650
  32.6433897  54.6574306  53.4483194  33.4639525  54.1845369  52.2676277
  15.4377842  43.0504322  46.8085480  14.7064829  43.2307529  46.2178612
  16.1681688  43.5512638  46.4453125  34.0710449  60.4278374  39.2068577
  34.3951607  59.8701572  38.4996271  34.3925285  60.0115633  40.0066042
  41.3941055   8.3953002  65.2580664  40.8449488   9.0695575  64.8580155
  42.2892766   8.7107375  65.1339683  50.1688590  30.0038865  58.8356252
  49.5755141  29.2527822  58.8318224  50.0456943  30.4107526  57.9780002
   7.2848392  52.8836393  50.0146866   7.8429741  53.2532597  49.3305111
   6.6944563  53.5980320  50.2541065   0.2042783  19.9722484  56.9843312
   0.6732596  19.6783260  56.2033720   0.8673371  19.9759677  57.6746734
  49.5581894  20.9342292  60.2518560  49.2168467  20.6102946  59.4183184
  49.0027576  21.6847470  60.4626872  24.6730399  69.0587282  41.5778112
  24.6252847  68.1036234  41.6193581  25.4765344  69.2790890  42.0490551
  35.1420450  65.4646683  30.3009892  34.9639153  65.7687855  29.4110370
  35.1755214  66.2647867  30.8253193  15.9669900  74.4945240  38.0902338
  16.3733590  74.6046257  38.9498711  16.5966809  73.9728260  37.5926876
  33.0357957  74.8988104  23.3095384  32.2408342  75.3711796  23.0622816
  33.3007431  74.4415903  22.5114250   1.8198869  53.4702444  17.3833287
   1.9414492  52.7238464  17.9701388   1.8464231  54.2344236  17.9591417
  27.3034263  66.1097956  18.4335339  26.6360664  66.7545748  18.1987572
  28.1196404  66.4744568  18.0914092  29.1511520   3.2346447  22.1995974
  29.9557751   3.6324318  22.5321245  28.6368873   3.9724549  21.8718982
  18.0804312  66.1103487  12.8883767  18.4091008  65.7307053  12.0734668
  17.1809697  66.3683224  12.6867557  14.8101568  57.7211094  24.9833179
  15.4016101  58.4651279  25.0966859  14.3245435  57.6735258  25.8068132
  26.6659284  46.2972116   9.6214306  27.3750019  45.7174826   9.8995745
  26.1804128  46.4843035  10.4248619  32.7543664  48.2291508  19.6843314
  32.8721976  49.1594172  19.8765576  33.6206388  47.8450489  19.8194993
  81.6880006  56.3471079  35.9370494  82.5380036  56.2387466  36.3636446
  81.0575069  55.9987640  36.5674210  33.9134336  54.0133524   4.5585489
  34.1940236  53.4242392   3.8582301  34.1780496  53.5702372   5.3646874
   9.5318252  70.7302141  61.7220592  10.4566836  70.9480524  61.8378830
   9.5389974  69.8650694  61.3125372  29.2395520  28.6795402  25.8584857
  28.9456582  27.8087592  26.1260653  29.8303819  28.9583850  26.5580583
  60.0410306  37.8317502  42.3538740  59.7777741  36.9620135  42.0530637
  60.5600165  38.1877092  41.6326387  24.1866415   1.8279370  37.5771284
  25.0559308   1.4273747  37.5662971  23.6717313   1.2993248  36.9674802
  59.0530634  52.3742485  44.0697432  58.4003067  52.0587158  44.6947098
  59.5931053  52.9826641  44.5741415  55.9674298   9.8538597  37.4518204
  56.5077388   9.5510777  38.1816268  55.1693308  10.1831349  37.8651619
  53.9605462   0.4945286  20.5511975  54.7146308   0.0523575  20.1612306
  53.7095129  -0.0639669  21.2869263  52.4615145  66.6795969   5.5893409
  51.8632984  66.3559151   6.2628382  51.8878126  66.9985867   4.8926723
  36.8096638  59.5522451  31.3739085  36.8726945  60.5064631  31.3322949
  36.2507033  59.3166161  30.6334519  65.9791088  71.1510754  54.9170923
  65.9753799  70.4673719  54.2471886  65.2053595  71.6802931  54.7235107
  29.7090554  76.4412642  13.9355123  30.2156305  75.6413174  13.7951469
  30.2609181  76.9774199  14.5049131  10.6387448  75.6490183  50.2457762
  10.8281302  74.7940302  49.8592997   9.8237360  75.5176306  50.7302618
  69.2502516  31.7196754  39.4800098  68.7557500  31.0707048  38.9794739
  68.5842436  32.2043613  39.9675997  22.7615809  55.8240223  56.3038826
  22.7590346  56.1027002  57.2196150  21.8376541  55.8144140  56.0538816
  80.4375006  66.5398026  23.3079028  80.3244127  67.4900913  23.2880211
  80.6859074  66.3093805  22.4126768  26.9959497  54.8026800  42.0672989
  27.4652123  55.1143742  42.8411674  27.1414208  53.8566017  42.0638943
  50.9443378  47.8318882  33.5107541  51.2672615  48.3646202  32.7840137
  50.1916933  48.3177471  33.8479400  34.0959906   1.7552241   2.4593037
  34.8708808   2.2183903   2.1411002  34.2241424   1.6962679   3.4060526
  22.5722027  54.6355391  26.2637377  22.8542209  55.1736641  27.0034146
  23.3868670  54.3623400  25.8419371  75.7931189  75.2539873  57.4746704
  75.2729080  75.7525587  56.8445635  76.4410572  75.8796501  57.7986383
  35.3701949  58.4471321  29.3572998  35.2482915  59.2417479  28.8377237
  34.5445848  57.9716396  29.2650557  65.6964885   4.9058350  27.6856995
  66.2807619   4.4151314  28.2636809  65.9042298   5.8240803  27.8586340
  80.5906769  35.1962590  55.2966833  80.5013539  34.6972656  56.1086273
  80.0437231  35.9704161  55.4299212  67.2938005  52.9916477  41.6259623
  67.9320113  53.3871317  42.2196865  66.8728714  52.3082447  42.1475077
  16.5106343  23.6580284   5.3828126  16.8321108  23.6347111   4.4815129
  16.2065541  22.7662762   5.5517900   1.8245764  42.4115562  16.2167466
   1.2412908  41.6900587  15.9812641   1.2453044  43.0756474  16.5904558
  14.0495324   8.9646602  14.6315598  13.3724868   9.4146889  15.1368463
  13.5795987   8.5775036  13.8929772  74.8398702  61.0109234   7.8021175
  75.2925341  61.7288065   7.3594284  74.9950670  60.2492571   7.2435427
  38.3469820  50.6047630  19.4569170  39.2152143  51.0074329  19.4730151
  37.8771615  51.0195017  20.1804423  66.7084408  52.4557066   7.3629194
  66.9461060  53.3470201   7.1073818  66.7194319  51.9606972   6.5437257
  36.8213623  36.7937382  25.6276298  36.0409164  37.2955425  25.3923988
  36.9593757  36.9862660  26.5550542  47.0360135   0.7814892   4.8749620
  46.8510365  -0.0902502   5.2243692  47.4471938   1.2487133   5.6021905
  33.3583474  51.3415098   3.3548501  32.9002571  51.8223715   2.6655346
  34.0335679  50.8450651   2.8924036  18.2957280  29.3545488  54.7907873
  17.9491485  28.8223556  54.0746255  17.9678834  28.9311603  55.5841930
  42.3122454  74.4016504  31.3153481  41.8617201  74.2124462  32.1384263
  42.4989176  75.3396511  31.3546109  11.7659700  34.6602392  25.2093601
  10.8228505  34.7069025  25.3661370  12.1279764  35.3938222  25.7063890
  37.9501700  72.1837378   8.1104791  37.8407645  71.7957497   7.2423047
  37.1390581  72.6696205   8.2596236  38.1367289  20.4513367  15.9592867
  37.9284321  19.8938091  16.7089617  37.5727843  21.2173088  16.0664272
  50.0915109   1.5178593   7.7499181  49.2645704   1.9963749   7.6913869
  50.7154690   2.1587284   8.0907905  41.1940670  62.1926641  37.4227238
  42.0618725  62.5041151  37.1655416  40.7299948  62.0662451  36.5951467
  53.9128685  58.4028769  31.7446780  53.0828047  58.8760900  31.6873002
  53.7297964  57.6682949  32.3304319  16.0035050  51.6776705  26.1585546
  16.4757144  52.2388458  26.7736411  15.1435494  52.0887995  26.0709262
  11.1833346  75.4246712   4.3671685  10.8832335  74.9336815   3.6022511
  12.1357167  75.3296328   4.3542415  58.1394053  57.7663279  14.8787904
  58.2800722  58.2145834  15.7127631  58.6093426  58.2998228  14.2378736
  12.7888393  76.1849022  24.9865866  12.8443050  75.3041458  24.6158838
  12.2614646  76.6768742  24.3572450  19.9693190  24.5134838  23.0472207
  20.7591873  23.9752110  22.9961538  19.9536800  24.9949272  22.2200608
  19.7946930  58.9310122   5.3236377  20.3033590  59.7172976   5.5217445
  18.8904464  59.1744709   5.5218732   9.1736687  40.3320316  66.3922969
   9.7834051  39.7572044  66.8549305   8.8737429  39.8124412  65.6464389
   1.4733557  64.7417974  22.6861429   1.3185975  64.9111319  23.6154461
   0.6811777  65.0559664  22.2502708  33.6017227  18.0643034  21.5528488
  33.4970880  18.3492541  22.4606419  34.3147850  17.4264300  21.5827131
  49.5875359  67.8304243  32.0596218  49.2139816  67.4678850  32.8629017
  49.4799900  67.1352625  31.4104581  25.8522184   9.7244843  19.9768150
  25.2396733   9.1058548  20.3747082  26.1399038  10.2774533  20.7032418
  23.3440256  70.2036810   2.4832058  24.2884922  70.1130342   2.3567243
  22.9610991  69.8816872   1.6671669  60.9637117  71.1322260  12.4409139
  60.3776264  71.8552876  12.6643491  61.7846632  71.5572834  12.1927333
  19.7896541  23.2435325  54.8681100  19.7901071  23.5575393  53.9638789
  20.5085576  23.7171987  55.2864988   7.3949487   6.5658482  49.7683096
   7.8447540   6.6184529  50.6115961   6.6640527   5.9675987  49.9236155
  75.5009501  31.0764507  20.0374492  74.6165054  31.2940601  19.7431119
  75.3806465  30.3329137  20.6281360  19.3307269  41.5314054  54.9788713
  19.9608111  42.1793175  54.6635437  18.4848011  41.9767284  54.9306345
  56.5263426  16.9082268  58.1559372  57.2636306  16.7444046  58.7439871
  56.9321357  17.0957478  57.3095369  19.0993846  15.2244428  64.4519110
  18.2855428  15.5594543  64.8282819  19.0689863  15.4966644  63.5347392
   8.6964423   2.9875191  53.4767485   9.0861137   2.5839956  52.7011442
   7.7527053   2.8945358  53.3465672  61.6722230  64.3664169  41.8212652
  62.2181754  64.7482777  42.5085402  60.7765083  64.4664621  42.1436262
  29.9682268   8.7943657  34.9847412  30.5656546   9.1570194  34.3306828
  30.4070234   8.0031975  35.2973914  80.7248367  56.4039183  38.7760401
  80.6860289  56.0095692  39.6473694  81.4759300  56.9960499  38.8143659
  21.9189501  31.1340284   8.0884159  22.2011328  31.1133528   7.1739888
  21.1927605  31.7575049   8.1009412  29.4850462  15.0406459  59.2596854
  29.2689460  15.8680299  59.6897681  28.9951794  14.3806222  59.7502245
  33.3472692   7.5704296  22.0902443  34.2014437   7.7047833  22.5008130
  33.4343009   6.7397888  21.6226006   7.4438763  62.5371647  22.7574229
   6.6542727  63.0714226  22.6718140   8.1544930  63.1723928  22.8453898
  68.1093311  56.7067432   3.9341685  68.2436800  56.3281107   3.0653659
  67.3247862  57.2471857   3.8411987  30.9559727  30.7331038  16.7381275
  31.4660215  29.9429846  16.5598142  31.6097927  31.4279652  16.8150461
  21.9159245  67.9637098  49.6195412  22.2853708  68.3343506  48.8180637
  22.3065615  67.0921278  49.6825933  39.0029097  68.9798403  23.1197476
  39.7006226  69.6064138  23.3116603  39.2528582  68.5925722  22.2808290
  30.1224073   7.8132351  30.7854009  30.2782472   8.6921509  31.1310172
  30.4729243   7.8403385  29.8951006  45.3194904  65.8876514  50.1958275
  44.6892881  66.5623665  50.4484797  45.3264856  65.9126902  49.2389822
  80.3800754  65.9333897  10.1522183  79.6901657  66.3482714   9.6344090
  80.2773869  64.9971247   9.9816257  51.2011587   0.4725130  28.4247589
  51.9368445   1.0299357  28.1712198  51.4046299   0.1995953  29.3193793
   9.0048504  47.1522474  14.7718000   8.0836689  47.1144724  14.5144486
   8.9905363  47.5026464  15.6624448  80.0767558  11.5426067  49.7545560
  79.8615043  10.8181766  50.3420086  79.2289775  11.8533042  49.4368024
  36.3054692  24.8094280  11.4137912  36.3540452  23.9184006  11.7601180
  35.3707462  24.9617298  11.2747645  71.0383975  14.6552666  60.6502581
  71.6169869  14.6836003  61.4122725  70.5996644  15.5059918  60.6508827
  65.3784052  24.3539627  35.4540658  65.3621165  23.9943417  36.3409925
  64.4809071  24.6480377  35.2983260  26.0081868  61.0208840  56.5154810
  25.2401957  61.0270090  57.0867814  26.2982660  61.9328256  56.4943560
  31.7950344  62.9814339  34.9634433  31.0289693  62.4529934  35.1873302
  32.4057198  62.3612356  34.5651364  22.9530907  56.9204807  37.9616785
  22.7885675  57.6253986  37.3353744  23.6882472  56.4346695  37.5878239
  18.7873924  33.4086800  46.5157366  18.8872838  33.5003948  45.5681944
  18.3707988  32.5546479  46.6311073   8.6904091  73.8960838   8.2363915
   8.4118503  73.0736160   8.6391139   9.6264279  73.9519691   8.4286869
  12.1584761  49.7264814   2.8657499  12.7473557  50.4780388   2.7978188
  12.7071428  48.9721155   2.6509753  22.2194529  56.3333702  53.1338549
  22.0058346  55.9653664  53.9912796  22.3094058  55.5712223  52.5617743
  47.3599672  69.2206287   4.9000293  47.0475245  70.0512028   5.2588522
  48.0223703  68.9241409   5.5241674  60.3748917  56.5282825  66.5385901
  60.6030588  56.6617492  65.6186119  60.4542511  57.3966315  66.9334452
  65.9181415   6.3270863  23.2732034  65.4437863   5.6637104  23.7743592
  66.2527620   6.9329365  23.9344192  17.6033950  61.1981630  40.7200623
  17.6286316  61.4140368  39.7878647  16.6888833  61.3277769  40.9712553
   9.7371490  20.8784683  29.9633312   9.9793632  20.0141819  30.2958608
   9.9872358  21.4827355  30.6622910  71.5238999  11.5475850   6.0431115
  71.4663552  12.4904685   5.8885257  70.7578741  11.3457780   6.5804307
  42.6867067  31.7024048   6.3256055  43.5484301  31.2955864   6.4159614
  42.1716069  31.0650070   5.8310002  28.6379910  46.2187195  25.6834745
  28.6287904  46.1418247  26.6375375  27.7332306  46.0494614  25.4208112
   4.9587066   9.4603737  23.6478114   5.4198034   9.9786766  24.3073416
   5.0935228   8.5524758  23.9194369  31.2205791  76.3616085  28.6358428
  31.6066074  75.9495354  29.4087672  31.2163496  75.6709385  27.9731274
  44.2508316  50.3276873  27.6723003  43.6055374  51.0342884  27.6490760
  43.8548851  49.6247053  27.1572518  40.6563818   1.2373932  18.6889088
  40.0106024   1.0662325  18.0034125  40.1339041   1.4301069  19.4674397
  74.0728585  55.2082205  23.1860733  73.3326004  54.7648191  23.6003733
  74.2408030  55.9670162  23.7448740  43.8993751  21.1982926  48.6004782
  43.3854615  21.4436920  47.8311253  43.2802831  20.7341202  49.1639519
   6.4572948  34.0768342   7.0932405   6.2494868  33.6891894   7.9434030
   5.9188908  34.8672061   7.0523517  65.5150735  12.4380882  15.6074119
  65.6312787  12.8617771  16.4578319  66.3220035  11.9403942  15.4755223
   3.5028812  53.6908817  23.5032010   3.7025079  54.6258926  23.5493898
   2.6643765  53.6023283  23.9563012  34.9837637  67.8759098  43.5214567
  34.2869020  67.4121189  43.9856863  34.8768735  67.6151896  42.6066732
  32.5188660  11.3222035  28.3678842  32.9668670  11.0637959  29.1733360
  32.9354887  12.1463211  28.1159091  46.6693955  11.0182670  63.2006951
  46.1358230  10.2728322  62.9252763  46.0336488  11.6956618  63.4313415
  70.7248389  14.3431576  19.1666400  71.4990746  14.3481835  18.6038244
  70.0954138  14.9038513  18.7131238  46.9959163   8.4903630  34.0125060
  47.4200832   9.0233715  34.6849728  46.0689151   8.4971054  34.2509484
  43.9414072  56.7464638  43.1722307  44.5568800  56.1445761  43.5907507
  43.8801050  57.4855137  43.7774420  36.4663768  73.4967899  26.2813234
  36.7267489  72.5761747  26.2512851  35.5094409  73.4754038  26.2742758
  71.4155046  55.4257011  41.6414690  71.0745708  56.3127518  41.5268803
  70.8044533  54.8699141  41.1577845  34.0927958  53.5112667  34.2517042
  33.6657691  54.2334557  34.7124934  33.3970904  52.8674793  34.1184378
  31.4105606  69.8242521  39.7701526  31.0823846  69.1798496  40.3972721
  31.5590477  70.6125975  40.2923489  18.5704827  66.1749697  43.3968067
  18.0950427  65.5339098  42.8683805  19.2389524  65.6622505  43.8512230
  31.8156457  44.3770456  16.7729008  32.4323893  44.6626091  16.0988760
  31.6768384  45.1536131  17.3150361  65.4932873  50.3250408  12.1154571
  65.2262525  49.4810057  11.7514074  65.7621376  50.1248837  13.0120552
  41.0238266  66.7323732  14.1759932  40.1418591  67.1043253  14.1723859
  41.0225534  66.1201143  14.9117696  22.9869723  65.4980278  49.9795580
  22.4571466  64.7456980  50.2432156  23.6214209  65.6043577  50.6883621
   9.4703478  34.3325496  10.7395506   9.8544049  34.7467184  11.5123355
   8.5959083  34.7159815  10.6719625  71.0503010  62.8641462  50.5830050
  70.8846609  62.6455021  49.6659470  70.7189946  62.1111536  51.0723686
  23.8654923  41.7159462  12.2765768  22.9752326  41.3995457  12.1230865
  24.4252253  41.0855198  11.8232620  72.6656853   1.1098250   8.3685297
  73.6085021   1.2619169   8.4333074  72.3556840   1.1386307   9.2736816
  75.9893530  12.2922519  57.8870453  76.5473073  12.4254850  57.1207775
  76.5304797  11.7849210  58.4920456   3.1724352  41.0199881  27.4833655
   3.8368142  41.0210848  28.1724453   2.4209967  40.5755663  27.8758693
  79.5436971  18.8537172  63.8799389  79.7047489  18.7329534  62.9441454
  80.1476376  18.2463554  64.3072502  20.2546995   4.9722298   5.3496224
  19.6707886   5.0306805   6.1058384  20.9745889   5.5682953   5.5562401
  53.3430134   5.7585152   5.9639859  54.1693484   5.9980305   6.3835531
  52.6876866   6.3071163   6.3950515  58.2847834  48.1402159  40.4942846
  58.1000757  49.0530729  40.2733707  58.7426233  47.7961063  39.7273374
   2.4220350  55.0674057   9.9146217   3.1182858  55.2553654  10.5440164
   1.7279652  55.6895685  10.1323617  76.3231408  22.9880245  18.6123252
  76.2083422  22.0395859  18.6715841  75.7416045  23.3421715  19.2851019
   1.6376613  66.1449909  38.9585042   1.6854036  65.6026697  38.1712079
   0.7202721  66.0966444  39.2273760  43.1228304  27.1757269   6.4399749
  42.3247623  27.2612143   5.9184307  42.8471851  27.3767781   7.3343068
   3.2363903   3.7550076   7.5291866   3.2531940   2.8097733   7.6791537
   3.7763869   4.1185005   8.2309771   0.7500403  55.6220055  44.8990822
   0.4025136  54.8737812  44.4136810   0.2065519  56.3599777  44.6229506
  21.5749860  50.5484438  34.6264768  21.6594291  49.8208141  34.0103126
  21.1975789  51.2589264  34.1078186  47.6341354  30.0667675   1.3537015
  48.4248935  29.9374302   1.8773451  46.9220649  30.0754173   1.9933215
  34.4732345  23.0356315  53.8449748  34.2747844  23.4666446  54.6762844
  34.1845287  23.6580661  53.1775518   1.2570648  73.3411121  18.8454425
   1.4321032  72.7829027  18.0878162   1.8314268  74.0971088  18.7237394
  47.2246790  56.2489986  29.2918634  46.3508415  56.5821457  29.4959497
  47.2113991  55.3408527  29.5940685  20.7307220  48.4351873  44.2105865
  21.5323758  47.9155016  44.2698193  20.8736229  49.1654110  44.8127365
   1.7338222  51.7304945  19.8817718   2.6460654  51.5757418  20.1269197
   1.4116153  52.3498964  20.5365658   9.0611297  73.8562298  39.2977786
   8.1933045  73.7545013  38.9069295   9.5490330  74.3822241  38.6641288
  61.2486410  71.9803095  55.9910917  61.4777374  71.0643005  55.8340073
  60.4481649  72.1172762  55.4844236  69.7923736  73.8247871  18.8166904
  70.2799015  73.0119991  18.9505601  69.5082156  73.7860012  17.9034638
  36.1482417   6.2026509  34.1040206  36.6714137   5.7722767  33.4277821
  35.3232288   5.7173737  34.1136169  81.0941952   1.8503526  44.9724491
  81.7739408   2.3689035  44.5420058  80.7009166   2.4500325  45.6064446
  39.5012307  68.9164925  18.4245086  39.9564219  69.6184587  17.9594553
  38.7069845  69.3294573  18.7634265  70.1550130  23.0476022  40.3369713
  70.5408756  23.2136869  39.4768786  69.2146616  22.9848456  40.1695347
  49.3248749  69.6266651  41.9508362  48.9921379  70.5233192  41.9117689
  49.5316458  69.4879866  42.8750944  79.7916126  38.1179404   3.8004440
  79.6347809  37.2280884   4.1163516  79.1508865  38.2397771   3.0998313
  29.9739850  17.3906091  64.2591991  29.8782123  17.1615842  65.1836485
  30.7820285  17.9023603  64.2216976   0.8903705  54.9954939  32.8952503
   0.6779309  54.0634441  32.8464603   0.5337297  55.2786875  33.7371778
  80.9247112  60.5216074  50.1374245  81.3643265  59.9298906  50.7480288
  80.9537411  60.0637245  49.2973423  11.4323414  38.2596305  60.5929817
  11.0080708  37.9255250  61.3832982  12.3049844  37.8664687  60.6051488
   3.0827863   1.2281903  41.6930866   2.5000341   0.7719191  41.0860872
   3.7588365   0.5846890  41.9054413   8.3327682  13.0998810  45.3093052
   8.5795982  13.4574040  44.4563770   7.5193412  13.5524281  45.5323935
  33.6768198  69.1810560  24.7343469  34.4640183  69.3469524  24.2156649
  32.9527617  69.3499851  24.1314936  29.6944488  21.1789468  48.3389934
  30.4175008  21.7836145  48.1722517  29.6851266  21.0732654  49.2902954
  78.8081025  30.7068210   4.7962491  78.0532764  31.1712508   4.4346206
  79.2361258  30.3157764   4.0346019  71.2495248  71.5888309  33.0098557
  71.3370041  72.3929644  33.5216665  71.5650110  71.8246698  32.1374559
  28.5885382  39.0046930  20.1480532  28.6950850  38.1543803  19.7216177
  28.1628418  39.5519400  19.4881022  18.6798847  69.7551823  21.8309522
  19.5624006  69.5344496  22.1287322  18.5725200  69.2649555  21.0158563
  30.0904184  13.0136307  29.7905660  30.3364011  13.6236771  30.4859543
  30.3882762  13.4360703  28.9849234  17.9124676  19.0500172  47.7335596
  17.6442926  18.8085182  46.8469954  18.1278401  19.9807366  47.6734829
  31.4180303  54.9404240   4.4491318  31.1583257  54.3286848   5.1380169
  32.3351049  54.7290754   4.2743850  78.1107764  14.1986609  30.5892444
  77.5132625  13.7008917  31.1473060  78.2881091  13.6173201  29.8497653
  62.7145999   0.6754854  50.2466770  62.1409105  -0.0714680  50.0758763
  62.4680119   1.3228491  49.5861109  11.8521261  60.0911951  23.8927913
  11.0138035  60.0314140  24.3509102  12.3025525  60.8242702  24.3122530
  19.3488491  58.5943413  30.1111650  19.2110527  58.7368631  31.0476112
  18.5472727  58.9169407  29.6992970  29.2375422  64.1203260  51.3481092
  29.7256017  63.7764788  50.5999088  28.3657312  63.7343597  51.2632084
  25.0057292  64.5756149   4.3205416  25.2220082  65.4342127   3.9568654
  24.1749096  64.3424177   3.9063066  19.1075265  48.0289030   3.8042170
  19.0825462  48.9273357   3.4749347  19.9448419  47.6835346   3.4946114
  57.0437204   7.6406677  43.4029961  57.6934611   8.0738457  42.8494358
  56.2689482   8.1998070  43.3452988  57.1570431   2.3610266  13.7172520
  57.8235423   3.0404957  13.8189101  57.0773303   2.2434290  12.7706540
  80.4466638  56.3136911  22.3601675  80.4350734  56.7541695  23.2099199
  79.5281528  56.1107063  22.1830606  15.5155885  67.1937370  33.7058663
  14.9105382  66.5478659  33.3411789  15.4440522  67.9468536  33.1194067
  27.1003580  52.7345133  15.8199322  27.4306202  52.2191525  16.5558410
  27.8545165  53.2471657  15.5289590  40.1446247  74.2238188  29.5068765
  40.9663486  74.3507195  29.9811101  39.4696474  74.5362091  30.1094103
  48.2533884  60.3550196  66.4110947  49.2018890  60.3401423  66.5389776
  48.0485010  59.4975710  66.0382175  39.3553543  57.1412611  43.7177420
  39.8170805  57.8068876  44.2276287  40.0436878  56.7018843  43.2183743
  15.7569100  72.5302811  66.0555141  15.4158951  71.7082090  66.4078489
  15.2817942  72.6540775  65.2338247  24.4805169  64.7163248  56.0878134
  24.1831398  64.1467047  56.7972708  25.3511834  64.3868446  55.8650780
  31.9123816  42.8876543  30.0685096  31.6056919  43.1726551  30.9292936
  31.9944167  41.9371367  30.1461101  26.1541581   9.2607367  39.3215299
  25.6351805   9.7759134  38.7038827  26.4323211   8.4944665  38.8198447
  25.0391412  35.1775575   3.2617310  25.5371332  35.8589816   2.8101820
  24.1650057  35.5520797   3.3705980  70.8484559  59.3784666  60.1714754
  71.2000625  58.9611387  59.3850613  70.1673476  59.9670792  59.8461151
  46.1901236  67.6747227  10.1579201  45.9484148  66.7987299  10.4586518
  46.8697214  67.9587841  10.7692254  20.5749314   7.0393952  34.0295792
  21.1023252   6.4093025  33.5385823  20.0786477   7.5098046  33.3597660
  59.5692646   2.2750052  52.0929718  59.8699748   2.8414639  51.3823891
  58.7857305   2.7092655  52.4302053  26.0711384  56.6341686   4.5340565
  26.1237597  56.8380880   5.4678017  26.9725180  56.7103386   4.2210945
  56.7279422   1.3399180  22.5328708  56.6898286   1.6597851  21.6315031
  55.8562409   1.5164383  22.8867197  16.5169525  49.5762968  31.8313837
  15.6242836  49.9197626  31.7938852  16.5432811  48.9030075  31.1515188
  30.2419134   2.9031666  33.6203361  30.1391407   2.5166996  34.4900012
  29.3600940   3.1859883  33.3781910  66.5970850  72.2344017  21.7600942
  67.2426414  71.8678904  22.3643780  66.6551304  73.1806087  21.8925905
  17.3203194  76.4718533  32.8330541  16.8083191  77.2392797  33.0882931
  16.6780519  75.7646942  32.7726865  76.9001662  14.2227085  35.8687234
  77.7804982  14.3582257  35.5181694  76.5311658  13.5254963  35.3265333
  45.3335619  61.1983967  29.4656134  46.0120392  61.1919498  28.7904382
  44.9730253  62.0845509  29.4344115  38.9404415   5.0634106  26.0903931
  38.8381290   4.6704777  26.9572067  39.7180437   4.6405609  25.7260132
  21.5721250  67.2634506  32.4119210  21.2838960  67.8446436  33.1157494
  22.0018363  67.8434134  31.7832518  71.9210469  17.5386532   9.7285450
  71.1296307  17.1633538   9.3424922  72.0975672  18.3185394   9.2023766
  55.9551799  17.4258621  16.3990390  55.6995475  17.1657761  17.2840452
  56.8861996  17.6363190  16.4707601  61.3075339  29.6016606  11.4428055
  61.7358457  28.7581452  11.5886199  62.0225202  30.2380188  11.4515746
  67.0640373  64.7947264  33.5372090  67.7377224  64.1160679  33.4947443
  67.1783447  65.1919937  34.4005418  16.2889589  20.0510362  58.1824704
  15.8598579  20.4080394  57.4048741  17.0753825  20.5862144  58.2890405
  58.5095894  16.2945088  31.2776709  59.2780697  16.6700943  30.8480096
  57.9342829  16.0371025  30.5572581  33.8413310  72.0179844  37.5396872
  34.5132470  71.8498373  38.2003593  34.3321323  72.1679974  36.7317009
  15.1445460  76.3773203  11.6834700  15.0989568  75.4272366  11.7906678
  14.2448723  76.6398287  11.4887679  74.1211259  20.2558907  49.2529392
  73.6386573  20.6389340  49.9855614  73.9718377  19.3138989  49.3342066
  48.3906184  51.0000043  14.8952310  48.7774925  51.8250089  15.1883809
  47.7635728  51.2564473  14.2189996  60.9669291   6.7137440  39.8969245
  60.9279072   6.5945919  40.8458805  60.0556981   6.8435295  39.6341586
  49.0071403  25.2475556  23.7615633  49.7338187  25.4958733  23.1901574
  48.5849177  26.0767182  23.9861631  46.0917104  37.0289567  50.6819566
  46.4699090  36.7562822  51.5179260  46.2112201  36.2730125  50.1070686
   8.8957841   7.9478939  13.1389165   8.6851175   8.8734349  13.2623279
   8.8307197   7.5685223  14.0153134  27.0186193  18.4270771  35.3363013
  27.5307138  17.6284798  35.2088475  27.5987966  19.1320618  35.0488567
  76.6731154   4.9657067  36.0408521  77.1936595   4.1851147  35.8512712
  77.2576462   5.5249317  36.5525389  64.5045840  26.0454472  21.3796425
  64.0208780  26.1390599  20.5589747  64.3762290  26.8803414  21.8298841
  74.7379958   1.5447195  19.0932119  74.0699135   1.2837704  18.4593332
  74.2978942   2.1810683  19.6567750   4.1082688  60.5945444  39.0485930
   3.6395665  60.6905365  38.2195401   3.6797734  61.2141418  39.6391201
  17.1216750  66.8148518  24.9953389  16.8950677  67.6695442  24.6287584
  17.6034117  67.0182085  25.7970905  13.8373435  58.1070998  66.5097684
  13.5224260  57.2087196  66.4099168  13.1602968  58.6452201  66.0995572
  37.1124506  74.1113472  38.9345765  37.2521400  74.5675039  38.1047344
  37.3404503  73.2005024  38.7485433  45.1243328  10.5457123  26.5547729
  45.8476650   9.9534424  26.7602968  45.2879225  11.3196285  27.0937705
  50.9586202  27.4514015   3.1925562  51.2826668  27.4862393   2.2925496
  50.7953083  28.3657559   3.4238812   4.2869568  72.5688505  19.6782959
   4.9594229  71.8876600  19.6789575   4.4730222  73.0883360  18.8961506
  35.3564035   0.6253775   7.9187351  35.4750835   0.1272257   7.1100390
  34.9146795   0.0176008   8.5117930  59.2322265   2.5257166  48.2213974
  58.9474498   3.1803997  48.8589811  60.1855575   2.6094063  48.2016850
  43.5861092  16.7515519  48.3328600  42.7150541  17.1478847  48.3124967
  43.6111968  16.1884883  47.5591906  22.0676279  77.2995281   3.6288476
  22.1691942  76.4708948   3.1605649  21.1857581  77.2590160   3.9988434
  42.7920198  76.9614935  31.1275959  42.1120596  77.6350164  31.1435223
  43.4855843  77.3080206  31.6889453   8.2725114  67.2180367  20.3754973
   8.8487011  67.9107046  20.0523114   7.7710134  66.9456673  19.6070278
  47.5388806  61.6131787   7.8410213  47.6814763  60.8417611   7.2925584
  47.4072383  62.3284822   7.2187249  20.6083822  47.4186182  25.0154042
  20.6689787  46.6452789  24.4545913  19.6811533  47.6555729  24.9972701
  75.9645127  72.9794645  27.3117495  76.4489101  73.5186958  27.9369068
  75.0749056  73.3323050  27.3299837  67.7350903  62.5814009  61.8350029
  67.5843000  63.3234787  62.4205065  67.8988791  62.9800797  60.9803295
  20.0785422  45.1592636  23.6767840  19.4575214  45.2141428  22.9504561
  20.1986980  44.2203093  23.8187504  27.2623491  60.6176949  23.6806464
  27.5549936  61.1725330  24.4036579  27.9015565  59.9058151  23.6511254
  37.9751492  63.1452560  35.3378034  37.6339841  63.9094639  34.8732352
  38.4857988  63.5120010  36.0595822   9.0036828   6.4500721   6.0466677
   9.7449691   5.8553036   6.1605650   8.3318288   5.9168156   5.6218368
  66.8224704   8.0424793  44.3555975  65.9880220   7.6881989  44.0483236
  66.5784370   8.7842282  44.9092054   5.4053695  13.4300335  18.9211655
   4.7519500  14.1238030  18.8319242   6.1824710  13.7749108  18.4813833
   3.2288606   7.1324070  25.8505440   3.5109288   6.5046604  25.1852632
   2.9907806   6.5921601  26.6039872  77.7577054  12.1662148  45.7141066
  77.6857173  13.0508621  46.0725117  77.1804702  12.1694382  44.9505472
  43.2072496  76.8751287  15.9328163  42.7172709  77.1798038  15.1690555
  42.5672865  76.8778372  16.6446257  41.6167831  66.4701128  43.0699682
  41.4274073  66.3702393  44.0029144  40.9680367  65.9180212  42.6334429
   9.5782453  46.9929743   7.5229597   8.6904186  46.8831396   7.8634477
   9.9318469  47.7363348   8.0114436   1.6170491  16.5480378  59.4241096
   1.4650787  16.3099626  60.3386904   0.9716357  16.0389665  58.9336784
  80.8924996  12.0385464  31.9831610  80.7095801  12.1672924  31.0524654
  81.5739190  11.3665875  32.0026112  30.2400255  71.6171169  31.4787292
  30.9010959  71.5727806  32.1695638  30.3802872  70.8238459  30.9617400
  37.7056098  55.5418968   0.1740992  37.2900796  55.1485348   0.9414549
  38.6399961  55.5429077   0.3818286  22.0624232  17.4917896  12.7135468
  22.5300523  17.1368416  13.4695685  21.2880474  16.9356449  12.6281810
  29.0872765  61.5038538  40.6408215  28.8736606  61.3912249  39.7145867
  28.7503886  62.3724794  40.8604193  63.0352890  73.7797931  57.3831000
  62.5172531  73.0005935  57.1812882  63.6626755  73.8434222  56.6629823
  47.0331597   8.3894642  40.3700829  46.9714140   7.7836235  39.6315932
  47.9397642   8.3129700  40.6674862  22.3015237  66.2763214  24.8612690
  22.2005820  65.9372187  25.7506800  22.7278996  65.5663967  24.3812251
  43.6181211  48.9283037  25.2614927  43.9283752  48.0336094  25.1218700
  43.9209890  49.4097233  24.4915938  36.1444354  68.2533407  26.2302351
  35.4985595  67.6543951  25.8556104  36.9341087  67.7217674  26.3306284
   0.0261470  57.7427959  31.4787722   0.8974590  57.4730539  31.1884522
  -0.0184116  57.4643087  32.3934793  20.8494102  19.9866684  32.6244760
  20.0039469  20.4338368  32.6627398  20.9205400  19.6859844  31.7185163
  20.4387773  20.3522590  58.4887280  20.9654582  21.0826686  58.8132914
  21.0596050  19.6287349  58.4031685  46.3604402   0.9999665  39.9052072
  47.1371960   0.5457409  39.5787692  45.8817541   0.3326901  40.3969765
  56.3312483  57.7374458  37.9789591  57.1582794  57.5301552  37.5438976
  56.3823891  57.2828245  38.8197541  16.5547085  56.9606876  12.0677614
  17.4132609  57.1953201  11.7155290  16.6729665  56.9766092  13.0174947
  79.2943199  36.7424297  29.8517537  79.9986194  36.7526531  30.4998970
  79.7303460  36.9330430  29.0212250  43.1375777  25.6624706  11.0364401
  43.2165753  26.4844998  10.5524397  43.7724745  25.7417401  11.7483771
  49.4012939  12.7751072  32.1919584  49.9979364  12.6187618  32.9239464
  48.8267767  13.4773167  32.4970269  47.6188946  66.6474438  34.4632483
  46.9991875  66.3995361  35.1493502  47.0807171  66.7427015  33.6774206
  55.0262064  36.1044984   6.6301267  54.8795408  35.7630353   5.7480161
  54.3004221  36.7113309   6.7758004  78.6665284  26.8485554  23.0806518
  78.6296593  27.7546318  22.7742171  79.5356929  26.7634114  23.4724855
   0.1727293  54.8200274  27.5991368   0.5924176  53.9730310  27.4485183
   0.8390538  55.4636765  27.3583889  48.4946715   8.9272602  52.9656410
  47.9949438   8.2631596  52.4908066  48.0005585   9.0666588  53.7735128
  59.6770751   3.8819798  37.4060869  60.0381934   4.7671993  37.3590851
  59.6182620   3.5985478  36.4937067  34.3715787  55.6118202  17.2711194
  35.3117275  55.5905581  17.0925176  34.1606140  56.5434074  17.3333573
  76.5877425   9.0136345  23.3781338  77.5102841   9.1801174  23.5715985
  76.3537299   9.6818550  22.7339649   5.4849230  33.0955990   9.8129499
   6.2893759  33.2841309  10.2962124   4.8388778  33.7001808  10.1781142
  21.1015010  56.2496853  30.6763411  20.5225635  56.9934177  30.5092311
  21.8364906  56.3788700  30.0768948  18.7174302   4.3516930  23.4191871
  18.2218003   4.7519119  24.1336131  19.4260889   4.9706085  23.2431936
  55.2116858  23.4289937   0.8021848  55.1067719  23.2986312   1.7446439
  55.6612582  24.2705541   0.7253806  62.2571516  53.8143539  18.8284969
  63.1607580  53.5239077  18.9524496  61.7350292  53.1989765  19.3432057
   7.8795332  67.4344492  25.8831334   8.3846420  67.9983425  25.2973676
   8.1596971  67.6899195  26.7620397  31.5119004  51.9054747  33.9950633
  31.9643164  51.1731148  33.5764956  30.7198620  52.0283031  33.4717870
  55.4148483  74.7452450   7.5261259  55.8950520  74.7581339   6.6981965
  54.8574114  75.5226278   7.4918169  78.4296077  30.0748590  55.1972278
  79.0733426  30.7277349  54.9222858  78.9502995  29.3798021  55.5997248
  44.5905209  71.7298985  22.3877716  45.4135227  72.0200062  22.7811408
  43.9128256  72.1874189  22.8854036   2.7736533  27.9478839  31.4100059
   2.3480452  27.7732471  30.5706056   3.6549271  27.5875524  31.3112576
  12.0798421  74.6461964  35.1424646  11.2886274  74.1192818  35.0303435
  12.6834047  74.0741301  35.6164694   0.8091244  47.8636837  23.6917615
   1.2056697  47.0293283  23.9424300   1.3040768  48.1422091  22.9212570
  56.3902079  14.6764286  41.7241287  56.0991012  13.8040741  41.4586449
  55.8240353  15.2760514  41.2381935  15.8860690  21.0893353  16.3966548
  15.0149018  20.7250698  16.2398160  16.0312326  20.9675701  17.3349154
  78.0020894  66.3653517  37.7638030  78.7872110  65.9553576  38.1267381
  78.0776538  66.2327433  36.8188500  54.4495726  67.0661497  40.5159426
  54.0536833  67.9100609  40.2984142  53.8175869  66.4179039  40.2051306
   5.5141700  42.9269508  63.6373092   6.1433113  43.6479381  63.6129292
   5.0825775  43.0143169  64.4872071  58.5625743  16.2177756  59.9435844
  58.4575810  16.9933179  60.4947092  58.0700155  15.5334619  60.3967251
  66.2017155  37.0854878  21.1933208  67.1342659  36.9374299  21.3503599
  65.7627439  36.6330123  21.9135976  51.3751446   4.4336327  31.3863587
  50.9177148   4.3977078  32.2264194  51.4514767   5.3683956  31.1949897
  74.4506376  24.5978311  63.3667652  74.3601899  25.3072408  64.0029930
  73.5977905  24.5536807  62.9344060   1.4950055  44.9429708   9.6147458
   1.6118163  45.0839620  10.5542724   1.1286825  45.7665734   9.2926805
  35.6813717  76.2552071   6.9929165  36.6291046  76.3489246   7.0891064
  35.5254388  76.3502121   6.0532939  64.8059856   4.7030457  42.1867847
  65.2782380   4.0488632  42.7018118  65.0093972   5.5357273  42.6128054
  37.5005960  66.9212246  38.8953280  36.7266488  66.3684368  38.7873340
  37.6470566  66.9461727  39.8409271  57.2018253  13.7386330  60.4114628
  56.5475427  14.3206890  60.7979298  57.1604096  12.9444607  60.9442091
   1.1846835   6.3905247  16.5149581   1.2389571   6.2395294  15.5713034
   2.0733554   6.2336167  16.8341291  20.9905683   2.8078469  30.4595757
  20.4955470   2.1430929  30.9384131  20.4355239   3.5871418  30.4888582
  12.8419542  77.1060371  46.2564230  11.9484651  77.0424557  46.5938663
  12.8170693  76.6365290  45.4226542  30.8030952  21.9947580  62.2758146
  30.2430070  22.4556735  61.6512443  31.6886247  22.2940210  62.0696290
  76.1903035  18.8107689  42.3579741  76.9890629  18.4267910  41.9963455
  76.3206803  18.7862595  43.3059359  10.9277398   6.6886433  20.8530092
  11.6111858   6.3954170  21.4556336  10.9458739   7.6435478  20.9166455
  68.6895692  10.3139599  64.8174620  69.3741547   9.6692570  64.9961567
  68.6684882  10.8641918  65.6004238  26.6132272  41.9292834  65.5545005
  26.5045417  41.0009912  65.3478773  27.2090448  42.2564986  64.8805808
  47.3349142  76.2151051  66.5730286  46.3982868  76.3726044  66.6920042
  47.7337694  77.0828676  66.6373348   7.1361578  76.7934752  20.8877873
   6.2214816  76.9309616  21.1341524   7.6330614  77.3385668  21.4978623
  43.4988642  46.4711857  19.5433617  43.4168243  45.8474064  20.2647519
  43.3509493  47.3260021  19.9478853  43.9546585  60.7223892  40.9294558
  43.6275101  61.6060448  40.7610416  43.1847286  60.2331638  41.2194490
  62.0045983  18.0670460  22.8788972  61.6641676  18.9273747  23.1241941
  62.3950135  18.2012757  22.0153069  17.6844305  66.4362531   1.9301717
  17.6585096  67.3525052   1.6544168  18.2662004  66.0125642   1.2990920
  14.7533143  42.6559258  29.4917011  14.5085740  41.7503071  29.3014717
  14.2824268  43.1735325  28.8385677  44.2710352  69.7114372  26.4240360
  44.8236561  69.0103006  26.7693567  44.8894262  70.3706026  26.1088824
  19.9665225  70.8027601  29.0287018  19.2817020  70.3192854  28.5666347
  20.5764747  71.0700893  28.3411503  43.2012701  68.5983086  32.7360892
  42.9110384  69.5018339  32.8611588  43.1308985  68.4525585  31.7926717
  65.8938562   6.5542706  50.6897831  65.6095421   6.0161885  51.4286137
  66.8491685   6.4960583  50.7047081  79.6706807   9.5536335  43.6108971
  80.2022015  10.3412827  43.7263393  79.0932976   9.7599228  42.8758430
  80.0585114   5.8946713  47.8348684  79.7070872   6.4612015  48.5217333
  80.1565158   6.4703377  47.0764256  10.7100058   7.3436826   4.1930079
  10.1676381   7.5949085   3.4453756  10.1179552   7.3874575   4.9438685
  50.2492756  36.5463309   8.8854091  49.3161911  36.4403682   8.7000625
  50.4357952  37.4582248   8.6620395  23.3717502  49.7370437  66.1288744
  23.6703981  49.0536216  65.5288947  23.7142766  49.4726279  66.9826826
  80.4677760  40.4044064  55.8788967  80.2882706  40.1806839  54.9656820
  80.3202712  39.5893391  56.3586187   3.2147046  44.7905779  60.0128031
   3.8852520  44.1679907  59.7317743   2.3891182  44.3972349  59.7301102
  56.9895506  73.4131765  48.6715984  57.5737858  73.5850573  49.4100809
  57.1987963  74.0978527  48.0362511  26.4588642  73.5213614  39.0172744
  26.1006403  72.9278517  38.3572316  27.4039507  73.3730078  38.9850903
  48.7533485  12.7463635  52.3684120  48.5794245  12.1168621  51.6686153
  47.9960262  13.3316620  52.3577356  68.2824456  26.3319882   4.9089444
  69.0839183  26.4362343   5.4217857  68.3562695  26.9857128   4.2136556
  71.9711494  70.1859331  21.1111236  71.0852623  70.2885866  21.4588237
  71.9966602  70.7615995  20.3468013  67.8833472   9.5369633  20.8982348
  67.7410733   9.6262844  21.8405795  67.3543774   8.7798508  20.6468487
  34.2439985  66.4077044  41.2913036  33.8597059  65.5460978  41.4531183
  34.3788266  66.4357567  40.3440619  40.7943773  61.7115545   8.6577046
  41.3376760  62.4937582   8.5617208  40.7037783  61.3721228   7.7673042
  55.6584393  18.4507759   5.4715681  55.9802424  17.5529965   5.3898358
  56.4479148  18.9914330   5.4461968  38.4219628  12.4386028  63.0511566
  38.8174956  12.4345973  62.1795090  38.4910183  11.5317681  63.3496799
  27.2149229  74.9802017  41.4511490  26.5686512  74.9375296  42.1559525
  26.8732142  74.3928719  40.7769775  41.9957399  51.7549992  39.1252708
  42.5801659  52.0091391  38.4110665  41.5058184  51.0087538  38.7798333
  60.8202839  74.0638447   9.2906737  61.6734219  73.6410379   9.1925949
  60.2629662  73.3908606   9.6814704  73.8440549  10.3420265  45.1078701
  73.9373862  10.7941349  45.9463882  73.5180031   9.4724186  45.3396177
  35.4147781  27.4379638  59.4620408  35.3262533  27.9608205  58.6651619
  34.6534074  26.8578962  59.4537158  76.0671794  38.5016831  19.7448289
  76.6620719  38.9879044  19.1739261  75.6322324  39.1756352  20.2671623
  51.0604811  50.3214312  40.8898735  50.4866219  49.5616913  40.7913542
  51.7113304  50.0477695  41.5362024  54.0842342  57.6283360  42.3043871
  54.0263224  56.7544508  42.6906538  54.9569178  57.9392767  42.5451660
  26.0831083  19.3538240  61.1826815  25.9456313  18.5865167  60.6271877
  26.5627731  19.0183643  61.9400586   3.6329618  68.5014343   9.1581804
   3.7477031  69.4500256   9.2150980   3.3610129  68.2398605  10.0378704
   6.3382996  34.6071342  64.5676382   6.0164822  33.7127641  64.6806005
   6.5181006  34.6803907  63.6303349  35.8402639  15.6160267  16.4816391
  36.2647139  14.7630985  16.3889742  36.3237911  16.0490044  17.1851742
  39.3765830  22.0356758  59.3691683  39.8981034  21.9177445  60.1631069
  39.8925947  21.6182430  58.6794424  12.3956870   1.9212588  35.8967376
  13.2264387   1.6030176  35.5434537  12.6462042   2.6005371  36.5228772
  76.0258853  21.9190987  51.2057638  75.1068627  21.8988045  51.4726400
  76.0214125  22.3789890  50.3662920  17.2680318  73.7023640  46.4473724
  17.4656749  74.3211985  45.7443714  17.2336555  72.8498840  46.0134077
  61.5169870  11.5684422  10.6454682  62.1432959  12.2509201  10.4042518
  62.0345389  10.9318264  11.1385107  77.9500424  31.4309605  48.1174088
  77.5117194  31.9489773  48.7925100  77.9856860  30.5458554  48.4801102
  57.5099277  65.7774305  27.6418900  57.5088835  64.9334526  27.1902966
  56.6390181  65.8403111  28.0340528  70.7455349  69.6011305  61.9766665
  71.5273809  69.0679932  61.8327284  70.7988310  70.2885628  61.3127184
  69.7378247  61.8330386  63.7812238  70.2077525  62.6495650  63.9506067
  69.1609948  62.0369533  63.0450724  72.4458539   8.0231484  18.3909070
  71.8422400   8.5234555  17.8417504  72.6209294   7.2264202  17.8900945
  78.0571448   1.8110855  13.1648540  77.8433215   1.4084585  14.0065217
  78.9434993   2.1532162  13.2813036  39.3466616  44.0718269   6.8461531
  38.9340615  44.6942806   7.4449408  39.3335772  43.2397842   7.3191881
  30.7485795  57.4254417  47.3045826  30.0676441  57.7850819  46.7360592
  30.3248739  56.6929293  47.7519464  75.2838456  10.8716400  25.5833387
  74.4559228  11.3519772  25.5907083  75.1079261  10.0993736  25.0458550
  55.0597393   4.0677651  14.5446134  55.6831943   3.3566483  14.3967950
  54.8173296   3.9859017  15.4669845  19.9892944  65.4276280  14.6995751
  19.2140240  65.6532865  14.1855161  19.8086304  65.7780175  15.5718343
  11.5013654  19.4966706  33.8955688  11.1074645  19.8685082  33.1063843
  10.7553584  19.2524155  34.4433355  35.3330635   9.0541466  53.0782795
  35.2794468   9.1406353  52.1265078  36.1821412   8.6404618  53.2337332
  58.0945527  16.1704834  39.2875934  57.2475564  16.6118057  39.3513703
  58.2300269  16.0467728  38.3481407   1.6724546  35.7162102   8.0846250
   0.8540733  35.4795845   7.6481700   1.7713363  36.6533192   7.9164445
  45.0709628   6.3005741  16.2948680  45.7025193   5.5828007  16.2482524
  44.8894583   6.3995751  17.2294736  67.2756635  21.7627056  17.0903981
  66.9069564  21.1292847  17.7060819  67.1780097  21.3482292  16.2331331
  18.4627492  15.7697113  31.9947839  18.1051309  15.8693798  31.1125088
  19.3189866  15.3630741  31.8616366  48.0384504  20.7147701   5.4053628
  47.8156244  20.5842598   6.3270718  48.7537228  20.0998886   5.2424824
  67.1989166   7.0073803  28.4159780  67.8284442   6.4710720  28.8979626
  66.9108187   7.6653202  29.0486979  33.6422253   9.6139604  36.2824368
  34.2398739  10.2308524  36.7049146  34.1566324   9.2303902  35.5721617
  10.1618207  26.0758591  10.0992620  10.7596934  25.3846884   9.8145509
  10.2494717  26.0907865  11.0523236  11.2085545  16.5627050  25.3803468
  10.4188943  16.6366053  25.9162641  11.0396194  17.1269679  24.6258259
  43.5998754  14.1389275  15.6534123  43.2956461  13.2350504  15.7351589
  42.8389792  14.6699393  15.8885586  76.3240474  68.3260469  30.4191899
  75.4005354  68.3237300  30.6708860  76.5253132  69.2473809  30.2552748
  67.2550612  70.6377320  35.0533962  67.0341068  70.3879307  34.1561723
  66.4280336  70.5721519  35.5308437  74.8864977  21.7559814  30.8556342
  75.3266571  21.3662267  30.1002645  75.0317709  21.1312389  31.5661454
  80.2131037   9.9322176  36.6016960  80.4567626  10.3679478  37.4183965
  79.9199579  10.6416988  36.0299134  37.9469395  20.8023500  19.6983695
  37.0076394  20.6636262  19.5771146  38.0785823  20.7368994  20.6442118
  25.5993331  53.5022084   7.8659439  25.7276214  52.5577800   7.9544157
  24.6497978  53.6110513   7.8133482  81.1165291  44.1069937  11.4573860
  81.8931705  43.6728764  11.1044002  80.4468839  43.4232426  11.4744341
   0.5932134  26.4045262   1.1584879   1.5179375  26.4216018   1.4051168
   0.1580188  26.9377065   1.8237381  32.2473884  11.8333828  37.0584536
  32.2654629  11.5311193  37.9664969  32.6171994  11.1068857  36.5567827
  74.1380851  11.3321412  18.6064303  73.9950816  10.8570743  19.4250214
  75.0901775  11.3889849  18.5256779  52.5644046  42.3514278  40.0623353
  53.3785325  42.8173245  39.8716338  52.6431042  42.0983000  40.9820993
  57.8880292  36.0676853  45.5513819  58.4611398  36.5454530  46.1509760
  57.4945241  35.3822322  46.0913260   5.6836885  18.4861517  31.3875771
   5.6020004  19.3137348  30.9135890   5.8301204  18.7447214  32.2974849
  68.5511612  76.0703956  51.4898200  68.6897003  75.4549586  50.7699068
  68.8698577  75.6079518  52.2649391   6.1204600  27.1480751  20.4785156
   5.1725107  27.2429872  20.5713367   6.2329787  26.6453242  19.6717846
  38.2778358  29.6272397  31.3922024  38.8246655  29.4214845  30.6340003
  38.1711197  28.7905145  31.8446755  39.1728234  42.6646948  28.9865947
  38.4077024  42.3379135  29.4599175  39.8353052  42.7972794  29.6646595
  19.8830187  25.7654262  16.4959300  20.6178665  25.8944559  15.8962798
  19.2467308  25.2602458  15.9898055  25.6318331  35.5858994  40.0825834
  26.1044574  34.7611380  40.1949596  26.2831616  36.1881089  39.7229362
  27.9204464  19.4578969  24.5149994  27.2722864  19.5837116  25.2080321
  28.7587643  19.6563971  24.9321961  71.9359152  38.8011122  35.2050352
  71.9407563  37.8674078  34.9943137  72.6261966  38.9023256  35.8603954
  21.3143063  19.7025228  21.6883707  21.2957597  19.0795338  22.4148512
  21.1025953  19.1770828  20.9168005  56.2813216  76.8661167  55.1352549
  55.3523510  76.9307429  55.3567696  56.2936813  76.4489612  54.2738295
   9.3853527  64.6276064  65.8058739   8.8698405  65.0011582  65.0910743
   9.1017455  65.1093216  66.5828871  15.6758869  43.9647865  26.1254430
  15.3273106  44.4216442  25.3599310  14.9807990  44.0299129  26.7803049
  27.5509858  22.8941631  31.8452024  27.4244261  23.8429570  31.8473101
  27.6838994  22.6682115  32.7658057   2.0162062  60.2938938  24.5525694
   2.1239294  60.2176619  23.6045098   1.3995081  59.5981455  24.7802615
   5.2867895  74.9164791  53.0362733   5.2608543  74.3257565  52.2835405
   6.1893850  75.2342410  53.0603750  81.0743899   3.0841622  54.6452332
  81.3567307   3.9985794  54.6641254  81.4477399   2.7017605  55.4393435
  55.3696064  34.5611429   9.6418971  54.6348147  33.9683008   9.7995412
  54.9599103  35.3881383   9.3880075  31.4678955  37.2601557  58.8779831
  32.0194650  37.0347118  58.1288624  31.3472533  38.2072973  58.8101530
  42.1984053  31.9817829  14.5036352  41.4831924  32.4184990  14.0410566
  41.8974543  31.9244981  15.4104853  21.9493961  28.2616377  29.6263075
  22.0099878  27.3739958  29.9793720  21.1456347  28.2582998  29.1065121
  76.7481993  70.0393009  54.8150396  76.1853497  69.4008398  55.2529860
  77.3492889  69.5093679  54.2915010  13.8739383  45.9172058  16.8204618
  14.7096348  45.5984354  16.4795363  13.2308924  45.2774048  16.5148771
  33.5098362  37.1733451  16.3642228  33.0582523  37.2392321  15.5228186
  33.4897327  38.0628800  16.7171431  70.5442373  21.3458848  25.6631804
  69.9092381  20.6420040  25.5306697  70.9388320  21.4778996  24.8011494
   5.3098238  15.9270719  52.2023089   5.9849871  16.3055947  51.6391869
   4.4839514  16.1970285  51.8007036  76.2101196  19.6972799  35.6813025
  76.1393581  18.7481654  35.5792928  75.7484965  19.8854208  36.4984560
  24.9956012  29.8103666  40.6101990  25.8964086  29.7622180  40.2901030
  24.5819974  30.4773045  40.0621462  12.5417078  46.8258381   3.1595245
  11.9602859  47.1806622   3.8320425  13.3220959  46.5486813   3.6395356
  33.0414939  31.8304539  27.2634029  33.9249706  31.6729450  27.5964022
  32.8648829  32.7466798  27.4768734   3.6671937  52.6578569  40.8581734
   4.2434490  51.9987631  40.4711914   3.8643867  52.6284218  41.7943764
  71.8180303  20.2678299  27.7498507  71.4060430  20.7890964  27.0608091
  71.1208789  19.6918905  28.0637074  42.3640347  51.4625072  21.1195660
  42.9224730  51.9312763  21.7397547  41.4733601  51.6201830  21.4327192
  49.0188836  18.2747224  55.8221109  48.3539247  18.2394460  55.1344951
  49.1135531  17.3669389  56.1105509  30.6355977  27.7666450  41.4966202
  31.1652112  28.4380460  41.0665464  29.9501729  28.2567453  41.9507408
  14.9522126   5.8189538  43.3330400  15.7488168   5.3533509  43.5877331
  15.2570689   6.5136293  42.7493270  29.3809851   5.1977356   9.5997101
  28.5387751   4.8386009   9.8788893  29.8974600   4.4312771   9.3506390
  41.4301782  55.5769078  42.1357775  41.8790047  55.0237839  41.4963722
  42.1305185  55.9134857  42.6947689  75.5918602   6.5291375  32.8354669
  74.8336647   6.6013438  32.2556758  75.2383266   6.6803664  33.7120366
  80.9168036  34.1547489  26.0412407  80.3565095  33.6743855  26.6507912
  81.3828038  34.7852635  26.5903544  80.0802423  31.2324691  23.3627033
  80.1501338  32.1302104  23.6873674  80.9708975  30.8866787  23.4209752
  11.6634214  24.2954111  12.3701847  11.2966824  23.4217334  12.2344637
  11.8472803  24.3348455  13.3087325  49.3924522   8.4485447   6.4251286
  49.0077305   9.1076946   5.8474225  48.7073946   8.2640684   7.0677012
  17.2272980  19.6027887  24.5038080  17.5460064  19.3400323  25.3672981
  16.7786670  18.8268709  24.1677809  15.6199700  66.2236781  53.8162704
  15.2634269  66.3434501  52.9360636  16.5019387  66.5927215  53.7696929
  22.4867535  56.4817333  33.8546562  22.4040484  55.5563784  33.6242151
  22.6717186  56.9198322  33.0239391  74.9249749  18.0457783   4.1371283
  74.6284787  18.7180197   4.7506547  74.5197104  18.2863617   3.3039939
   3.8235334  50.7606888  21.2359428   4.3986297  50.0523806  20.9464693
   4.4024983  51.3640881  21.7017102   5.0317830  33.8117123  21.8794370
   4.4513205  34.0496159  21.1564589   4.4727769  33.3251595  22.4852514
  20.3208685  49.3117571  22.0506716  20.8829117  48.5919285  21.7639852
  20.9056783  49.8934460  22.5363326  32.5431633   3.3485830  38.4347343
  31.7560124   2.9150128  38.7643433  32.4645352   4.2523226  38.7401915
  21.7312455   9.6919465  26.3711929  22.1309018   8.9864087  26.8798399
  20.9863091   9.2796105  25.9338355  24.9377012  52.2875452   0.3975436
  25.8669090  52.0936298   0.2742586  24.9247241  53.1658840   0.7777876
  75.2027951  27.1957564  35.9509945  74.5929889  26.6990709  35.4054022
  75.1440827  26.7829633  36.8126130  35.8553910  20.6091380  23.3780813
  35.4320645  21.4652419  23.3139563  35.1948190  20.0447941  23.7798214
  12.2364855  33.6710143  32.0472622  12.3886156  32.9051590  31.4935875
  11.6922629  33.3443022  32.7637196  14.5743394  48.1064749  41.2133932
  15.1458728  48.8567543  41.3766956  14.2449808  48.2450819  40.3253937
  16.9696319  18.7075078   7.0024276  16.9733632  19.3367398   7.7237350
  17.8804934  18.4228015   6.9282377  51.5082457   7.3500446  66.7608026
  51.4486193   6.9427970  65.8966112  50.7141926   7.8799108  66.8311820
  17.0891893  32.2844148  14.6829557  16.7631018  31.3851714  14.6474934
  17.6061130  32.3201752  15.4877806  22.1060848  11.9981217  27.6719499
  21.4681005  12.0500088  28.3836508  21.9012618  11.1762178  27.2261333
  27.6825762  28.5027122  41.4292860  27.4378562  27.6226640  41.7153931
  28.0464554  28.9164948  42.2119761  17.7588177  23.9869142  20.1161098
  17.4026740  24.2411637  20.9674311  18.0073857  23.0689812  20.2249384
   2.7493609   8.1411842  64.3517219   2.5665391   8.6757949  63.5790651
   3.5517395   8.5142663  64.7167279  39.8089294   5.1736313  19.5261002
  39.6909933   6.0422248  19.9106359  40.6950597   5.1900750  19.1645300
  75.0957815  55.9709692  40.9507990  75.9323768  56.4270639  41.0420132
  75.0275932  55.4353237  41.7411566  75.4380029  28.8438609  59.1855617
  75.2790468  28.4507707  58.3273985  74.5717686  29.1161254  59.4884510
  29.3166590  38.8420486  16.4595366  29.1400814  38.2778239  17.2123325
  29.5955181  38.2402730  15.7693660  53.3028155  10.3711243  38.6813434
  52.7253133  10.9155865  38.1462892  52.8789168  10.3433747  39.5391162
  23.3709717  37.6863241  39.0878487  23.1609082  36.8640947  38.6450815
  23.4071469  37.4559879  40.0162172  77.8116353  32.6493835  52.0358801
  78.0444024  31.8351722  52.4820995  78.6253993  32.9366350  51.6217470
  39.6434808   8.3739722  53.1104946  39.1867089   8.1019402  53.9064741
  39.7410536   7.5682104  52.6030874  20.8620286  44.1292667   5.1294976
  21.2850451  43.7831306   5.9152961  20.4226446  44.9265003   5.4254466
  16.6579235  42.6757860  22.7331567  17.4055481  43.2424021  22.5427961
  17.0021784  41.7870712  22.6442313  54.4709401  64.6345615  10.3039205
  54.7305946  65.0970650  11.1007285  54.7995667  65.1824141   9.5911115
  23.3006358  29.3082356   4.9294668  23.2828426  28.9253569   4.0523586
  24.1653657  29.0821123   5.2720171  78.9463110  24.2348146  17.9414117
  78.8030164  24.8485351  17.2209632  78.0875812  23.8407183  18.0947149
  77.5066916  26.4460158   5.2443391  77.9963125  26.3949513   4.4234276
  77.7353178  25.6415868   5.7100165  46.3130366  46.9367066   2.3892324
  45.7266998  46.8647578   3.1424014  46.6181087  46.0423037   2.2368972
  16.3878691  28.6102843  20.8955979  16.1651897  28.2967734  20.0190377
  17.3156881  28.3980751  20.9973407  13.6454642  43.2661533  43.5781002
  13.3957374  43.8450050  44.2983770  14.5303726  43.5449076  43.3425903
  24.8152423  56.3745637  42.7770002  24.1206100  56.4798160  42.1268924
  25.4993825  55.8857913  42.3195227   7.4589825  33.3285618  33.5754299
   7.1017635  32.6677918  32.9821253   8.3240992  33.5287380  33.2180309
  23.8674116  46.5151834  29.5995378  23.3172631  47.0986319  30.1221800
  23.2936120  46.2111473  28.8962960  60.1673161  14.8559669  32.8547271
  59.3378510  15.0917724  32.4392565  59.9190556  14.5431712  33.7246449
  68.4858757  36.4129288  65.5084552  68.6667210  37.0621402  64.8287122
  68.1630188  35.6491230  65.0303361  19.0430713  27.8224349  20.9437013
  19.2823052  27.5782633  20.0496197  19.5950711  27.2711873  21.4983678
  67.6936011  10.6335068  36.9829178  66.8006842  10.9098208  37.1892738
  67.6360898   9.6818787  36.8973136  77.8592737  52.0222998  23.7275290
  77.8601442  52.9168463  23.3869123  76.9395666  51.8404484  23.9206600
  55.2129221  48.1347179  30.6650591  55.8121252  48.2054949  29.9219751
  55.2141571  49.0076685  31.0577273   1.0501998  21.3066649  16.7773294
   1.7775691  21.6414380  16.2528360   0.4579225  22.0529652  16.8694103
  20.8642881  33.2875589  53.4834559  20.9280865  32.8661397  54.3405254
  20.9713691  34.2208913  53.6669059  21.5385938  65.2588987   4.2895681
  21.7455578  64.3411922   4.4662434  21.8107319  65.7225561   5.0815237
  22.5847816  -0.3254792  54.2645693  22.0683885  -0.1079261  53.4885311
  22.8284359   0.5225771  54.6356058  27.8015399  30.2390599   4.4828528
  27.5614285  31.1518884   4.6419752  28.6072993  30.2894926   3.9686173
  57.7502542  18.6701015  56.1351414  58.1403761  19.2233709  55.4584356
  56.9579505  19.1376785  56.3994511  32.2727394  39.1172719  11.6111422
  32.5235581  39.6790600  10.8778512  31.9940281  39.7262621  12.2950149
   9.8946500   0.3522874  17.7179098  10.5264461   0.2970829  18.4348607
   9.2453235   0.9877312  18.0192709  78.8682817  32.8368330  34.2106867
  79.0469010  32.1521211  34.8552775  78.0191524  32.5993848  33.8380885
   5.5349642  30.0274849  47.7951622   5.4929513  29.1659975  47.3800659
   4.8851687  29.9871922  48.4968567   8.2353503  68.9955473  28.5324144
   8.9350253  68.9804173  29.1854501   7.4924743  68.5772228  28.9675832
  58.2478028  54.1701729  64.3706532  58.7561756  54.5659323  63.6627247
  58.4388882  53.2342989  64.3085329  49.2911976  41.2721197   1.5166394
  49.6909400  41.9331495   0.9514160  49.7403281  40.4583041   1.2881292
  31.1556888  19.9664509  24.1227102  30.9098864  20.6760120  23.5291338
  30.5314565  19.2666221  23.9308667  28.3685327  36.6015458  18.0484593
  27.8222299  36.1201930  17.4271011  29.0670490  35.9886885  18.2780504
  40.4556847  23.9420962  11.9502652  41.0437346  23.2594728  12.2734594
  40.6862879  24.0391684  11.0263443  41.2979364  26.6436434  31.0142612
  41.8537426  26.4341187  30.2636504  40.9159327  25.8043957  31.2710977
  42.7067392  73.2309870  58.5473013  42.8661399  73.7650068  59.3255329
  43.5325640  73.2592909  58.0641365   7.5766081  18.1196666  21.5269327
   7.0862401  18.4374142  20.7687736   7.2594231  17.2264206  21.6601133
  25.3453272  67.6985339  30.6246066  25.8020013  68.1437711  31.3383603
  24.4402592  67.6261107  30.9276605  18.7672078  45.7686497  62.5336407
  18.6969846  46.6806043  62.2514366  18.7655604  45.8130146  63.4898107
   8.7610680   4.0912509  12.2029841   9.2248452   4.1768464  13.0359399
   9.3038142   3.4952536  11.6867995  75.3672801  67.5368829  65.9703048
  75.8602105  66.7886324  66.3070160  75.1226006  68.0334802  66.7511733
  23.9275325  76.6066438  25.8383465  23.9158834  76.8582507  26.7618132
  24.2939199  77.3673546  25.3874445  12.0224524   0.6464612   9.6709794
  11.5219080   1.4286387   9.9031121  11.7699552  -0.0029922  10.3272474
  18.7318945  28.0151987  17.9648304  19.1925585  28.5154176  17.2911835
  18.8221502  27.1029162  17.6894581   6.6949594  53.1797600  15.0499237
   6.5969384  54.1316414  15.0265419   6.4651179  52.8935242  14.1659129
  51.9069481  28.9915109   7.1564263  52.1857738  28.3539200   6.4991856
  52.0813608  29.8422718   6.7539173  79.6202247   5.1803878  51.6865786
  79.0020721   5.6806806  51.1538227  80.4794901   5.4010633  51.3271375
   7.8590637   3.1716803  28.7462950   7.1418482   3.6425805  28.3219290
   8.2741791   2.6790589  28.0383158  15.4825211  33.5597682  46.8756533
  14.8677897  34.2879701  46.7858791  16.3333178  33.9352036  46.6488838
  18.3912325  46.9186306  11.3354909  18.5372996  46.3645601  12.1022379
  17.4438834  47.0540380  11.3148057  73.4098469  31.0831237   9.2888308
  72.4776493  30.9361792   9.1286856  73.8054888  30.2147150   9.2142320
  29.1819113   4.5322326  58.2066335  29.7237556   4.7574762  57.4503924
  29.7164147   4.7711137  58.9639135  40.4114389  22.4003768  42.9583406
  41.2168503  21.9337225  42.7352190  40.7075596  23.1714869  43.4420061
   6.1686516  22.3407030  12.1987367   5.3606701  22.1454883  12.6733840
   6.8423378  21.8367529  12.6552594  45.1703453  33.4372115  18.1355298
  45.3176832  34.3742800  18.0073524  44.7294044  33.3778119  18.9830387
  17.9036522  13.4712088  37.1255112  17.4509239  12.6840758  36.8227053
  17.9144049  14.0496445  36.3629317  31.8520260  32.3302865   4.1777596
  31.6254330  31.7214322   4.8807397  31.1684155  32.9994750   4.2108700
  35.7995300  33.1885624   2.9493824  36.0866098  32.4228334   2.4519108
  35.2981834  33.7082291   2.3210274   1.2125608  49.0148640  27.0857573
   0.2966587  48.7641764  27.2062111   1.3975538  48.8128185  26.1685944
   8.0897118  76.7872066  56.3639267   8.1874348  76.0066004  55.8186408
   8.9355017  76.8805785  56.8022783  37.4248195  72.0065117   5.2167886
  37.8250074  72.8687811   5.1046485  38.0996537  71.3903761   4.9318254
  20.4779410  28.5659099   4.4495764  21.4179802  28.7063241   4.5628867
  20.1891375  29.3019748   3.9101034  21.6143036  41.0848045  43.5424328
  21.2456465  40.7711029  44.3682194  22.4834776  41.4103508  43.7765026
  12.6825774  59.0038919   9.9168193  11.7311203  59.0958071   9.9669284
  12.8244007  58.0738115   9.7405457  19.0144169  50.1984024  40.1491833
  19.4296288  50.9003258  40.6503153  19.7096682  49.5534992  40.0189447
  62.2515325   5.9102219  33.1361866  62.8920226   6.3128996  32.5497961
  62.3145120   4.9729601  32.9523230  30.3212619  21.9363022  22.4546909
  30.1083136  22.4501014  21.6756558  30.5618238  22.5881052  23.1131077
  71.7307775   8.0797771  52.0767100  71.5203469   8.6441997  51.3328143
  72.3306279   8.6007884  52.6105245  62.6860039  14.7454298  28.3220696
  62.3259751  15.6217980  28.1857252  62.1869080  14.3934584  29.0591240
  13.0883968  41.0693026   8.7282521  12.5895941  41.1821508   7.9191208
  13.1160212  41.9437838   9.1165233   2.3873246  26.7796806  57.4315311
   2.6488245  27.1488479  58.2750727   2.3743070  27.5288728  56.8359037
  48.9974408   0.4741986  48.5058451  49.4785289  -0.3246191  48.7218904
  49.1579895   0.6051433  47.5713348  77.6917522  65.3850297  27.0132089
  78.0829852  65.9646765  27.6667953  77.7655714  65.8678810  26.1900210
  26.3795376  11.6894364  21.9917274  26.3983083  12.6463282  22.0071459
  27.2063017  11.4271069  22.3965406  35.2548957   7.8071344  31.0388589
  35.0754571   8.5354358  30.4442072  34.4341660   7.3155403  31.0699749
  19.6324640  70.4305716  55.4729147  18.7298483  70.1123376  55.4572816
  19.6906364  70.9464855  56.2770803  52.2256500  66.6626696  47.7008200
  52.8182318  66.7088131  48.4511232  52.5539391  67.3271827  47.0951176
  12.4272847  51.0723829  26.8456388  12.6069057  52.0124578  26.8606067
  12.3878741  50.8213425  27.7684927  65.8109455   9.6586281  52.2582388
  66.6157059   9.8240048  52.7494049  65.4071121   8.9139414  52.7038765
  22.3340249  55.3924084  16.1947048  22.6032972  55.2489328  15.2874339
  22.0888686  54.5232677  16.5120780  58.3047418  48.5703707  31.3161922
  58.0378990  47.8076077  30.8031416  59.2245821  48.7032223  31.0871124
  15.5090809  26.3963747  14.5179629  14.8882258  26.2796283  15.2370882
  14.9825513  26.2846303  13.7264383  17.1220243   8.9320564   1.0171110
  17.9428554   9.4071680   1.1464821  17.0376933   8.3829570   1.7966045
  50.6516743   4.1693383   3.7124333  50.1948977   5.0022185   3.5945386
  50.5291891   3.7093523   2.8819862  31.9769573  10.2801430  11.8022645
  31.1430669   9.9109733  11.5114558  31.7307568  10.9920943  12.3928094
   0.8093306  13.9168942  32.7000260   0.1640936  13.2417595  32.4900413
   0.6637463  14.1073835  33.6267138  74.2634731  48.7632973  51.6410609
  74.1220623  49.3852134  50.9273000  74.7697025  48.0543996  51.2442871
   8.6485034  19.4042301  40.2314901   8.3709490  19.2170811  41.1282444
   9.1234344  18.6191118  39.9589777  72.7222572  64.6051927  49.1848476
  73.6588894  64.5615835  49.3773325  72.3079310  64.1235275  49.9007829
  36.0743618  44.1096830  30.6776786  35.1321030  44.2656469  30.6139779
  36.4685750  44.8077726  30.1547098  71.0802583  23.5388136  45.5592728
  71.9647960  23.5488248  45.9249544  71.2125687  23.5640550  44.6115971
   6.9342726   9.8361349  36.9136477   6.8931597   9.8404449  37.8699541
   7.7943951  10.2030635  36.7092347  36.0611261  10.7350257  59.3487080
  35.1551450  10.9091666  59.6038510  36.1919130   9.8078445  59.5473685
  44.7043037   5.5857295   5.9547579  45.3949022   6.2451851   6.0212421
  44.1193247   5.9192669   5.2744746  39.7258663  49.1115189  24.6604848
  40.3982782  48.4408808  24.5407414  39.0878439  48.9372110  23.9685464
   2.3269428   7.0475963  58.0813088   1.6113485   6.4122680  58.0587168
   2.4272955   7.3277715  57.1715476  31.4032531  32.3684430  10.7045627
  30.5720615  32.6989222  11.0453510  31.7067981  31.7514801  11.3704801
  14.7591674  69.4877005   4.4847655  14.3916643  68.6194134   4.6498385
  14.0209734  70.0860691   4.5999038  26.0457778  72.5498056   9.9255455
  25.3225780  73.0572271  10.2939641  25.6661558  71.6906023   9.7414517
   9.4116861  59.0843534  10.6873739   9.0787679  58.1926537  10.5860662
   9.1016936  59.5457315   9.9080992  71.5601294  57.1750498  15.9425080
  72.4379103  56.8386984  15.7619500  71.3538138  57.7242470  15.1861727
  11.7576183   7.6491264  53.9062949  11.2209428   6.8832448  53.7022360
  12.5861395   7.2848705  54.2179091  79.6356262  47.5829697  11.6414511
  79.6103920  47.1255255  10.8010113  79.6538582  46.8833637  12.2944820
   7.5268012  62.2699184  60.4027261   7.6621848  62.4512835  61.3327857
   6.6331917  61.9305510  60.3524800  81.4751734  21.9498587   9.8715377
  82.4106268  21.7771935   9.9780500  81.3844227  22.8882194  10.0373006
  10.1888478  55.0913286   1.7720993  10.6033850  54.7890759   2.5802058
   9.3068373  55.3512383   2.0380588   9.2291296  45.6160644  66.7725055
   9.1296256  44.6735004  66.9062478  10.1721013  45.7684997  66.8341498
  67.5403792  77.0170922  63.5008089  67.9244906  76.5851064  62.7378671
  66.8235332  76.4411087  63.7665294  75.0898927  19.0668061  46.2970980
  74.8244851  19.7371724  46.9267018  74.3824356  18.4224704  46.3207920
  34.4059014  50.0967312   9.8855060  34.6075034  50.1560497   8.9516592
  34.8942542  49.3309879  10.1877964  50.4627562  74.3410158  20.3233600
  50.9798002  73.9037085  19.6468532  51.0816002  74.9307728  20.7539940
   9.1997016  66.8569807   1.1288695   9.7327603  67.5710772   1.4783627
   9.8160113  66.3191931   0.6316975   6.7956710  24.7450137  49.0538979
   6.0652596  25.1039076  48.5499859   6.5765518  23.8202190  49.1678143
  35.5256367   3.7939438  16.8601811  35.5420280   4.6969882  16.5432048
  34.6351790   3.6717975  17.1894193  16.2521946  58.0751085  14.4405687
  16.6330063  58.5880184  15.1534057  15.5103862  57.6219416  14.8413086
   9.4129683  67.3260207  41.2854107   9.3361355  66.9940371  42.1799024
   8.5837199  67.0893140  40.8700259  65.6779961  33.0819917  36.0999656
  65.2355127  32.2522926  36.2789607  66.4523201  32.8361559  35.5937839
  79.5513365  30.7059288  20.7143331  79.6461449  31.0756898  21.5921259
  79.3632050  31.4601445  20.1557684  38.9590495  57.9116408   3.0493483
  39.4914871  58.1296269   2.2843489  38.1180756  58.3383576   2.8853121
  76.7661403  43.8664532   7.5531083  77.6798360  43.7977505   7.2762096
  76.7886768  44.4516659   8.3102381  44.3512630  56.8591356  36.9283962
  43.5299253  56.5839386  37.3357081  44.1138268  57.0614862  36.0234594
  81.8550994  40.7639122   7.6171386  81.2463783  40.0680637   7.8650969
  82.1027346  41.1723423   8.4466529  43.0503511  44.3943548  24.3787456
  42.2475958  44.0514040  24.7714233  43.5731220  44.6917820  25.1233768
  20.1695967  44.2636824  13.6380911  20.4898691  43.3924389  13.8717449
  19.4144559  44.0978813  13.0737293  44.3693507  23.2879737  50.1634057
  44.2967189  22.5038627  49.6192332  45.3060973  23.3691552  50.3427048
  38.9937806  37.0745277  15.0787508  39.3777823  37.4793053  14.3009782
  38.1227493  36.7943215  14.7976422  28.4664321  52.7296829  38.0756140
  28.8342905  52.6515436  38.9558434  27.5319672  52.5569248  38.1903458
  36.0516524  68.1223249  31.7061520  36.9367695  68.4833145  31.7559576
  35.7547402  68.3372402  30.8219075  31.6616917  70.4295063  36.8534112
  31.7919660  69.5991993  37.3115039  32.3689556  70.9913540  37.1701717
  65.6293623  18.6104202  13.7503886  64.7389500  18.9542592  13.6784625
  65.5139701  17.6652086  13.8478136   4.7198451  40.6890488  14.6656024
   4.7581738  39.8379660  14.2292285   3.9534199  40.6313801  15.2361286
  46.0140610  40.5124283   8.5609847  45.5185556  40.7811499   9.3346107
  45.9486961  41.2577152   7.9638988  23.5684204  61.3911915  46.8052816
  23.4400511  60.4466152  46.7184639  23.2603645  61.7521715  45.9739971
   7.5026834  57.9649305  56.6855669   8.2536674  58.1388712  56.1181164
   7.7030271  58.4306431  57.4974823  14.1106689  43.7870598  10.4302835
  14.9505520  43.4389210  10.1309061  13.8100970  44.3404007   9.7093785
  15.8264327  66.9867373  19.1797125  16.7253292  66.7136049  19.3630612
  15.3185570  66.1760044  19.2115223  44.2831278  54.3957901  12.9553759
  44.5878935  55.2925539  13.0938065  44.5912266  53.9166832  13.7246346
  27.7040172  49.1664028  22.2841144  27.2687650  48.7658119  23.0366540
  27.3103952  50.0361681  22.2147918  52.5854397  56.9756317  24.0310812
  53.1688404  57.5049067  24.5749068  53.0794001  56.8263578  23.2248855
  11.2451220  34.4786286   8.5948443  10.6675255  34.2830992   9.3326670
  10.6758535  34.4339061   7.8266221   8.6726964   7.8820518  64.5452869
   8.7002815   7.2544053  65.2674575   9.3119324   7.5500825  63.9148875
  82.1219030  43.8694048  38.9335537  82.2486181  44.0933943  38.0115986
  81.3770426  44.4034576  39.2095971  38.2397938  31.8134522  28.2555485
  38.6536932  31.9391465  29.1094351  38.5987544  32.5133061  27.7100396
  27.3090076  58.0455732  32.1649742  28.1044698  58.2082701  31.6580224
  26.8188572  57.4095345  31.6439819   5.5966771  36.9013596  41.0454655
   6.4339495  36.4844656  40.8419752   5.7936615  37.4920583  41.7724466
   7.1044606  55.6734991  27.7362061   6.6070890  54.8727846  27.5697422
   7.4586463  55.9175825  26.8811011  27.6945090  30.9514070  24.3157864
  27.3639178  31.3854098  25.1022863  28.1472206  30.1742697  24.6434164
  61.3761187  56.7764282  24.7115278  60.5567789  57.2225761  24.9256897
  61.1635303  56.2381220  23.9491224  28.0760217   9.4701320  42.8721762
  27.8076100   8.5534859  42.9349947  27.4438620   9.8641551  42.2710514
  30.4386568  65.4556942  34.4971013  30.7190537  64.5439434  34.5766020
  30.8667397  65.7693338  33.7004781  22.2398067  59.2340755  35.9142518
  23.0875826  59.1743565  35.4738593  21.6269827  58.8116312  35.3124046
  50.4777718  47.8950548  11.0279632  51.0481453  47.2252321  11.4051127
  50.9825850  48.2571697  10.2997684  49.6157580  67.0301003  48.8508995
  50.4041201  66.6312928  48.4825607  49.0845233  66.2880702  49.1397114
  61.3823615   0.9531455   0.0549047  61.1779653   1.2971478   0.9244554
  62.3328470   1.0387068  -0.0191768  -0.1754059  63.1229973   7.2023869
  -0.3099363  63.7808847   6.5202433   0.7479182  63.2092667   7.4395823
  34.4569826  25.7649684   4.3037650  34.4420528  26.7139459   4.1794643
  33.5362291  25.5050206   4.2741659  35.5053520  34.0272975  14.2786264
  35.5915356  34.9656177  14.1102195  35.9266567  33.8967395  15.1281488
  69.2817610  28.5897973  65.9319347  68.7992304  29.3529418  66.2497524
  69.0537124  28.5315803  65.0041218  42.0987511  40.8709574  26.6701674
  41.9694948  40.5654812  25.7722759  42.1021032  41.8255949  26.6002345
   6.0275835  23.1176114  38.5889482   6.1325604  22.2651672  39.0115023
   6.9216573  23.4045386  38.4031105  29.4524598  39.8836637   3.9932308
  29.6324635  40.4864502   3.2717878  29.0348196  40.4274416   4.6611494
   5.6678838  27.8996563  27.8742099   5.0195426  27.3681545  27.4122667
   5.5062431  28.7926769  27.5698781   0.1846987  69.5435042  65.3506172
   0.9859186  69.6811624  64.8453164  -0.1895851  68.7389536  64.9916719
  25.0292182  50.5272150  21.6561198  24.5730615  51.3199043  21.9386029
  24.3724060  50.0358295  21.1627960  10.6006646  53.5220051  13.4772074
  10.4913700  52.8232527  14.1222167  10.0974715  54.2553949  13.8309979
  76.9841086  26.0220631  40.4625511  77.4960839  26.8301686  40.4955053
  76.0823476  26.3150318  40.3312731  43.3111464  40.3692084   2.5596969
  44.0026461  39.9367604   2.0586507  43.4910392  41.3039216   2.4587934
   2.6860578   8.8510617  11.9325864   3.6378438   8.8727673  12.0318925
   2.3494870   9.0514286  12.8059733  22.4789119  53.2966232  38.6830497
  22.6975536  52.5697184  39.2661738  23.2459617  53.8683319  38.7149620
  10.6530845  52.7147961  28.0322719  10.5850041  52.6826763  27.0780373
  10.5477679  51.8050528  28.3106661  70.2018356  71.3918829   2.8173217
  70.7835960  71.5284061   3.5650855  70.5774546  70.6424093   2.3553312
  33.3999038  21.7492557  22.9844594  33.0323100  20.9378791  23.3348513
  32.9110217  21.9042802  22.1762562  11.5899050  38.1507111  33.2963538
  11.3658822  38.3998632  32.3997116  10.8724654  37.5805783  33.5728693
  37.1298790  63.1847382   8.4963495  37.3294878  62.8047132   9.3519020
  37.9175186  63.6759758   8.2628161  30.6381199  69.9294085  65.9213919
  31.1223605  70.7542367  65.8839446  31.3044935  69.2544050  65.7927577
   3.8125229  17.9603887  42.4291945   4.6002316  17.7470863  42.9294395
   3.1485415  17.3544014  42.7580404  30.4268551  56.1938667  29.5078635
  29.9186444  56.4481592  28.7376118  30.6494045  55.2754593  29.3554664
  47.4882078  35.8203721  18.1573951  48.1048298  36.5519214  18.1282532
  46.6314507  36.2334275  18.2650328  11.2155093   7.0717529  50.9343691
  10.7341684   7.0465997  51.7613574  10.8209670   7.7966836  50.4495557
  77.1003346  61.8753242  25.9810829  77.3522444  62.7570200  26.2556601
  76.1864094  61.7917156  26.2530780  21.9160008  61.6861582   0.5241754
  22.5585055  60.9891510   0.3915072  21.2645125  61.3027668   1.1113794
   4.0855134  18.3828262  53.7504693   4.8716343  18.9238694  53.8247664
   4.2764748  17.6088622  54.2803236   0.6714538  30.3981638  24.0024877
   1.1615843  30.8437777  24.6934509   0.7643496  29.4672847  24.2051315
   3.1906161  38.3332062  18.2469857   2.3987332  38.6797166  18.6581850
   3.0122510  38.3786559  17.3076499  19.8727906  33.5705304  26.5019751
  19.5125926  33.8987041  25.6780863  20.6798315  33.1223488  26.2488890
  61.8122107  62.0693417  65.9433968  61.6480666  62.0067830  65.0024533
  62.4004966  61.3384528  66.1330139  38.8633943  26.7652249  28.3393836
  38.2518697  26.1025000  28.6604214  39.5502043  26.7999506  29.0052080
  50.2620125   6.9950593  13.8178658  49.6460438   6.8977976  14.5440590
  50.3404379   7.9411477  13.6953974  19.8960841  24.6500734  66.6628391
  20.8314861  24.4578365  66.7283898  19.5618118  24.0039828  66.0406949
  50.2609968  61.1578369   7.5578904  50.9541607  61.7592525   7.2857642
  49.5538044  61.7281246   7.8593558  75.4257844  47.6180983  13.5406649
  75.5506979  48.4879160  13.1611228  75.8390324  47.0224476  12.9156399
  49.0047609   2.5917867  50.4514702  49.9452519   2.7535966  50.5258079
  48.9272683   1.9494250  49.7460647  49.3872833  49.0395689   0.7809605
  49.6621418  48.3435440   0.1841079  48.8094521  49.5921183   0.2546209
  29.0614329   6.3676937   1.9120468  29.0803175   5.7783325   1.1580365
  28.1457745   6.6376694   1.9821462  40.2461529   2.8944659  12.3563206
  39.6752095   3.0821249  13.1013310  41.1291599   2.8923953  12.7258122
  74.0105156  18.4177172  32.2866511  74.1519503  17.9074359  33.0840468
  73.1771140  18.0971491  31.9418192  73.8394491  50.6132698  26.0460210
  74.1371612  51.3596678  25.5259371  73.8162272  50.9416580  26.9448280
  27.8533912  53.4150410  53.6431217  27.6031709  54.3035936  53.8962984
  27.9914427  53.4654093  52.6972675  31.5471976  24.4418672  59.8561759
  30.6563227  24.0949777  59.9035598  31.4579957  25.3644851  60.0950267
  34.7450018  20.6877851   9.8278570  35.0464654  20.8750081  10.7168448
  35.4395723  20.1499248   9.4477075  25.2316928  66.7715073  12.6384842
  25.5224943  67.3002195  11.8954289  25.5668116  65.8941031  12.4538672
  28.8342441   9.5528558  65.4170597  28.0157626  10.0275329  65.5619702
  28.8798106   9.4382241  64.4678421  33.2132196  47.1392059   5.3239936
  32.9145551  48.0417299   5.2123022  34.1524816  47.1735764   5.1427859
  80.2216866  64.6330690   5.1192713  81.0046507  65.0077486   4.7157693
  80.2368189  63.7114811   4.8610517  18.7541598  70.7318492  63.1777407
  18.7557459  71.6865702  63.1088998  17.8794640  70.5165071  63.5014184
  71.5267186  64.3823449  58.3664989  71.0192495  64.1051928  59.1293192
  72.1884828  63.6993114  58.2580328  75.2638238   3.0258372  31.3013609
  76.0412734   2.8799632  31.8403633  74.8578136   2.1621278  31.2278898
  12.6666451  47.7741385   7.6474476  11.9623935  48.3937645   7.4568611
  13.3028281  47.9113102   6.9455308  73.2743977  64.7712135  23.3553910
  73.3527700  65.4574203  24.0181208  74.1541581  64.3997526  23.2900405
  19.8285258  31.1344624  28.4221911  19.7154951  30.5638790  27.6620007
  20.2806640  31.9048762  28.0782890  18.5895538  42.5959635   4.5051047
  18.8182306  41.8678236   5.0828159  19.4059372  43.0847979   4.4012362
   4.8830093  43.6575607  48.1038876   5.2500809  42.7778915  48.0162855
   4.1058052  43.5394767  48.6500032  68.5213619   7.0560888  58.9631047
  68.8455432   7.7619794  58.4037687  69.0768628   7.0931724  59.7417422
  35.9934974  39.2323565  30.8935905  35.5879760  39.1849327  31.7593479
  36.9242239  39.0790796  31.0563374  46.3760233  18.3845305  14.8870277
  47.2823143  18.2942379  14.5925581  46.0406113  17.4882674  14.9081039
  64.7037840  30.4305410  10.6260133  65.5847168  30.6686115  10.3370202
  64.7282028  29.4772077  10.7084155  37.9120612  41.6986656  13.4548771
  37.1162438  42.2172928  13.3368576  37.9612851  41.1534595  12.6696610
  79.8825088  24.6426415  33.6750650  79.5375393  24.2584872  32.8690553
  80.7780744  24.8984671  33.4542775  23.9304154   3.0734876  57.9965563
  24.4257610   3.8847306  58.1094451  24.4209259   2.4216893  58.4973450
   3.5770416  52.2306633  43.6768150   3.1514394  51.4523220  43.3172607
   4.2552310  51.8860054  44.2577648  12.3673868  12.3889077  15.9500694
  12.2054470  11.4612734  15.7783043  13.3210123  12.4626768  15.9873295
  11.8973792  22.5722602  51.2099035  11.4893306  23.4285119  51.0812028
  11.5700901  22.2762111  52.0592947   2.8076768  51.5185785   4.0731725
   3.3985987  51.1702633   4.7407943   1.9425994  51.1978483   4.3281323
  10.6064773  43.9054585  27.1747875  11.0494936  44.4068146  26.4902401
  10.1533175  44.5652819  27.6996779   8.7484831  55.9688616  23.2188845
   8.7707359  56.7085075  22.6117063   7.8913307  55.5674553  23.0760741
  72.7959882  32.4698853  13.2740259  71.9721345  32.5683570  12.7967417
  73.4625380  32.4039555  12.5902152  58.9173495   7.7980664  61.5228070
  59.8440557   7.7972129  61.2831260  58.4968435   8.3355144  60.8515699
  18.0054390  21.2203574   8.5599649  18.5450816  21.7063022   7.9363674
  17.5252295  21.8960452   9.0385854  53.9244032  51.7020035  33.7747478
  54.2141867  51.8440247  34.6759057  52.9748487  51.6014194  33.8415384
   3.5649323  38.0769372  33.0193567   4.4062856  38.1965280  32.5788403
   3.6310557  37.2159481  33.4323430  48.6697368   7.2300082  37.2643948
  48.9435272   6.4129639  37.6811790  47.7604608   7.3464388  37.5398803
   8.7970007  27.8054956  37.2674878   8.7968124  28.2430413  38.1188329
   9.7230924  27.6639369  37.0711549  56.1752653  16.9381356   8.0389082
  56.9577312  17.0095277   7.4922043  55.4902220  16.6426635   7.4392086
  31.0658026  64.4460583  14.8208344  31.8575120  64.3249702  14.2966533
  30.3481460  64.2400742  14.2218578  69.4508509  16.4493906  34.3038630
  69.3844597  16.5745425  35.2505207  68.7215535  16.9540894  33.9438128
  17.9950380  24.3270445  15.1912415  18.1615746  23.3845639  15.2064025
  17.3224497  24.4406486  14.5197117  61.2989473  36.6122103   9.8908395
  60.8956289  37.4465394  10.1305509  62.1113920  36.5849590  10.3962362
  48.3756971  73.8005400  12.0109439  47.6350498  73.2071018  11.8864250
  48.8008308  73.4886456  12.8098297   7.0593942  34.2293456  62.0080139
   7.8112353  34.8169044  62.0837878   6.7741717  34.3213609  61.0989417
  40.6601816  62.1440787  64.8122725  40.8523935  62.8416247  64.1856016
  39.7387296  62.2718663  65.0377236  33.5960412  50.0720453  28.0514002
  33.5071731  50.2971029  28.9775109  33.6351490  50.9164906  27.6023865
   6.4859915  48.6748934   6.5780807   6.7274839  48.2286692   7.3897451
   6.4823788  47.9832029   5.9164315  43.1348876  44.4571018  15.4303038
  43.5330610  44.6286297  14.5769167  43.8022236  44.7216320  16.0634851
  53.5024452  52.1790266   1.7236294  54.4321203  51.9570065   1.7750220
  53.4896040  53.1264925   1.5880719  23.8559175  45.0390244   0.9178700
  23.2110119  45.0005484   0.2115776  23.6201930  44.3144131   1.4971811
  42.6404238  64.3140078  22.3742342  42.9139042  65.2270699  22.2862053
  41.9069815  64.2239380  21.7658067  53.9160347  16.6913068  22.3026323
  53.4262323  17.3044705  21.7545891  54.7955465  17.0655978  22.3536754
  23.5369229  18.8944948  10.6661308  23.7635016  18.0432272  10.2916467
  22.7948380  18.7126374  11.2427318  19.3089783  58.7860823  26.0194659
  19.3510664  59.1002321  25.1162672  20.0053740  58.1320095  26.0782480
  60.4210472  54.6749973  16.9428420  61.2670612  54.3244743  17.2214592
  60.6428719  55.4003286  16.3589621  27.1493196  30.6582022  11.0724330
  27.7919412  30.0286865  11.3995123  27.5143433  31.5132880  11.3000703
  14.6290755  50.1437235  20.3635216  14.3880725  50.4787064  19.4998467
  15.5598068  50.3501463  20.4493189   5.4466438  58.0471992  21.4519000
   5.9496695  58.8553381  21.3513303   4.8580053  58.0359888  20.6971741
  76.5769420  64.0152836  46.6412306  75.7828675  63.6123896  46.9924498
  77.2352786  63.3215761  46.6811419  81.3181342  55.4455709  19.9685872
  82.0576473  54.9749088  20.3530741  80.8761319  55.8486366  20.7158518
  57.9810953  50.9829187  49.6012640  58.3290434  51.7927456  49.9745464
  57.3518610  50.6704950  50.2514076  49.3896770  48.4699821  29.0778399
  48.5131502  48.8063431  28.8912940  49.7641420  48.2863903  28.2162738
  63.4779835  26.8762898  18.7816799  63.3847094  26.0933590  18.2389510
  63.5404110  27.5965500  18.1543374  41.3505840  61.8204737  29.4185472
  41.0420275  62.1309280  30.2698088  41.9787455  61.1295366  29.6288991
   5.4167908  24.0733409  25.1464128   6.2906241  24.1515589  25.5292058
   5.5458331  24.2557263  24.2156529  31.7453790  41.6858101  10.5424500
  30.9614182  42.2146273  10.6907439  31.4365721  40.9378576  10.0311399
  80.8898550  67.9089756  59.7139986  81.6129929  67.2957606  59.8454060
  80.7936293  67.9656525  58.7633355  39.5674396  20.9796381   4.4541177
  39.5248270  21.7843461   4.9707019  38.6523867  20.7514238   4.2903325
  53.5969591  18.7753153   7.1109170  52.9564571  18.1004095   6.8862009
  54.3544054  18.5798466   6.5592849  17.6928867  49.4946234  21.9328547
  18.6469806  49.4710938  22.0062590  17.4918521  48.8812987  21.2259960
   2.6592407  72.2165871   8.8474607   2.4361996  72.8324127   8.1494319
   2.3770282  72.6531363   9.6512115  55.2063847  43.4349871  18.2759202
  54.3748569  43.3251953  17.8146851  55.3182888  42.6199579  18.7652385
  51.6032272  73.5362453  59.9958976  51.5096170  74.4831295  60.1002057
  51.0548383  73.1638427  60.6864168  44.4952154  42.3468828  19.4472170
  44.2042112  41.5897942  19.9555159  43.7057066  42.8756189  19.3317163
  39.9913239  19.0077031  18.3416164  40.5753565  19.1890037  19.0780020
  39.8011708  19.8687017  17.9691148  63.9829128  15.6933168  60.1780315
  64.6675419  15.8972886  60.8151420  64.2264067  16.1907008  59.3972935
  56.1393356  41.3490391   1.4880887  56.7126179  40.6974125   1.8917772
  56.6059542  41.6220236   0.6981674  21.6290498  49.8263788   4.9709040
  22.4610448  50.2993631   4.9536949  21.0314941  50.3742647   4.4620031
  25.4663610  43.2112217  35.5707908  25.1324058  44.0821123  35.7858682
  24.7178102  42.7562237  35.1849413  15.5456066  35.1490378  20.5778432
  15.6255007  36.0681009  20.3225517  15.2203786  34.7096062  19.7921216
  39.6569157  32.3524618   6.9312197  39.8651910  33.0010724   6.2587941
  38.7338662  32.1448231   6.7859763  31.9456124  57.8211784  20.1317120
  31.8406415  58.5679388  20.7212520  31.4770007  58.0758095  19.3368542
  41.0672283  55.2516270  14.8787630  40.4271555  55.9631824  14.8637664
  41.8358278  55.6298161  15.3059149  11.8277181  54.5398143  58.8321997
  11.3183893  55.3416923  58.7147214  12.5855292  54.8111346  59.3502130
  23.7345672  15.4206002  58.3210421  23.7245345  14.8253691  57.5714922
  23.7529254  14.8437941  59.0847111  75.0923209  74.4124460   3.8177332
  75.3371279  74.5448875   2.9018936  75.8334277  73.9408350   4.1979632
   8.5255254  12.8112271  33.9457567   8.9291013  12.3160651  34.6586164
   9.0850843  12.6398137  33.1882985  13.9112175  30.9392118   8.0498129
  14.0582788  31.0463476   7.1100652  14.7826540  30.7786989   8.4118450
  25.6105375  54.9796629  15.1896465  25.1296329  54.9182606  16.0149896
  25.9214878  54.0891409  15.0268006  27.7565408  35.0174809  14.0416121
  27.8778815  34.2391706  14.5854318  28.4092259  35.6390309  14.3639624
  81.9373959  28.7942314   9.9258327  80.9966052  28.6433125  10.0173104
  82.1001197  29.5980906  10.4193544  36.5330982  27.8521585  43.4862328
  37.1928930  28.5184026  43.2938290  35.7845855  28.3459973  43.8210201
   8.9000547  42.5262213   2.6530862   9.0452254  42.0468473   1.8373907
   7.9517359  42.5003481   2.7805793  37.9385614  39.7734404  11.5199590
  37.6576543  40.1743698  10.6974161  38.4318399  38.9980388  11.2522686
  50.3902441  72.1192141  61.9716104  49.5597321  71.7701430  61.6481443
  50.4801446  71.7485614  62.8495445  23.3632112  42.6435852  31.2372947
  23.5627031  41.7101526  31.1656427  22.4070334  42.6858473  31.2242150
  69.3063025  29.1142607  17.7162027  68.6614494  29.6452260  17.2487903
  68.9709477  29.0631342  18.6112750   6.2125802  14.6611309  24.0556598
   5.4878187  15.2549362  24.2514873   5.7972962  13.9049006  23.6410666
  42.5443619  46.7841233  62.0819093  42.3639852  47.1386511  61.2112738
  41.6815930  46.6899521  62.4856351  79.3939091  43.6244106  62.1306992
  79.9124545  43.1061983  62.7461672  79.7651610  44.5049000  62.1867704
  62.2183371  31.6679430  19.2866755  62.6131964  32.5159812  19.0838361
  62.7381611  31.3299870  20.0159216   0.6540557  38.0836368  23.6008430
   1.3696858  37.5068474  23.3335972   0.8294176  38.2714677  24.5229053
  34.1640186  38.5317206   8.8961357  34.9059248  38.6604643   8.3051783
  33.5895395  37.9239750   8.4304637  23.5873712   6.9920829  54.5863636
  24.0440715   6.7934135  53.7689348  22.8849042   6.3434747  54.6319933
  25.3489173  16.6879323  62.5681864  24.8701537  16.4612964  63.3654650
  26.0259736  17.2980884  62.8606494  22.9656029  31.6502881  32.7016163
  22.8629923  32.5038981  33.1223941  23.6985230  31.7677331  32.0972419
  36.1833858  22.3994184  15.8455777  36.8003941  22.9892802  15.4124594
  35.4915595  22.9744887  16.1725354  14.8712695  27.9939702  55.4728957
  14.3133939  27.2972062  55.8186181  15.7198251  27.8517297  55.8923645
  14.9810994  53.9830065  16.5039253  14.6301889  53.3507204  15.8767819
  14.9966419  53.5110998  17.3365688   9.2831063  31.4836788  17.1949053
   9.0713179  32.2176123  17.7717257  10.2298176  31.3742375  17.2843003
  15.4192591  38.5115862  24.9528599  15.9453881  39.2311645  25.3016090
  14.7553337  38.9401937  24.4127369  31.1097935  58.1668825  65.5459792
  31.8566868  57.5917668  65.3797722  31.0429168  58.2029088  66.5001601
  26.7464423  49.4137335  43.4771967  27.4050546  48.7771749  43.1992435
  26.7712355  49.3819571  44.4335461  33.5429513  18.5077389  13.4030616
  34.0033572  18.6385639  14.2320025  32.8976654  19.2141064  13.3734107
  32.4980164  28.0444765  19.6680224  32.6545978  28.4222078  18.8025558
  33.1383038  28.4732008  20.2358794  32.9754948  65.0763532   5.7430236
  32.8815346  64.1652724   5.4649274  32.1794479  65.2575561   6.2427299
  55.9990835  44.8347759   1.6983595  56.3963175  44.0555096   2.0871769
  55.4291868  45.1810884   2.3850325  53.7370216  13.1687840  18.7692809
  52.8111326  13.0592449  18.9859903  53.9047324  12.5103195  18.0950904
  66.7147153  49.8795226  66.3025893  66.6274183  50.4219440  65.5187620
  66.3143413  50.3994373  66.9994581  32.9534578  65.5407286  36.2971878
  32.0863390  65.7278204  35.9375620  33.2017279  64.7052813  35.9014273
  29.0862894  49.0139341  18.0480278  28.7077999  49.8432493  17.7561092
  29.5129085  48.6578512  17.2686481  71.0178947  44.2763901   9.8866117
  71.5415144  43.4978580  10.0761986  70.1159906  44.0063715  10.0594771
   4.6748198  32.2625783  59.2010839   4.9688757  31.7410758  58.4542252
   4.4286955  33.1063417  58.8219781  47.8269779   9.1579731  22.2993231
  48.6605584   9.0240582  22.7503633  47.2230338   8.5508164  22.7269244
  60.7269144  41.0928583  57.1226311  60.6538153  41.2515306  56.1815071
  61.6674566  41.0080147  57.2788763  55.8491737  56.4930911  51.3465531
  55.2262956  57.1514709  51.0386713  55.4981071  55.6625361  51.0253640
  39.5461858  18.4475234  39.2930897  38.6582769  18.8011411  39.3459948
  39.7843469  18.2613233  40.2012952  57.8095245  59.4691324  17.1006584
  57.2751284  59.4502306  17.8945684  57.5837326  60.2985907  16.6796458
  73.7302786  75.5797310  59.1103603  73.7378651  76.5168948  58.9156903
  74.6099526  75.2802772  58.8807364  38.9261079  37.4404144  10.7004893
  38.9367390  37.6094627   9.7583961  38.3180451  36.7086864  10.8056796
  49.2438555  57.6887751  25.8946109  50.0717592  57.8171682  26.3575649
  48.7782812  58.5181999  26.0019565  32.4695778  57.2107887  23.1022286
  32.1969175  56.9798946  22.2142124  32.6091480  58.1572580  23.0714536
   4.6557255  67.0768642  51.3049316   5.0120373  66.9391870  52.1826077
   3.7938233  67.4653959  51.4545727  15.6248939  69.2660904  20.8651090
  15.8519173  68.3678722  20.6244874  15.7872021  69.7751141  20.0708914
  41.1982250  39.8929238  14.4096601  40.9372997  39.1009545  13.9396226
  42.1026754  39.7267413  14.6753383   9.8269749  75.9394455  28.9464879
  10.7163262  75.7994032  28.6214137   9.9120557  75.9051514  29.8992825
   2.2769178  74.5567681  37.2961497   2.1838320  73.7994985  36.7181277
   2.2464574  74.1890843  38.1793904  59.2618429   6.4145573  19.4793200
  59.2888271   5.6732186  20.0842285  59.7846734   6.1309059  18.7293708
  52.1043539  62.9141855   6.8671358  51.6745424  63.7554693   7.0212090
  53.0327511  63.1314373   6.7828071  21.6319418  47.9113674  20.1326013
  20.7895446  47.7558422  19.7055054  21.9468307  47.0381737  20.3662872
  19.2088401  62.2328758   9.4971645  20.0026107  62.5681305   9.0803176
  18.5278523  62.3346186   8.8322312  25.3313112  39.9863720  33.9543891
  25.9715176  40.6694555  34.1537905  25.4888010  39.3106508  34.6138048
  36.7926002  76.8166113  23.7921739  36.4085889  76.8641472  22.9166698
  36.0795116  76.5057421  24.3499303  26.0330486  52.2770643  48.8893318
  26.1235261  52.4791956  47.9581022  26.8987679  52.4530506  49.2578316
  27.4177432  56.5309525  48.6648178  27.4971008  57.4534988  48.4222460
  27.6598048  56.0530472  47.8715658  17.9422629  37.3376751  21.4625359
  17.5707662  36.7610836  22.1301913  17.2000587  37.5649190  20.9024262
  34.6802497  64.0558720  19.2437220  34.7111011  64.7148895  18.5501981
  33.7707043  64.0643167  19.5418632  80.1261647  69.5120573  23.2350898
  80.5790753  70.1416540  23.7960815  79.1975029  69.7136068  23.3499670
  38.8587046  63.6831665  15.9755254  39.5367050  64.3527842  16.0658526
  39.3385839  62.8549480  15.9752166  21.5997553  64.4757795  40.8884096
  22.1483278  64.7689724  41.6159630  21.2095332  63.6580420  41.1970568
  15.3826141  52.4078894  46.4700937  15.4981995  51.4987755  46.7464638
  15.2925467  52.3593044  45.5183792   9.6213330  40.0901511  46.6412766
   9.0310968  40.3791478  47.3372181   9.2828286  39.2336419  46.3804348
  24.1132283  53.8487530  54.1727877  23.6060810  53.5899353  54.9422312
  24.7818089  54.4421053  54.5150852  14.3665278  52.0993233   2.5158066
  14.3354142  51.7773533   1.6149184  14.5147204  53.0409527   2.4286404
  55.0692177  74.8413467  63.9708328  55.8034229  74.2538214  64.1496801
  54.3010044  74.3694401  64.2923641  11.4576268  48.4266043  26.7732215
  11.8327248  49.3072033  26.7821455  12.2135603  47.8450918  26.6917610
  21.4804757  35.7049754  54.5731302  20.9274209  36.4174941  54.8935743
  22.1386922  36.1384299  54.0299018  26.2784362  59.6583652   8.6847121
  25.3356242  59.4997978   8.7315750  26.6669273  58.9431810   9.1885161
  54.2570543  72.1014214  27.4094820  55.0645161  72.6055384  27.3089790
  54.4832468  71.4079094  28.0292511  21.3554144  52.6373148  16.4343822
  21.7797160  51.9023991  16.8772089  20.6043220  52.2465611  15.9878349
  25.6143093  30.1196074  14.5245361  25.4371548  30.7109761  13.7930083
  26.5118313  30.3247738  14.7864389  21.8386078  37.4916220  22.6229262
  21.5075469  37.7722716  21.7697763  21.4437675  38.1019926  23.2456493
  70.7112150   8.4573701  65.0861502  71.4015799   8.5757354  64.4337560
  71.0824471   7.8424504  65.7188377  24.1555333  69.9812889  34.7850347
  24.5265293  69.1012430  34.7208953  24.8434687  70.5562449  34.4497633
   3.4444961  49.9984121  13.0990422   2.6720551  49.5945883  13.4946299
   4.1849387  49.5809507  13.5391569  17.2278751  10.2061656  63.1542693
  17.1605981  11.1314490  62.9185586  16.4740718   9.7956565  62.7306016
  18.0968273  64.8425341  37.5755644  18.2015967  65.5693054  36.9615102
  18.9780617  64.6872425  37.9154778  11.8390751  63.2901621  51.4225674
  11.5986097  64.1720486  51.1385155  11.9579768  62.8004837  50.6087399
  15.4316963   9.4969705  61.1204608  16.0454381   9.3240741  60.4065563
  14.7214425   8.8702157  60.9827830  36.1518764  69.4629097  13.5444462
  36.2475610  69.8648214  14.4078946  35.4235482  69.9344254  13.1401634
  10.4450607  25.0906563  35.6626320  10.9253311  25.6378984  36.2840009
  11.1208010  24.7316647  35.0875401  10.0265969   1.9329694  66.8721832
   9.9358071   2.7769664  67.3145138   9.3263138   1.9279912  66.2196417
  25.7516820   6.8908413   5.5426621  25.8196885   6.2775906   4.8108602
  25.3336389   6.3859471   6.2401944  72.1763992  50.8519602  13.9679492
  72.4959087  50.1457834  13.4062934  72.1480989  51.6188431  13.3958256
  65.1088440   1.4370068   2.3047176  64.9961483   0.6695278   1.7439070
  64.2439377   1.5825899   2.6880893   0.6291116   1.0324290  64.2885687
   0.5172289   0.5138758  65.0853218   1.4958251   1.4282277  64.3801312
  36.1694158   3.8649181  57.4641557  35.4986585   3.6737922  56.8085785
  35.9561122   3.2905439  58.1995638  58.3914386  12.3331269   8.4757578
  57.8502166  11.7963036   7.8968465  57.8046214  13.0266197   8.7773204
  42.1090078  41.6165924  12.4149740  42.9427671  41.7814589  12.8553104
  41.6906500  40.9354401  12.9415011  49.8576194  68.0871959  64.5024575
  49.0895039  68.6263771  64.3140049  50.6013781  68.6304755  64.2418851
  79.6621561  63.2027197  30.0045300  79.9530615  63.8335514  29.3460059
  80.4608042  62.9601145  30.4730773  38.4274316  17.4169326  16.6905987
  39.2514324  17.8103983  16.9777155  38.6302280  16.4875937  16.5836644
  16.4023841  24.0984252  58.6728211  17.0598949  23.4429076  58.4399970
  15.6524242  23.8943628  58.1141181  18.0333734  51.7868137  56.0950327
  17.2468638  51.5913773  56.6043854  17.8576195  52.6414776  55.7014751
  21.2428832  58.9779949  23.3382177  22.0384908  58.8961506  23.8640928
  21.2375569  58.1944942  22.7883744  19.2469597  76.1117649   6.4775670
  19.2188787  75.2444124   6.0736573  19.3263030  75.9368372   7.4152964
  28.2650042  53.8402462  51.0742569  27.8083324  54.5678902  50.6521034
  28.7699103  53.4335089  50.3700781  45.0455313   1.4091256  54.6122809
  45.6906646   2.0641950  54.3459793  44.9009668   0.8820561  53.8264485
   5.5453170   9.9502376  64.3621464   6.3723434  10.3134492  64.6789089
   5.7301153   9.0217879  64.2204867  65.6642287   9.1164401  57.7340485
  65.0637787   9.8511317  57.8602012  66.4438157   9.3554452  58.2353987
  21.4103699  52.0971203  24.5638847  21.6731334  51.8717527  25.4562950
  21.0269594  52.9708195  24.6405172   5.7100809  73.4235862  35.7055171
   5.2463687  74.0054897  35.1033552   6.2280978  72.8539375  35.1368459
  20.9540486  44.9805880  30.7992435  21.5149021  45.0954342  31.5663719
  20.1357341  44.6301985  31.1511207  41.5363073  41.4311552  17.8368318
  41.3426495  41.4560270  16.8997574  40.7116556  41.1672306  18.2449079
  23.0404520  57.3508310  29.2242956  22.5222874  57.7702045  28.5373712
  23.8120079  57.0128107  28.7696791  66.3907385   9.9294311   3.0586383
  66.4564037   9.0976346   3.5277176  65.5155182   9.9174988   2.6712444
  66.4058715  53.5728390  29.3861421  65.8999735  53.3378763  28.6082657
  66.8254071  52.7555306  29.6548923  21.7985833  36.8206218  62.5136723
  22.0853484  35.9114936  62.4271377  21.2437547  36.8235448  63.2936652
  45.2063799  72.2930670  13.1903493  45.3369522  73.2198668  13.3909225
  44.2635441  72.2093534  13.0479360  65.6553221  69.7906542   6.3048118
  65.0912571  69.1304207   6.7074901  66.4304781  69.8177528   6.8657297
  24.0201974  62.6869726   9.1143388  23.1819367  63.0580378   9.3897742
  23.7919140  61.8435812   8.7234306  32.1632314  34.8262811  19.9566495
  31.6862106  35.6559348  19.9755085  33.0815315  35.0755739  20.0606275
  19.3765211  54.0250063  11.2124240  19.7207105  53.5548162  10.4530263
  18.4718192  54.2306662  10.9769392  41.9031525  51.7489147  26.9349766
  41.0869980  52.2372389  26.8269491  41.6241217  50.8440733  27.0751095
  65.2310478  13.7121495  31.5908813  64.3275224  13.8661106  31.8668628
  65.4249846  14.4336804  30.9925461  32.5673472   1.2381180  10.5829275
  31.6304602   1.3128813  10.4015827  32.7228563   0.2964314  10.6555164
  36.4765406  51.3257027  26.8686032  35.8942366  50.6913185  26.4506149
  37.2214913  50.8052206  27.1692324  66.5223770  73.7915516   6.6223782
  67.2642200  74.2825890   6.9756198  66.4955060  74.0315628   5.6961477
   3.7792624   6.7476896  60.5572660   4.0483988   5.8353809  60.6644686
   3.2923950   6.7585281  59.7332062  23.5933447  47.7505970   5.8987141
  22.9814315  48.4818125   5.8143449  23.9242935  47.6116323   5.0113630
  17.1412516  76.8536091   9.3274415  16.7442620  77.4695015   9.9433237
  16.9617736  77.2280979   8.4650147  25.6289542  29.7555736  60.4722621
  25.0500549  28.9968017  60.5455734  25.3685344  30.1772884  59.6533777
  45.0422287  30.2714372   6.7264050  45.9518147  30.3982663   6.9962233
  45.0564528  29.4678736   6.2064868  20.5840325  46.3014317  15.7094812
  20.5125785  47.1439552  15.2608335  20.4940581  45.6508732  15.0131261
  36.1612248  48.3780384  41.8785763  35.8401871  48.5212278  42.7688885
  36.4216018  47.4570608  41.8630791   7.1155083  26.6890407   6.2303728
   7.8853095  26.4645791   5.7076341   7.4514097  27.2671008   6.9153899
  26.0969300  20.0520967  66.1716286  25.7780022  20.3035305  67.0383993
  27.0234723  19.8527680  66.3058678  26.7642117  71.5923262  22.0695853
  26.9878411  72.4117947  21.6283488  27.1477127  70.9107351  21.5176868
  39.9260569  48.2044792  19.0939319  39.9475241  49.0633583  19.5159471
  39.7739172  47.5889921  19.8110509  45.7614803  42.9237747   7.0550793
  46.2785721  43.5883713   7.5102276  45.9922075  43.0312347   6.1323392
  55.5719566  67.9459763  21.8121648  56.0362673  67.8990364  22.6478934
  54.7106171  68.2983208  22.0361733  34.4155240  56.6841888  33.2856989
  34.5315838  56.5873480  34.2308879  34.3174720  57.6268864  33.1517696
  34.4297433  63.9034271   8.6296481  34.0536714  64.2004442   7.8010452
  35.3693509  63.8416433   8.4577328  56.4233112  50.0136518  21.0903406
  55.8423805  50.4163790  21.7357540  56.0036373  50.1888323  20.2480698
  36.4098549  70.6893206  50.4432535  36.6185355  69.9117947  49.9254370
  37.2396922  71.1615038  50.5114222  11.3383306  38.2099488  63.8641508
  11.4951099  37.3620656  63.4485291  10.3973878  38.2203963  64.0395056
  24.8198414  58.2724380  34.9114060  25.6370068  57.8221703  35.1252627
  24.4401813  57.7552032  34.2010808  33.9742064  21.1346269  29.5286965
  33.9275026  21.8873334  28.9392185  34.0082932  20.3759074  28.9461017
  17.9059613  68.6290932  48.7039995  17.7330470  67.8344917  48.1990910
  18.5471714  69.1103649  48.1810665  13.4669419  64.3445206  29.4843554
  14.2034455  63.8211203  29.8003507  12.8492184  63.7022781  29.1348195
  64.3755233   7.7745064  37.7212358  64.2119037   7.2835835  36.9159698
  65.3088938   7.9842098  37.6884460  21.1164808  52.0177507  49.0667248
  21.5525579  52.5625277  48.4115171  20.1900625  52.0517969  48.8283539
  32.1779930   3.0445965   4.6000898  31.7027681   3.7523182   4.1647455
  33.0855482   3.3475311   4.6284840  37.6205611  61.6180897  21.6455483
  36.8121862  61.1713743  21.3941312  37.6043582  62.4382401  21.1522722
  14.3667281   6.0608390  63.9225440  14.0512813   5.3851226  64.5226559
  15.0930417   6.4749625  64.3885933  29.5189374  32.3893455  32.6862963
  30.1461952  31.8786290  32.1744879  29.6774023  32.1247771  33.5924538
  36.6732836  28.6693263  19.7024226  37.5836062  28.3801651  19.6397209
  36.4968705  29.0893435  18.8605809  21.8175948  11.3790372  64.4723390
  21.0316337  10.8614257  64.2974870  21.6569389  11.7768577  65.3280042
  20.9523487  52.4884892   9.4371903  20.5176854  51.7504692   9.0098476
  21.8237162  52.5148249   9.0418971  40.6552982  39.9180555   1.8999541
  40.4499578  39.2063475   1.2937057  41.4885902  39.6626472   2.2957127
  68.3455324  55.8942556   1.4478660  67.5909376  55.5259800   0.9883119
  69.0488386  55.8858728   0.7986174  63.2256889  29.3095732  17.1701992
  62.7142429  30.1124430  17.0699096  63.8858843  29.5267940  17.8283703
  16.6298879   4.5714858  62.2344257  16.4009822   5.0896457  63.0060108
  15.8744920   3.9998773  62.0970525  42.6703882  21.0646033   4.7154826
  42.8941298  21.9719481   4.9226007  41.7212582  21.0195923   4.8310691
  50.7193089  65.3568602   7.2287446  50.4255342  65.8377504   8.0024844
  49.9107981  65.0893927   6.7917055   1.8882050  38.7416148  45.5968904
   2.2994384  38.4634757  44.7785044   0.9590134  38.5456800  45.4767084
  26.3704371  76.3583326  23.2318568  26.0831761  75.6009388  23.7418246
  26.4943457  77.0509768  23.8807940  36.4330083  64.7390552  55.2914591
  36.5690625  65.3839440  55.9856053  35.8277047  65.1647611  54.6843238
  27.6185679  64.0905142  40.5779266  26.6724515  63.9745140  40.4905224
  27.7326250  65.0303650  40.7189798   0.4750844  76.7313910   1.8156286
   0.0375481  75.8899546   1.6860792   1.3430043  76.6119099   1.4300579
  46.0387278  48.4648943  19.0662110  45.4590225  48.1604767  18.3679986
  45.4555750  48.8967228  19.6904647  22.2501863   3.1639960  63.0786257
  21.6536248   3.3824924  62.3626609  22.3040403   3.9658025  63.5986604
  28.5119104  34.4614935  29.0813041  28.4846687  34.9179959  29.9221921
  28.0106831  35.0214243  28.4884477  16.3441622  47.3134232  29.5925617
  16.9495082  47.0975351  28.8832092  16.2738597  46.5058231  30.1015520
   0.1445092  21.8894294  48.5393305   1.0241426  22.1497873  48.2660361
   0.2151192  21.7635825  49.4855912  28.5529399  26.0372305  26.6359282
  28.1810021  25.9266853  27.5109553  27.7943277  26.1765838  26.0690761
  28.3394623  31.9648266   7.3154736  29.1453314  31.7433834   6.8488145
  27.9307866  31.1196113   7.5020969   4.2201539  60.5523491  27.6527786
   4.7783013  61.1371279  27.1402001   4.4880219  59.6724129  27.3878384
  28.3274412  70.8818913  40.4626894  28.0791354  70.3726482  39.6911693
  28.8325000  71.6158819  40.1128244  81.7201412  48.2964659  19.4826865
  81.7647563  48.7258768  20.3369999  82.2381639  48.8573408  18.9053607
  37.2757816  37.2599268   2.0243137  37.4393868  36.7948365   1.2038530
  36.4889884  36.8473959   2.3806989  51.1261511  55.9786606   5.2327520
  51.3626480  55.4684925   6.0073662  50.6557608  55.3605938   4.6733287
  61.9955587  43.7223721   1.1212169  62.8844357  43.4389734   0.9071709
  61.9937706  43.8055182   2.0747975   3.7303246  14.5072129  53.7688096
   4.2670692  14.8425964  53.0507167   3.5220874  13.6087039  53.5127814
   6.3368613   0.7742508   2.5482288   6.6112048   0.4600199   3.4097531
   6.0612256   1.6783150   2.6996407  30.6510795  38.5539773  65.2688733
  30.7964481  39.2438129  64.6213944  31.4789642  38.4946874  65.7456585
   8.9319933  10.8456472  51.6395398   9.7227729  10.4310468  51.9845112
   8.9358915  10.6300739  50.7069393  28.1417983   0.1576431  16.7267871
  27.2428086  -0.1374428  16.5819633  28.0642157   1.1009892  16.8692946
  15.3544378  57.9012156  20.2468586  15.3658056  58.3064699  21.1139631
  15.7691777  58.5472202  19.6751046  10.5333734  46.3736916  10.9791327
  10.9694743  45.5695057  11.2607980  10.5949521  46.9570875  11.7354977
  37.9877353  36.9993639  21.1097336  38.3702445  36.8353009  20.2477574
  37.1112633  37.3356223  20.9227633   8.3848817   4.0347870   4.6006989
   8.6081464   3.1043537   4.6269974   7.4278552   4.0517433   4.6075580
  81.0859381   7.7558335  39.9137878  81.3257872   7.4268730  39.0474772
  80.1792752   8.0470284  39.8168325  31.5398788  30.8086419   6.3814235
  31.3201189  29.8797345   6.3102287  32.2273445  30.8418226   7.0466465
  69.3227851   4.7605046  11.4417922  69.9936473   4.8938378  12.1114159
  69.0630137   3.8447006  11.5420318  70.7637978  43.7398815  24.7553873
  69.9903917  43.1787777  24.8122215  70.6479645  44.3793201  25.4581928
  68.7111508   7.9233940  34.3794560  68.5877692   8.3659180  33.5397053
  69.4111048   8.4152706  34.8088264  48.9394903  67.1398973  18.1964123
  48.6051941  66.3218784  17.8285527  48.2274008  67.4628782  18.7485373
  76.6238356  42.9864454  20.8520293  77.2205305  43.3315086  20.1878595
  75.8516216  43.5492563  20.7958579   7.7469784  64.1178179  14.6742582
   7.9694378  65.0180197  14.9117136   8.5914105  63.6971903  14.5122778
  76.8645780   5.0678924  62.9160090  76.3231962   5.7744649  62.5640245
  77.5358861   4.9253753  62.2487281  16.3563681  44.2621040  43.5419083
  16.5523493  44.1430569  44.4712353  16.6813540  45.1392937  43.3390474
  63.1715012  59.0190268  61.2567949  63.7989521  58.3154821  61.4228249
  62.3600006  58.7175417  61.6652155  55.9236813  59.7186995  19.1338158
  55.1162195  59.8243427  18.6307514  55.8186531  60.3068686  19.8816502
  42.4676800  69.4061518   6.6535878  43.2211113  69.2716694   7.2284627
  42.4687576  68.6436176   6.0749894  62.6948881  70.0839329   3.2923752
  63.4476328  70.6639910   3.4070191  62.6115131  69.6310425   4.1315240
  22.4914265  59.1351509  14.1492558  22.6522565  59.0456247  15.0885916
  23.2995844  58.8290596  13.7376463  79.8466008   3.9483216  66.5256411
  80.3837602   3.8802627  67.3149818  79.6292274   4.8784259  66.4633181
  60.1537991  74.4156075  16.7003608  60.3533316  73.5710573  17.1042812
  60.4154968  75.0623322  17.3557186  59.7483826  64.0363264  -0.0876451
  60.4541445  64.6375084  -0.3257914  59.6619272  64.1321850   0.8608106
  65.8157074   6.1668881  12.1967041  66.2823235   5.4274662  11.8071425
  66.4931952   6.6616162  12.6576662  20.9418834  11.2804273  35.2922805
  21.0135186  12.2213557  35.1318081  20.0442899  11.1578181  35.6013496
  76.7711830  49.7702503  22.2253585  77.6060677  49.5249557  21.8265748
  76.7957020  50.7263803  22.2634625   5.5593718  27.5665811  65.0853537
   6.1344326  26.8899205  64.7280471   5.8818353  27.7095655  65.9751881
  24.0557003  17.9922295  19.5418227  23.9267969  18.9019322  19.2733884
  24.6023846  17.6143920  18.8529038   8.2271946   8.5634473  46.8779667
   8.4776295   7.6488116  47.0081897   7.7995194   8.5750869  46.0217007
  35.4545283  43.2874012  12.8305852  35.8961797  43.2982206  11.9814336
  34.6555066  43.7957716  12.6914728  27.8831536  17.1370609  22.6801634
  27.1486623  17.7090271  22.4573922  28.2647092  17.5316437  23.4643531
  75.9986990  27.7617982  53.2149525  75.4748838  27.2136739  52.6306518
  76.0307520  28.6136153  52.7795048   2.2272511  53.2562590  29.8232365
   1.8645592  52.7122831  29.1241074   1.6564866  53.0931759  30.5741453
  73.6471558  41.8263054   4.2704701  73.1594563  42.5492859   3.8759145
  74.5521641  41.9681978   3.9928788  50.4416275  57.9999542  60.9971619
  50.0858688  58.8796711  61.1227417  51.3381004  58.1450653  60.6946564
  18.2848323   6.4262965  45.6192620  19.0682042   6.8626884  45.9541162
  17.8878320   7.0666364  45.0288518  22.5808167  50.8111048  41.0180855
  21.8075752  51.2630510  41.3558388  22.2332716  50.1807070  40.3871822
  36.2020707  36.4740372  15.0272274  36.4042234  36.7954755  15.9058881
  36.0848570  37.2665334  14.5033562   4.1015805   0.8495143  62.6401962
   3.7913001   1.5119413  63.2575686   3.4022606   0.1962903  62.6182740
  28.7915672  19.5563605  65.7709664  29.3996108  18.8938716  66.0990269
  29.3481506  20.3019670  65.5462024  43.9079679  14.1694835  61.9856467
  43.9244569  13.4618762  62.6300495  44.7848237  14.1643527  61.6018076
  33.1793380  56.3182974  29.4837689  32.2577190  56.3595057  29.7390246
  33.5933256  55.7893562  30.1657271  75.8022474  18.9889193  10.9221601
  75.9952365  18.2150185  10.3929508  74.9774901  18.7796772  11.3605952
  34.7470713  50.1549673  36.1241674  35.5368304  50.5269957  35.7316041
  34.4084167  49.5557356  35.4589844  40.2964973  70.2463055  31.3342190
  39.7651076  70.6614542  30.6548715  41.1602211  70.6483793  31.2417817
  19.4451822  43.4399989  51.5777619  18.7917722  42.7688983  51.7749961
  18.9320291  44.2034629  51.3131364  49.7825723  31.0272411  56.1621185
  49.0346091  30.7148698  55.6529935  50.0073361  31.8690255  55.7657488
  57.2820616  49.3267202  55.9836721  57.5557280  49.5174456  55.0864744
  57.9507351  48.7277365  56.3158274  25.9553981  68.1180620  10.3477764
  25.3599644  67.9881239   9.6096665  26.7128587  68.5640240   9.9688280
  56.5956657  22.2137836  66.5504091  57.1220880  22.6434329  67.2245848
  55.7953147  21.9491962  67.0039118  32.5923562  74.3211508   4.1041085
  33.0926394  75.1361275   4.0620697  32.7957726  73.8726330   3.2833254
  23.2894373  53.0677700  19.5098019  23.1069899  52.1506929  19.7145307
  22.4836993  53.3874178  19.1037917  66.9678276  14.4862083  66.3509438
  67.0242613  13.5310987  66.3794076  66.0289698  14.6697906  66.3181320
  53.3406483   2.4252375  33.7781405  53.1238472   3.2420166  34.2276931
  52.6273596   1.8293150  34.0068936  24.1573341  17.4214085  24.7603011
  24.7188384  16.6546925  24.8746800  24.6610410  18.1449421  25.1331592
  73.9996481  44.4080353   0.7463244  74.7919369  44.9422407   0.6903786
  73.4167099  44.7737598   0.0809988  57.2408234  17.8676995  19.7984231
  56.5865790  17.1718510  19.7353387  57.4549185  17.9113873  20.7303500
  67.9474592  65.7465601  12.4539590  68.8392448  65.8687782  12.7795470
  67.9646540  66.1070395  11.5673983  63.6389100   6.7588719  15.4735029
  63.5417568   7.2049626  16.3148105  63.7548482   5.8369168  15.7032371
  78.5403459  16.3070348  49.8333104  78.2081430  16.6905120  50.6449862
  78.0756491  16.7750171  49.1395660  30.0680971  46.2387323  32.5434351
  29.6287131  45.5237675  32.0830035  30.1578736  46.9280148  31.8853569
  54.0179443  76.0097361   4.9969155  54.3667889  76.0015821   4.1055822
  53.3505678  75.3235626   4.9992141  47.1599579  60.4243946  19.7649956
  47.3960686  61.3417339  19.9027503  47.2090435  60.0310087  20.6362414
  43.5837126  66.8422651  21.8188739  44.4851494  67.1007156  22.0108271
  43.2670450  67.5108290  21.2114406   8.9591224  18.0466183  26.7375994
   8.3205421  17.9683789  26.0288501   9.1887719  18.9757546  26.7515874
  73.3117962  47.9210281  20.0876689  74.0810108  47.7149105  20.6187606
  72.9938412  47.0699883  19.7862196  57.2439861  44.2870712  16.6040599
  56.7089176  44.2164564  17.3945987  56.6299009  44.5612526  15.9229136
  72.7264643  69.4741440  16.5666223  72.3333645  69.1167784  17.3628592
  73.0835485  68.7109566  16.1124516  52.9716682  67.4222946  16.3338494
  53.4854746  67.0289612  15.6284976  52.0739031  67.4277687  16.0018575
  67.6762955  34.1520026  64.1895868  66.7631166  34.0734008  64.4655548
  67.6999848  33.7479785  63.3221547  32.5413250  26.4355286  37.9762363
  31.7106261  26.5794666  37.5229692  32.4724673  25.5472382  38.3261418
  72.8052556  10.9017094  42.2187138  73.1807791  10.0351437  42.0628881
  73.4692227  11.3616379  42.7323675   5.6019170  11.1287029  10.3417504
   5.0777871  11.7886742  10.7955706   5.1499517  10.9953030   9.5085871
  28.7681198  71.9910812  33.7842155  29.2949057  71.2357569  34.0453911
  29.1066599  72.2326040  32.9220724  26.6913713  37.1642068  45.2883323
  27.2448266  36.4555648  45.6165703  26.0925496  36.7365030  44.6761950
  67.7071524  44.7863150  42.6759815  68.0592108  45.6685829  42.7938414
  66.8969679  44.9156237  42.1829176  63.7001419  51.0206032  43.7652636
  63.6098051  51.3538647  42.8725100  62.8055620  50.8127499  44.0349960
  51.1835814  54.1110039  17.7634847  51.1972904  55.0387526  17.5282764
  52.0964718  53.9000607  17.9593670  76.1332022   2.7231415   2.8025305
  76.8554293   2.4665983   3.3759516  75.9792506   3.6450299   3.0090585
   7.8653444  23.8034061  53.8704343   6.9207919  23.6997464  53.9857932
   8.1826032  22.9192832  53.6863120  55.2339315  64.6095133  24.3225312
  55.0747967  64.2781019  25.2063179  54.7798061  65.4517460  24.2971873
  50.9882771  15.4702385  38.9463544  50.3962743  16.2205322  38.8932133
  51.2065398  15.2723892  38.0356121   3.7715408  66.8017769  18.2677293
   3.2737187  67.5391817  18.6207783   3.6687946  66.1090803  18.9202952
  28.7338376  62.3746729  17.0680368  27.9360890  62.7346230  17.4556756
  28.5029531  61.4749432  16.8369198  16.2854958  70.4324627  12.7745652
  15.3688836  70.5496120  13.0242229  16.2659740  69.7479153  12.1058047
   9.9995983  68.6761761  24.3838716   9.7682971  69.6036386  24.3334675
  10.5648613  68.6117887  25.1536536  20.3472293  38.7126067  48.2100172
  20.9751952  38.0411342  47.9435368  19.6837009  38.2356742  48.7085135
  28.6932278  14.8061856   7.1896219  28.2293472  15.5424889   7.5882429
  29.5006982  15.1891525   6.8467546  69.8778772  67.2010422  42.5794554
  70.2431107  66.3662910  42.2861528  69.0926409  66.9595194  43.0706787
  49.9723446   5.8167179  49.5214605  50.1399385   5.1869591  48.8203526
  49.5943820   6.5753659  49.0766668  17.7501542   6.1744412   4.6712035
  18.1135137   5.7386215   3.9003158  17.3324926   6.9633778   4.3257159
  56.5525352  15.7309159  44.2354631  57.3634278  15.3251560  44.5421219
  56.6227423  15.7148751  43.2809782  10.8732259  73.3344460  43.1545115
  10.4137838  74.0827656  42.7735138  10.8132088  72.6512575  42.4867678
  65.8306109   9.1847809  64.3266153  65.0220167   9.6835430  64.2098379
  66.4740979   9.8345478  64.6093941  66.4423739   4.7659786  30.5477715
  66.8297898   4.7476776  31.4228749  65.7967650   5.4716213  30.5863595
  68.9316702  53.2031727  19.7381508  68.6920595  54.0783882  20.0428033
  68.7570190  52.6328278  20.4867721  56.1174011  55.0615072  14.7434485
  56.5927029  54.7357082  15.5077660  56.8028736  55.3304482  14.1318667
  34.7323632  56.9320822   4.3224075  33.9731026  57.2052145   3.8074750
  34.5276833  56.0376406   4.5950004  34.4431329  75.6992197  25.3249073
  34.5242810  74.8760939  25.8066869  33.7762952  75.5234623  24.6610808
  13.2273591  61.8511486   6.7306417  13.9560783  61.4792919   7.2275537
  12.4462652  61.4603090   7.1222591  70.5446898   1.4275702  10.1909983
  70.1774728   0.7296284  10.7334614  69.9749171   1.4585074   9.4224721
  28.7259603  46.0361814  13.8554657  27.9587531  46.2448359  14.3884623
  29.0819693  45.2398109  14.2495358  75.4672419  14.6894940  19.6231389
  75.6484925  14.1043099  18.8876534  76.2367140  15.2566250  19.6732438
   1.7882497  17.3035725  21.1771131   2.3498923  17.0961388  21.9239473
   1.8577010  18.2534703  21.0817385  60.2476263  65.2444315  15.2403855
  60.4815578  65.9485006  14.6355796  59.9992514  65.6947994  16.0476708
  37.9813684  29.9127868  59.1540082  38.4574474  29.1337970  59.4416882
  37.1202911  29.5850089  58.8945057  37.4587822  56.5413952  45.5386257
  37.4335957  57.2878361  46.1373091  38.1576777  56.7539454  44.9200821
  80.1339709   8.9683731  29.3101954  80.0236165   9.7004421  28.7034583
  80.9169327   8.5146530  28.9982033  71.4597178  59.1167402  17.7613628
  71.6616774  58.3103085  17.2869051  70.5034494  59.1587019  17.7661979
  79.3270128  33.2729819  66.2069196  79.2555564  34.2233661  66.1180712
  79.6607797  33.1397870  67.0941003  10.0507660  66.9865894  11.8772197
   9.4744511  67.7075338  11.6235876   9.9918671  66.3659668  11.1508632
  65.1465464  45.4705572  23.1106067  64.3544340  45.6228495  22.5952458
  65.1820946  46.2087250  23.7189507  49.4301736  15.4838570   5.2940989
  48.7831485  15.0997360   5.8857435  49.2253648  15.1073845   4.4382039
  39.3097080  64.7168830  57.0662154  39.8906101  65.4650119  56.9280406
  38.6471713  65.0378612  57.6779749  79.3409430  20.9044655  17.7233994
  80.2492415  20.6611355  17.9023385  79.2604815  21.7958554  18.0627680
  39.2082500  57.1855354  34.9475646  39.9462080  57.7664900  34.7627878
  38.7877679  57.0547104  34.0976739  11.3364865  68.2363553  56.7552324
  12.2598864  68.2910247  56.5091069  11.2260892  68.9133043  57.4229033
  10.3461730  62.8524685  14.6833372  10.6092155  63.0014849  13.7751329
  11.1324441  63.0432844  15.1948059  48.6538458  50.9369755  21.4961982
  48.7498856  50.4901266  22.3372269  48.9809513  50.3086615  20.8524156
  65.8035266  15.7945069  29.9396062  66.4707910  15.7437714  29.2551970
  65.7962953  16.7157944  30.1992345  74.5844173  65.7228899   8.5829991
  74.4330359  66.4043570   7.9280823  74.8406267  64.9539661   8.0737406
   8.5764349  19.8509744  56.8624135   9.4554389  19.5137313  57.0351865
   8.2050074  20.0074676  57.7306207   5.7962424  11.6403588  15.1168168
   4.9594695  11.1776169  15.1606250   5.6345708  12.3717316  14.5208383
  56.1919104   9.9140270  11.8871737  57.0088183  10.3291996  11.6105449
  56.4227521   9.4398602  12.6859951  14.1881097  51.2400535  55.5045505
  14.4127715  50.3400901  55.2682848  14.6591819  51.3975814  56.3227840
  57.4573313  16.3659390  24.8625183  57.5781547  15.8376320  24.0735173
  56.5794837  16.1399372  25.1699877  54.0979242  57.5303030   5.4894000
  54.2827606  56.6656923   5.8561528  54.2000532  58.1305790   6.2279606
   3.8981778   0.6458767  12.4349046   4.1042478   0.0567492  11.7091691
   4.6582133   0.5876692  13.0138636  14.5299346  14.3401249  26.8155909
  13.9074428  13.6624535  27.0792150  14.7504956  14.7925575  27.6297712
  29.7062982   3.6126998  62.7922456  28.9448560   4.0892890  63.1228547
  30.1092828   4.2115787  62.1636133  64.7746246  46.8262389  63.7357558
  65.2591913  46.1641219  63.2427751  64.7120707  47.5715068  63.1383552
  75.5048513  60.0534821  34.7130156  75.5507994  59.0982533  34.7538185
  76.2043095  60.3519630  35.2943063   2.5987816  72.6478767  25.8156490
   2.2072856  72.6693487  26.6888642   2.7809376  71.7215633  25.6575465
  10.3951526  36.9064736   0.6980383  10.2508926  36.1684728   0.1057770
  11.2046862  36.6882658   1.1598533  57.5206375  76.3473701   3.7085721
  57.0605850  76.0752344   2.9145151  57.5150728  75.5699348   4.2669573
  42.4828780  23.6786321  66.0193291  43.2377113  24.1443351  65.6593613
  42.6185430  23.6986879  66.9666536  72.5619936  68.0080414  24.3314934
  71.9687319  67.5342226  24.9143910  72.2271299  68.9047432  24.3262696
  68.2453334  27.6296242   2.2736353  68.1238400  27.2982987   1.3838634
  69.1807305  27.8244885   2.3310152  47.1669531  50.8274508  24.8792934
  47.6792622  50.6710958  25.6725907  46.6304922  51.5923643  25.0874996
   2.2762788  19.0810493  58.4981086   2.1642388  18.1311086  58.5339971
   2.7144159  19.3017677  59.3200274  22.4745679  70.9525633  32.5440955
  23.0929518  70.5866575  33.1765103  22.8015327  71.8357372  32.3728585
  43.1260443  54.1674376  10.6062031  42.1800804  54.2513371  10.7259750
  43.4886265  54.2662144  11.4865494  45.4566902  27.6929669   5.3898160
  45.6328958  27.4099832   4.4925420  44.5551390  27.4171739   5.5552642
  28.8532651  53.8792422  63.6719756  28.6096299  53.3441928  64.4273509
  29.7836555  54.0644172  63.7997140  74.6091353   0.7681902  37.8562117
  74.6133839   0.3086765  38.6958933  75.5194413   1.0325821  37.7232647
  12.0601661  39.0397080  10.2860224  12.6753623  39.5725544   9.7821993
  11.4572198  38.6868580   9.6316612   5.8100427  53.8700488  55.4687579
   5.1092566  53.7571624  56.1109336   5.6384791  53.2002738  54.8067959
  61.8853998  46.6592693  22.9137158  61.8602657  47.6055574  22.7718043
  62.1554708  46.2975883  22.0696306  10.7977159   0.0953158  27.7320361
  11.1536939  -0.7082216  28.1113005  11.0634763   0.7852896  28.3399296
  43.0006075  73.1689119  38.4855032  42.9556847  74.0746689  38.1792021
  43.2604551  72.6673603  37.7127433  13.3378732  34.2662764  28.1296158
  13.3577800  34.2417026  29.0862942  13.6242318  35.1520348  27.9067683
  68.1704760  61.8698597  37.2114539  68.8486099  61.1963367  37.1591091
  67.3937511  61.4041233  37.5213265  29.7777081   6.2646389  14.4486248
  30.3874969   6.5375608  13.7631309  28.9269972   6.2272948  14.0114427
  39.1907191  50.8585358  15.0023305  39.2510724  50.2085495  15.7024062
  39.3232179  50.3570700  14.1978395  67.8861713  42.8474951  16.3229084
  67.4399137  42.0062208  16.2262499  67.6982021  43.3133364  15.5081117
  67.2077131  70.7073116   9.9276030  67.3273659  69.8226929  10.2730942
  67.0137310  70.5776739   8.9992726  24.6682317  13.4871395  -0.0861505
  25.6246144  13.4660252  -0.0527072  24.4101102  13.9321049   0.7210748
  13.1325395   5.2137097  25.9619355  12.6829488   5.6057080  26.7105579
  12.4645002   5.1690872  25.2778578  59.2347156   6.2915714  15.5952501
  59.8003232   6.0179527  14.8731303  59.2138588   5.5360802  16.1826515
   9.2020119  11.4349607  36.4745410   9.7768725  10.7038310  36.2482293
   9.6040500  11.8242648  37.2510965  65.0307094  23.9828594   8.8400066
  65.4986297  23.3793362   8.2629126  65.5857360  24.7620400   8.8724297
  39.3440342  70.1778173   4.2084250  40.1146793  69.7327375   4.5609096
  39.6904349  70.9746695   3.8068441   5.1120795  30.5602077  52.6587768
   4.7443403  29.7184613  52.3895784   5.9899152  30.3476909  52.9757507
  25.7076287  67.4781466  21.6262341  25.6367874  68.0497837  20.8617449
  25.0185657  66.8254757  21.5019512  42.0411634  64.5029211  12.8267694
  42.2693682  64.7665930  11.9353485  41.7979622  65.3193855  13.2631969
  21.4087915  55.4232740   9.9833417  20.5884671  55.2206469  10.4330552
  21.2300301  55.2340508   9.0622163  57.1131377  65.1178074  40.4970646
  56.7149572  65.1146507  39.6266198  56.4079241  65.3947735  41.0820389
  32.2314774  14.3753918   9.2271245  32.0497125  13.7054070   8.5681015
  31.4114677  14.8629006   9.3055516  29.4269323  57.7449417  34.4373488
  28.7201452  57.9122305  33.8138914  29.5758700  56.8009663  34.3829393
  53.7984848  76.7121887  32.9491496  54.3538761  76.0027552  33.2723761
  54.4117212  77.4091721  32.7159238  35.1049757  67.7996254  37.1292353
  35.0783968  68.0887222  38.0413485  34.4373298  67.1158457  37.0751548
  18.3769436  47.3724222  45.0003910  19.1938229  47.7951002  44.7353029
  17.9606934  47.1179819  44.1768456  25.2688993  21.2176231  57.7744593
  25.0611699  20.2857068  57.7064707  25.1077808  21.5635875  56.8966325
  59.4547714  18.2181028  64.2073964  60.0491870  17.7426007  64.7877349
  59.7727645  19.1207460  64.2262294  46.3510752  70.9315538  47.4201632
  46.6740751  71.7219162  46.9874573  46.6535854  71.0130358  48.3246422
  49.8583746  45.1684713  50.2673006  50.3061867  44.3938494  50.6073856
  50.5059242  45.5910969  49.7031212  39.5604634  75.3955698   9.6989870
  39.7413301  74.6402311  10.2584350  40.1641273  76.0716343  10.0068140
  38.5434186  13.5416802   5.2405488  37.8571927  14.1131027   5.5852395
  38.0708300  12.8671082   4.7528595  60.5723810  60.0255442  32.4361444
  60.8550978  59.4156265  31.7547464  59.9419498  60.5978251  31.9987845
  52.5747585  55.5192327  14.0369618  53.0302620  56.1986637  13.5398543
  52.0195770  55.0817585  13.3915007  46.1988258  46.8236828   7.5540727
  45.4319859  46.8793964   8.1242359  46.5490627  47.7143192   7.5359964
  38.9155698  57.7011347  14.0186107  38.1630898  58.1480980  14.4062102
  39.6766233  58.1455040  14.3921959  63.8360678  51.5877922  27.8922153
  64.4481861  50.8533295  27.9380608  64.2605864  52.2173603  27.3094106
   2.5263520  68.6050940  48.9618349   2.4593373  68.1106043  49.7786713
   2.7477379  67.9482603  48.3016968  27.1868861  22.1333125  47.9019852
  28.0912269  21.8540052  48.0447753  27.2196496  23.0883649  47.9570611
  76.4018106  36.5147114  38.4621382  75.9226418  36.0442853  39.1442871
  76.6991758  35.8301353  37.8628373  50.3853941  76.4754009  17.3263133
  49.7628212  75.8307743  16.9900227  50.4679251  76.2659931  18.2566726
  38.7754965  54.7392035  39.1910291  39.1160107  54.7548294  38.2965803
  38.9412761  55.6204748  39.5258522  41.9730043  72.7637339  34.3035078
  41.4804554  73.5310364  34.5948315  42.8278017  73.1106186  34.0481234
   8.7783563  50.7053041  22.8720403   9.2841053  50.1132107  22.3153734
   8.9981556  50.4405022  23.7652349  75.8521687  24.0469464   3.7219048
  75.5128800  23.9635571   2.8307480  76.4541041  24.7900398   3.6804590
  21.1503804  25.9053758  49.4159515  20.8980907  25.9286502  50.3390105
  21.2708772  26.8244889  49.1773351   5.4890515  59.6285553  52.3830040
   5.3930356  60.5404253  52.1082182   6.4288022  59.5201011  52.5290747
  14.9274738   1.2319096  35.3100252  15.1924665   0.3245648  35.4608226
  15.6554420   1.7533835  35.6481934  81.1021346  60.9786129  14.9492335
  81.9047485  60.4865694  14.7762048  81.3378913  61.5810156  15.6547558
  46.7763042  48.6320782  36.6865063  46.2591076  48.5081244  37.4823546
  47.5135088  49.1767502  36.9623590  15.6993682   5.2081879  20.4371572
  15.6388099   4.4734009  19.8267043  15.5703790   4.8140915  21.2998748
   7.9820163  10.2759751  20.0354218   8.2862432  11.0673340  20.4797649
   8.1298978  10.4512318  19.1060960  19.0454585  15.4372032  18.5982215
  18.8376052  16.3098534  18.2643032  18.2906158  15.2009876  19.1373372
  77.8708284  25.0435212  66.1392167  77.2407739  24.4274476  66.5130008
  77.3487490  25.5974582  65.5588535  60.2586508  63.4808445   4.7095302
  60.1247931  64.1015768   5.4257745  61.1929417  63.2752562   4.7422260
  61.0287905  49.4635534   9.9113530  61.6701460  50.1095152  10.2073729
  61.4019251  49.1077471   9.1048771  76.6035080  56.7771196  52.9015541
  76.3337564  56.7023468  53.8169098  77.4868250  57.1437263  52.9413509
  69.5086765  70.3315592  21.7415476  69.1597319  70.0153923  22.5749183
  68.8084173  70.1658201  21.1103582  62.7473021  55.5291319  11.3383770
  62.6698494  55.6179047  10.3884554  63.5723305  55.9643793  11.5531337
  49.7452450  54.9474525  31.1224008  49.5202875  54.2819881  30.4721832
  49.7332382  55.7715893  30.6356883  61.2510443  70.0072289  15.1222587
  61.8354082  70.4301739  14.4930756  61.1345863  69.1201067  14.7821391
  33.8062013   8.5138229  56.9746526  33.2411207   8.6883882  56.2220271
  34.5629228   8.0584863  56.6055019  77.2467041  54.5029211  27.9754901
  76.9766331  53.8542795  28.6255336  78.1585693  54.2842054  27.7834105
  45.5746889  47.3865223  -0.2340287  45.8953905  47.6600981   0.6253531
  45.1851511  46.5255976  -0.0813672  48.1633078  13.6544712  43.8507032
  47.8552663  14.5604237  43.8264942  48.0510031  13.3876045  44.7630644
  17.7993572  72.4170971  13.9744997  17.6469874  72.0338154  14.8382759
  17.4731374  71.7597914  13.3598745  55.0937330  15.0309284  14.8049200
  55.4169594  15.5786331  15.5203044  55.8106696  15.0174530  14.1708434
  62.9397546  18.3421143  20.0719714  62.3467886  18.5041817  19.3382430
  63.3231746  19.1979702  20.2636123  16.4570481  22.1928890  24.9481463
  16.8140037  21.3531216  24.6590018  15.8205945  21.9623383  25.6249070
  64.2566787   4.9767407  39.2649078  64.0807521   4.8637303  40.1989889
  64.6955883   5.8252533  39.2047930  48.6521530  53.6597681  15.9658492
  49.0101337  54.5236826  15.7615614  49.2565489  53.2970905  16.6134608
  80.8927034  77.3885155  33.4320617  81.0455894  76.4439297  33.4072351
  81.6169319  77.7616549  32.9295754  78.9886080  13.1167992   2.5905934
  79.9273431  13.1421288   2.4052025  78.5790431  13.4726246   1.8020007
  41.7538691  70.1736021  35.1051569  41.9652224  71.0737514  34.8575974
  40.8008909  70.1223707  35.0313449  74.0998780  23.2449635  35.7966638
  73.5701119  22.9637631  36.5426588  73.6962210  24.0647705  35.5117083
   3.4238488  14.6106632  31.7575145   3.3774240  14.8994930  30.8461142
   2.5247867  14.3667324  31.9775534  71.4979779  11.9495590   9.2872149
  72.1164214  12.6773747   9.2235845  71.8405329  11.4054878   9.9963474
  66.0769617   9.0172585  10.9310400  66.2437784   8.0749806  10.9081197
  66.2214338   9.3080433  10.0305939   9.6365888   4.8467549  29.8223352
   8.9150340   4.3330868  29.4593716   9.2498023   5.3124912  30.5637670
  69.1109753  61.1370802  20.7019949  68.3339310  61.6664410  20.5225182
  68.8172483  60.2334833  20.5859447  50.5314886   2.1842631  22.6062083
  50.3374302   1.4912995  21.9750381  49.7371494   2.2554167  23.1355405
  41.9811964  75.8521938  38.0711627  41.2397242  76.4103651  38.3054423
  42.6213932  75.9996939  38.7673116  63.3912598   9.7722443  45.4523277
  63.8411199  10.1670941  44.7053623  64.0416037   9.7792729  46.1546326
  40.7283627  10.8912857  21.1881542  40.3982293  11.7416008  21.4783549
  39.9432754  10.3555496  21.0747790   4.7147186   3.1249245   2.3421328
   5.0767476   3.9104851   1.9321805   3.7791116   3.3084877   2.4268664
  23.9724738  12.4541672  42.0034075  23.7865407  13.2532795  41.5103817
  23.8824088  12.7122791  42.9207420  75.3094279  42.0666130  45.6579733
  74.9598109  41.8803127  44.7865963  75.6524169  41.2266548  45.9630394
  60.8789789   7.1205242   3.5945562  61.6174328   6.6727455   3.1817460
  61.1991274   8.0071171   3.7609285  11.1188090  57.6616001  18.6807156
  11.7399883  58.3597755  18.4735405  10.3372622  58.1201315  18.9892101
  47.7665848  13.8307529   7.2659461  47.2420496  14.6061854   7.0664327
  47.3066610  13.4110360   7.9929511  26.5925622  52.3196936  11.8215024
  27.4502230  52.5800323  12.1574640  26.7722702  51.5576553  11.2708390
  25.4989982  60.1258039  32.5063753  26.0638881  60.6307793  33.0912948
  25.9320450  59.2755651  32.4302435  29.3852472  56.7278671  40.4250383
  28.9855790  57.5946856  40.4966211  29.5343256  56.6095829  39.4869494
  38.1072164  36.2828827  30.2388883  38.9582682  36.6340733  30.5008245
  37.7040672  35.9959149  31.0582495  22.8850412  33.7104392  17.7082705
  22.3736501  34.4358015  18.0668235  22.4930143  32.9271650  18.0943120
  70.5568986  77.5947818  43.0177069  69.6860557  77.5004967  42.6317358
  70.9347980  76.7164421  42.9736233  19.0654111   7.0426750  17.7311432
  18.8112247   6.5431446  16.9551980  18.9551640   7.9579335  17.4735022
  25.8715558  16.6942656   4.3056881  26.3713932  17.3408437   4.8040166
  25.9270048  16.9957113   3.3988875  18.7465763  18.0126739  13.9999640
  19.4120920  17.7354801  14.6296334  17.9177225  17.9140043  14.4684684
  31.2980795  23.9883518  38.4345365  31.4037108  23.1501794  37.9844904
  30.6675887  24.4699550  37.8990245   9.0575492  31.2019992  20.1953387
   8.9732170  30.3075576  19.8650444   9.5653290  31.1126304  21.0018158
  39.6316004  56.9908142  11.5634918  39.5677876  57.1750736  12.5006187
  40.0218010  56.1179924  11.5170395  56.6731220  71.7352886  36.7148407
  55.7508308  71.9692535  36.8190988  56.7546970  70.8847232  37.1462543
   4.3796266  15.2049449  63.9215900   5.0904907  14.6386483  63.6212351
   4.2451514  15.8223346  63.2025792  44.2498732  20.0544930  13.8328063
  44.6609068  19.2423534  14.1289675  44.6267748  20.2118540  12.9671192
  58.2774210  12.7760041  15.5055141  57.4059582  12.7186513  15.8972955
  58.6947536  13.5101902  15.9561098  43.4236193  40.4963923  28.9807105
  43.6290693  41.3779449  29.2919827  42.9067707  40.6369019  28.1873894
   9.7426809  17.3153833  57.7659197  10.6124223  16.9975570  57.5235029
   9.5505131  16.8781427  58.5954495  69.0486221  29.6640587  49.0085983
  69.7985844  30.2329683  49.1821718  68.6116509  29.5785904  49.8559380
  48.3989912  46.0232557  47.2827144  49.0278870  45.3052117  47.3543663
  47.6530057  45.7420368  47.8124829  34.1542935  42.2141838  14.7835720
  34.7282362  42.5100994  14.0769935  33.6054850  41.5414429  14.3805027
  29.7537041  53.5286808  32.3495746  30.0045395  54.3882656  32.6878476
  30.2599001  53.4316730  31.5429831  18.7069404  35.7155704  27.8433943
  18.9412534  35.2594876  28.6516738  18.9656007  35.1139307  27.1452856
  50.9396750  56.3923819  50.4832454  50.9930235  56.5782542  49.5457824
  50.2887040  55.6940277  50.5522914  76.2620180   8.6319164  44.1975339
  76.9687574   8.1151012  43.8106854  76.3428896   9.4930509  43.7874802
  78.1142013  42.6938346  54.6993239  78.3181327  43.0100158  53.8191696
  78.9269822  42.8125671  55.1907750   0.9975279  25.8757594  26.6185935
   0.3201021  26.2790206  26.0757287   0.5290545  25.2264980  27.1432074
  19.7524559  14.5326352  26.7800736  20.6380773  14.1851723  26.6743517
  19.8159361  15.4425573  26.4898229  52.0800924  23.8377452  14.5747733
  51.5668774  24.5494270  14.9573326  52.5995827  23.4984374  15.3036273
  76.1145550  35.1072336  64.9601604  76.4257580  34.3363423  65.4346191
  76.8361193  35.7332493  65.0208099  28.9948476  13.3527044  65.4907580
  29.0426505  13.0265620  66.3894102  29.8712838  13.6939433  65.3128645
   5.7512248   1.8287614  48.1032677   4.9328173   1.4341834  48.4045156
   6.3222087   1.8118814  48.8713332  68.4301525  36.8398375  49.2482050
  69.3668896  36.9917416  49.3734415  68.0330378  37.7062364  49.3370016
  74.5767504  50.1035340  63.8054548  73.6581379  50.2388711  64.0379797
  74.6540028  49.1584523  63.6747413  30.5623596   9.8162988  43.7181051
  30.7955401   8.9011911  43.8744219  29.6414798   9.7878316  43.4584911
  63.2569843  62.2527690  62.1161767  62.9978639  62.0351310  61.2207873
  62.4693018  62.0984406  62.6376842   8.4102763  37.1818116  50.0912519
   8.3386720  36.2431100  49.9182160   9.2954815  37.2946933  50.4375144
  32.4980545  34.3199944   9.2723954  31.8317699  34.8905253   8.8892639
  32.0054817  33.5768795   9.6208006  57.5481349  60.8614202  66.0714121
  56.6771918  60.8090038  66.4650370  58.0659395  61.3626165  66.7014222
  41.0891628  42.8033543  15.4731035  41.8701220  43.2229519  15.8340347
  41.1903334  42.8844547  14.5247257  23.6870397   3.7808612  66.3715463
  23.4663451   4.4945386  65.7730595  24.5611728   4.0003207  66.6939737
  39.7886205  53.7392092  33.8718534  40.3061914  52.9489422  34.0262365
  40.3632975  54.3049479  33.3561850  58.8269593  62.3231630  31.0121465
  58.7561681  61.5866045  30.4049373  59.2450087  63.0158893  30.5006814
  18.7607312  43.1246901  19.1636837  19.0043318  42.7081347  18.3370209
  19.0911162  44.0198135  19.0873218  50.6407881  50.2643681  13.2137573
  49.9363089  50.0775433  13.8342690  50.4549360  49.6999502  12.4633443
  76.4925241  14.3876350   3.3758014  77.2874498  13.8563144   3.3308193
  76.3692760  14.5556414   4.3100479  42.8068113  60.0863457  19.5580447
  43.3754969  60.7805967  19.2251182  43.1657791  59.8753977  20.4199457
  38.9254344  10.8535293  65.7284177  38.9785827  10.7171872  66.6743657
  39.6187461  11.4854768  65.5381838  69.2280537  51.4016397  62.9697101
  68.3911663  51.7179806  62.6294480  69.0591532  50.4912944  63.2125612
  64.2311054  49.4990988  52.6627501  64.0210801  49.4961126  51.7288812
  64.8332959  48.7635977  52.7751656  28.8131584  77.0588584  61.6068264
  29.0385648  76.8009062  60.7130231  28.6510505  78.0005593  61.5506692
  32.6821804  47.3432922  12.0584965  32.7859950  47.0048523  12.9478288
  33.5524440  47.6633358  11.8209136  51.0843325  51.8631458  20.7138205
  50.2918816  51.5726376  21.1653209  51.7628908  51.2541199  21.0051608
  14.9411476  30.3990793  11.7099524  15.5116212  30.0080609  11.0482132
  15.2732348  30.0618529  12.5419545  53.5793352  30.0112462   1.4117122
  53.9550543  30.6538677   0.8099616  53.9640665  30.2254033   2.2616239
  21.1821677  52.0525761  60.8983173  22.0684077  51.7052836  60.9992851
  20.7355525  51.4120645  60.3446801  35.8337855  46.8986511   5.2764344
  36.0649395  47.8092241   5.0929809  36.5235662  46.3866901   4.8541391
  21.2747598  56.9277430  26.7997599  21.7727900  56.4212990  26.1581087
  20.8531857  56.2680674  27.3505163   5.1813949  56.3155858  17.9456496
   5.5845989  57.1728007  18.0829179   5.7349885  55.7090012  18.4374034
  40.6169480  43.4539626  66.8292228  40.5037528  42.9160677  67.6128601
  39.7326857  43.5516785  66.4760047  14.1263020  44.9331093  57.5148010
  13.7044919  44.1664553  57.9028082  14.7027981  45.2636385  58.2037401
  25.3228068  39.5689273  11.2763333  25.3746915  38.7043691  10.8688080
  25.8381200  40.1356220  10.7022738  55.7758856  47.1856356  42.0580053
  55.6836176  46.5447998  41.3529921  56.6703653  47.5141811  41.9674873
  24.6355104  57.4253893  13.6267138  24.8562050  56.7938185  14.3112922
  24.2991972  56.8910408  12.9072714  65.4563372  29.7374940   7.8787774
  65.8152418  28.8546777   7.7890241  66.1149184  30.2134967   8.3846664
  45.1190281  34.3670058  10.8446991  45.1805973  34.2817855  11.7961073
  44.5964670  35.1573014  10.7083333  24.9081349  31.0319972  23.7066603
  24.4965816  30.4329443  24.3295503  25.8477926  30.9121037  23.8441396
  47.8655434  68.5310459  12.0507634  47.6132059  69.4388247  11.8819547
  48.7372017  68.5934258  12.4413359   4.7982658  22.6627544  51.8113931
   4.7614253  21.7224029  51.6364439   4.3300951  22.7708772  52.6392551
  48.4568024  26.1014390  19.7908640  48.0084324  25.3334379  20.1449418
  49.2502880  26.1808062  20.3203130  46.6849518  20.0632071  10.0461531
  46.7873383  20.7636881   9.4018894  46.6068077  20.5184388  10.8845377
   3.3524157  71.3984652  64.9396081   3.1941249  70.4553480  64.8982725
   3.3361079  71.6843219  64.0262346  81.1966143  51.1030817  25.0042677
  81.1690397  50.7279634  25.8844709  80.3968017  51.6251516  24.9412394
  46.0947180  45.4180288   5.3164250  46.1584377  45.9939909   6.0782892
  46.8951702  44.8939037   5.3447902  37.1403313  57.2826893  41.7401464
  37.9631609  57.5196500  41.3123234  37.4067777  56.7813809  42.5108130
  28.8845123  50.7864288  11.7861732  29.8233045  50.6767371  11.6349729
  28.5133613  49.9184612  11.6276963   3.3775271  27.6807359  50.0970216
   2.8131951  26.9825414  50.4291184   3.9371527  27.2495607  49.4511576
  39.7924066  53.5050201  26.4942312  39.0297389  53.4866858  25.9161043
  39.4237328  53.5724020  27.3750091  55.5145317  60.7235618  51.7911346
  54.9485284  60.2283473  52.3832770  54.9832278  61.4733071  51.5231271
  78.4122770  24.8171428  47.1318634  78.9358180  24.4283918  47.8325828
  79.0566438  25.1885226  46.5292843  29.6032882  27.9631853  20.3151107
  30.5461454  27.8982782  20.1633286  29.5261335  28.2381368  21.2287188
  10.6476475  77.3685784  65.9496668  10.5897357  76.6151590  65.3620991
  11.3936211  77.8710098  65.6220766  70.9661596   7.7818111  42.9002054
  71.7449849   7.7975801  42.3439534  70.9343963   6.8884948  43.2425602
  51.0283240  30.1083234  63.3151014  51.7580860  29.5978645  63.6659746
  50.2489244  29.7083333  63.7008162  58.7077188  10.4860842   3.0147499
  58.8380480   9.7743207   2.3881397  58.2784224  10.0709915   3.7628368
  23.2644439  63.3283138   2.4129669  22.7983713  63.2356548   1.5820511
  24.1795301  63.1507969   2.1953903  77.1488302  70.4061429  34.1196561
  76.4961498  69.7059963  34.1256094  77.9546397  69.9849538  34.4188309
  34.9838555  46.4127750  38.1807383  34.9765068  45.8525373  38.9568241
  35.3134203  47.2543515  38.4959658  59.6205091  25.5604386   4.1440657
  59.3410063  25.3132510   5.0255460  59.5223045  26.5122771   4.1197559
  31.4120126  43.1984758  32.9871273  30.6780362  43.3084393  33.5916257
  31.6920996  42.2918463  33.1128764  52.4976283  77.0921559  53.5392650
  51.7600900  77.4758859  54.0136309  52.9919988  76.6182084  54.2079981
  33.0548585   3.9749053  60.7690968  33.7906183   4.4848827  61.1079313
  33.3212579   3.7297395  59.8830058  55.7410564  20.2310851  59.3200846
  55.2420908  19.4194129  59.4120361  55.1497149  20.8246234  58.8572009
  42.5549424  20.8101514  41.7819055  43.0826438  20.4763320  41.0564192
  42.5059474  20.0795844  42.3984297  63.5249043  46.6461277   3.5250983
  62.5800610  46.5151834   3.4453845  63.8124752  46.8619823   2.6380005
   8.6338216  57.2790480  20.9577751   9.1976821  57.9860735  20.6440663
   7.7505064  57.6467323  20.9295797  14.9078429  22.3024726  44.9507189
  14.8334599  22.6565075  45.8369207  14.6256125  23.0189037  44.3821192
  46.5779448  22.7883720  18.9604008  46.5144682  23.5056829  18.3297908
  46.6927052  23.2222104  19.8058867  22.3722458   9.2265236  12.1194708
  22.6598358   8.6924422  12.8599298  21.5575790   9.6308619  12.4179041
  78.9686203  12.9805315  12.4148571  78.7518787  13.5838568  11.7040455
  79.4123793  12.2507811  11.9826818  29.9542809  24.6836901  12.3995984
  29.4687128  23.9074087  12.6786029  29.3005729  25.2319622  11.9656682
  37.0717395  24.9415544  58.8261403  36.1912120  24.7259811  58.5188444
  36.9510186  25.7170633  59.3740894  46.4985078  60.2571459  46.5980156
  46.0253256  61.0891933  46.5927084  47.4055391  60.4986305  46.7856653
  23.5841012  15.7454824   1.0718035  22.8787899  16.2555099   0.6735080
  24.3840289  16.2100148   0.8257207  59.8937286   5.0287727  54.7114308
  59.3660796   5.7614473  54.3936236  59.3632377   4.2537168  54.5267745
  42.6974487  22.8837252  30.4352927  42.9498768  23.5871768  31.0333467
  42.6182747  22.1108603  30.9944367  30.3100324  24.5616961   5.6881225
  29.3895745  24.7336674   5.8866501  30.3716183  24.6555781   4.7375304
  23.2186187  16.3811067  22.5121339  23.5014928  16.8723109  23.2834514
  23.8160384  16.6599944  21.8181975  19.0640402   9.6346545  29.8430991
  18.5655975   9.2265290  29.1351295  18.4934855   9.5654041  30.6085420
  12.6599848  56.1651802  10.3362966  11.8348575  55.9261036  10.7584810
  13.3333075  55.9230232  10.9720838  19.9419095  56.5842683  55.9631820
  20.2773453  57.4807544  55.9579833  19.3794514  56.5345092  55.1902695
  75.9620111  26.3760045  57.8121503  76.0843103  26.1422542  56.8920238
  76.6686862  25.9215072  58.2707037  59.6971731  26.2857202  59.5249219
  59.5802765  25.3966144  59.1901757  58.9624011  26.4143470  60.1247527
  34.6657372  46.7765045   1.5032037  34.1337800  47.4794626   1.1302431
  34.1430736  45.9853649   1.3722393  45.0753307  37.1184993  17.5508130
  45.7476854  37.5100803  16.9932830  44.4186831  37.8072786  17.6539004
  62.6050216  67.9954786  39.0692409  62.0645982  67.2136755  38.9554008
  62.9145890  68.2031150  38.1876023  39.9398804  52.2461939   5.4995781
  40.8206511  51.8729115   5.5333269  39.9008012  52.8362179   6.2522912
  19.3913352  60.8617306  14.1153944  18.8211739  60.8370399  13.3469296
  20.2554536  60.6224966  13.7802851   0.4556998  39.7839308  11.9578457
   1.1737993  39.3378282  11.5088940   0.3817783  39.3326092  12.7987242
  36.2200475  31.8569326  12.9029608  37.1341348  31.9195318  12.6259148
  36.0173774  32.7226853  13.2574034  51.5687275   8.5939670   4.7772297
  50.8253670   8.3261752   5.3175390  52.0742941   9.1809756   5.3394163
  32.9915380  15.4110813  16.5733361  33.9269400  15.6139517  16.5831697
  32.9534674  14.4550967  16.6029441   8.5719860  43.6342192   5.4340404
   9.5003974  43.7447119   5.2289212   8.2041901  44.5149517   5.3614569
  53.9822531  20.3302002   9.3587250  54.1370535  19.6539199   8.6992449
  54.2137241  21.1492562   8.9207768  73.8189821  20.2537322   5.4899549
  74.5095651  20.4698086   6.1165631  73.9648740  20.8518696   4.7570315
  11.9287300  34.3248677  15.6001329  12.8754580  34.1944456  15.6542289
  11.5720558  33.4445262  15.4817438  43.4446383  47.8869820  14.0338135
  43.2415771  47.9828072  14.9643064  44.3126106  48.2786274  13.9365089
  12.7291667  62.3397160  10.1486146  13.4224093  62.8676605   9.7524828
  12.9336572  61.4415932   9.8882484  11.8048251   0.0327174  20.0064039
  12.2495031   0.8690120  20.1446247  11.5486956  -0.2503113  20.8841991
  67.1466112  29.0483761  24.3939543  67.3576689  28.2061100  23.9911246
  67.9267216  29.5843506  24.2511582  57.3056221   5.3603542   4.5167351
  57.2268581   6.0023439   5.2223390  58.2275391   5.1031536   4.5287386
  67.8060961  10.6548786   0.8645725  67.5624418  10.4266739   1.7616722
  67.2610092  10.0896525   0.3171869  69.8674160  47.9987897  35.1370533
  69.7992855  47.8584779  34.1926463  70.3967291  47.2654642  35.4505761
  16.3749959  39.5183420  47.1387024  16.3624360  39.9047739  46.2630637
  16.3500334  38.5740325  46.9841440  43.1556892  52.5926638   1.8525764
  43.5489845  52.4001122   1.0014164  43.1728697  51.7569351   2.3189312
   3.1824042  63.3593936  39.8875173   4.1145922  63.4630914  39.6964462
   3.0029084  64.0110178  40.5653079  56.2558681  77.1156425  59.5554550
  56.6016513  76.6860552  58.7730737  55.3335315  76.8609042  59.5807173
  23.6383212   3.2358030  52.7433153  24.4505084   3.6577132  53.0236359
  23.2138074   2.9680780  53.5583861  46.1445951  48.8183784  14.8020983
  45.7614660  49.1778374  15.6022441  46.0647058  49.5240402  14.1603100
  40.5006552  37.8189588  12.7661753  40.0877905  37.9468060  11.9121075
  40.8185053  36.9163036  12.7458394  52.2591859  73.4253640  63.3518823
  51.8461329  74.1594095  63.8066329  51.5617210  73.0561895  62.8101383
  50.7828283  41.4413452   7.7553326  51.5617847  41.4938831   7.2015321
  50.2147293  42.1427917   7.4367875  64.4518805  69.7863102  25.4973102
  64.4896317  70.6109667  25.0127983  64.7255182  69.1233444  24.8634148
  41.7737103  25.2809024  15.7046711  42.4938774  25.4090953  15.0872898
  41.9068623  24.3973207  16.0478675  22.2697891  34.6975568  47.1530111
  22.0002378  33.8676933  46.7594345  21.7770017  35.3621677  46.6716702
  23.3903611  60.0010828  11.4065623  24.1294874  60.5341617  11.6993988
  22.9400647  59.7519962  12.2136664  41.7185181  60.8979363  55.6938823
  41.9634086  61.0356755  54.7788473  42.2298783  61.5457029  56.1787935
  21.5160430  77.0070116  39.6501684  22.2195257  77.2047470  40.2684307
  21.5829385  76.0632382  39.5050859  46.4956010  65.0788538   2.1038496
  46.6234506  65.5469636   1.2787682  45.5750907  64.8167233   2.0903563
  54.7490263  25.8666301   9.3180078  54.0159082  25.4228544   9.7444272
  54.4824982  26.7851019   9.2779952  46.4531517  33.1533098   7.1713209
  46.5161800  32.8005886   6.2837136  46.5540600  34.0987682   7.0610660
  71.5861946  65.5060596  55.6456657  70.8937555  65.0595851  55.1584061
  71.9480187  64.8313684  56.2202127  16.3529646   5.3850371  34.4036245
  16.4242470   4.9471894  35.2518225  15.4525363   5.2201182  34.1238713
   0.2498902  11.5601781  61.4920636   0.7130969  12.3156264  61.1301674
   0.3357471  10.8827308  60.8212991  10.3644049  18.9989400  16.0288942
  11.2599754  18.7411952  16.2474215   9.9745518  18.2116401  15.6488860
  31.9777584   8.1688172   0.6893368  31.3474774   8.5133874   0.0566828
  32.1122766   8.8863117   1.3084795   6.3551105  13.7231019  27.3400100
   6.1761416  12.9363921  27.8550728   7.2938908  13.6816505  27.1577867
  29.1053928   0.3859499  59.3843796  29.8714984  -0.1371857  59.6202786
  28.4528173   0.1687315  60.0501062  79.7612762  44.0623283  25.1388192
  79.3775797  44.9385214  25.1028752  79.6676493  43.7972069  26.0537934
  46.8499279  24.2868423  21.2496042  46.0044622  24.3712735  21.6903830
  47.3869610  23.7780523  21.8570280   0.8981534  36.9496584  14.5118856
   1.0244008  36.3178802  13.8039649   0.7166310  36.4122868  15.2829349
   7.6937695  31.7984796  40.4470444   7.0674344  32.5157619  40.3498697
   8.2050820  32.0303655  41.2223005   5.6708838  49.5999188  46.9134434
   5.7247616  48.6598630  46.7413314   6.2972762  49.7500677  47.6214822
   8.2349289   3.6682990  56.1792858   8.7595452   3.2955077  55.4707416
   8.7586821   4.4000056  56.5056642  68.1755549  54.2820115  59.1448172
  67.7263504  53.6827166  59.7408815  67.5469595  54.4337995  58.4390833
  49.5085478  62.6243210  14.8622787  49.7028446  62.4632978  13.9389408
  48.5562944  62.7160978  14.8941898  25.2724361  26.5546751  29.1460323
  25.2269697  27.2847843  29.7633719  25.1856565  26.9634247  28.2848573
  26.5720749  13.5402656  55.8176804  27.2305059  12.9422903  55.4639530
  27.0453596  14.0609014  56.4666557  12.8714288  20.6827787  67.0452836
  12.8479875  20.0714877  66.3090747  13.7927831  20.7119468  67.3031344
  10.1036549  30.2947354  32.1252084  10.5109024  30.0070572  31.3081288
   9.7928721  31.1807132  31.9389606  29.8109639  19.8322108  53.3670516
  30.4846729  20.5030254  53.4781988  30.2527870  19.0109590  53.5828538
  55.8737850   5.7803762   7.2609127  55.6221056   4.9087089   6.9558132
  55.7341003   5.7524151   8.2074529  26.2439251  26.4774919  24.7509408
  25.3876567  26.2889481  24.3668962  26.1229515  27.3089981  25.2094102
  14.4717277  13.8601163  64.2326881  13.6217225  14.2991498  64.2638998
  14.5792354  13.4839538  65.1062869  58.7413311  27.1940708  12.1704948
  59.6105099  26.8491697  11.9660401  58.7356472  28.0713797  11.7877054
  15.8061708  18.0927900  50.7304605  16.7503370  18.2260373  50.8142765
  15.5343116  17.7604297  51.5859504  64.1516358  63.8212914  55.4412253
  63.4538203  64.3505235  55.0549610  63.8375193  63.6167450  56.3219769
   6.7998677  15.2514338  21.1171031   6.1109716  15.8800638  21.3326907
   6.4110869  14.3968046  21.3033605  37.8027272  50.6444407   5.5028397
  38.3053446  51.4505672   5.3854918  38.4269333  49.9435043   5.3149897
  44.5901073  -0.2581474  56.8009801  44.2784560   0.1798537  57.5929775
  44.6172393   0.4334071  56.1397322  27.4331927  43.4919739  38.0748725
  28.2580304  43.0066538  38.0933022  27.2956085  43.6953974  37.1497107
  44.7445488  45.0777531  17.7405047  45.2893209  44.5096350  18.2852054
  44.2837143  45.6380796  18.3649206   4.4525445  40.6152534  29.8743892
   4.7202477  39.8299599  30.3517580   4.6379077  41.3361883  30.4761577
  19.8442316  42.6367521  39.7275138  20.4230332  42.6634455  38.9656019
  19.6000063  43.5504627  39.8748970  80.9137814  49.2526630  52.9924984
  80.7009404  50.1234821  53.3280631  80.0946515  48.7623504  53.0621345
  12.8075755  17.7147248  52.0819576  12.7206481  18.1328061  52.9386266
  13.0206693  18.4325269  51.4856513  68.5585123  71.5693135  59.4892283
  68.0312830  72.3680038  59.4703265  68.5242516  71.2812419  60.4014082
  29.0309346  14.5053485  52.0758386  29.7947086  14.9417499  51.6984280
  29.0977300  14.6756509  53.0153950  56.4647013  72.5590057  52.7122624
  55.5851418  72.2154303  52.5555332  56.5718824  73.2500524  52.0586570
  16.9691277  41.6529179  15.1101720  16.9396996  42.5683784  15.3882015
  17.8747809  41.5160322  14.8321688  25.8440030  33.8273433  65.7155359
  25.5592264  34.5010331  66.3330086  26.3367379  34.3061736  65.0490739
   7.4556752  37.1450591   5.3447145   6.9579144  36.3285089   5.3033465
   7.9047986  37.1947956   4.5008844  13.9827025  28.8618827   1.7544726
  13.5154569  28.9603019   2.5840676  14.7958422  28.4147096   1.9891475
  63.2168531  72.2631073   6.2678933  62.5204706  71.6083288   6.2174112
  63.2932520  72.6007891   5.3755003  58.5247374  42.1474504  26.0171628
  58.7424612  41.9932842  25.0978923  58.4274387  41.2714148  26.3904285
  15.2217746  26.0279608  22.6622438  15.7454479  26.6709566  22.1841717
  15.7282531  25.2176356  22.6067209  65.5261283  20.3657535  41.5901931
  65.4936343  19.6231225  40.9871395  66.4590173  20.5599549  41.6809423
   4.9005057  70.2492399  49.0301903   5.5477168  69.6904368  48.5999723
   4.0797211  69.7615285  48.9617904  31.2695146  65.6928015  27.3504829
  31.3972116  64.7897148  27.0600367  31.0303974  65.6157923  28.2741308
  41.7755092  21.4096215  64.3513061  40.9274638  21.0051253  64.5341455
  41.9875348  21.8928626  65.1499020  10.9512318   6.4187434  63.7637495
  11.0075558   6.1885122  64.6911399  11.8018020   6.8085054  63.5616408
  59.5373011  51.4990902  13.1147492  60.2737379  52.0993900  13.2310677
  58.9430571  51.7064381  13.8359380   7.4810112   1.3250592  44.6942575
   7.5722802   1.0839346  43.7724312   8.3678187   1.5567592  44.9701555
  29.4963510  11.0454281  36.5563059  29.6580178  10.1175602  36.3855648
  30.3268869  11.3738449  36.9006729   4.1354335  49.4703010  59.6126254
   3.4090937  49.6806529  60.1994969   3.7814272  49.6089175  58.7341614
  29.1230726  41.4397717  37.5808835  29.9305320  41.9232607  37.7554655
  29.0445137  40.8314466  38.3157325  23.6334562  53.3095264   3.3324164
  24.5233846  52.9576826   3.3108637  23.7486124  54.2408133   3.5213137
   0.7463576  66.2955303  60.1395936   1.4627482  66.6309876  60.6785585
   1.1625887  66.0513730  59.3129321  28.9847589  63.7562132  13.1487870
  28.6737275  64.2429256  12.3855054  29.4699883  63.0178261  12.7805817
  81.5041924  60.5975914   8.2181787  81.4877892  61.3811398   7.6686209
  81.9622231  60.8718300   9.0126848  32.0986808   1.5127185  50.4399701
  31.8459619   1.2450245  51.3235445  32.6826585   2.2592548  50.5737038
  27.8451300  44.2671013  35.2968907  26.8948460  44.1642570  35.3480530
  28.0163884  44.4547606  34.3740225  13.7279201  77.1180058  14.8493457
  13.5993624  76.2239122  14.5326400  14.6421075  77.3152208  14.6453893
  55.0100470  51.9444656   9.4140625  54.2469692  52.5086689   9.5390469
  55.3442335  51.7942142  10.2983558  68.4727638  43.9749911  39.8565228
  68.8805263  44.8242286  39.6869429  68.0933409  44.0618327  40.7310112
  70.5089235  42.7555370  37.7670813  69.7649622  42.7884674  38.3684683
  70.7650471  41.8333435  37.7531981   3.5046709  14.0826371  45.4804905
   3.0479635  14.9237111  45.4648097   2.9984415  13.5241750  44.8905070
  15.1893736  48.4808542  55.5230804  14.6073414  48.1163372  56.1898597
  15.9622218  47.9165502  55.5453761  80.5094868  61.8054314  58.7626012
  80.4781014  62.4401326  58.0467786  81.1651331  61.1650844  58.4863527
  70.6965988   6.6797450  61.3112225  70.2970963   6.6481498  62.1804930
  70.8312719   5.7617191  61.0760112   3.6250246   4.1293004  61.3930257
   3.2726134   3.4936002  60.7701935   4.4940651   3.7932971  61.6123487
  26.3012481  44.4374704  27.0019364  25.7003617  44.1350985  26.3209510
  26.5452623  43.6426353  27.4762058  47.6566219  76.8169880  14.2903149
  48.4217882  77.3787403  14.4135451  47.0310163  77.1162844  14.9500644
  63.1794739  53.0808496   4.5691237  62.3183537  53.3130455   4.2215711
  63.7242556  52.9517555   3.7927347  30.5959988  20.9105444  16.0449696
  30.9702706  21.0716200  15.1788235  30.8032560  19.9943185  16.2288296
  72.0352875   2.8621205  12.1571529  72.8910672   2.4569519  12.0167756
  71.5880524   2.7749928  11.3153553  40.7639313  16.9897652  20.8291888
  41.1263180  16.2122381  21.2538743  39.8658228  17.0444083  21.1557579
  54.4617540  73.3401771  49.1800518  55.3977185  73.2048459  49.0321095
  54.1377669  73.6974115  48.3532210  52.8709459  36.6832757  11.9051552
  52.4718857  37.3864841  12.4174833  52.2823620  35.9376287  12.0226657
  13.3143867  20.3561023  51.1129792  13.9700998  20.3812364  51.8098588
  12.8162063  21.1659291  51.2235423   5.4308003  46.7379856  15.7266748
   5.5921221  47.3409986  15.0010145   5.1359481  45.9303522  15.3059316
  18.6637796  33.9018586  57.0329060  18.0793966  34.4931415  57.5073625
  18.5680593  34.1560271  56.1150451  48.1917715  29.6593094  15.0784707
  47.8904867  30.0914431  14.2792702  47.5002527  29.8295164  15.7180524
  20.6515574  61.3399076  27.6082659  20.4876351  60.5452490  27.1004462
  21.5731525  61.2778473  27.8593540   5.0226343  11.4478877  54.5680483
   5.2699173  10.5635884  54.8384114   5.5150474  12.0236972  55.1530321
   6.0095633  21.6202453  42.7233727   5.9386981  21.5675786  41.7702539
   5.1050080  21.5776113  43.0335196  69.3538618  32.5812912  14.3546748
  69.1251898  33.1648302  13.6311948  69.5015287  31.7315483  13.9395094
  29.7643375  43.4067392   1.0092103  29.0963268  43.2708120   1.6811615
  29.8923373  44.3550825   0.9871121   7.4141062  13.4568408  50.6750317
   6.6118134  13.8027957  50.2840407   7.4874986  13.9122537  51.5137489
   5.5124480   8.1812103  29.7254300   4.5647819   8.1483944  29.8561168
   5.8407457   8.6761959  30.4760599  16.9256890  55.5411053  25.1582694
  16.9214785  55.9383869  26.0291195  16.0322011  55.6603861  24.8362708
   5.3780867  75.0271530  41.3592751   4.4254328  75.1150961  41.3900574
   5.5535914  74.6180243  40.5118998  11.7636871  60.6882191  34.0198874
  11.6291034  60.3253222  34.8953438  12.5852489  60.2974272  33.7223172
  42.9537678  56.8355131  15.8806694  42.8919125  56.9481754  16.8292010
  43.8750029  57.0000792  15.6794989  55.9779263  28.4772921   0.2559024
  56.6225338  28.9590526   0.7741864  55.2289915  29.0701580   0.1939466
  59.1094255  73.0509472  13.2811427  59.2400169  73.9483786  13.5874009
  58.2122850  72.8382683  13.5383201  26.8139076  54.4951773  26.8923569
  26.8122649  54.0068960  26.0690665  27.6946473  54.8656988  26.9493175
  56.6328680   4.8768719   9.9689877  56.1364471   5.1646145  10.7351482
  56.8921911   3.9788063  10.1750612  69.2328936  65.5744166  65.3169643
  68.7688118  65.9983010  66.0388923  70.0360590  65.2371592  65.7137236
  59.2688560  45.8594561   1.6581862  58.6650658  45.7293940   0.9269150
  59.7477865  46.6574192   1.4343321  58.7139750  39.3934274   5.5474311
  58.3662939  38.7006140   4.9858597  58.6553669  39.0356755   6.4333260
  64.8235136  66.0671444  60.6048770  63.9354306  66.3622828  60.8059605
  64.9147254  65.2411599  61.0799177  19.0277112  39.1571307  15.5052626
  18.1053865  39.1095734  15.7568300  19.1576707  38.4046149  14.9281454
  15.8709450  39.4204259  31.3313723  15.0115414  39.7098374  31.6378045
  15.7875367  39.3896937  30.3783083  37.4865842  39.6907878   3.1629232
  37.3987746  38.7748837   2.8990236  38.3126259  39.9747086   2.7714205
  41.1805452   3.6636689  62.3631306  42.1179260   3.4705976  62.3797916
  41.0219777   4.0053180  61.4831521  11.6239107  50.4389191   5.4610026
  12.4968684  50.8037424   5.6061959  11.6880143  49.9933004   4.6162874
  76.6715973  10.0544313  60.2637489  76.7411893  10.3383592  61.1752172
  77.5447076  10.2010873  59.8998745  52.4507011   7.2947314  49.6061905
  52.7892555   6.7287639  50.2999444  51.5071405   7.1337465  49.6048446
  38.4025628   4.1230782  36.5358853  38.5501344   4.8627194  35.9464908
  37.4746568   3.9135273  36.4295793   8.0810821  57.4585056  41.5222311
   7.6468539  56.6160059  41.3885689   7.5579661  58.0804729  41.0165215
  55.3202200  71.3777924  32.0490146  55.4331493  72.2926283  31.7910266
  56.0273123  71.2160349  32.6735830   8.2050820  39.2113590   6.9894254
   7.9164811  38.4372902   6.5059400   8.6750718  39.7367549   6.3418919
  68.9358097  46.9550492  44.1975387  69.5208412  47.5976069  43.7961753
  69.4236904  46.6254683  44.9522431  80.2448837  63.2777309   9.4441366
  79.3000059  63.2585812   9.2922449  80.6289826  63.0891562   8.5879010
  11.0945357   1.8028310  63.2772179  11.6312016   1.4175466  63.9698775
  11.3252533   1.3069609  62.4916522  24.5397355  68.6422605  45.8764084
  24.8407580  68.3858676  46.7481192  24.9213959  67.9894133  45.2895887
  78.5331106  35.8828497  24.8997903  79.2050457  35.2827764  25.2232790
  77.9073238  35.9528112  25.6207132  66.4453738  12.6595548  63.2604943
  66.6233211  12.7652839  62.3259418  67.2699731  12.3398784  63.6266558
  71.0617977  62.9260702  27.6683696  70.7571035  62.0666213  27.9594763
  71.2720495  62.8046675  26.7424710   7.0376743   9.6073726  39.7754224
   6.5853990   9.4134906  40.5964501   7.3966540  10.4857257  39.9013575
  16.1694165  21.0334730   5.6201851  15.3742714  21.0015750   6.1521339
  16.7453881  20.3762436   6.0107398  69.1215741   1.9369992   8.0168468
  69.1704451   2.8664311   7.7932334  69.1689812   1.4851387   7.1743459
  62.8797960  19.7919393  13.4171093  63.5011768  20.5133057  13.3183801
  62.0835924  20.1008058  12.9848015  50.1632977  72.1773720   4.2965439
  49.4431305  72.0180607   3.6864498  50.6081247  71.3328075   4.3677750
  79.6289318  21.7763999  43.8503964  80.0777333  21.5441516  44.6633370
  78.7118547  21.8800357  44.1042836   2.4449684  43.4748411   7.3667306
   3.0545956  44.2127657   7.3590499   1.9220325  43.6044121   8.1579208
  75.3039687  13.7410739  61.6520895  76.0014074  13.7758878  60.9974148
  75.3001564  14.6140722  62.0446380  35.7107854  49.3496275   4.1752160
  36.3743210  50.0198555   4.3387666  35.6954122  49.2551947   3.2228097
  67.5994158  66.2649727   6.7112130  67.8963375  65.4073620   6.4069581
  67.5968361  66.8104553   5.9246516  81.8895852  28.9838036  45.4814386
  81.3401257  28.3776673  44.9845266  82.7448689  28.9369782  45.0542068
  77.3264497  14.6807292  59.7580554  78.0678504  14.1043904  59.9434967
  77.3233717  14.7678521  58.8048329  48.8674885  74.3967886  32.6103838
  48.4134632  74.8686881  33.3085235  49.5421892  73.8906069  33.0629237
  19.0428365   1.1416009  54.1945334  19.6593011   1.8712238  54.1324492
  18.8222612   0.9364393  53.2859703  80.1542800  11.2535861  63.2447826
  80.7476037  11.4984039  62.5346671  80.5408566  10.4611734  63.6174371
  65.2028608  53.4149742  26.5499997  64.7876787  54.2730141  26.6373062
  65.2439976  53.2637739  25.6057119  72.8600728   0.5775746  35.8484530
  73.5275876   0.4277619  36.5179372  73.0700623   1.4397438  35.4895616
  25.4349352  71.1029191  48.1370779  24.6845128  71.5802784  47.7832027
  26.1120726  71.1897368  47.4661227  20.2585649  28.1354141  24.6038628
  19.5960474  27.4595714  24.7471857  21.0880280  27.7058578  24.8129129
  76.9492489  74.3214936  54.2329665  77.0662790  75.2208228  53.9267917
  77.6333862  74.2017908  54.8916467  36.2227631  31.3943148  31.2879109
  36.5278435  32.1292543  31.8199086  36.9807911  30.8132195  31.2250352
  62.5863343  65.3525419  51.4314063  63.4096795  64.8667521  51.3830288
  62.0651322  65.0135870  50.7036086  13.1226505  30.8091262  48.7365504
  12.3519982  30.6488088  49.2811831  13.8088334  31.0521749  49.3580921
  37.6093978  71.4820547  55.2445991  37.3915380  71.5257139  54.3135448
  36.9314343  72.0038433  55.6739421  66.2330818  30.5359340  13.1995380
  66.7563009  29.7367620  13.1379318  65.3889418  30.2997923  12.8149664
  42.1668542  10.6144574  54.9603422  41.7582572  10.3463987  55.7834001
  41.8680204  11.5138915  54.8263748  61.8088913  63.0215216  14.2450070
  62.6045942  63.1349945  14.7648239  61.3236380  63.8372850  14.3686843
  47.7515650  62.9067469  33.4192181  47.2198343  63.4971189  32.8854060
  47.2156096  62.7359867  34.1937041  32.5136447  59.4959402   6.9161028
  32.6647902  60.2051401   7.5409412  32.8970528  58.7240553   7.3325455
  56.0336286  65.3427668  55.4375322  56.5908486  66.0016031  55.8518680
  56.3970142  65.2406402  54.5579000  69.3722670  30.3134921  63.3961465
  69.4727497  30.9536460  62.6916333  69.3529694  30.8387759  64.1961076
  33.9141083  49.6252155  38.7000179  34.1640496  49.7803736  37.7891469
  33.1842661  50.2251816  38.8536429  70.9970379  40.2938271  25.5102110
  70.9282732  39.4808054  26.0107088  70.2291298  40.8018446  25.7718730
  35.3647900  60.4331064   4.2118725  34.4602680  60.1210451   4.1855744
  35.8267283  59.7841024   4.7425663  66.6092443  29.8973703   2.8987682
  65.9717655  29.7345066   3.5939854  67.0791817  29.0686703   2.8057769
   7.1161290  54.1584778  10.0439680   7.8290196  53.6834764  10.4710460
   7.0858021  55.0018072  10.4957473  80.0762707  76.5052242  62.9768400
  79.2278916  76.8343110  62.6798825  79.8595101  75.8278031  63.6174251
  61.1904526  59.2054701  19.5185959  60.4841089  58.7361002  19.0747488
  61.7651463  58.5155296  19.8501706  53.1152201  70.0937223  17.5018954
  52.6783180  69.3400669  17.8985739  53.0986929  70.7660198  18.1830502
   7.0750655  39.4113973  33.6692937   7.8776062  39.9255565  33.5809548
   6.5564669  39.8865321  34.3185528  45.7357515   5.4576638  56.1323662
  44.8372615   5.7809404  56.0657258  45.6641353   4.6563724  56.6510578
   5.3745210  53.4646606   0.9335352   5.4086083  53.7679148   0.0262826
   4.9117109  52.6279593   0.8891731  56.4344740  46.4534283   8.7469411
  56.8546152  46.3359833   7.8949338  56.9263411  47.1626568   9.1608125
  27.7156043  26.8566275   8.9231789  28.2431316  26.0592675   8.8766408
  26.8366718  26.5776372   8.6665249  65.3818560  37.5135279  13.5176051
  65.7957125  38.2356811  13.0449009  65.6715345  37.6229215  14.4233382
  16.9740022   1.5250877  55.9867843  16.4474309   1.7231086  55.2123542
  17.8255857   1.2632278  55.6368323  51.2174654  47.7718163   2.9332015
  51.1026525  48.6937952   2.7029759  51.5141630  47.3577404   2.1228045
  76.6792679  48.0732059  10.6884098  76.6782236  48.4815598   9.8226851
  77.5020838  48.3575392  11.0863543  50.6716829   8.3936074  33.7846787
  50.1931103   8.5780719  32.9764874  51.3605019   7.7834132  33.5211928
  20.8743072  25.8202052   5.4506290  20.2213240  25.5059361   6.0759932
  20.8587146  26.7724848   5.5462992  70.7180100  13.8802484  64.6363124
  70.4538088  14.6363738  65.1604307  70.6337529  14.1759351  63.7298359
  69.5838486   4.1010578  21.3738132  70.0362384   3.6008557  22.0530558
  69.5677077   4.9980362  21.7075872  27.3246253  23.4108022  66.2166081
  28.2669700  23.2532457  66.1583267  27.2504247  24.2637780  66.6445804
  67.3246293  14.1681007  33.3464702  66.7753952  14.1673330  32.5625236
  67.0794289  14.9689296  33.8099153  10.1829207  30.1943660   5.7728618
  10.5076456  29.4362211   6.2586641   9.2427021  30.2087045   5.9517890
  54.0380572   4.6403173  49.4436009  54.8129742   4.9393752  49.9193104
  54.3862317   4.1011861  48.7334307  45.5284172  59.3309064  60.1345696
  46.4360243  59.3741531  60.4355855  45.1856929  58.5255165  60.5220230
  62.5264835   8.1314325  17.4555087  61.6447926   8.4129155  17.2113335
  63.0655956   8.9155298  17.3516595   1.7342079  15.6274179  55.0414463
   2.6064194  15.4345706  54.6975120   1.3566531  16.2379316  54.4082363
   4.7566201  56.5897377  56.6213925   4.4597270  56.0379250  55.8977981
   4.8168398  57.4674220  56.2441988  48.9498520  15.2756703   9.9898756
  49.7827625  14.8198235  10.1110995  49.1056871  15.8676589   9.2540115
  47.2025627  62.7958555  61.9448646  46.2670153  62.8594394  62.1370624
  47.2419304  62.3970599  61.0755868  21.2973666  32.6262283  11.8356979
  22.1122527  32.3365903  11.4254534  21.1302471  33.4880352  11.4541328
  25.9490515  74.1374297  52.5272699  25.7161261  74.7857947  51.8627425
  25.4526927  73.3560200  52.2838517   3.4988004  43.3503723   1.2595253
   3.9470598  43.7928009   1.9803262   3.0346385  44.0503931   0.8004463
  12.4913348   6.5319923  66.2431079  12.9507125   7.3071340  66.5661446
  12.4531616   5.9443620  66.9977380   5.5271686  27.0005801  32.1376403
   6.1701763  27.6847509  31.9514044   5.5405725  26.9123080  33.0906661
  73.5520063  63.6617279  17.0254254  74.2727481  63.0329180  17.0623183
  72.9535864  63.3810377  17.7177668  56.3257265  74.8353338   1.6607754
  55.7944155  74.1434193   2.0547320  57.2014856  74.4551134   1.5921354
   1.4610692  74.4472027   3.1967437   1.8803902  75.2783394   2.9740149
   0.7654973  74.6864319   3.8092721  48.3802366  71.6062546   2.4746625
  47.5528049  71.1907530   2.2318721  49.0161991  71.2560844   1.8508315
  15.7470954  39.8188260  63.4987138  15.8197416  40.7732347  63.5067158
  15.0266183  39.6284154  64.0994539  36.7894389  65.6056375  48.8970108
  36.1774851  65.6723042  48.1640096  37.6538111  65.5853219  48.4862967
  23.3706880  37.1878338   5.8527303  22.5287032  37.3494864   6.2783623
  23.1527472  37.0682788   4.9283713  33.7948966  37.2858953  26.1997604
  33.7730312  36.4713383  26.7020082  33.5492992  37.9627967  26.8304110
  41.2139225  46.7298651  24.2572880  42.1274328  46.5269661  24.0558910
  40.7408667  45.9200764  24.0657425  56.5884590  67.4642992  15.0060201
  56.2019014  68.0965090  15.6119239  57.5265694  67.6531124  15.0291288
   4.2776032  71.3349199   0.7248519   4.2408772  71.8736076  -0.0655295
   4.0280076  71.9298315   1.4319715  66.5074492  39.2811179  34.3022513
  66.6991425  40.1529694  34.6477342  65.9611273  38.8722754  34.9735260
  35.3996099  25.3012040  44.8659237  35.0134767  24.7829869  44.1598185
  36.0319055  25.8703378  44.4271453  63.7844801  18.6653244   9.3917406
  63.6623383  19.4779623   9.8825902  64.2874193  18.1029701   9.9808431
  70.3392588  12.3294647  43.2441664  71.2644421  12.5120171  43.0800247
  70.1985108  11.4567669  42.8769922  17.1770341  14.6471794  20.2989459
  16.3524253  14.8764427  20.7275391  17.1647985  13.6912163  20.2518535
  40.2944387  19.0958837  46.1892827  41.0542739  19.6494392  46.0091145
  40.1156104  19.2301181  47.1199997  17.0883525  36.5722850  43.8757332
  16.4648450  36.3530019  43.1833561  17.8029455  35.9457019  43.7617882
   3.1824240  62.1089888  29.7564101   2.9708776  62.9098129  29.2766619
   3.1103614  61.4126205  29.1036391  23.6583389  12.6492313  59.8173578
  22.9915202  12.0161155  60.0833430  24.4888271  12.1916583  59.9483110
   3.8609810  50.7988834   1.4390054   4.5443650  50.1547813   1.2536708
   3.8042756  50.8197880   2.3942961  61.3614178  58.5855579  48.7027073
  61.9775200  58.4368277  49.4200134  60.7843018  59.2789984  49.0225697
  24.7906446  36.2467551  18.3991551  24.3119168  36.0658050  17.5902629
  25.6674314  36.4968514  18.1077254  74.0826470  70.8355875  63.4805299
  74.9211079  70.4164500  63.6742921  74.2688376  71.4126368  62.7398695
  68.7198257  46.3812876  22.5117755  68.9340830  47.2284698  22.1211338
  69.5234728  45.8682823  22.4268866  39.5383800  39.8717883  60.0450440
  39.3550075  40.7932094  59.8617555  40.3995431  39.8774770  60.4628976
  78.0603361  65.5280924   6.3470691  78.8497353  65.0965309   6.0202146
  78.3837652  66.1799669   6.9689071  11.8371213  10.6913140  58.5080208
  12.4554694  10.5144933  59.2169722  12.2997249  11.3011268  57.9332526
  20.5864055   0.2951773  40.4843378  20.3707559   0.5481728  41.3819551
  19.8710353  -0.2833216  40.2201080  50.7173812  10.5523594  40.1858473
  50.9673249  10.8065041  41.0741949  50.2573168   9.7201355  40.2953053
  16.3033975  46.0941795  59.3707957  16.0341085  47.0127109  59.3738814
  17.2352851  46.1170581  59.5882692   4.5581223  31.6477193  65.6219308
   4.1328408  30.7939709  65.5414279   4.9176051  31.8192543  64.7515404
  15.3350855  76.7497392  62.5167845  16.1698081  76.2812681  62.5165223
  14.9263980  76.5104551  63.3486201  62.2257548  41.5332447  50.7900842
  62.7681309  40.7664847  50.9748574  61.3450748  41.2747593  51.0617788
  46.9562894  35.6227012  56.1690946  46.6483337  34.8214559  55.7455368
  47.3208469  36.1460282  55.4553314   1.6633625  36.7735600  11.5007842
   0.9014912  36.2179899  11.3361239   1.7965336  37.2469831  10.6795847
  30.5781854  21.2961724  64.9285647  30.6172622  22.1320441  65.3933446
  30.4669393  21.5383008  64.0092011  53.1896514  14.7030483  65.1731029
  52.6582164  15.4989920  65.1899544  52.5848312  14.0058182  65.4266611
   1.0434319  69.9688215  54.6565934   1.1985184  70.4689832  53.8553329
   0.0904490  69.9019666  54.7165306  32.2955775  17.6679003  10.8095789
  32.8682423  17.4306107  10.0802076  32.8704286  17.6688385  11.5749407
  63.1884813  13.6848009   4.4906741  62.3883915  13.3815944   4.0615457
  63.4507608  14.4573462   3.9900592  42.8667641  64.7980165  26.3521671
  43.3795738  65.5361748  26.0229516  43.5120630  64.1082048  26.5070343
  30.9335006  11.0262826  52.9579051  31.3136590  10.7101730  53.7775310
  31.4168275  10.5615571  52.2747822  54.2982441  64.6469278  35.5817564
  54.3716317  63.7612028  35.9372004  53.4224683  64.9360366  35.8380039
   8.1509234  36.0742525  39.9979218   7.9719712  35.7032789  39.1338690
   8.2713391  35.3127633  40.5652554   5.6897570  62.4521704  54.1735251
   5.9085204  61.6571422  54.6596344   5.8779170  62.2341628  53.2606717
  40.9577382  30.7142833  51.2695666  40.6248105  30.6528333  50.3742369
  40.1730741  30.7942060  51.8119200   9.1936131  34.1974330   6.7004657
   9.4993611  34.8250747   6.0456276   8.2389756  34.2366838   6.6424626
  81.0666472  56.0771317  63.1705938  80.7079464  55.2056570  63.3382224
  82.0150715  55.9606166  63.2266678  24.4512475  75.1016447   6.7203140
  25.3513921  75.0899784   7.0456415  23.9272369  75.3698332   7.4751097
   2.0375229  48.0651392  66.4278308   1.8573977  47.2030712  66.8028317
   1.6847254  48.0182649  65.5392538  73.4195000  62.2831650  58.0348511
  73.6197620  61.4467878  58.4550913  74.0754419  62.8882642  58.3810128
  50.7904863  46.4055204   7.5851887  51.6897297  46.2236547   7.3122078
  50.6249666  45.7838392   8.2939512  21.3990224  25.6330875  35.2986701
  22.1952499  26.1521724  35.1855572  21.1963476  25.7055429  36.2313588
  68.3291245  60.5002403   7.5421643  68.4254169  59.8676062   8.2540172
  68.8471127  60.1345825   6.8250740  20.9662498  52.9559461  43.9896584
  21.8678392  52.6876299  43.8125324  20.9476102  53.8888041  43.7759829
  17.5663102  12.7218202  60.1045151  17.6380456  11.9972280  59.4831814
  18.4372533  12.7888206  60.4959198  14.1594470   3.2477239  64.6495408
  14.6513284   3.5025647  65.4301439  13.4112609   2.7558234  64.9878887
  49.4566441  33.2516980   9.5068300  48.8208580  33.9386725   9.3066418
  49.3016863  33.0430150  10.4280639  72.7963161  16.7016864  34.0131760
  71.8800497  16.5993798  34.2705107  73.2851648  16.1944020  34.6611881
  66.7077160  21.1250067  14.5121312  66.9418812  20.2051425  14.3886542
  65.7929420  21.1785078  14.2354405  80.1171248  18.8890031  60.7954218
  79.6219914  18.0774978  60.9073629  80.3931206  18.8767007  59.8789574
  53.7800884  57.9059172   9.3275899  53.2585144  58.5100222   8.7991482
  53.2859468  57.8121805  10.1420009  60.0851279  68.2263203  56.1269398
  60.4251557  68.6127968  55.3199394  60.8499914  68.1517835  56.6976066
  66.7508703  71.0601039  48.3244498  66.1839753  71.8278332  48.2506044
  67.6250559  71.3864632  48.1110914  23.0805267  18.2151702  60.9430726
  23.4655345  18.3816293  61.8034734  22.6665223  17.3563245  61.0280325
   5.1926823  27.8325129  38.9955115   5.0592728  26.9154859  39.2353010
   5.1602383  28.3047795  39.8274636  49.7498941  58.0527020   7.1504521
  50.0046396  58.6435461   7.8591388  49.1395235  57.4385023   7.5584245
  33.9321054  22.2171167  35.6195696  34.1886295  23.1155303  35.8276065
  32.9784072  22.2152951  35.7013662  51.6368395  62.0938415  51.6769894
  51.2963325  61.2711353  52.0283325  50.9445864  62.7322741  51.8485113
  26.8046010  14.3511823  44.3312581  26.9744218  14.7522977  43.4789069
  25.8718408  14.5013002  44.4850357  67.7759218   9.1424716  23.5461116
  67.0654011   9.1651726  24.1871119  68.3713055   9.8386472  23.8237524
  37.3316444   7.4463371  51.0029836  38.0604041   7.3522380  50.3895624
  36.6184295   6.9462779  50.6061192  25.0204862  77.1986931   3.0270907
  25.4066718  76.4743346   3.5194296  24.7804225  77.8410890   3.6948693
  37.9200721  50.4618216  33.1939626  38.4970045  50.7514381  32.4872088
  37.4408507  51.2498474  33.4500718  36.6292930  48.6206388   1.6325058
  37.0941758  48.5794735   0.7967905  35.9786820  47.9205561   1.5794042
   8.7369275  48.7828779  30.0178552   7.9695153  48.9357662  30.5691576
   9.3976665  48.4367561  30.6177354  26.0253072  42.7079296   9.6435821
  26.7755699  42.9227161   9.0893209  26.1540318  43.2316351  10.4344022
  26.4879383   5.0400837  36.1500335  26.8308554   4.5192250  35.4238486
  27.1972074   5.6452950  36.3665819  72.3562984  65.9008408   2.4148101
  72.5014590  66.0132360   3.3542395  73.1910328  65.5720520   2.0811214
  25.3971419   4.0339573  17.5298941  25.6551091   3.6945065  18.3868992
  25.8242170   3.4504517  16.9027066  15.9614734  63.5603428  30.6163263
  16.3264064  63.4554577  31.4949942  16.6608219  63.9796543  30.1150036
   3.3154643  50.1515627  31.2059498   3.6898184  50.9769058  31.5140033
   3.2886061  50.2415085  30.2533650  64.3803625  58.1277561  26.0114813
  64.2022686  58.8666630  25.4296470  63.9427905  57.3847675  25.5958772
  21.8192124  32.2632790  23.9833641  22.7542233  32.2364688  23.7802124
  21.5680337  33.1750226  23.8355041  72.3812483  46.8424797  38.2728958
  71.9123225  46.5132380  37.5061226  73.2042484  46.3537312  38.2784367
  30.1523318  16.1194237   9.8690701  29.7127100  16.5099247   9.1137755
  30.8707809  16.7207154  10.0653148   0.6051833   1.8145664   8.5318124
   0.9783656   1.5340527   7.6961815   0.1544912   2.6344689   8.3296609
  32.7423859  46.1448669  25.9201789  31.9725060  45.9935617  25.3718877
  32.6389194  45.5361223  26.6515851  71.0647289  46.2795115  52.4052000
  70.1197342  46.3283682  52.5495243  71.3238971  47.1797991  52.2088718
   8.8866806  34.6374273  24.7251987   8.1759608  34.7673988  25.3530669
   8.5009921  34.0976119  24.0352178  70.5031423  49.1835070  43.5958195
  70.2839343  49.7577667  42.8620577  71.3665049  48.8333130  43.3762693
  57.9052814   1.9440749  55.3984280  58.3095350   1.0903171  55.2438100
  57.8730690   2.0247176  56.3516815   9.1563153  56.4556408   5.1805860
   8.6994368  55.7033730   5.5568600   9.8264861  56.6768360   5.8272517
   9.1942900  13.9241242  13.7240231   9.6902823  14.3111491  13.0026114
   8.9207727  13.0680645  13.3945048  62.4002378  73.6234331  38.0238533
  61.9799785  74.0585136  38.7656879  63.1707136  74.1597128  37.8367662
  37.2336435  51.4140463   9.7761232  37.8913283  50.7279348   9.8898464
  37.5303626  52.1264696  10.3423762  58.8880662  59.3492508  64.0970325
  58.5008935  59.8207617  64.8345995  58.1398539  58.9704704  63.6355782
  39.4065285  64.9912262  36.9628716  38.7674809  65.7031202  36.9954658
  39.9485517  65.1201057  37.7412248  25.8500831  29.8506168  32.6402719
  25.0257485  29.7122291  33.1066998  26.4794271  30.0719646  33.3266814
  79.7684243  59.4567919  19.0651715  79.4469927  59.3249416  19.9570966
  79.5116852  60.3530025  18.8480902  40.2593087  22.2941979  18.6557150
  39.7810923  21.4749249  18.7835240  39.7924971  22.9309471  19.1968942
  55.6414132  75.2176571  43.2155228  55.7653503  74.2887449  43.4104443
  55.9913544  75.3255701  42.3311424  18.5433567  48.4117508  61.6535139
  18.9913130  48.9689302  61.0170269  17.9509950  49.0046835  62.1158648
  17.4633699  14.3585213   6.2173784  18.1102537  14.7593792   6.7979676
  17.1957814  15.0667389   5.6316674  38.7978435  53.7189674  29.2290592
  39.7047877  53.8803625  29.4891286  38.3303976  54.5144033  29.4840312
   2.6068392  55.7691193  14.9119234   2.6575869  54.8953247  15.2994037
   2.1183157  56.2868881  15.5518389   5.7898151   8.6794956   6.7668271
   5.4959380   8.0313023   6.1267424   5.6131398   8.2746990   7.6160383
  37.1694754  19.6499209   3.8905971  36.9817720  19.9694066   3.0080239
  36.6404675  20.2048020   4.4637315  21.9534414  28.7181385  12.4226534
  21.8401866  29.1862400  11.5954387  21.5017086  29.2609509  13.0688143
  75.3002356  56.4458418  55.3346062  75.3444378  56.0351133  56.1980772
  75.0513051  55.7350922  54.7437572  58.5452871  54.3057966   4.0753993
  57.9658966  53.8003874   4.6455717  58.5115842  55.1952505   4.4274908
  63.2639014   7.0506294  12.6342607  63.2558357   7.0401295  13.5913694
  64.1241180   6.7034729  12.3981690  59.1197228  34.4943908  62.6150797
  59.0268146  35.3364185  63.0607186  58.8525309  33.8472083  63.2677610
  18.3895111  25.1866078   6.5964013  17.6510704  24.7034359   6.2256169
  18.1169677  26.1035633   6.5626085  23.8768785  47.2732261  58.8169475
  24.4107073  46.9592097  59.5467784  24.4221657  47.9324344  58.3876009
  21.0548806  71.9455576  10.8244193  21.5622139  72.0941687  11.6223919
  21.6614366  71.4974070  10.2349412  38.3468007   3.8095291  21.6118765
  38.8446235   3.6268051  22.4087572  38.8677382   4.4659050  21.1492467
  19.3850470  46.3202858   6.2418789  19.3931997  47.0271683   5.5965227
  19.4068074  46.7679024   7.0876908  70.2748769   2.3711065  41.4468391
  69.6467893   2.0857480  42.1103962  69.8857813   3.1617549  41.0730489
  69.6795992  41.2250566  20.6222844  69.7587780  40.5333519  21.2791777
  68.8078038  41.5932178  20.7660317  16.7882550  48.8829422  17.2961283
  16.7782295  49.2145443  16.3982594  16.4115655  49.5918322  17.8174841
  43.9885538  73.8734857  18.5598421  44.8151003  73.9886142  19.0286684
  43.7837093  72.9438690  18.6602592  67.3926776   1.8777040  62.7083944
  66.5275030   1.4963630  62.8576698  67.9957919   1.1376312  62.7775200
  23.3201756   8.1284722   8.4590882  24.0780722   7.6250752   8.7564248
  22.5647440   7.6374729   8.7823033  70.8131949  55.6681967   0.1423073
  71.4667825  55.8864927   0.8066868  71.1586599  54.8844910  -0.2851141
  10.6045520  21.5339160   7.5359130  11.2030792  21.2720633   6.8363208
  10.4553008  22.4675250   7.3864847  77.5349004  59.1833448  27.1027374
  78.0378304  59.4196844  27.8821206  77.5471718  59.9726200  26.5613222
  57.8071217  30.5860972  45.2901983  57.2856216  30.8654761  44.5377207
  58.4039716  31.3166285  45.4524612  64.2581694  45.9542227  15.7686853
  64.3043797  45.0286674  15.5290031  64.1163663  45.9497023  16.7153132
  28.0849791  33.7963247  11.3306868  28.4208059  34.1705155  12.1452010
  28.7092566  34.0785003  10.6621921  35.2283216  46.2480593  13.8170719
  35.6529117  47.1059275  13.8218093  35.8870363  45.6528187  14.1748571
  74.0615259  24.4006824  24.5777822  73.3554791  24.8717880  24.1353011
  74.2622630  24.9359679  25.3455114  31.2895274  34.7310781  29.6818280
  30.3849196  34.4917703  29.8834467  31.3949108  35.6058526  30.0558543
   2.2645734  29.9675226  21.4883232   1.8515953  30.0475287  22.3481369
   1.5520185  29.7098970  20.9034085  68.3733003  41.5442944   2.1453692
  68.2212274  41.0914230   1.3159028  68.7421779  40.8737183   2.7202535
  12.2539866  43.2040358  55.9360552  12.7978921  42.5539351  56.3807678
  11.3553560  42.9253387  56.1121941  31.6070335  70.6563912  13.1183553
  32.1646588  69.9603937  12.7706885  30.8367698  70.1997231  13.4565568
  25.0718590  25.4654081  61.2474401  25.5236065  25.3242524  62.0794447
  24.3412286  24.8472280  61.2637140   3.5369036  42.3455954  19.5570397
   2.8913313  42.5465584  18.8794839   4.3593606  42.6970053  19.2159986
  75.2814714  58.7180805  28.4500813  76.1512302  58.8185358  28.0632210
  74.9388049  57.9124403  28.0631065   5.4338372  36.4517426  18.7820661
   4.9132371  37.1993494  18.4883106   5.1173127  35.7177544  18.2554686
  69.4664697  64.6153069   4.9961728  69.7755699  65.5186272   5.0647050
  68.8103442  64.6388674   4.2996269  68.7202816  66.1264229  15.8111835
  69.5580916  66.1501980  16.2735045  68.0745928  66.3750887  16.4726079
  16.8070829  50.9599447  53.5183144  16.9839644  51.0279179  54.4565725
  16.3120961  50.1458502  53.4262657  30.6550642   8.7663372   8.0817240
  30.2619042   8.2651051   8.7961626  31.4039331   9.2076500   8.4825534
  70.2867180  75.3157802  65.6724695  70.4706532  75.7881756  64.8605317
  69.8656899  74.5047326  65.3875746  49.2579822  67.1032143   9.0472603
  48.5405974  67.6757193   9.3189752  49.8458914  67.0810986   9.8023134
  44.5249080   0.4090412  24.3011069  45.3186118   0.6092365  24.7972822
  44.5584082  -0.5382149  24.1676569   9.6676159  64.5908499  18.0118680
   9.8458034  64.7512770  18.9385521  10.4153395  64.9751091  17.5541711
  44.8488288  69.2171345  12.9565954  44.0673845  68.7553767  12.6526928
  44.5316463  70.0842504  13.2090580  60.9192400  46.1000061  53.1659889
  61.4847593  45.3842831  52.8758764  60.1477866  45.6640434  53.5279703
  23.2761910  33.8878163  20.9873915  24.1743421  34.0037831  21.2974048
  23.0861773  32.9628857  21.1443520  18.5644805  64.7852421  54.7570848
  19.1091752  64.9091959  55.5343676  18.2520962  65.6638336  54.5409298
  50.1402675   9.5979412  12.4516857  50.6778323  10.3885182  12.4989688
  49.7880875   9.6006497  11.5616322  31.8145013  48.1040907  30.4204154
  30.9721565  47.9159117  30.0065589  31.8552113  49.0597248  30.4569983
  68.1371073  67.2654915  52.5204134  67.8721945  67.8287792  51.7932558
  68.5724358  66.5228605  52.1018267  13.9696180  19.4400986   9.5554721
  14.1569304  19.6625431  10.4674280  13.8797282  18.4871300   9.5549899
  52.5980677  24.5943597  54.0590878  51.7985280  24.3713334  54.5357712
  52.3947184  25.4226735  53.6246045  14.1080546  72.7493191  36.6376662
  14.7845614  72.0760107  36.7099714  14.5943725  73.5678816  36.5392923
  16.2515879  47.5834084   7.9955971  15.7286823  48.1192827   8.5919517
  16.6195238  48.2090664   7.3715723  80.3208163  64.5833397  37.7713346
  79.7321115  63.8351822  37.6717377  80.9541257  64.4861078  37.0602107
  67.1612793  67.1490355  55.0199135  68.0014044  67.1197982  55.4776986
  67.3910099  67.3342271  54.1093321  66.9516770  36.8670917  24.5420837
  66.1038236  36.5461898  24.2348433  66.8357794  36.9850636  25.4848909
  39.5247894  69.3170590  51.5593548  39.2542869  68.9459248  50.7195218
  39.5726377  68.5648293  52.1493478  45.8437037   7.7305802   7.0860583
  45.0787329   7.6457127   7.6551360  46.1227965   8.6398133   7.1939564
  74.8675887  57.2203350  24.8693466  74.2103331  57.8869438  25.0690413
  74.9691777  56.7318630  25.6862354  16.0667419  65.7416821   9.5050192
  16.1772346  64.7909594   9.5172912  15.4472685  65.9016418   8.7930518
  63.7626677  38.7333301  55.7299371  63.8453197  38.8109449  56.6803976
  64.1414248  37.8783324  55.5256100  37.9973882  43.6095972  65.4343993
  37.9812854  44.2889864  64.7603055  37.6579255  44.0417345  66.2181427
  22.1399736  73.9348173  35.5088139  22.7585506  74.1657639  34.8158073
  22.6632190  73.4454298  36.1435938  53.1492571  53.8442087   8.6273158
  52.4324255  54.4738293   8.7045521  53.9093952  54.3747807   8.3887404
  61.3930015  75.8274031  18.5684609  61.9741921  75.9764481  19.3142724
  60.6843380  76.4598560  18.6869156  60.1524382  14.5216563  58.5671278
  59.4529151  14.9629071  59.0489943  60.2057110  14.9939063  57.7362402
  19.5413888  39.5908427  18.0762553  20.4426980  39.9121571  18.0511260
  19.3411958  39.3677902  17.1671891  18.8753498  43.5598898   8.3017588
  18.9401245  42.6343918   8.5373199  19.7714877  43.8143063   8.0816609
  31.7939091  55.5797720  32.6891112  32.7030110  55.8355999  32.8450441
  31.8452811  54.6603870  32.4277306  54.0480785  64.4002867  26.7648745
  53.3117775  63.7897015  26.7291474  54.3209271  64.3930578  27.6823330
   4.8670587  75.6083298   5.9722120   5.4348946  75.4117870   6.7173070
   4.6121103  76.5220833   6.0998440  74.5797817  43.2698011  12.7177584
  74.9128119  43.0306911  13.5827148  75.3139780  43.1080103  12.1252954
  59.6067886  73.5951328  27.1876359  60.3335051  73.7250662  26.5783453
  59.7405128  72.7134228  27.5353861  76.2188165  25.9364131  55.2135249
  76.7786568  25.2230981  54.9069400  76.4226811  26.6681483  54.6310885
  69.0695993  48.1910706  19.4855988  68.9255075  47.3761129  19.0046465
  69.5131652  48.7634134  18.8595760  72.3202751  59.3346119  27.2470331
  72.0897345  59.6333504  28.1267118  72.1605120  58.3910084  27.2649932
  25.8370507   2.9714401  20.0171828  26.1867905   2.0942505  20.1735663
  25.3216533   3.1668194  20.7997561  70.8528225  35.5125451  40.3098011
  70.4441933  36.0497308  40.9885406  70.9480493  36.1027384  39.5622492
  75.5508332  24.9836135  60.7166290  75.2073370  24.5874643  61.5174437
  75.8033065  24.2392182  60.1703978  21.9742441  64.8633003   9.9737388
  21.6935349  65.6711626   9.5438689  21.6433430  64.9406862  10.8685827
  52.8655557  50.4785824  21.9539189  52.3014335  49.8800945  22.4436235
  53.6365752  50.5899954  22.5101089  33.7685250  25.4549511  10.2206504
  33.6964499  24.6022709   9.7917318  33.1826656  26.0242851   9.7217882
   1.0675968  43.0112079  59.6423681   0.6936897  42.2420505  59.2124476
   0.4705108  43.7249282  59.4180401  41.2786818  53.1151724  18.4838378
  40.9383297  53.7534714  19.1107118  40.8886385  53.3693981  17.6474941
  14.7673130  48.9146137   9.7825974  13.9604640  48.6844873   9.3218708
  14.7541416  49.8707533   9.8256916  64.6360986  39.6682191   1.6493477
  65.1475517  39.2944121   0.9317716  64.4535510  38.9258981   2.2254270
  78.7767424  47.1743393  39.1253734  79.0842627  46.3594675  39.5224237
  78.9713402  47.0750332  38.1934404  41.3098097  58.8642120  10.3920150
  40.8680201  58.1732798  10.8856428  40.6954575  59.0898132   9.6935141
  71.9658343  14.0322407   3.8378662  71.6344777  14.6631630   3.1988284
  72.2719661  13.2948597   3.3098677  40.7862411   5.4252009   2.8670470
  40.4236005   6.1255984   2.3246781  40.3000914   4.6433454   2.6051394
  17.1291184  50.9603024  19.3608320  18.0169392  51.0463476  19.7081089
  16.6573381  51.7114115  19.7206748   5.1178778  17.0464519  55.8786459
   4.5612109  16.7696908  56.6064914   5.9808744  16.6890720  56.0878034
  27.4544883  62.2129774  44.6616364  26.8269634  61.8034267  44.0660620
  27.0098519  62.2214222  45.5092573  63.6596887  70.5536938  33.0076003
  62.9045443  71.1389875  32.9491186  63.2805936  69.6881580  33.1604457
  44.0320110  47.5511694   9.2138606  43.6083078  48.3413696   9.5489526
  44.7543812  47.3908758   9.8210812  75.0989882  62.7077007  34.4596028
  75.3325598  61.7803478  34.5007324  75.0096206  62.8909302  33.5243630
  72.0591979  62.6085758  24.8199153  71.4496486  62.3037910  24.1477656
  72.5923268  63.2693529  24.3778944  14.7519851  33.7841368  24.0483737
  15.3352845  34.5400381  23.9805007  13.8729084  34.1505957  23.9526391
   4.5600507  27.2274804  53.2865953   5.2319521  26.7637062  52.7869034
   4.9938935  27.4684620  54.1050959  21.1771846  34.7344351  23.0122256
  21.1217022  35.6504679  23.2843280  21.5665317  34.7673059  22.1384048
   7.2068751  42.3908234  34.7261190   8.0507624  42.3925018  35.1778746
   6.6484737  41.8293095  35.2638173  18.0739748  42.8346395  26.4488864
  18.6704195  43.2501745  27.0716381  17.3995471  43.4942150  26.2865806
  12.5452303   2.6861389  16.7991865  11.5980827   2.5561960  16.8467283
  12.7052461   2.9529198  15.8939505  36.6710477  16.5815643  44.3428500
  35.7958060  16.2089112  44.4492205  37.2176378  16.0874084  44.9538167
  10.4236293  45.4475021  20.7347894  10.4410386  45.7056808  19.8132288
  10.7001269  44.5311117  20.7320547  75.1953910  49.9301958   0.6928302
  75.0435547  50.8746529   0.7271121  74.6189807  49.5703125   1.3669741
  79.0886944   0.6764200  66.0991354  79.9482100   0.7373622  66.5159710
  78.6044710   1.4295963  66.4374893  11.3328540  42.2736454  31.4406466
  11.2160408  43.1915998  31.1957955  11.7434001  42.3066139  32.3047066
  22.6851392  36.3234830   3.1584722  21.7590928  36.4920878   3.3323786
  22.8974915  36.8928623   2.4189156   1.0974569  64.8744059  25.4108191
   0.1455774  64.8450041  25.3144193   1.3221264  64.0411043  25.8247733
  12.7101624  58.6291027  12.9598486  11.7930853  58.4583902  13.1744611
  12.7265203  58.6829185  12.0043027  12.5987016  14.0662964  42.1749258
  12.4285864  14.9463471  42.5107956  13.5266864  13.9162930  42.3554087
   5.6453860  20.5678225  54.5636320   5.6146967  21.5149140  54.4283247
   5.5188972  20.4562640  55.5058527  75.6486343  56.8143988   4.3406531
  74.7699176  56.4466190   4.4346148  75.6604074  57.1840811   3.4578010
  20.6092906  35.1647019  10.6798553  21.0147905  35.1621032   9.8127931
  19.9864328  35.8909488  10.6507969  22.0127916  76.1481810  14.0228963
  21.5565085  76.7327261  14.6281588  21.7702460  75.2682161  14.3111157
  79.5931092  15.8598351  15.8453870  80.1539282  15.7740796  15.0744390
  78.7161080  15.6431961  15.5288923   6.1396015  60.8152103  11.7347682
   6.6715139  61.0365486  10.9703660   5.2690482  60.6390810  11.3779116
  35.2673388  42.7253866  27.6505017  35.7042789  42.1189022  28.2484078
  35.6616449  42.5459862  26.7969394  67.5006144  10.9917262  44.3144210
  68.1371575  10.8685020  43.6102469  67.8967231  11.6525701  44.8824151
  77.5822188  59.9275684  56.9094181  77.1786390  60.6810951  57.3401785
  77.6582400  59.2692089  57.6000834   8.7367266  28.1761575  24.9229002
   8.0050325  28.1050968  24.3098688   9.5097923  28.2590127  24.3645668
  26.4040968  75.8059521  59.5099320  25.8642501  76.4653988  59.0741261
  27.1444465  75.6731338  58.9179243   4.5850709  68.9907169  29.4420934
   4.7499239  69.7108507  30.0507522   5.4567140  68.6913824  29.1835022
  19.0656364   8.9832026   6.3434720  19.1842115   8.0455446   6.4950293
  18.7124431   9.0395314   5.4556018  74.0585678   9.2282823  53.4048815
  74.5185321   8.7414220  54.0887173  73.6260264   9.9442104  53.8702698
   4.0005222  31.0966921  15.7968616   4.6879888  30.6688380  16.3073134
   3.3064911  30.4406333  15.7325339  14.6266662  10.5060204  34.9725628
  15.1565718   9.7111996  35.0333524  13.9138829  10.3669365  35.5961251
  54.3016442  30.4437261   4.0874307  53.6715721  30.6727748   4.7706430
  55.1116472  30.2562099   4.5617358  59.6682589  71.4311300   5.1484394
  60.1780002  70.8827279   5.7448041  60.0012415  72.3167036   5.2937448
  12.0865309  42.5673723  23.7149096  11.7090392  43.3170843  24.1749787
  11.3302338  42.0906734  23.3728504  42.8842020  59.5631123   3.9620352
  43.5699463  58.9423227   4.2082319  42.3631573  59.0974283   3.3079079
  11.7258161  73.0836482  57.0589890  12.4743682  73.6796732  57.0333947
  11.1252111  73.4803958  57.6899363  27.8252978  75.7399197  56.8737395
  28.3726467  75.5944939  56.1020585  27.7435709  76.6917510  56.9334884
  55.6357723  62.8178711  59.5334543  56.2747651  63.3974357  59.9482127
  55.2835685  63.3310385  58.8062383  33.3679097  36.2760308  57.1144642
  33.9056652  35.4872182  57.1839191  33.5795515  36.6350797  56.2527664
  46.2486004  73.9427523  26.4098907  45.7801168  74.5900757  25.8828926
  46.2532722  74.3111904  27.2933292   7.9382867  59.1340637  36.0824418
   7.6951545  59.3346739  35.1786304   8.7348062  58.6088657  36.0052586
  33.0091834  75.5684280   0.6250867  33.0611348  76.4959335   0.3942889
  32.2713351  75.2354622   0.1142597  63.5845332  50.2247190   0.0964592
  63.0893163  50.1124525   0.9078706  63.8416461  49.3368101  -0.1520190
  43.4073775  32.0101550  52.5057490  43.9116614  32.4604467  51.8281301
  42.5864916  31.7719558  52.0748909  50.1079356  10.0586708   9.3376416
  49.2425071   9.6728237   9.2020184  50.0188362  10.9607609   9.0301973
   9.8065817  64.6533585  30.4077864  10.1200342  63.9477205  29.8420525
   9.2748326  65.2033186  29.8324442  12.5537789  64.4773006  24.5464134
  13.2173455  64.6996403  25.1994634  12.6674724  63.5382986  24.3995261
  63.8355457  18.2225660  65.8042933  63.4435158  18.8329414  66.4287846
  63.5701930  18.5541871  64.9464776  27.7783799  59.9323034  11.9107795
  28.2000351  60.0063753  11.0546529  27.0985436  59.2700386  11.7864382
  71.6779928  17.3761308  21.3452959  72.1335970  16.8707514  20.6720591
  72.3174725  18.0299687  21.6277719  11.8781209  31.0576248  35.2006531
  12.3575592  30.3153038  35.5685329  10.9720266  30.9175086  35.4755950
  18.1892991  47.9932690  24.7970343  18.0218184  47.7556276  23.8850546
  17.3190486  48.0707598  25.1880455  68.7619357  58.1111145  19.8493969
  68.9927618  58.5159445  19.0132964  67.8137331  58.2236576  19.9163175
  58.8473610  76.3368320  26.8962717  58.9581279  76.6929865  27.7778149
  59.1662411  75.4365540  26.9598579  65.2021885  58.7964344   4.6182409
  65.4538870  59.7191954   4.6554869  64.6858549  58.6567831   5.4120493
  17.5293826   1.2521466  18.5922217  17.2481405   1.2596710  17.6773012
  17.1897685   0.4277380  18.9404178  54.6681753  13.6261376  27.8971863
  54.2158190  14.3429764  27.4525070  54.2609373  13.5861119  28.7625098
  18.9325345  12.2163203  55.9145422  19.6135915  12.3994163  56.5617402
  19.2546714  11.4514068  55.4377087  12.3924208  54.8236036   7.8430355
  13.1345165  54.4332075   7.3813927  12.7776909  55.2178574   8.6255723
  77.7363996  65.2603340   2.0855157  77.7235488  65.6790543   1.2248532
  78.0217518  65.9510136   2.6836538  43.7074232  71.6663551   9.7439188
  43.9767838  71.5594864  10.6561995  43.9195633  70.8288336   9.3318647
  65.0142543  63.1141758  33.9182711  64.3849437  63.0922937  33.1973553
  65.6780796  63.7441301  33.6376882  24.7690153  59.0946007  40.7983589
  24.4925356  58.3178234  40.3121471  25.7036877  59.1758585  40.6085730
  36.9172912   4.2440899  10.8802497  37.7719294   3.9631184  10.5533242
  37.0476788   5.1566418  11.1380959   5.6969643  43.8493347  23.1772089
   5.4803753  44.0029764  22.2575808   6.5400094  44.2854834  23.3008218
  22.3747969  58.0690765  16.7194998  22.3031235  57.1158600  16.7692208
  21.5410519  58.3901978  17.0629859  62.1856193  50.8961535  25.8292341
  62.8421311  51.1526489  26.4768696  62.6956014  50.6170654  25.0688004
   4.2812549  24.9005898  31.1229467   5.1300823  24.4817456  30.9805083
   4.4739806  25.6443985  31.6937685  27.1498942  57.9140997  20.2394152
  26.7630100  58.6974621  19.8484027  26.6443777  57.1887159  19.8726690
  51.5748247  18.1805518  58.6525096  51.1997636  17.4404100  59.1297425
  51.1309784  18.1684497  57.8045203  62.7871507  30.0902608  51.5487667
  62.9751699  29.2091468  51.8720563  62.0174687  30.3683713  52.0452292
  13.2658494   7.1488574  61.8014933  12.9714502   7.9535964  62.2280578
  13.4432996   6.5461209  62.5236072  57.9139189  45.2233267  11.4479530
  58.5516862  44.8458767  12.0537734  57.7102761  44.5119810  10.8407068
  36.7212165  14.9285081  60.6167104  36.5594972  15.4502347  61.4027615
  35.8757699  14.5258859  60.4183407  19.4993656  15.3531655   8.1076616
  19.6364575  15.1456269   9.0319794  20.2491366  14.9607857   7.6603222
  28.0625091  61.1654944  53.1293519  27.4508950  61.8627639  53.3659454
  27.6363245  60.3618116  53.4271665  10.8536828  59.4368458   4.9371392
  10.5464494  60.2745867   4.5906827  10.3779864  58.7789965   4.4300127
   2.5566259  29.8438907  27.2177172   3.1892806  30.5619359  27.2375488
   2.7462867  29.3800211  26.4021897   4.7576165  61.3627052  24.8062229
   4.0071839  60.7713795  24.8646545   4.7374192  61.6870737  23.9058828
  25.5174030  66.3506320  51.6805573  24.7832454  66.4729121  52.2824593
  25.9724534  67.1927360  51.6836198  29.2522430  66.0136747  56.7228603
  29.0922570  66.8054104  57.2364664  28.5388923  65.9937954  56.0849190
  60.0614981  66.3790560  26.8293333  59.1534500  66.6692400  26.9157934
  60.5587177  66.9793940  27.3848462  30.7772660  37.2366381  23.4809232
  31.2591600  36.9296718  24.2488933  30.0569773  37.7539825  23.8411570
  61.6671609  21.1506990  55.0438328  62.1098798  20.3515294  55.3294225
  61.2099957  20.8977082  54.2418178   4.3022883  71.5068340  13.8849640
   4.7425491  72.3511028  13.9830005   4.4060421  71.0822916  14.7365689
  13.0075324  18.3465865  55.3127392  13.7811101  17.8288892  55.0895615
  12.3779786  17.7060130  55.6437345   3.6196610  33.5144091   3.5443240
   3.3845288  32.7255082   3.0558762   2.8366536  33.7228870   4.0539002
  48.2271844  72.8970261  50.6059690  48.6729604  73.6236758  51.0412784
  47.3034757  73.0156965  50.8271332  27.7422293   9.9434479  33.2477283
  27.5291624  10.6736572  33.8287830  28.4697766   9.4970711  33.6809182
  33.7142687  34.6928986  27.9852247  32.9100525  34.7094067  28.5040641
  34.4128513  34.8466690  28.6212826  45.7813495  68.9289494  64.7664392
  45.9360605  68.9952869  63.8241570  45.1279205  69.6039147  64.9499767
  21.3702989  31.4716721  19.4805360  21.8664551  31.3902998  20.2950525
  21.3631344  30.5870223  19.1150522  72.1237133  34.5581985  26.2779617
  71.9806020  33.8256502  25.6786919  71.2724452  34.6982241  26.6926527
  73.1048172  68.3022597  61.6457369  73.5882287  67.6680949  61.1162342
  73.7654941  68.9381602  61.9202854  72.8011433   6.2236317  45.0472546
  72.1782342   5.5142124  45.2051687  73.3244196   5.9220417  44.3046522
  67.4488693  66.4655609  43.7862189  66.6433555  66.9437118  43.5893758
  67.7416712  66.8242426  44.6239813   6.8987452  13.4972676  36.9066644
   7.1866118  13.8290508  37.7571249   7.6708256  13.0615338  36.5457416
  20.7379926  40.1240972  60.4428919  20.4469074  40.2921918  59.5466538
  20.4948629  39.2129090  60.6067617   1.4435306  17.1191537  10.4831612
   1.3579609  16.5437055  11.2432730   1.0390799  17.9417634  10.7587790
   9.5821959  66.1029243  23.0812192   9.2390555  66.5189886  22.2904134
   9.7177821  66.8265104  23.6929941  50.6265952  14.0895656  53.9539583
  50.0264048  13.6470273  53.3538242  50.8266588  14.9205735  53.5231073
   9.6811801  13.3008301  16.3144672   9.7635752  13.6390376  15.4228067
  10.5552328  12.9746401  16.5286267  27.1863985  29.5457387   8.1252414
  27.4498844  28.7340426   8.5587800  26.6643000  30.0086761   8.7804765
  55.2750568  47.5330019  34.4421887  54.7207312  47.3027802  33.6965680
  55.9212594  46.8282604  34.4868517  75.0938403  14.4977673  32.4501204
  75.8788573  14.1358574  32.8612137  75.4273926  15.1134594  31.7975068
  25.8228064  71.1725760   2.0729584  26.7036629  70.9605789   1.7641218
  25.9282947  71.3240480   3.0121925   9.3126220  27.9007196  30.0239873
  10.1159990  28.4201026  30.0565028   9.2301202  27.6444292  29.1054344
  72.0912091  55.6677294  19.7342503  71.5355544  54.9025488  19.5859885
  72.9756395  55.3100157  19.8120713  44.7418118  76.0787153   7.0766479
  43.8856554  75.7712364   7.3744428  44.8898649  76.8872070   7.5672120
  14.6058846  38.6801481  33.8500333  13.6538327  38.6578774  33.9466357
  14.8485672  37.7740145  33.6596084  74.4252215  61.2132072  26.2869787
  74.1919295  60.3420210  26.6076684  73.9114378  61.3192320  25.4863453
  78.1734746  14.5843461  62.7174305  79.1220897  14.6166661  62.5936626
  77.8198974  15.1039222  61.9954498  33.2404280  71.3926744  20.5051970
  34.0744090  70.9869099  20.7419729  33.0121660  70.9975290  19.6637750
  13.5270220  76.3359208  58.7552716  13.5765475  75.6549664  59.4261505
  13.7581366  75.8878059  57.9416318  21.6450929  12.2906025  52.5687647
  22.5422751  12.1179112  52.8541994  21.7435693  12.7936180  51.7603588
  40.1734381   1.5867665  50.6887718  39.6113186   1.0308507  51.2284096
  40.6887727   0.9716013  50.1670106  45.5556494  67.3550267  27.3970826
  45.2712577  67.1508975  26.5061934  45.5765456  66.5077133  27.8418930
  48.9620148   7.6183995  47.4875832  49.1255533   7.3316868  46.5890980
  48.0456554   7.8950127  47.4876881  46.3521110   3.2275303  24.1453910
  47.1288847   3.7790020  24.2388153  46.5156078   2.7157219  23.3532071
  45.4775023   7.5280770  14.0243876  44.8554646   7.1318348  13.4142303
  45.2698707   7.1304997  14.8699951  55.2664077   0.6522091  34.9050665
  56.0981404   1.1116703  34.7895217  54.6298992   1.1858185  34.4293022
  34.0817404  40.7625246   6.0373086  34.7404385  40.9165144   6.7145324
  34.5078921  41.0308123   5.2232766  13.5256349  19.4284352  16.1399186
  13.1700432  20.1220997  15.5843806  13.6055898  18.6727627  15.5578637
  35.8078694  59.7000456  21.3467550  35.7553673  59.4615412  20.4212332
  36.5611744  59.2109680  21.6777658  79.3055122  12.8889325  59.8264320
  79.4746011  12.4978688  58.9692803  79.9490087  12.4819472  60.4065241
   7.7411521  36.2341741  66.0574703   7.1085823  36.5037301  66.7233747
   7.2081364  35.8435682  65.3649719  69.4014577  46.8814039   3.2759213
  69.0425114  46.6616201   4.1356209  68.7281303  46.6004753   2.6562932
  69.4466404  39.5680547  53.9578009  69.6470825  40.1621008  53.2344961
  70.1753537  39.6796298  54.5683432  67.2727804  53.6070204  12.0241094
  66.3737969  53.5838366  11.6962039  67.5952928  52.7140713  11.9022048
   5.6122637  71.1497259  23.6097074   6.4660341  71.2650776  24.0268421
   5.3692585  70.2452803  23.8075757  68.7401705  25.5731443  61.8848254
  68.7483125  26.1957029  61.1577840  69.5014100  25.8123639  62.4135228
  75.8747523  12.4092296  51.3087304  76.2310236  12.9665807  52.0005866
  74.9933546  12.1880105  51.6094478  76.5871780  43.7190440  58.2635661
  76.1819833  44.2186549  58.9723905  76.8971389  44.3839172  57.6486738
  80.6757223  60.5761051  23.0609798  80.0046845  60.1483154  22.5290632
  80.9746621  61.3102531  22.5244236   2.5009502  31.8241552  46.0440166
   2.6663078  32.5714925  45.4692348   2.6514877  32.1628383  46.9265492
  31.3946152  58.7886333  35.7989907  30.7822180  59.4667912  36.0841227
  30.8561039  58.1737041  35.3008938  14.3237460  56.9179487  15.7723391
  14.2543507  55.9676361  15.8635473  13.4220874  57.2316933  15.8416808
  32.8505283  10.3521641   9.0955794  32.0817976  10.9193047   9.0352631
  32.9519217  10.1850136  10.0326025  24.6809303   0.2724417  26.4164233
  24.5117056   1.1638125  26.1113739  25.2574592  -0.1030485  25.7509494
  55.4680486  16.7669776  53.9565666  56.0446101  16.2357763  54.5057817
  55.2804508  16.2121585  53.1994565  78.9583271  36.1155751  66.0084771
  78.8654535  36.8349889  66.6330141  79.3589180  36.5177062  65.2377324
   7.0205611  34.4114017  16.8571734   7.5371110  34.1606021  16.0913360
   7.6249212  34.3206573  17.5938869  77.9067595  18.7803125  29.2820525
  77.4325104  19.5690739  29.0190411  78.3369709  18.4812117  28.4809971
   0.6378265  50.4463243   7.8902036   1.2515996  51.1808157   7.8964025
   0.6552705  50.1120424   8.7869662  19.9046826  43.9054680   1.9366007
  19.2540181  44.3411589   2.4870935  19.9449921  43.0111980   2.2755519
  59.7831105  23.1780723  66.8817408  59.3758424  23.3675340  67.7270027
  59.4055723  23.8233331  66.2839683  56.6320342  20.7062486  62.4002688
  56.4360755  20.5320695  61.4796741  55.7822560  20.6617978  62.8385987
  37.6013541  48.3888960  30.8207369  36.9619322  48.7159443  30.1879573
  37.9928517  47.6269579  30.3936338  29.7648668  61.0448694  19.8637521
  28.8406610  60.8215857  19.7532082  29.9852824  61.5475464  19.0795565
  44.9899249  61.3411713  18.4832752  45.2336411  62.2620487  18.3893871
  45.7986025  60.9056616  18.7527251  79.3069835  67.2526598  50.7159853
  78.8563995  66.9008255  49.9482489  80.1965625  67.4308825  50.4108334
  31.8479967  51.2481308  39.0466595  31.4773726  50.9655190  38.2105970
  31.1344695  51.7179680  39.4783616  81.1129061   6.0509117  28.8031888
  81.5235702   5.4467018  28.1847048  80.2522579   6.2320717  28.4254360
  45.8459663  65.2185917  11.0974574  46.5326309  64.7670937  10.6066704
  45.1824379  64.5467567  11.2542951  30.8009768  69.5449400  23.3327007
  30.7146859  68.8397408  23.9741683  31.0270357  69.0995979  22.5161242
  79.0374578  71.8156385  17.4335063  78.1352155  71.9383907  17.1383440
  79.5405237  72.4654961  16.9427526  48.8435936  70.3752470  33.8256001
  48.5125494  70.7480001  33.0084729  49.5446730  69.7836351  33.5522580
  37.0824636  13.8000920  66.3260855  36.1343253  13.8692191  66.2143323
  37.2108138  12.9618695  66.7700990  59.7961652  42.6791771  12.4111164
  59.1171705  42.0451267  12.6417208  60.1476919  42.9703243  13.2524824
  41.7079138  13.5962208  12.5217414  42.5970279  13.2616242  12.4044609
  41.7527508  14.1202267  13.3215177  42.3982524   4.6752079  28.6002994
  41.8063163   4.1932972  29.1778898  42.1272062   4.4251736  27.7169824
  75.2110164  33.9451936  62.3253127  74.9454468  33.0292943  62.4079482
  75.1104253  34.3042138  63.2069118  16.9669116  29.8102188  27.5756907
  16.9901609  30.3110862  26.7603230  17.4276733  30.3611732  28.2084465
  24.8128932  15.8773049  34.7445154  25.2785895  15.1651867  34.3060589
  24.9991772  16.6497143  34.2107439  21.2238574  47.1411753   2.1568404
  22.0336056  46.9007063   2.6070780  21.0682917  46.4227581   1.5437254
  13.4369720   9.5351127  49.3087371  12.4961246   9.6344426  49.1632338
  13.6433566  10.1770690  49.9880941  33.3216429  43.5013199  19.3240440
  32.6007986  43.9159918  19.7980285  33.8024282  44.2309380  18.9332294
  67.8198498  56.7123416  60.8283140  68.3058863  57.1051124  61.5533878
  68.3066778  55.9156421  60.6173594  47.4704539   2.7532204   6.9414788
  47.5497662   3.6976631   6.8074739  47.1723866   2.6639374   7.8466958
   1.6394967  27.6143889   8.2700507   1.1280912  27.9326015   9.0139834
   2.5230116  27.9477172   8.4266536   2.8733290   9.3909314  51.0567601
   2.8715027   9.0677980  51.9577666   3.7757052   9.2706350  50.7609959
  35.6308365  65.3372717   4.9522120  35.9762907  64.4706154   5.1662326
  34.7857404  65.3755426   5.4000723  23.1570829  22.8923848  58.4308060
  23.9650024  22.4208406  58.6336608  23.4221566  23.8107255  58.3796336
  71.0177380  74.1784544  46.1752041  71.7668253  73.6327429  46.4145763
  71.3233095  75.0759168  46.3072069  70.9243493  24.4108987   5.3756309
  70.4873781  24.4348717   6.2269318  71.7119007  24.9415517   5.4956293
  77.6341301  58.2800705  58.9057137  77.2032839  57.5102861  59.2772474
  78.1570583  58.6327238  59.6257223  74.3676834  22.1267509  23.1878209
  74.1845421  23.0275536  23.4547377  74.3054221  22.1425748  22.2327781
   8.9351803  58.2936199  44.3802698   9.3137747  57.4863608  44.0320857
   8.2957739  57.9981847  45.0284298  71.5118294  25.4309705  51.9662745
  71.6652756  24.8112395  52.6794489  71.1289399  24.9013093  51.2669273
  22.3182297  60.2150345  18.8045502  22.0483398  61.1058521  18.5813057
  21.5419579  59.6805668  18.6372781  57.8943382  41.6331519  65.7380325
  58.2222877  41.3028092  66.5744273  57.5551592  42.5048776  65.9412149
  22.0190739  72.9244442  64.7345787  21.4024407  72.3927302  65.2378440
  21.9348436  72.6034923  63.8367330  61.4141349   5.9689701  37.2262549
  61.4574294   6.1002392  38.1734228  62.3283760   5.9667861  36.9427204
  41.9933271  39.3725896  31.2098980  42.2618151  39.9023795  30.4592514
  42.5394344  39.6851301  31.9312286  81.2672792  44.8728503  59.1790594
  80.4733954  44.9509079  58.6500181  80.9620796  44.9552293  60.0825514
  70.2636127   6.3232476   3.9334810  71.1548821   6.3579077   3.5861057
  70.0816552   5.3888255   4.0333748  54.0354638  53.3557987  37.0392489
  54.0250926  53.7737131  37.9003358  54.8231320  52.8119612  37.0464325
  51.6546345  70.1823616   7.0151037  52.3496294  69.7537804   7.5146359
  51.2132359  70.7440662   7.6521939  17.2408152  36.8063927  17.1424115
  16.7232335  36.6910505  16.3455200  18.0446279  36.3128710  16.9794607
  45.0940627  68.8828344  45.4638012  45.4291981  69.2349286  44.6392115
  45.3396612  69.5349140  46.1200817  78.7262370  18.7702322  16.0983014
  79.3474735  18.0420291  16.1025751  79.1781573  19.4733381  16.5648210
  57.5160722  16.0685825  13.7466919  58.0078773  16.8204486  14.0769279
  58.1879429  15.4514956  13.4568250   3.7744221  33.2424331   7.6215392
   3.6755916  34.1940069   7.5903440   3.7947974  33.0342436   8.5556018
  12.9473948  46.2475634  31.9679356  13.7215805  45.6864309  32.0126486
  12.2187662  45.6405210  31.8382096  30.8357573  57.8721571  31.5998960
  30.9171891  57.5692797  32.5042558  30.7633543  57.0691490  31.0839796
  59.6330207  31.3291553  63.3906870  60.1052718  30.9697536  62.6396607
  58.8369300  30.8007959  63.4482075  28.4775465  35.0721124  46.0126002
  29.0077966  34.5063070  46.5737899  28.0636709  34.4731048  45.3912051
  58.0505066   5.1721719  61.3622351  58.7459009   4.6978286  60.9065415
  58.3517258   6.0805753  61.3794167  40.5010080  76.4014769   3.7209809
  39.8223901  76.7633486   3.1511092  41.1570597  76.0501862   3.1189650
  31.7123294  42.1108723   6.3403130  32.4608588  41.5578079   6.5640432
  32.1014524  42.8972387   5.9576267  80.7935901  56.8853855  13.7756765
  80.4538323  57.7129221  14.1162312  80.0973297  56.2515545  13.9480412
  34.3065691  52.5827169   6.9289726  34.1177654  52.8194618   7.8370124
  34.8851347  51.8230104   6.9948632  14.2285430  25.1025367  16.7730963
  15.0841343  24.8081398  17.0853853  13.8412225  25.5522513  17.5240779
  72.3420435  54.6045811  54.6922071  71.5745455  55.1136858  54.4314547
  71.9802862  53.8160737  55.0967081   8.9896351  76.4173174   5.5752110
   9.8304820  76.0472965   5.3063327   8.3587587  75.7136440   5.4233295
  12.0797324  70.7501268   4.6674666  11.3427770  71.2497759   4.3160686
  11.9572914  70.7780600   5.6163919  55.3274327  74.2087836  59.6713384
  55.0164348  74.3829365  60.5596985  56.1896807  73.8113542  59.7930338
  16.0971892  41.9872046   9.4593930  16.0404062  42.3060369   8.5586411
  17.0182836  42.0979977   9.6950650  61.6531139  56.3849957  36.1229833
  61.6792065  57.2311397  35.6762274  62.4965078  55.9806139  35.9195216
  11.1207163  65.8101463  26.4768362  11.2144494  66.7626858  26.4663577
  11.6486955  65.5093718  25.7372403  22.5323468   1.2763985  19.6633434
  22.4822333   1.8824204  20.4025722  22.0521831   0.5016955  19.9557614
  21.6483951  41.9329882  20.6695294  21.2026095  41.4757013  21.3825488
  20.9408498  42.2411966  20.1032972  34.9738765  48.1589317  16.7477989
  35.1706505  48.9352894  17.2719944  34.8672843  47.4570990  17.3899043
  20.0965703   3.6988261  54.5356055  19.1572488   3.8779214  54.5784326
  20.4551519   4.4223264  54.0216012  51.9785385  70.3461456  15.0553501
  52.5743656  70.3384399  15.8044589  51.1069827  70.2601290  15.4416406
  38.9501279  64.8303909  47.6388176  38.5659724  64.7172136  46.7694219
  39.8301297  64.4617767  47.5616630  61.6491740  11.2123492  31.7016037
  61.9785701  10.8234552  32.5118454  60.7187574  10.9878448  31.6891463
  -0.1980483  13.4413913  35.6713732   0.5765284  12.9294685  35.4385646
   0.0710047  13.9477876  36.4377935  33.2328580  32.2262673  16.5263764
  33.2789873  33.1615024  16.7249600  33.6499093  31.8014054  17.2758977
   9.9665904  72.3894930   3.7695947   9.2214847  72.2426891   3.1869298
  10.6472754  72.7505159   3.2016510   4.7739968  53.3793926  18.6874366
   5.6012577  52.9039335  18.7636387   4.5259055  53.2825708  17.7680302
  33.6784029  53.4761238  13.9041412  34.4527292  53.7689161  14.3846869
  34.0294671  53.0120564  13.1441212   7.2488898  46.1325359   4.7554561
   7.4138492  46.8154812   4.1053727   6.5078080  45.6400251   4.4026631
  23.0256748  50.2892303  11.9182956  22.0805550  50.1391315  11.8970668
  23.3374524  49.7506046  12.6455581  29.2019582  56.9909430  12.1384311
  29.7511315  56.3217020  11.7300761  28.6549711  57.3199081  11.4251149
   5.7866722  38.3375263  13.5485184   6.0130513  38.1718445  14.4636869
   5.1393694  37.6650453  13.3363807  24.7616005  31.9563937  12.7966273
  24.9817085  32.8865504  12.8475642  24.3562865  31.8529773  11.9356632
  69.3995635  75.1974964  38.5029149  69.3867175  74.3373775  38.0830812
  68.8945584  75.0789261  39.3073654  24.9090221  68.1594558  48.8048990
  25.4071440  67.6704664  49.4598754  25.1455027  69.0742631  48.9579971
  12.9870796  35.8677959  10.2787495  12.5978816  36.5697908  10.8002484
  12.2597897  35.5227160   9.7608680  33.0482221  72.2404690  15.6759723
  32.7661854  73.0815740  15.3164895  32.2670692  71.6887374  15.6356652
   8.3725816  44.3725777  16.8555105   8.5612762  43.9341021  16.0258305
   8.4430826  43.6808920  17.5134122  79.7850936   1.9333318  25.1935037
  80.2199500   2.7744344  25.0532277  78.8653057   2.1593669  25.3318294
  54.0869908  43.5203886   8.2792193  54.3866853  43.8021612   7.4149173
  54.1972188  42.5695753   8.2727194  18.9198744  55.0377464  17.8406608
  18.0519462  55.1518250  18.2278526  18.9144444  55.6045914  17.0693696
  82.1401351  22.8458980  61.4481057  82.3898690  23.2967284  62.2547124
  81.3449018  23.2938579  61.1597140  80.0725607  57.3869467   4.4771984
  79.8851791  56.7512703   3.7865198  79.7455570  56.9750309   5.2769637
  16.6399133  57.8309107   0.5574484  17.1403897  57.2921801  -0.0553510
  15.7721436  57.4274254   0.5775740  15.9449399  10.9529355  65.6311585
  15.5560458  10.3359607  66.2511054  16.7324842  10.5102781  65.3148422
  45.5096178  50.0329494  10.4497409  46.2774972  50.1453447   9.8894197
  44.8441581  50.6004953  10.0607836  24.2127132  42.3288441  15.1594651
  24.2805672  42.0921326  14.2344809  24.1611362  41.4902782  15.6181324
  11.6086257  49.2236948  10.2458084  11.4561594  48.2787275  10.2402496
  11.2729537  49.5254326   9.4017047  69.0048044  32.1909049  59.2730643
  69.8878281  31.9993308  58.9571525  68.4293108  31.9046262  58.5637815
  11.5836585   8.7434173  10.0163412  11.3520479   9.1632068   9.1878700
  11.3179386   9.3731636  10.6864488  75.2511339  52.1926689  35.4529929
  75.9207837  51.5586662  35.1964021  75.7104365  53.0322933  35.4705620
  54.2309059  21.7251018  61.4298453  53.7082026  21.5118602  60.6568374
  53.6301895  21.6059688  62.1654932  64.2271130  55.5440569   1.2936194
  63.8083808  56.3425255   1.6150816  64.3397240  55.0017023   2.0742624
  60.7872664  23.8606742  48.8442715  60.9773850  24.0541127  49.7622414
  61.6163110  24.0130189  48.3907207  32.8408027  71.5844393   8.6727691
  33.0332422  72.2353172   7.9978192  32.1327639  71.0574484   8.3023715
  62.9208761  49.2979148  66.2190142  63.5164385  48.7266257  65.7340680
  62.3257147  49.6434978  65.5537422  41.9290506  14.8152550  21.8116570
  42.6109516  14.9862869  21.1620498  42.3885500  14.8314961  22.6511979
  53.6621670  17.3515847  56.1378952  54.2088584  17.2121337  55.3646465
  53.4690919  16.4699939  56.4568730  66.4626937   5.5317310  59.1262569
  67.3264509   5.9339240  59.2178704  66.2846737   5.5581716  58.1861283
  81.6609838  53.8719368   9.2697769  80.8221393  54.2951536   9.4526941
  82.3047479  54.4041634   9.7372520  75.7664423  23.7153840  15.7243097
  76.2113152  23.1714916  15.0743091  75.8805720  23.2440162  16.5495491
  73.5006516   9.6764377  66.2296626  74.3853896   9.3788388  66.4415698
  73.4418648   9.5942643  65.2778100  29.9789029  69.7192116  34.7613748
  30.5563363  69.9462075  35.4902609  29.7070993  68.8194389  34.9423821
  74.0201478  50.4701233  49.6451235  74.3385176  51.3536787  49.4601774
  74.2290447  49.9702024  48.8560295  16.3793159  59.1928530  10.3915679
  16.2596262  58.2447624  10.3365290  15.9353590  59.4436884  11.2016392
  18.5007823  59.2965651  16.3403177  18.2673180  58.4586382  15.9408164
  19.0265715  59.7408009  15.6751621  66.1837964  15.3992465  46.9514807
  65.7842570  15.7319978  47.7551444  66.6504388  16.1512473  46.5868361
  26.4621544  39.8936558   2.0754552  25.8545923  39.3818760   2.6094797
  26.5549612  40.7221794   2.5457454  45.4375404  64.2601199  65.0140685
  45.1787656  65.1494045  64.7723264  45.1112908  63.7131352  64.2995055
  50.2356081  56.5152693  16.3749766  50.5110673  57.4073601  16.5859818
  50.7636575  56.2753344  15.6135118  79.7403162  37.6704791  63.7469740
  79.9295800  38.6082271  63.7146215  79.0167253  37.5508216  63.1318896
  64.5783011  17.4130428  36.7214131  64.6147148  18.3668041  36.6489840
  65.2018694  17.0991302  36.0665441   6.7222136  31.9446158   1.1111671
   6.2223154  32.7608824   1.1174906   7.4385506  32.1072030   0.4974421
  74.5380776  27.1210101  40.3421433  73.6147588  26.8816522  40.4222830
  74.5313542  28.0736688  40.2492650  40.5070501  65.9755940  59.5526554
  40.7594937  65.9471698  58.6297818  41.1995405  66.4839716  59.9748428
   7.6905978  69.7749792  64.5802546   7.2084845  70.5461393  64.2817402
   7.6336993  69.1592691  63.8495731  28.2344890  31.2011838  15.8720517
  28.0071020  30.6671262  16.6331744  29.1884422  31.2723732  15.9057868
  27.5479285  31.3363500  65.2896817  27.0233984  31.5110828  66.0710705
  28.3706534  31.8003477  65.4447997  79.5106806  22.7069902  31.5972185
  80.2863501  22.2774410  31.9578505  79.4948803  22.4404550  30.6780124
   1.7241456  72.4983664  48.9418323   2.1311356  71.6888375  49.2504688
   2.3583581  73.1823463  49.1567250  13.9545250  53.3892059  33.1716943
  14.3523908  52.5374746  33.3519435  14.4231761  53.7146425  32.4031329
  63.2926237  14.7436145  35.7087381  63.3045321  13.8222268  35.9678419
  62.6715987  15.1536992  36.3107284  61.5974032   7.8885129  45.2759178
  62.2532867   8.5720304  45.4132183  61.3666736   7.5972989  46.1580666
  27.3542309  38.1480002  27.3965764  28.1623149  38.0047107  26.9039273
  26.7781734  38.6053419  26.7840195  27.7250600  37.7031350   4.5230338
  28.6736560  37.6264238   4.4205090  27.5284290  38.6039400   4.2658970
  36.6665316  65.0999498  14.7603905  37.3859096  64.7097492  15.2568507
  36.7654681  64.7455883  13.8767219  77.3416866  54.9057388  23.8096762
  77.5364534  55.5424309  24.4973707  76.4619855  55.1368713  23.5114551
  76.3377159   7.0221999  54.3496461  76.6463011   7.7649406  53.8306625
  77.1375125   6.6044334  54.6690674   6.4157081  52.6735830   7.8001708
   5.8175486  52.2225952   8.3960301   7.0953012  53.0335569   8.3700854
  70.7423143  65.9995461  17.4621773  70.9873096  66.7752647  17.9666269
  71.5118329  65.4320145  17.5066936   0.7977743  58.3220291  22.4853921
   0.2297038  57.6387739  22.1294570   0.2364003  59.0953302  22.5410128
  74.1304432  53.2407904  38.5645962  74.7581695  53.9156342  38.8230133
  74.5068084  52.8536320  37.7742243  35.9060979  24.3560100   2.5057954
  36.4261341  23.8534355   3.1328630  35.3977299  24.9606347   3.0463713
  19.3661892  32.5358200   7.5535464  19.0596223  33.4423065   7.5765878
  18.5737288  32.0119214   7.6708925  74.7845500  38.3539346  48.8470765
  73.8870018  38.6523441  48.7001415  74.8949712  38.3856967  49.7973557
  68.2960420  72.9095007  28.7720394  68.4579735  72.1466945  29.3271399
  68.8799362  73.5850142  29.1169739   4.1609925  46.7709064  24.7433352
   4.3063048  47.6099491  25.1805139   4.9537149  46.6301155  24.2256474
  78.8764327  13.2754663  41.3002975  78.0693333  13.7796739  41.1973532
  79.5626133  13.8497403  40.9603055   7.0592171  60.0205183  21.3736343
   7.8027755  59.9510860  20.7748604   7.3902565  60.5381870  22.1075726
  64.9564129  75.5438657  37.3194201  64.7297126  75.4458542  38.2442077
  64.8450738  76.4780993  37.1432312  21.9641029   2.2542628   5.5179685
  21.8319725   2.1340187   4.5775878  21.1822747   2.7218254   5.8118314
  81.5434645  26.0726118  15.6540287  81.6924932  26.9935298  15.8683419
  80.5917123  25.9728074  15.6749737  33.0565453   5.6594694  11.0355330
  33.5623765   5.9967113  10.2961850  32.3342919   5.1781344  10.6319284
  48.9767247  56.0022886  66.6067194  48.3175713  56.4990206  66.1219452
  49.5611268  55.6573958  65.9316232  30.3107339  53.5427577  45.5425771
  30.9604046  53.9558382  44.9737843  30.0157237  52.7757986  45.0516851
  24.4766439   9.5408729  55.2727552  23.9637578   8.7422803  55.1485260
  24.3560661   9.7617248  56.1962910  16.7184210  16.7096674  14.9620330
  16.3472712  16.8334615  15.8356202  16.6412342  15.7694376  14.8000407
  70.0113658  26.2384439  11.1039841  70.5707185  25.9420276  10.3860056
  69.6994679  25.4314351  11.5134811  50.9093952  69.6302986  39.5933056
  50.3406191  69.7951031  40.3453445  50.3194857  69.3038988  38.9138222
   2.9355407  56.4972830  34.9569345   2.1268599  56.5117598  34.4450188
   2.6588634  56.2331629  35.8343863  31.4034820  51.8962240  13.6734009
  32.1978807  52.1302795  14.1533804  31.7217255  51.5001917  12.8621602
  77.3313729  68.5729027  11.2139928  76.9750999  69.2871046  10.6855822
  77.5815843  68.9875698  12.0396292  60.9873818  32.7070525  55.5169137
  61.1615246  33.1701282  56.3363452  60.7173943  31.8302634  55.7899995
  66.1004954  33.6418679  60.8415701  66.7698126  33.0017093  61.0833146
  65.4461103  33.1344798  60.3613939  49.8925077   3.6134632  15.0876689
  50.0871598   4.3067368  15.7183158  50.6229603   3.0006798  15.1723135
  69.9818652  17.0500282  60.4634531  70.1873379  17.4826530  61.2922163
  70.4987328  17.5234321  59.8115559  74.0263706  68.5157557  55.3638263
  74.1585117  68.0100269  56.1657055  73.6654383  67.8857584  54.7400744
  81.5301793  28.2897046  54.6584328  82.3320406  27.9569677  54.2552729
  80.9208219  27.5523380  54.6236797  65.2966910  30.9868863  52.4703773
  65.6612282  31.4324716  51.7056556  64.4102614  30.7419446  52.2048982
  30.3760219  58.0549908   5.3960055  29.4804335  58.3917904   5.4228252
  30.8107138  58.4708929   6.1405182  50.5231285  49.9924469  23.6247587
  50.6661940  50.3975677  24.4801188  50.1827478  49.1208506  23.8264704
  15.1206219  17.9808736  29.8947287  14.1728520  17.9739666  30.0285840
  15.2838027  18.7699914  29.3781066   8.0619329  68.9944267  13.1098568
   7.3150003  68.9818144  12.5113893   8.2615626  69.9235678  13.2242048
  32.5692122   7.2156385  52.6821931  31.7836778   6.6736797  52.6083441
  32.7896612   7.4422458  51.7787095  15.6799579  47.3921585  11.9469738
  15.0931895  46.8814564  12.5047529  15.1066792  47.7734756  11.2820077
   5.2511489  58.6774254  15.6338370   5.7413328  59.0916204  16.3440406
   4.3818000  59.0754604  15.6789136  25.1413608  75.8597517  36.3181090
  24.6716237  75.0568771  36.5438819  26.0449958  75.6917858  36.5854383
  31.0371542  70.1773596  28.5123920  31.8804812  70.2816343  28.0717564
  30.5087519  70.9095192  28.1946445  24.2217946  36.1283755  26.3338637
  24.3529248  36.2561774  25.3943419  23.9740849  36.9931793  26.6609478
  33.0148530  68.4327316  11.9452596  33.4411430  67.7703094  12.4890471
  33.5487175  68.4709358  11.1516857  14.0264869  49.5002890  23.0721259
  14.2543626  49.6383953  22.1527624  13.2545805  50.0486279  23.2125401
  61.9525367  67.0937867  60.7102074  61.8470007  68.0368705  60.8354636
  61.4400488  66.6995926  61.4160396  56.6971827  71.7247868  17.6617253
  56.5718842  71.5833998  18.6000979  56.0608721  72.4028397  17.4346066
   6.9444412  34.8924828  20.3978038   6.5014195  35.5576062  19.8709536
   6.2624723  34.5523190  20.9769750  10.5861735  47.1699858   1.2409383
  10.0165200  47.1797466   2.0101142  11.4734447  47.1835661   1.5998209
  45.9177660  16.2781819   3.7388769  45.0493478  16.6478832   3.5794935
  46.1009072  15.7525452   2.9601657  10.0762213  41.1257938  53.9821620
   9.6207798  41.8182090  53.5032387  10.1466597  41.4596084  54.8764987
  77.5859298  40.4119492  43.9703465  76.9124941  39.8973703  43.5254574
  77.4621008  40.2165079  44.8991632  28.0363869   5.5229576  23.9916134
  27.2480005   6.0369309  24.1662908  27.7084761   4.6606549  23.7363839
  55.2801723  43.3120444  57.7074059  54.5823030  42.8213409  58.1414749
  55.0010928  44.2259219  57.7636810  20.9773601   7.9035142  46.4352091
  20.3189147   8.5912612  46.3368233  21.5723193   8.0341438  45.6968387
  24.4851375  29.2728734  17.1343470  24.6092558  29.5768356  16.2352180
  25.0507975  28.5041714  17.2075438  42.4193668  51.6431522   6.1191076
  43.2670355  51.2292910   5.9566134  42.6329279  52.4516582   6.5848726
  53.6101198  67.8136349  10.3899443  53.0633736  67.0499802  10.5747080
  53.6056376  67.8861332   9.4355047  42.4109316  74.7670650   1.9125657
  42.3964262  73.9297485   2.3761606  43.2829714  74.8084450   1.5200534
  16.8277705  45.7571128  38.1913193  17.5859369  46.3006499  38.4057339
  16.7604936  45.1413062  38.9210375   6.4778341  16.3953498  42.6777442
   6.3282073  15.7223705  43.3417781   6.8416489  15.9188417  41.9315441
   9.0095979  56.3229752  25.8105707   9.9321645  56.2160969  26.0422611
   8.9817989  56.1779165  24.8648357  33.2072902  36.5491867   6.8098629
  33.1795382  35.8312893   7.4423850  33.4604168  36.1328340   5.9859633
  34.6361470  32.5251031   8.4869170  34.0633726  33.1479645   8.9343572
  34.8346114  31.8634987   9.1495812  24.4066763  32.6655889   2.5836104
  24.7609138  32.4321508   1.7255574  24.8516536  33.4815764   2.8125066
  34.8783755  26.9035506  20.4467344  35.6634355  27.4303031  20.2969122
  34.9612737  26.1710906  19.8361099  11.8830359  38.1098962   4.0119553
  12.5241494  38.7751484   3.7616625  12.2470450  37.7120161   4.8027903
  19.2117715  37.0197248  14.2878306  18.4305060  37.0184278  13.7347913
  19.3475509  36.0992813  14.5127249  25.2587526   7.0357564  60.7881864
  25.7321232   7.8612331  60.8918531  24.7581713   7.1465972  59.9798776
  44.4696140  71.6456985   5.3226709  43.6316776  71.2685919   5.0545549
  44.3241692  72.5915575   5.3019547  65.9355699   1.6584738  18.0200899
  65.7401597   2.4761255  18.4777892  65.4015123   1.0009440  18.4658182
  17.0891297  70.8326721  18.6854529  17.4756444  71.5926933  19.1204309
  16.7436552  71.1778736  17.8622174  71.7105996   8.8894757   5.2026564
  71.4748418   9.8109444   5.3101754  71.3309037   8.4544571   5.9660804
  79.6059172  11.0328439  66.0415362  79.6193402  11.8479970  66.5431155
  79.1072052  11.2452510  65.2526112  47.2810983  11.7130759  48.4675808
  46.6197210  11.7307428  49.1593178  48.0117511  11.2249520  48.8472016
  18.9939499  62.6092100  17.3997772  19.4385827  62.0513153  18.0379653
  18.9116752  62.0615196  16.6190743   9.6679629  33.5824302  65.0259540
  10.3680194  33.0564359  65.4125764   9.2443097  34.0040115  65.7736324
  22.9066801  53.1344843   7.0905364  23.2570648  52.5812197   6.3924265
  22.1526957  53.5712671   6.6943520  54.7594248  17.1286400  10.3858972
  55.2635037  16.9497402   9.5920885  54.5713269  16.2636860  10.7501936
  71.6275374  62.4213171  33.4567189  71.9765870  61.9665909  34.2232823
  72.1680836  62.1137810  32.7290773   6.6191393  18.0493259   3.5138756
   7.2246552  17.3192203   3.3853188   6.2350994  17.8929245   4.3765947
   8.6672938  66.6488314  35.4442358   8.0651748  66.1368752  34.9042511
   9.3300158  66.9649267  34.8301387  17.0519460   5.0501636  56.1775477
  17.4201740   5.5718520  56.8906255  16.8502916   4.2047742  56.5786584
  60.2895361  71.1126704  62.2713141  59.6240860  71.6777678  62.6638355
  60.4445845  71.4907880  61.4057405  17.1898950  35.7066491  49.1429003
  17.0592559  36.0160068  48.2465406  16.3163722  35.4481366  49.4367643
  21.8698852  15.2682450  64.4710560  21.0196250  15.1010421  64.8776625
  21.9152825  16.2212613  64.3940453  36.3737659  58.3826399   2.0897813
  35.6172637  58.8310814   2.4677183  36.1683492  58.3104229   1.1576762
  63.9887570  15.5783799  48.8762005  64.5519870  15.1670840  49.5318218
  63.3474927  14.9033836  48.6539610  76.8823951  19.0414861  59.5625855
  76.0246079  19.3951705  59.7978307  77.4638026  19.8018745  59.5648118
   7.5326265  17.7771238  61.7653091   7.1137489  18.6192897  61.5877332
   8.1016935  17.6286987  61.0100867  52.2399902  44.2529535  17.6656210
  51.9467497  44.6299076  18.4951687  51.9491625  44.8786163  17.0021439
   9.5613468  19.1221622  65.3065300   9.0853680  19.8650745  65.6776829
   9.9408973  18.6779550  66.0647209  74.3587261   8.2229903  56.0956343
  75.1888960   8.2415155  55.6194993  74.5907133   8.4687665  56.9911839
  58.4552156  18.9950188  17.3873401  57.8116571  19.6659382  17.1594429
  58.2134353  18.7220009  18.2723463  23.7472177  59.1100168   0.6959169
  23.6276031  58.7003040   1.5526892  23.3004045  58.5235310   0.0854885
  34.3646549  12.1778591   5.3860962  33.6221199  12.7559670   5.2109814
  33.9658337  11.3381775   5.6143624  25.6041873  47.9895786  49.0147670
  24.8999370  48.6345199  49.0803953  25.1820052  47.1531585  49.2107161
  41.1808109  36.2614274  20.2660894  41.5268421  35.5771351  19.6931672
  40.6299448  36.7963791  19.6945977  14.2346227  51.6354084   5.6442434
  14.9396241  51.0304165   5.8748722  14.3790591  51.8296337   4.7181514
  57.0085386   8.7768748  64.0176012  57.7811899   9.3405870  64.0559386
  57.3601603   7.8868344  64.0381061  36.8198371  53.6478090   7.1529782
  35.8810163  53.6282539   7.3386240  36.8760896  53.6075544   6.1982810
  67.0360661  77.0311928  25.1413345  66.6137934  77.0872927  25.9985232
  67.3725414  76.1361170  25.0982165  31.6058159  51.3637686  23.3684564
  30.9000373  51.1374950  22.7627254  32.3298573  51.6324520  22.8029442
  81.2594116  71.6012859  31.1027694  81.7415175  71.6102839  31.9296455
  80.3383206  71.5854692  31.3627172   5.3699911  13.9799503  55.9655436
   4.9773086  14.2818120  55.1464518   4.7359741  14.2247108  56.6395970
  52.5637102  54.3375015  21.5317774  52.8805590  54.1149807  20.6563783
  51.8258715  53.7453032  21.6771436  15.5174172  57.7110147   7.3328525
  16.1319327  58.2232285   6.8072712  14.7099483  57.7047586   6.8188608
  62.6852094  28.6480668  57.8893252  62.6603328  28.0912831  58.6675306
  62.6466911  28.0352405  57.1550299  10.3353763  55.1703072  11.1921990
  10.0469780  55.0973225  12.1019959   9.5912999  55.5631638  10.7358575
  15.5171407  40.8005431  44.5786460  15.7244266  41.6585639  44.2084296
  14.5620597  40.7483295  44.5421346  17.7288508  62.6221132   7.1883678
  18.0674601  62.5198174   6.2989235  16.8609738  63.0085182   7.0712864
  79.6488915  48.6435652   8.5618073  78.8032766  48.2573175   8.3338135
  79.5769593  49.5573664   8.2860780  78.6160551  71.4107084  31.9464064
  78.0625136  71.0412025  32.6343679  77.9987968  71.7335176  31.2898874
  77.7204609  53.0846500  10.1566207  76.9742107  53.4065866  10.6622922
  78.0643940  52.3566628  10.6742787  15.8744717  32.3553586  29.4256067
  16.1226535  33.2677770  29.2768312  15.4426360  32.0891953  28.6138749
  37.0004940  58.3821154  25.0960755  36.9009495  57.4499750  25.2895617
  37.2253656  58.7787485  25.9377098  24.0378213  46.6154242   2.9617441
  24.2810535  47.5327539   2.8369310  24.0505767  46.2422037   2.0803960
  24.2451477  67.0488596   7.8516352  24.7244072  67.1968079   7.0363724
  23.3247280  67.0348358   7.5892234  25.8956289  62.1064854   1.3855600
  26.2199235  61.3988733   1.9426511  25.5827594  61.6653252   0.5957995
  70.0127649  60.1227570  28.5057354  69.1832018  59.7336388  28.7825799
  69.9853754  60.0899839  27.5494885  40.1327275  24.1134270   4.0346381
  39.6528863  24.2141159   4.8567361  39.4509541  24.0210922   3.3691370
   6.4834679  20.8303741  39.8713811   7.1962202  20.2619460  40.1631101
   5.7014383  20.2811149  39.9259456  36.6616119  12.3233989  57.0856567
  36.4798368  12.0741895  57.9917951  36.6146911  13.2794479  57.0861705
  66.2230687  49.1236687  56.2566757  65.7262878  48.3761454  55.9240341
  65.7811098  49.8883152  55.8875990   1.2591382  50.0008249  17.8176177
   1.4001389  50.5887556  18.5596991   2.1308346  49.6646118  17.6094234
  32.8634357  38.4496689   4.9410754  32.9512882  37.8423262   5.6756830
  33.2851124  39.2539930   5.2435410  23.0534053  70.3850842  20.8323121
  22.1359754  70.6342602  20.9439611  23.1212115  70.1264858  19.9132037
  15.7183946  53.4279922  59.6249660  15.3533138  52.6167396  59.2716624
  15.6011022  54.0688041  58.9236565  30.0675023  13.6258510  41.8675383
  29.6658052  14.4946817  41.8649276  29.4435180  13.0720761  41.3982709
  15.9488929   6.5960220  65.9617960  16.1582578   5.6795171  66.1418500
  15.4659141   6.8877414  66.7350120  35.4015565  69.6784830  20.8807778
  34.9985361  68.8157892  20.7829976  35.8958530  69.6206427  21.6984296
  17.7083319  74.5364351  55.5845840  18.6295664  74.2777224  55.5595346
  17.7077061  75.3758235  56.0446473  80.0822057  69.8463917  12.3243439
  80.0420427  68.9289761  12.5944746  80.9816024  69.9672651  12.0198643
   1.9502191  67.5202131  25.4556894   1.6873202  67.7642632  24.5682454
   1.7019902  66.5991068  25.5342555  44.8943615  76.1548519   1.4565240
  45.1961660  76.8163157   0.8339414  44.7761917  76.6340876   2.2766471
  19.0833712  60.4654074  37.5193739  18.3381665  61.0107851  37.7713060
  18.6885250  59.6612549  37.1822333  29.4101763  38.3367348  11.0017931
  29.5717168  37.3993587  10.8947313  30.2798057  38.7170243  11.1257052
  48.2080364  60.4792976  25.9224319  48.6680841  61.1990070  26.3544083
  47.6410007  60.1151896  26.6022277  29.9528282  31.5262516  19.5480227
  30.6848305  31.7352398  18.9677382  29.3915600  30.9511383  19.0279675
  21.5820765  53.5790730  29.8076487  21.2139273  54.1092730  30.5144620
  21.1577201  53.9082718  29.0153217   8.3198459   7.5436695  43.9598656
   7.4775560   7.3551281  43.5460663   8.7747914   6.7015751  43.9715433
  80.4744517  11.0578545  11.1080372  80.6151377  10.3546532  11.7420292
  81.1830126  10.9531506  10.4730535  32.2455135  61.2750454  52.0161231
  32.6590294  61.8483252  51.3706882  31.4820635  60.9163876  51.5636404
  38.5392820   9.6948822  14.0565419  38.1632256   8.8518913  14.3098545
  38.9088737   9.5407208  13.1871355  56.0999060  62.3379183  31.8448710
  56.8039131  61.7620707  31.5465331  56.5220308  63.1880665  31.9685006
  66.4153992   1.9401940   8.0034351  66.1005484   2.0786246   7.1101618
  67.3653495   2.0396145   7.9406667   4.3720776  61.1428213   7.4838215
   3.8277444  60.4107952   7.1938747   5.1904505  60.7352018   7.7672678
  70.8276021   5.7934483  28.2298279  70.1861798   5.4165848  27.6275158
  70.3174006   6.0343273  29.0030718   5.1257163  76.9402313  16.8671548
   4.7810382  77.6820946  17.3642123   4.3846744  76.6391897  16.3413548
  75.1372801  13.6245640  27.5637436  75.3550898  14.4782646  27.9378891
  74.2986142  13.7628945  27.1235847  36.3308406  16.7138636   6.8240613
  36.0024881  15.8152759   6.8549824  37.1875954  16.6705441   7.2487104
  35.7041419  18.0773071  52.9045458  35.4331983  18.9821675  52.7494629
  36.2243808  17.8477529  52.1345563  68.4728861  71.9350195  41.4390469
  68.1260824  71.8855047  42.3298359  68.9838219  71.1321831  41.3359737
  26.1966634  36.3924575  15.9546852  25.5437827  36.4931464  15.2619815
  26.4073873  35.4587483  15.9513211  66.3437510  61.7561913  20.1561689
  65.7181025  61.1928511  19.7007072  66.4125538  61.3779926  21.0327911
  38.3769369  71.3602400  39.7330165  39.2912054  71.3331747  40.0151730
  38.3713746  70.8990383  38.8942695  22.4347938  60.7215980  64.3661340
  23.2046235  61.2035373  64.0639268  22.1018518  60.2857783  63.5816296
  44.2331648  71.2376547  19.6129632  44.2320442  71.7403603  20.4275298
  45.1597834  71.0888767  19.4246042   4.2861021  62.6990512  49.8299773
   4.0731848  62.7344897  48.8974317   3.9365352  63.5156348  50.1866694
  51.2326813  76.4471960  63.2328224  51.3258600  76.9967890  64.0109587
  52.1046352  76.4412260  62.8379965   3.2728720  37.7134728   5.7286274
   2.3631859  38.0092430   5.7635975   3.7744278  38.4363866   6.1055464
  10.3001618  44.6467209  14.2643034   9.6868640  45.3716230  14.1434050
  10.6918025  44.5177317  13.4004676  46.6808176  35.9539843   1.7117378
  46.6691303  35.6242657   0.8131937  46.0098267  36.6364932   1.7251685
  79.2676532   2.5243910   8.1713814  78.7365042   2.9924687   7.5271636
  79.8800646   2.0081766   7.6472580  34.0400720  71.1093922  30.6451900
  34.9286562  71.1010070  30.2894099  34.1335195  71.5006752  31.5137513
  65.0215977  34.1810373  64.5451929  64.6392035  35.0541547  64.6327518
  64.3971418  33.6993697  64.0027104  56.6392026  21.5771630  56.2471743
  56.9663789  21.9435886  55.4256399  57.3979234  21.5824083  56.8307384
  68.6752558  36.6146684  21.5526104  68.8209820  37.3426771  22.1567631
  68.8661671  35.8322453  22.0699143  22.8425897  28.2208398  57.3647775
  23.5447944  28.8305858  57.5913753  22.0671619  28.5765508  57.7988453
   9.5006377  46.0504436  28.4529567   9.3847340  46.9724941  28.6823630
   8.6110365  45.7230091  28.3201861  54.3433575   5.8981192  30.2228141
  54.4312601   5.0047809  29.8904705  55.1175861   6.0271132  30.7706857
   1.8819464  12.3398021  44.1419633   2.3382057  11.6349271  43.6823829
   1.5744127  11.9366506  44.9538262  22.0001674  59.1661167  62.1768951
  21.5359139  58.4209251  62.5581980  21.3100362  59.7080040  61.7943954
   6.1295331   2.1422914  61.0402312   6.8158139   1.4912847  60.8938147
   5.4701317   1.6824630  61.5598293  69.9926043  55.0012350  15.7984233
  70.7558584  54.4319725  15.8964992  70.3272057  55.8818388  15.9681559
  39.6371865  71.6241598  28.9347672  39.6882272  71.4750910  27.9906225
  39.9536943  72.5197029  29.0533066  41.3375794   0.5645760  22.8223133
  41.1151587  -0.0907079  22.1609807  42.2900175   0.6441649  22.7697897
  69.1826718  16.1833099  65.5839056  68.4967761  15.6352475  65.9652290
  68.7180608  16.7633537  64.9806507  30.6031442  47.5792742  15.9251189
  30.1668906  48.1984186  15.3398216  30.8560705  46.8509436  15.3578484
  66.9388669  32.2177509  54.7078057  66.5762632  33.0430701  55.0296708
  66.3909083  31.9924119  53.9560111   1.2080158  41.1353353  31.4914949
   1.6012681  41.9813255  31.2772878   1.1571945  40.6757501  30.6533845
  16.7617440  53.2658720  10.0213993  16.5864551  54.0668154   9.5274401
  15.9765399  52.7322960   9.8989898  11.0946787  27.3135856  43.4622105
  11.2588776  27.9950669  44.1140206  11.8924511  27.2903875  42.9337676
  44.7068214  49.7795868  41.2498331  45.4510212  50.1811457  41.6983366
  45.0212812  49.6197510  40.3600025   5.8797562  31.0531473  17.6831639
   5.1248217  31.5129638  18.0504167   6.3583660  30.7304811  18.4467423
   9.8644245   4.3095115  59.2535998   9.8051370   4.8093894  58.4394510
  10.3553475   4.8770097  59.8478826  37.7902031   8.0767757   8.7883425
  37.2905588   8.1733549   9.5990592  37.7150559   8.9283693   8.3577931
  65.8203428  31.9485429  65.9594765  65.7944875  31.5454295  65.0916846
  65.4199736  32.8091481  65.8358179  43.5599392   8.7211135  24.6161921
  43.1607669   9.5877507  24.6925910  44.0264314   8.5985568  25.4429896
  13.1717850  55.2469034  65.8424489  13.4612586  54.8901768  66.6822013
  13.8495804  54.9789174  65.2219562  64.2149335  71.8426080  45.4944833
  64.6116549  72.3213048  46.2222822  64.1268378  70.9458179  45.8173473
   5.3466184  20.9764679  30.1321149   4.4123847  20.9848030  30.3403759
   5.6489618  21.8575676  30.3522849  22.8564275  24.1444543  62.0964746
  22.7037442  23.4760621  62.7644356  22.0703281  24.6901134  62.1195711
  79.3865817   7.3187736  58.8181223  79.1703050   8.2229188  59.0461238
  79.8824685   6.9942716  59.5698036   2.5583293  48.5071368  21.5192397
   3.3547379  48.0968369  21.1821683   2.7176119  49.4469304  21.4317830
  26.9733621   0.4982670   9.9758118  26.7645510   1.1858566   9.3434745
  27.8959940   0.6399306  10.1877403  48.2705021  56.2754154   4.8011902
  48.8550663  56.9800329   5.0805372  47.7892685  56.0353565   5.5930340
   1.0214465  20.4769421  26.8724060   1.9602688  20.3666949  26.7217731
   0.9466120  20.6328893  27.8138471  41.0382605  68.3625174  38.0443263
  41.1176443  67.5093126  38.4709120  41.7303801  68.3650303  37.3831201
  18.7182128   4.2063816  16.4757049  18.9851504   3.3154209  16.2495351
  17.7894931   4.1299160  16.6944838   5.1477946   4.4334605  42.0939382
   5.9550989   3.9657787  41.8800076   4.7958768   3.9688686  42.8532393
  52.5962072  63.0280156  56.1064263  52.8494459  63.2771201  55.2175792
  52.4936157  62.0770807  56.0686226  27.0124400  27.7997449  55.4811020
  27.0248712  28.7455133  55.6280525  26.5409292  27.6918748  54.6551033
  35.9409499  52.4944592  16.5821135  34.9894524  52.5404358  16.4884722
  36.2011003  53.3834505  16.8234563
  82.0357875  82.0357875  82.0357875 109.4712190 109.4712190 109.4712190
