default_name
184074
  47.7691387  54.0870381  66.0198957  48.2634140  54.8571654  66.4473264
  47.3935801  53.4976609  66.7490668  47.1602021  54.4511158  65.3010473
  48.7411116  53.2591044  65.3180835  48.7279657  52.2479460  65.7248821
  48.4065129  53.1905705  63.8279893  47.4031106  52.7793665  63.7175611
  48.4334622  54.1980391  63.4128015  49.3749495  52.3203270  63.0511078
  50.0813505  52.7968648  62.1633104  49.4075706  51.0339783  63.3796149
  50.0343018  50.4078051  62.8946253  48.8054989  50.6877736  64.1129313
  50.1533950  53.8001203  65.5179600  50.6116877  54.6625855  64.7698454
  50.8371675  53.2849081  66.5356950  50.4158078  52.5976959  67.1442133
  52.1935074  53.7245955  66.8263947  52.2192041  54.8081003  66.9423952
  52.6814767  53.0827176  68.1247323  51.8391806  53.2051959  68.8056403
  52.8443993  52.0215534  67.9363529  53.9362653  53.6865212  68.7535787
  54.7111382  53.7673517  67.9912538  53.6378074  55.0628587  69.3189361
  52.8632986  54.9827688  70.0817078  54.5426689  55.4779228  69.7628373
  53.2927798  55.7178520  68.5189110  54.4826247  52.7700782  69.8323495
  54.7353220  51.8039926  69.3954032  55.3762209  53.2153271  70.2697743
  53.7293901  52.6316115  70.6079548  53.1273991  53.3653878  65.6768216
  53.0788811  52.2560428  65.1401125  53.9834190  54.3118232  65.2992824
  54.0090729  55.2068400  65.7666003  54.8797379  54.0949528  64.1774652
  54.3210924  53.6944471  63.3315282  55.5338904  55.4052521  63.7529407
  56.0247530  55.2550341  62.7913858  54.7591629  56.1650592  63.6500305
  56.4879758  55.8310078  64.7079733  56.8845689  56.6558749  64.4183046
  55.9542034  53.0760208  64.5451954  56.2473635  52.8642654  65.7240634
  56.5568681  52.4252536  63.5466047  56.2935951  52.4061507  62.1434484
  56.8032350  53.2533283  61.6844741  55.2186201  52.5039111  61.9918875
  56.8256683  51.0760889  61.6585364  57.0858400  51.1248634  60.6011666
  56.0922965  50.2851440  61.8156141  58.0671034  50.8527149  62.5310235
  58.9622303  51.3714837  62.1879116  58.2857104  49.7914354  62.6493298
  57.6065130  51.4382125  63.8561548  57.1390501  50.6306258  64.4195200
  58.7621892  52.0111449  64.6581967  59.2450486  51.3663117  65.6005973
  59.2128565  53.2211094  64.3191629  58.8276081  53.7270014  63.5344615
  60.3267790  53.8171336  65.0458827  61.1655532  53.1217149  65.0767033
  60.7815859  55.0998458  64.3532607  60.9990687  54.7916011  63.3306240
  59.9557722  55.8112673  64.3499120  62.0199497  55.7598230  64.9605721
  61.8321443  55.9613109  66.0151965  63.2287722  54.8514842  64.8267742
  63.4174941  54.6499085  63.7723312  64.1000828  55.3384779  65.2646733
  63.0379860  53.9128915  65.3471056  62.2846601  57.1018765  64.3075470
  61.4261903  57.7561143  64.4595399  63.1698444  57.5552820  64.7536115
  62.4485683  56.9606723  63.2392331  59.9484613  54.0975816  66.4936961
  60.7453465  53.8552891  67.4066723  58.7413268  54.6172639  66.7253371
  58.1374788  54.9135813  65.9719030  58.2930968  54.8329378  68.0961922
  59.0097304  55.4589785  68.6278015  56.9346428  55.5323412  68.1027093
  56.2835129  54.9809418  67.4244116  56.5413900  55.4660454  69.1171339
  56.9919309  56.9875315  67.6769507  57.3633860  57.5693841  68.5204965
  57.6924768  57.0659293  66.8455733  55.6412927  57.5229827  67.2506289
  55.0612158  56.9767856  66.2889260  55.1583436  58.4897660  67.8764046
  58.2244669  53.5208845  68.8693773  58.6155572  53.4646929  70.0382656
  57.7163392  52.4578972  68.2414710  57.3408399  52.5267983  67.3064030
  57.6416412  51.1685854  68.9246228  57.0790739  51.2692206  69.8527875
  56.9365075  50.1470918  68.0348923  55.9206507  50.4921420  67.8423445
  57.4783584  50.0702054  67.0922439  56.8928481  48.8766824  68.6588384
  56.4461701  48.2522909  68.0824584  59.0279462  50.6704449  69.3077613
  59.2432174  50.1883353  70.4317207  59.9938142  50.8125355  68.3981019
  59.8101450  51.1768902  67.4741914  61.3476502  50.3746756  68.7113763
  61.3355870  49.3445074  69.0673358  62.2189164  50.4482390  67.4601506
  61.7801789  49.7150093  66.7834062  62.1090540  51.4458276  67.0348894
  63.7004933  50.1385822  67.6538291  64.1531834  50.9322668  68.2481668
  63.8787782  48.8118276  68.3640304  63.4267159  48.0175332  67.7700313
  64.9417768  48.6081855  68.4931223  63.3962600  48.8540980  69.3404984
  64.4028383  50.1226740  66.3122183  64.2986763  51.0973068  65.8354157
  65.4601161  49.9010396  66.4576245  63.9559527  49.3582100  65.6766186
  61.9391555  51.2135662  69.8346742  62.5800705  50.6773701  70.7476575
  61.7400712  52.5323858  69.7886908  61.2593806  52.9746550  69.0183443
  62.2735531  53.3789232  70.8471904  63.3482232  53.2206146  70.9373115
  62.0226915  54.8489240  70.5215138  60.9503279  55.0250365  70.4371304
  62.4313400  55.4726148  71.3165712  62.5070110  55.1003387  69.5779436
  61.6484380  53.0119114  72.1844606  62.3220880  53.0228886  73.2198972
  60.3509768  52.7078732  72.1804500  59.8087377  52.7733161  71.3308658
  59.6652603  52.3339177  73.4105135  59.7819932  53.1189802  74.1576074
  58.1748670  52.1379274  73.1370017  57.7322911  53.0508855  72.7385883
  58.0289546  51.3240716  72.4267564  57.3966315  51.7840843  74.3560782
  57.1174571  50.5328583  74.8115023  57.4988597  49.6983203  74.2231332
  56.3812113  50.6038497  75.9677417  56.0435711  49.8145263  76.4997822
  56.1741763  51.9203579  76.2804664  55.4891320  52.4913787  77.3454807
  55.0252111  51.8330932  78.0800121  55.4408221  53.8549458  77.4037554
  54.9138518  54.3384399  78.2263341  56.0533329  54.6504978  76.4300186
  56.0063080  55.7380623  76.4856216  56.7338752  54.0851770  75.3723009
  57.1929561  54.7482322  74.6390185  56.8008848  52.6925364  75.2859183
  60.2756371  51.0747593  74.0079258  60.5415242  51.0085345  75.2153952
  60.5005182  50.0568381  73.1732391  60.2158715  50.0759693  72.2043689
  61.1258091  48.8425831  73.6866678  60.5466185  48.4580010  74.5261522
  61.1884218  47.7672118  72.6033640  61.6795747  48.2127169  71.7382667
  61.8042276  46.9564117  72.9925767  59.8373706  47.2212320  72.1907835
  59.3904635  46.6963953  73.0351301  59.1977641  48.0553960  71.9023811
  59.9376930  46.2632455  71.0243846  61.0187257  45.7669364  70.7054510
  58.8087109  45.9914822  70.3835835  58.8179839  45.3579954  69.5970024
  57.9449018  46.4192674  70.6851379  62.5203000  49.1353730  74.2211864
  62.9088668  48.6205234  75.2772804  63.2839255  49.9674014  73.5100915
  62.9701620  50.3380634  72.6245062  64.6348486  50.2954228  73.9585486
  65.2296294  49.3925720  74.0970964  65.3399670  51.1953819  72.9301032
  64.7155859  52.0669492  72.7335889  66.6841738  51.6469816  73.4572768
  67.3093219  50.7759208  73.6536027  67.1701512  52.2830175  72.7174222
  66.5429137  52.2078425  74.3811719  65.5272887  50.4534346  71.6229912
  64.5545714  50.1584193  71.2294318  66.0276193  51.1027227  70.9045249
  66.1346709  49.5644591  71.7930215  64.5912900  50.9454582  75.3351616
  65.3277043  50.5586036  76.2498859  63.7160086  51.9380487  75.5050576
  63.1367426  52.2585484  74.7422797  63.6183658  52.6300530  76.7859131
  64.5917952  53.0328829  77.0656673  62.6211041  53.7852796  76.6885390
  63.0169918  54.4939294  75.9610862  61.6825765  53.3721470  76.3189615
  62.3743962  54.5017716  78.0145270  61.9150325  53.7893667  78.6997752
  63.3402976  54.8151275  78.4106893  61.4672610  55.7198098  77.8640784
  61.4051882  56.2138481  78.8337032  61.9278401  56.3941542  77.1421186
  60.0675038  55.3509910  77.3922805  59.5059460  56.2728677  77.2409637
  60.1571111  54.8209516  76.4440569  59.3536271  54.4913333  78.3752056
  59.2701095  54.9824635  79.2537928  58.4327192  54.2712870  78.0236257
  59.8735957  53.6368614  78.5152398  63.2158385  51.6684732  77.8961113
  63.8353961  51.6417580  78.9676353  62.1654281  50.8763118  77.6639877
  61.6656830  50.8978913  76.7865548  61.6754825  49.9937179  78.7176149
  61.4316888  50.5769165  79.6056144  60.4197271  49.2611748  78.2556194
  60.5993024  48.7578839  77.3055930  60.1090324  48.5290738  79.0010033
  59.0046966  50.3334939  77.9911477  58.1673929  49.3695069  77.6189248
  62.7473207  49.0001247  79.1351953  63.0056226  48.8194983  80.3301845
  63.3916334  48.3451465  78.1679209  63.1625068  48.4600787  77.1909915
  64.4193497  47.3762017  78.5272370  64.0118969  46.6497507  79.2303376
  64.9108592  46.6328842  77.2878664  64.0916375  45.9703134  77.0086265
  65.0752073  47.3612247  76.4937570  66.1834875  45.8099702  77.4959141
  67.0041847  46.4875132  77.7314826  66.0080295  44.8159994  78.6281651
  65.1877505  44.1377791  78.3930937  66.9268801  44.2436428  78.7555323
  65.7831923  45.3512864  79.5506706  66.5461828  45.0848659  76.2253312
  66.7156709  45.8092598  75.4286966  67.4535293  44.5023841  76.3851391
  65.7320176  44.4178225  75.9419817  65.5776293  48.0596339  79.2397690
  66.1035410  47.5376930  80.2296355  65.9906214  49.2316851  78.7553937
  65.5399914  49.6423787  77.9501840  67.1262813  49.9277340  79.3398196
  67.9846921  49.2600517  79.4135117  67.5025598  51.1088369  78.4524006
  66.5495627  51.5025478  78.0990063  68.0102351  51.8676777  79.0478218
  68.3736079  50.7347106  77.2554238  67.9879926  49.8224725  76.8002060
  68.3548640  51.8534758  76.2364247  68.7407995  52.7659943  76.6908061
  68.9781362  51.5805068  75.3848847  67.3321359  52.0208503  75.8986179
  69.7958131  50.4179595  77.6906010  69.7848446  49.5807159  78.3884565
  70.3933525  50.1549438  76.8177490  70.2301265  51.2908491  78.1779763
  66.8394999  50.4131193  80.7518588  67.7797738  50.6206908  81.5259137
  65.5651295  50.5961356  81.1024969  64.8106572  50.4232594  80.4536636
  65.2341850  51.1125599  82.4267226  65.6504361  52.1121117  82.5521437
  63.7176272  51.1906257  82.5947940  63.3300696  51.8072714  81.7838400
  63.3255534  50.1780235  82.4998466  63.2858670  51.7773564  83.9271571
  63.5660777  51.0797509  84.7164158  63.8117378  52.7208577  84.0733324
  61.7891005  52.0202969  83.9753550  61.5704088  52.6673071  84.8248554
  61.4891761  52.5182932  83.0533222  61.0211021  50.7188254  84.1200454
  61.0322255  50.2082664  83.1570780  61.5300095  50.1041247  84.8625111
  59.6146119  50.9449043  84.5443788  59.1427465  51.5141221  83.8563135
  59.1413604  50.0565939  84.6282689  59.6040812  51.4176082  85.4368693
  65.8407728  50.2589585  83.5338567  66.2536838  50.7850008  84.5726204
  65.9075138  48.9449630  83.3358503  65.6296721  48.5542148  82.4469076
  66.3170671  48.0310362  84.3945773  66.1302115  48.4830606  85.3686707
  65.5246503  46.7240861  84.3015288  65.6551941  46.3267333  83.2949662
  65.9581740  46.0322953  85.0237357  64.0556534  46.8927386  84.5877061
  63.5790088  46.8911180  85.8894404  64.2878856  46.7637004  86.7075834
  62.2369228  47.0466355  86.1587926  61.8740566  47.0339698  87.1865423
  61.3517542  47.2111462  85.1188951  60.0113488  47.3730327  85.3815679
  59.8080784  47.3549391  86.3196262  61.8002149  47.2222797  83.8182421
  61.0987599  47.3574725  82.9949656  63.1447340  47.0612658  83.5589334
  63.5057372  47.0653540  82.5304588  67.8062165  47.7175905  84.3778435
  68.2688520  46.9496307  85.2261973  68.5670301  48.2820072  83.4461991
  68.1558705  48.8651894  82.7313944  70.0037378  48.0495036  83.4054183
  70.2171894  47.0074945  83.6436506  70.5514632  48.3535801  82.0150164
  70.4142931  49.4150340  81.8086201  71.6148791  48.1149778  81.9972520
  69.8815577  47.5920859  81.0305322  70.2421146  47.7995172  80.1653323
  70.6813243  48.9272141  84.4499506  70.5453734  50.1548140  84.4170116
  71.4059606  48.3049596  85.3788932  71.4681108  47.2974400  85.4126703
  72.0880895  49.0739183  86.4109996  71.4266047  49.8396465  86.8162125
  72.5273371  48.1540514  87.5514822  73.2907066  48.6611928  88.1415456
  71.3442203  47.8072854  88.4436778  70.5805810  47.2996680  87.8543739
  71.6757553  47.1522669  89.2493667  70.9277294  48.7212037  88.8672214
  73.0849578  46.9491495  87.0123823  73.3594930  46.3743208  87.7305763
  73.2964042  49.8284829  85.8774604  73.8474388  50.6669560  86.5988192
  73.7228737  49.5525238  84.6445661  73.2803648  48.8083953  84.1244142
  74.8426140  50.2510644  84.0320273  75.4697476  50.7086212  84.7971707
  75.6947235  49.2674379  83.2246616  76.3709681  49.8285316  82.5797063
  76.5024181  48.3815609  84.1551907  75.8267939  47.8197675  84.8001866
  77.1029604  47.6878019  83.5668485  77.1584521  48.9999270  84.7678435
  74.8421400  48.4521422  82.4133020  75.3761449  47.8355029  81.9071448
  74.4105401  51.3978692  83.1286055  75.2673915  52.1594131  82.6680998
  73.1143449  51.5399863  82.8670298  72.4525055  50.8707506  83.2333512
  72.6122102  52.6205819  82.0322653  73.2841069  52.7848529  81.1898467
  71.2286230  52.2637414  81.4909184  71.2465380  51.2331708  81.1363729
  70.4737902  52.3661372  82.2705610  70.7720152  53.1050438  80.3394252
  69.7296713  53.9832615  80.3294851  69.1721849  54.0949377  81.2594513
  69.6077279  54.5601465  79.0897131  68.9183504  55.2496898  78.8262968
  70.5782359  54.0512207  78.2677187  70.8576226  54.3259347  76.9360126
  70.2372945  55.0542094  76.4136069  71.9021095  53.6593767  76.3605079
  72.1490625  53.8477071  75.3156893  72.6659140  52.7371511  77.0818446
  73.4979511  52.2122603  76.6124797  72.3916483  52.4633804  78.4055579
  73.0164835  51.7358391  78.9235978  71.3291311  53.1300183  79.0218167
  72.5536775  53.9003357  82.8545458  71.9839711  53.9142554  83.9503577
  73.1416725  54.9742885  82.3308423  73.5778776  54.8980962  81.4230872
  73.2258837  56.2537305  83.0357298  72.6037094  56.2192734  83.9300514
  74.6651351  56.5549309  83.4532879  75.2808373  56.4920873  82.5560361
  74.6830356  57.5758182  83.8348226  75.2122661  55.6103205  84.5095865
  74.5909514  55.6916680  85.4014673  75.1608726  54.5923901  84.1232208
  76.6514996  55.9454515  84.8630765  77.2598594  55.8517886  83.9635075
  76.6895705  56.9741908  85.2213299  77.1894050  55.0156998  85.9366120
  76.5710338  55.1292188  86.8270226  77.1134707  53.9919237  85.5702574
  78.6051941  55.3166921  86.2753064  78.6757075  56.2651623  86.6152063
  78.9233313  54.6782626  86.9903564  79.1784256  55.2111454  85.4504642
  72.6852568  57.3538806  82.1335711  73.4509257  58.0689648  81.4761688
  71.3677001  57.5173866  82.0786525  70.3077219  56.8065940  82.7179005
  70.5793112  56.6790902  83.7657947  70.2298648  55.8291856  82.2417596
  69.0558598  57.6365113  82.5391226  68.9495986  58.3574492  83.3497126
  68.1716009  57.0003147  82.5011577  69.2849855  58.3362562  81.1937195
  68.7704773  59.2944067  81.1207272  69.0201378  57.7160590  80.3373838
  70.7882818  58.5583563  81.2279808  71.1579563  58.4207097  80.2118644
  71.1613544  59.9477995  81.7181782  71.4601335  60.1659863  82.8937077
  71.1402461  60.8978441  80.7892279  70.9570122  60.6789843  79.8204013
  71.4359176  62.2781252  81.1404249  72.3955519  62.3326064  81.6544610
  71.5062669  63.1426349  79.8816394  72.0425612  64.0314738  80.2139842
  72.1090218  62.6087235  79.1469795  70.1768092  63.5571042  79.2461747
  69.4106367  62.8374109  79.5344837  69.7669494  64.9412013  79.7046658
  70.5324664  65.6615623  79.4162867  68.8194154  65.2128869  79.2394057
  69.6535813  64.9466733  80.7887406  70.2646058  63.5102910  77.7312542
  70.5049396  62.4962189  77.4118846  69.3082047  63.8088061  77.3019678
  71.0437981  64.1921895  77.3907064  70.3785667  62.8101738  82.1015547
  69.2011551  62.4501797  82.0279810  70.8109135  63.6736283  83.0118028
  71.7707304  63.9874717  82.9930087  69.9443681  64.1643328  84.0755383
  69.6263514  63.3399618  84.7137993  70.7048647  65.1763701  84.9285601
  71.5581902  64.6734717  85.3835634  71.0591265  65.9818175  84.2852459
  69.8517431  65.7754283  86.0298225  68.6728514  65.4539311  86.1671535
  70.4478666  66.6587360  86.8226437  69.9281702  67.0903114  87.5734820
  71.4181238  66.8947783  86.6710335  68.6904194  64.8035668  83.4844491
  68.8058943  65.7283750  82.6688044  67.4875967  64.3709833  83.8763409
  67.1280523  63.2921376  84.7331260  67.1275237  63.6520070  85.7620060
  67.8708220  62.5016728  84.6256203  65.7554469  62.8605437  84.2681882
  65.2056814  62.3796060  85.0772345  65.8304239  62.1759107  83.4233466
  65.0934988  64.1791462  83.8474303  64.6621507  64.7610747  84.6619222
  64.3358964  64.0085488  83.0825546  66.2758964  64.9248297  83.2491961
  66.3165859  64.6667508  82.1909721  66.1291665  66.4280011  83.3972602
  65.3193637  67.0230968  82.6764090  66.8698290  67.0631425  84.3033200
  67.4566711  66.5309617  84.9298177  66.8173524  68.5100351  84.4678468
  65.8517799  68.8870398  84.1307467  67.0012833  68.8839226  85.9411080
  67.4953416  68.0593021  86.4549238  67.6262727  69.7749665  86.0005147
  65.6865695  69.1681144  86.6352821  64.8627136  69.9316240  86.1343633
  65.4812729  68.5535404  87.7933137  64.6201796  68.7082922  88.2979620
  66.1870552  67.9338502  88.1647381  67.8501072  69.2473962  83.6270002
  67.9422130  70.4749890  83.7277890  68.6232431  68.5444311  82.8032836
  68.5595557  67.5375418  82.7561959  69.6177041  69.2116189  81.9784146
  70.2915176  69.7929001  82.6078482  70.4393993  68.1848351  81.2018941
  70.8753264  67.4783335  81.9082385  69.7788083  67.6526633  80.5174143
  71.4717356  68.8141066  80.4668796  71.9737330  68.1506179  79.9879420
  68.9342827  70.1805738  81.0203314  67.7892542  69.9780522  80.6080015
  69.6515166  71.2499905  80.6673491  70.6137794  71.3540775  80.9559934
  69.0359014  72.3336282  79.9072436  68.2151087  72.7695893  80.4767489
  70.0659259  73.4244414  79.6228195  69.5764449  74.2539477  79.1124992
  70.5132115  73.7821717  80.5502162  71.1932659  72.9880922  78.7450993
  72.2499287  72.2034737  79.0964207  72.2763880  71.8478066  80.1264210
  73.0872792  72.0265200  78.0229811  73.9373557  71.4811133  78.0219582
  72.5792171  72.7088278  76.9503749  73.0649212  72.8290044  75.6546735
  73.9945493  72.3208899  75.3983340  72.3392741  73.5835677  74.7764790
  72.6897828  73.7005362  73.7510220  71.1513182  74.2129895  75.1630987
  70.5805067  74.8131154  74.4544926  70.6661938  74.0941280  76.4503187
  69.7342150  74.6008402  76.7008360  71.3867256  73.3285547  77.3697275
  68.4176982  71.8412076  78.6060477  67.4358376  72.4230733  78.1317185
  68.9732321  70.7836400  78.0101829  69.7885847  70.3293669  78.3961044
  68.4410987  70.2909164  76.7438277  68.5635625  71.0484902  75.9697581
  69.1853199  69.0270962  76.3125744  69.0443319  68.3408468  77.1476094
  68.6824702  68.6323974  75.4297069  70.6773939  69.1770945  76.0237376
  71.1542313  69.6801843  76.8649437  71.3136605  67.8169378  75.8226019
  70.8376252  67.3133965  74.9812129  72.3771706  67.9394732  75.6175843
  71.1846029  67.2179758  76.7240946  70.8940874  70.0497531  74.8047516
  70.4663527  71.0363672  74.9828946  71.9625210  70.1469075  74.6121075
  70.4095419  69.5948420  73.9408241  66.9494608  70.0142938  76.8503513
  66.1869160  70.2943803  75.9191720  66.5150260  69.4659542  77.9842441
  67.1612410  69.2287249  78.7233163  65.1103996  69.1294900  78.1615983
  64.7361476  68.6107845  77.2790003  64.9411060  68.2155117  79.3731727
  65.7068687  68.4962732  80.0962769  63.9548318  68.3976530  79.8000074
  65.0806175  66.7496535  79.0360937  66.3283659  66.1842166  78.8219465
  67.2124876  66.8163031  78.9049832  66.4629519  64.8487052  78.5091049
  67.4499513  64.4156900  78.3465258  65.3407403  64.0611295  78.4034232
  65.4711740  62.7279680  78.0920770  66.3846599  62.4586105  77.9712891
  64.0895251  64.5990697  78.6063492  63.2003475  63.9744627  78.5207360
  63.9653438  65.9354323  78.9193266  62.9778384  66.3681947  79.0794823
  64.2349647  70.3661902  78.3079069  63.0123547  70.2631922  78.1643895
  64.8262363  71.5244284  78.5957126  65.8304545  71.5509318  78.7003201
  64.0759530  72.7555303  78.8127866  63.0375805  72.5219911  79.0480336
  64.6772223  73.5408197  79.9805544  65.7533988  73.6472280  79.8440968
  64.2203310  74.5283138  80.0454063  64.4771655  72.8887368  81.3110465
  63.2469147  72.8190872  81.9271228  63.3713556  72.1911034  83.0822681
  62.5045618  72.0343148  83.7242843  64.6371522  71.8501132  83.2375921
  65.0279540  71.3574954  84.0279728  65.3498297  72.2746291  82.1433696
  66.4215716  72.0850517  82.0839473  64.0395367  73.6452538  77.5790281
  62.9930188  74.2195550  77.2680642  65.1546028  73.7683823  76.8666891
  66.0061745  73.3319315  77.1898542  65.2077593  74.5720451  75.6497612
  64.7230048  75.5264517  75.8552374  66.6630041  74.8363685  75.2642425
  67.1592977  73.8906197  75.0466375  66.6953120  75.4746416  74.3812567
  67.1736579  75.3326082  76.0895170  64.4771852  73.9239152  74.4865234
  64.5338256  74.4525537  73.3717399  63.8027305  72.7986020  74.7104339
  63.8914025  72.3632776  75.6174782  63.0054019  72.1219075  73.6936027
  62.5368229  71.2377249  74.1257531  61.9074632  73.0438345  73.1550070
  62.3915519  73.7802380  72.5135498  61.2349084  72.4284313  72.5574713
  61.1144445  73.7574561  74.2351063  61.7833304  74.4397564  74.7596621
  60.3169150  74.3267547  73.7576677  60.5130151  72.7779449  75.2257620
  59.9322763  72.0392271  74.6733696  61.3244295  72.2791049  75.7557288
  59.6150230  73.4824483  76.2246429  59.4452363  72.8107211  77.0661033
  60.1276841  74.3788099  76.5736611  58.3088855  73.8615896  75.6218448
  57.8334889  73.0310991  75.2987605  57.7404859  74.3266954  76.3151690
  58.4659660  74.4843663  74.8423745  63.8531708  71.5962391  72.5423974
  63.3497317  71.4190497  71.4296252  65.1385343  71.3375846  72.7811539
  65.5711773  71.6027080  73.6544402  65.9697341  70.7177363  71.7593535
  65.6934788  71.0949145  70.7747121  67.4421586  71.0427738  72.0115594
  67.6645728  70.5601678  72.9632540  68.0456079  70.5894835  71.2251264
  67.7679237  72.5340112  72.1081252  67.2815183  72.9454144  72.9925787
  69.2659837  72.7482965  72.2096732  69.7530679  72.3375369  71.3252953
  69.4771147  73.8155033  72.2774536  69.6458963  72.2460655  73.0993534
  67.1992142  73.2888542  70.9196461  66.1162953  73.1671515  70.8956743
  67.4434504  74.3472776  71.0101437  67.6290757  72.8947569  69.9987740
  65.7803845  69.2086341  71.6911543  66.1514272  68.5979549  70.6838911
  65.2098353  68.5983356  72.7290264  65.0561380  69.1259112  73.5764581
  64.8258946  67.1912183  72.7112096  64.8739961  66.8171853  71.6885246
  65.7553434  66.3463159  73.5850819  65.6129105  66.7500976  74.5874653
  65.3887121  65.3203679  73.5517324  67.2423634  66.3670400  73.2345878
  67.6095206  67.3918005  73.2908213  68.0181100  65.4987341  74.2052737
  67.6518049  64.4736569  74.1492728  69.0767889  65.5203407  73.9467533
  67.8843232  65.8769679  75.2187532  67.4686241  65.8944798  71.8135621
  66.9368414  66.5493599  71.1233167  68.5346914  65.9181536  71.5876391
  67.0974085  64.8753445  71.7055747  63.3921054  67.0856556  73.2044024
  63.1110409  67.3930218  74.3663885  62.4946626  66.6530816  72.3337744
  62.7639901  66.3838787  71.3983109  61.0844207  66.5915617  72.6907366
  60.7566004  67.5575225  73.0748626  60.2434487  66.2427624  71.4674447
  60.3544398  67.0475096  70.7406970  60.6375650  65.3174712  71.0471965
  58.7765263  66.0615444  71.7996143  58.3390379  66.5548583  72.8603038
  58.0590106  65.4288172  70.9974987  60.8833486  65.5553689  73.7894583
  61.2235275  64.3829907  73.5871793  60.3432141  65.9264129  74.9538681
  60.2541588  67.2234838  75.4876447  59.6269747  67.8142414  74.8200028
  61.2596949  67.6437366  75.5072337  59.6601936  67.0851077  76.8711032
  58.5714422  67.1179548  76.8305992  60.0227822  67.8749619  77.5289491
  60.1619993  65.7128336  77.3354360  59.5279964  65.2085672  78.0647197
  61.1778664  65.7823603  77.7243828  60.1595937  64.9395657  76.0261806
  61.0437479  64.3020958  76.0274880  58.9161253  64.0791911  75.8807608
  58.8144704  63.0549544  76.5700410  57.9719624  64.4514795  75.0172552
  58.0853935  65.2738856  74.4420326  56.7186559  63.7110042  74.9255975
  56.3707593  63.4391271  75.9221666  55.6497948  64.5760446  74.2535387
  55.6091031  65.5387353  74.7631169  55.9294476  64.7288296  73.2111611
  54.3782177  63.9558018  74.3147481  53.7273816  64.5173567  73.8873511
  56.9032051  62.4024677  74.1647693  56.6780660  61.3174008  74.7110798
  57.3096725  62.4858357  72.9041630  57.4914751  63.3784726  72.4679904
  57.4657882  61.2822672  72.1027239  56.5703896  60.6655016  72.1799305
  57.6897699  61.6358149  70.6337242  58.7182999  61.9720074  70.5025717
  57.4365434  60.4252970  69.7511141  56.4080041  60.0887912  69.8813844
  57.6006780  60.6949564  68.7078294  58.1190235  59.6224764  70.0300416
  56.7983022  62.6909278  70.2525140  56.9403386  62.9118887  69.3291494
  58.6404105  60.4565811  72.6281171  59.6955883  61.0121753  72.9469773
  58.4953364  59.1309934  72.7301739  57.4084696  58.2968674  72.4099372
  57.0439353  58.5921517  71.4260560  56.6292677  58.4693739  73.1523555
  57.9248254  56.8754530  72.4355236  58.3220025  56.5897391  71.4615025
  57.1348080  56.1816376  72.7229154  59.0282033  56.9193373  73.4990688
  59.8194090  56.1802760  73.3730492  58.6088927  56.8345932  74.5016139
  59.5879704  58.3167395  73.2874608  59.8211082  58.7228089  74.2717640
  60.8474426  58.2993763  72.4358705  61.8867187  57.8341848  72.9197177
  60.7934150  58.7820098  71.1930825  59.9660135  59.2589205  70.8643544
  61.8887845  58.5711699  70.2540562  62.1598839  57.5198778  70.1571572
  61.4923140  59.1077862  68.8642965  60.5455141  58.6565531  68.5675510
  61.3439515  60.6185684  68.8982361  62.2905476  61.0705638  69.1944740
  61.0638334  60.9789890  67.9084223  60.5708198  60.8922078  69.6162127
  62.5174349  58.6909977  67.8238046  62.5716574  57.6031562  67.7818179
  62.2232962  59.0775360  66.8480125  63.4940285  59.0927853  68.0938648
  63.1909077  59.2091310  70.7165815  64.2592122  58.8604140  70.2046049
  63.1380040  60.1351125  71.6757506  62.2763273  60.3533502  72.1553182
  64.3327155  60.9012692  72.0164005  64.7537805  61.3491764  71.1162990
  63.9884436  62.0164995  73.0012696  64.7982514  62.7451873  73.0376642
  63.0664965  62.5134483  72.6993501  63.7784605  61.5402760  74.4023304
  62.5470542  61.1519342  74.8807187  62.6639518  60.7844212  76.1445933
  61.7943849  60.4444120  76.7070399  63.9283942  60.9166462  76.5007743
  64.3137986  60.7075773  77.4106389  64.6476856  61.3881592  75.4299725
  65.7189318  61.5640249  75.5279724  65.4382596  60.0358136  72.6050675
  66.6034357  60.4458469  72.5807465  65.1108270  58.8561260  73.1357273
  64.1476952  58.5653605  73.2247890  66.1497609  57.9869783  73.6816573
  66.7523546  58.5159346  74.4200239  65.5274901  56.7367327  74.3283689
  64.8697497  56.2510842  73.6075198  66.6184018  55.7676378  74.7510517
  67.2763171  56.2524550  75.4723009  66.1660930  54.8870659  75.2072432
  67.1966338  55.4670833  73.8773161  64.6588616  57.1244063  75.5274939
  63.9335271  57.8562926  75.1720604  64.1371451  56.2225463  75.8477437
  65.4306153  57.7049503  76.6986301  65.9522582  58.6071600  76.3792458
  64.7386740  57.9517405  77.5038698  66.1558783  56.9734139  77.0549278
  67.1483356  57.6127312  72.5968989  68.3614064  57.5742356  72.8339606
  66.6572985  57.3198951  71.3913474  65.6636637  57.2356151  71.2310783
  67.5621497  57.0474292  70.2809471  68.2547912  56.2502649  70.5509027
  66.7660880  56.6075909  69.0519142  65.8094436  57.1200698  69.1533835
  67.2784296  56.9688533  68.1602329  66.5270233  55.1030876  68.9273833
  67.4886674  54.6037397  68.8090903  65.8266048  54.5637039  70.1559044
  64.8646125  55.0622816  70.2746049  65.6679263  53.4912587  70.0428413
  66.4421387  54.7485724  71.0362691  65.7213334  54.7998233  67.6830262
  66.2645898  55.1471463  66.8041982  65.5589993  53.7246114  67.6077389
  64.7591940  55.3089407  67.7394734  68.4155944  58.2692580  69.9650348
  69.6342310  58.1601809  69.7834638  67.7931361  59.4497280  69.9030887
  66.7938189  59.5324097  70.0240361  68.5531634  60.6535381  69.5821238
  69.0521219  60.5321481  68.6206644  67.6223970  61.8605838  69.4996879
  66.9920694  61.8507128  70.3888947  68.2441231  62.7558612  69.5056041
  66.7478753  61.8609624  68.2604507  67.3691629  61.6023247  67.4030074
  65.9729468  61.1051321  68.3881555  66.1028261  63.2098116  68.0269935
  65.3468645  63.1172326  67.2472178  65.6323407  63.5484794  68.9500575
  67.0833803  64.2038242  67.6108717  67.9363511  63.8574184  67.1954884
  66.9314291  65.5135556  67.7441476  65.8360801  66.0327375  68.2729261
  65.0926306  65.4246334  68.5853238  65.7480527  67.0349504  68.3619208
  67.9016533  66.3229607  67.3326511  68.7401382  65.9346472  66.9249065
  67.7961407  67.3227513  67.4295257  69.6538435  60.8836076  70.6057337
  70.7717520  61.2710243  70.2503186  69.3574832  60.6486753  71.8839674
  68.4075455  60.4768880  72.1809638  70.4022799  60.6879716  72.8990543
  70.8556670  61.6788460  72.9256471  69.8165640  60.3813000  74.2783216
  69.2920819  59.4291533  74.1981065  70.6559912  60.2763450  74.9656689
  68.8644532  61.4401898  74.8014196  69.4230927  62.3700464  74.9081402
  68.0720519  61.5754373  74.0652759  68.2536801  61.0613409  76.1375988
  68.4263256  59.8997205  76.5612797  67.6007246  61.9236678  76.7617321
  71.5011838  59.6955488  72.5460355  72.6769101  60.0560379  72.4289186
  71.1216053  58.4287648  72.3672885  70.1472207  58.1747607  72.4457477
  72.0939491  57.3708592  72.1215057  72.8236533  57.3173526  72.9294463
  71.3679301  56.0209825  71.9967454  70.5124134  56.1371019  71.3313824
  72.3019749  54.9713049  71.4377621  73.1575686  54.8542854  72.1028684
  71.7740039  54.0212884  71.3552021  72.6485787  55.2806480  70.4517237
  70.8354602  55.5784061  73.3589326  71.6417298  55.0512884  73.8690082
  70.5800277  56.4787148  73.9177687  69.6234838  54.6799734  73.2704851
  69.8782874  53.7791790  72.7121444  69.3001902  54.4052159  74.2745213
  68.8165857  55.2066051  72.7609025  72.9043980  57.6818328  70.8753459
  74.0704247  57.2873018  70.7628783  72.2990031  58.3810026  69.9158989
  71.3216638  58.6263584  69.9845111  73.0358288  58.8100472  68.7398451
  73.4414558  57.9246793  68.2502640  72.3404649  59.3106948  68.0661088
  74.1738587  59.7576462  69.0679686  75.2629213  59.6555676  68.4975576
  73.9403776  60.6909035  69.9877438  73.0465606  60.7008848  70.4579467
  74.9083153  61.7251273  70.3233326  75.5727955  61.9105874  69.4794310
  74.1697071  63.0226043  70.6584363  73.4178598  62.7187125  71.3867733
  74.8766033  63.7052589  71.1300086  73.4884582  63.7252087  69.4876498
  73.1382192  62.9773291  68.7762360  72.3105647  64.5420876  69.9827848
  72.6601043  65.2905375  70.6939415  71.8320092  65.0390285  69.1389038
  71.5917734  63.8846577  70.4718915  74.4799936  64.5953099  68.7564163
  75.2951464  63.9787621  68.3776100  73.9830925  65.0918445  67.9229632
  74.8793199  65.3450178  69.4394795  75.8089029  61.3580946  71.4955898
  76.6225682  62.1877835  71.9141336  75.6913937  60.1487995  72.0337672
  75.0351454  59.4909840  71.6378933  76.4135375  59.7635403  73.2440584
  76.0537154  58.7900140  73.5770356  77.9198393  59.6732500  73.0105472
  78.2461801  60.6406126  72.6286957  78.3863717  59.4890548  73.9782867
  78.3241967  58.5890557  72.0434403  77.6196007  57.7615548  72.1264319
  78.2944218  58.9907323  71.0305872  79.7249098  58.0927668  72.3493261
  80.4363440  58.8973026  72.1630936  79.7771777  57.7975814  73.3972923
  80.0875802  56.9481988  71.5231667  79.4815012  56.7353660  70.7437632
  81.1528384  56.1835708  71.7238378  81.9858884  56.4070604  72.7268374
  81.8149062  57.1754483  73.3596448  82.7890593  55.8082767  72.8551892
  81.3833685  55.1650849  70.9017118  80.7492428  54.9840633  70.1367177
  82.1916230  54.5767936  71.0457147  76.1090459  60.7108573  74.3986204
  76.9836656  61.0460158  75.1984649  74.8583535  61.1532342  74.4830079
  74.2031914  61.0124242  73.7273397  74.4155686  61.9001069  75.6487967
  75.2404968  62.4950885  76.0407018  73.2649739  62.8419315  75.2791165
  72.5336798  62.1890967  74.8025507  72.8495915  63.2359002  76.2066650
  73.6032147  64.0032570  74.3372183  73.9329547  63.5993539  73.3800168
  72.3876775  64.8824563  74.1223461  72.0576119  65.2871237  75.0791114
  72.6453418  65.7018678  73.4513211  71.5845685  64.2916332  73.6818414
  74.7532535  64.8428049  74.8644668  75.6409225  64.2189979  74.9693859
  74.9606358  65.6546089  74.1672810  74.4849658  65.2583587  75.8357730
  73.9896280  60.9437828  76.7452400  74.1137434  61.2603127  77.9325690
  73.4957283  59.7740107  76.3520604  73.3265041  59.6494245  75.3641632
  73.1645836  58.6794517  77.2522108  73.3811286  58.9800039  78.2773332
  71.6869073  58.2972740  77.1567959  71.4036276  58.2558881  76.1050645
  71.5499807  57.3147039  77.6083568  70.8736209  59.2417134  77.8272706
  69.9527600  58.9806251  77.7534604  74.0542136  57.5154425  76.8512073
  74.1450197  57.1851622  75.6677116  74.7035823  56.8916359  77.8277039
  74.5676273  57.1393839  78.7973618  75.6756627  55.8601184  77.5102999
  75.4057089  55.3767985  76.5713504  77.0757349  56.4632298  77.3653735
  77.7578097  55.7512669  76.9006348  77.0256256  57.3670462  76.7581627
  77.6923962  56.8576846  78.6697845  78.7415307  56.1682155  79.2371983
  79.0758219  56.7425630  80.3782974  79.8970684  56.3489239  80.9772144
  78.2730447  57.7709125  80.5789736  78.2907001  58.3930557  81.3744144
  77.3982352  57.8651832  79.5244124  76.6505188  58.6580728  79.5057711
  75.6869050  54.7781113  78.5717438  75.1665621  54.9493406  79.6784618
  76.3007816  53.6530861  78.2071031  76.6147589  53.5664742  77.2510610
  76.4968610  52.5233584  79.1024658  75.8122469  52.5576457  79.9499491
  76.2651416  51.2143843  78.3379948  76.6590177  51.3093788  77.3260967
  75.1966816  51.0034824  78.2931210  76.9738090  49.7055157  79.0229611
  77.9076713  52.6069265  79.6760472  78.8834021  52.6689734  78.9249051
  78.0043427  52.6048400  81.0089971  77.1813887  52.5411008  81.5910480
  79.3031297  52.7589171  81.6602526  79.8261336  53.6208806  81.2460243
  79.1206828  52.9736578  83.1593708  80.0902881  53.2074866  83.5990172
  78.4414691  53.8124463  83.3116946  78.5888559  51.8182196  83.7785064
  78.4838633  51.9788147  84.7191368  80.2157112  51.5664236  81.4172233
  81.4400790  51.7286023  81.3642933  79.6474766  50.3728300  81.2649915
  78.6479048  50.2512686  81.3435941  80.4722806  49.1909993  81.0456772
  81.2202449  49.1014242  81.8334747  79.5917849  47.9408960  81.0634239
  79.1187336  47.8299833  82.0391391  78.8233077  48.0159184  80.2940642
  80.3363501  46.6704565  80.8020120  80.7319683  45.8165020  81.8087184
  81.3669172  44.7847767  81.2844248  81.7605981  43.9932341  81.9220569
  81.3981091  44.9369951  79.9722931  81.8196292  44.3022250  79.3093545
  80.7594486  46.1087757  79.6449643  80.6792169  46.4125808  78.6012371
  81.2431650  49.2989962  79.7364531  82.4281924  48.9541613  79.6755537
  80.5841527  49.7718980  78.6774172  79.6007715  49.9945589  78.7364373
  81.2532780  49.9290897  77.3894991  81.9288463  49.0864992  77.2420246
  80.2174348  49.9268386  76.2661648  80.7259368  49.9487054  75.3022937
  79.5780537  50.8047126  76.3590584  79.1621715  48.4554487  76.2232688
  82.0871246  51.2080852  77.3258819  83.1756070  51.2093411  76.7412706
  81.6039554  52.2963475  77.9213127  80.7110464  52.2443945  78.3904755
  82.2914581  53.5880255  77.8787816  83.2857022  53.4909182  77.4427220
  81.4972508  54.6194170  77.0646468  80.6392837  54.9515653  77.6491716
  82.3745623  55.8131970  76.7306889  83.2325595  55.4818820  76.1457341
  81.7995413  56.5371281  76.1533025  82.7221664  56.2786246  77.6529959
  80.9544705  53.9982009  75.7994523  80.2951889  53.1687197  76.0552076
  80.3951397  54.7463310  75.2377138  81.7808160  53.6305946  75.1910778
  82.5123861  54.0799525  79.3047257  81.6965281  54.8496920  79.8313279
  83.5952591  53.6637548  79.9630376  84.5363875  52.7036525  79.5885647
  84.9393656  52.9946222  78.6184897  84.0179798  51.7494327  79.4946660
  85.5896250  52.6829325  80.6719144  86.3751117  53.4089975  80.4622977
  86.0290554  51.6898114  80.7652565  84.8054777  53.0555465  81.9360251
  85.3739574  53.5309124  82.7353730  84.2974427  52.1739363  82.3268748
  83.7870029  54.0343963  81.3734862  82.8388431  53.8346250  81.8726682
  84.2017416  55.4791218  81.6310405  83.9708525  55.9594181  82.7468684
  84.7899203  56.1988094  80.6701698  84.8691152  55.8328772  79.7321287
  85.3711807  57.5152165  80.9544629  85.1014882  57.8347876  81.9610609
  86.8948093  57.4416477  80.8571360  87.1375769  57.2855261  79.8060465
  87.2795196  58.4095536  81.1784710  87.5305607  56.3406060  81.6931469
  87.0437607  55.4004770  81.4337551  88.5866295  56.2874188  81.4285873
  87.3948911  56.5852921  83.1834813  87.8550690  57.5425512  83.4284105
  86.3365253  56.6146721  83.4425144  88.0794351  55.4769673  83.9718242
  87.5629385  54.5420325  83.7545024  89.1118561  55.4093286  83.6288505
  88.0597410  55.7246242  85.4384763  87.1031612  55.7869042  85.7565582
  88.5240291  54.9644155  85.9145216  88.5386609  56.5906958  85.6401069
  84.8459846  58.5865267  79.9933538  85.6169313  59.2779459  79.3302847
  83.5255339  58.7290977  79.9084627  82.9052958  58.0817825  80.3736368
  82.9368314  59.7873497  79.0937927  83.5665310  59.9886580  78.2271598
  81.5564583  59.3547907  78.6041217  81.7161985  58.3540067  78.2028566
  80.9153450  59.2949863  79.4836087  80.8865413  60.2265232  77.5447546
  80.8029465  61.2432639  77.9286180  81.6942703  60.2358808  76.2621341
  81.7779097  59.2194756  75.8773954  81.1963966  60.8637128  75.5231824
  82.6901662  60.6311920  76.4621860  79.4891924  59.7061202  77.2790596
  78.9072559  59.7394862  78.2001112  79.0076356  60.3262288  76.5229713
  79.5456330  58.6775971  76.9226137  82.8483018  61.0935761  79.8834636
  82.3585806  61.1094283  81.0171126  83.3188804  62.1886068  79.2841420
  83.7883982  62.1222711  78.3923730  83.2041898  63.5045886  79.9109466
  83.6411691  63.4750584  80.9090830  83.9385098  64.5623848  79.0873615
  83.7168016  64.3542442  78.0406418  83.5119679  65.5266211  79.3637858
  85.4469416  64.5987479  79.2886598  85.8109175  65.5680258  78.9478919
  85.6313127  64.4975196  80.3581734  86.1733191  63.4971266  78.5449548
  85.5176810  62.7473757  77.7929453  87.4069729  63.3905682  78.7067250
  81.7393852  63.9116975  80.0674321  80.9893109  63.8810890  79.0826800
  81.2901005  64.2948558  81.2644542  81.9388775  64.4048555  82.5245949
  82.8753095  64.9402428  82.3678920  82.1525247  63.3951088  82.8751166
  80.9933360  65.1454784  83.4423497  81.1431051  66.2224259  83.3658489
  81.1333772  64.8322822  84.4769501  79.6076352  64.7348511  82.9288330
  78.8379103  65.4843076  83.1130541  79.2802953  63.7736022  83.3250005
  79.8688221  64.6186528  81.4359923  79.2810339  63.7764902  81.0707999
  79.4746952  65.8774754  80.6785740  80.2887255  66.7717888  80.4428873
  78.2050939  65.9365596  80.2990012  77.6019803  65.1366212  80.4272666
  77.6536710  67.1241043  79.6394525  78.4118678  67.6033792  79.0201526
  76.4536733  66.7525692  78.7763557  76.0302326  67.6571018  78.3397561
  76.8859468  65.8133371  77.6703364  77.3090973  64.9083101  78.1061924
  76.0234795  65.5518055  77.0572686  77.6369148  66.3027494  77.0501575
  75.3518239  66.1023001  79.6154905  75.0416163  65.1930608  79.1005577
  75.7858537  65.8423784  80.5809740  74.1512015  66.9954728  79.8273188
  73.7163259  67.2554562  78.8622325  73.4095729  66.4712780  80.4300677
  74.4605641  67.9047755  80.3426470  77.2698301  68.1511089  80.7039114
  76.5967202  67.7891672  81.6806100  77.6708729  69.4186890  80.5732159
  78.2910785  70.1068999  79.4912770  77.8489671  69.7333229  78.5676548
  79.3528093  69.8610329  79.5106725  78.0372110  71.5822755  79.7011628
  77.0952439  71.8827974  79.2423777  78.8496889  72.1781287  79.2853021
  77.9848553  71.7178572  81.2284972  77.3602834  72.5466535  81.5618224
  78.9716176  71.8011217  81.6839823  77.3425925  70.3966880  81.6201967
  77.8091003  70.0751981  82.5513857  75.8388180  70.5163744  81.8218883
  75.0594593  70.4651356  80.8684862  75.4339968  70.6792002  83.0847028
  76.0950320  70.7097016  83.8477241  74.0106449  70.7660706  83.3981053
  73.4858506  69.9062525  82.9816885  73.8010928  70.7798976  84.9123225
  74.3568902  71.6330352  85.3013528  72.7354785  70.9325789  85.0833626
  74.2513805  69.5163736  85.6230947  73.6254780  69.3895846  86.5064244
  74.0932859  68.6791998  84.9432083  75.7085691  69.5610216  86.0388842
  76.3835275  70.5734339  85.7550560  76.1810974  68.5815037  86.6526674
  73.3740645  72.0023875  82.7792071  72.2586654  71.9366825  82.2508715
  74.0651802  73.1409005  82.8382704  75.0095991  73.1183378  83.1955702
  73.5118499  74.4226575  82.4339616  72.6609676  74.2636858  81.7715218
  73.0383014  75.2178338  83.6584306  72.5130366  74.5453758  84.3366609
  73.8945268  75.6551103  84.1720135  72.1008379  76.3404504  83.3590595
  72.4147718  77.6607097  83.2614694  73.4606436  77.9292069  83.4103365
  71.2918561  78.3951417  82.9842619  71.2594523  79.3972786  82.8627248
  70.2192308  77.5483873  82.8966100  68.8833941  77.8207644  82.6318893
  68.5864426  78.8551068  82.4585279  68.0204470  76.7649309  82.6057356
  66.9639952  76.9399287  82.4023021  68.4590964  75.4573917  82.8344380
  67.7601536  74.6213340  82.8102328  69.7848514  75.1852611  83.0968572
  70.0760784  74.1488845  83.2677698  70.6920920  76.2448937  83.1296931
  74.5834755  75.2005079  81.6822254  75.7629076  75.1389116  82.0567782
  74.2212844  75.9343177  80.6274578  72.9419307  76.1870454  80.0315309
  72.2461451  76.4385549  80.8319842  72.6157029  75.2692724  79.5422791
  73.1374182  77.3239852  79.0532204  73.0074477  78.2869661  79.5470570
  72.4363085  77.2447498  78.2223965  74.5808039  77.1318290  78.5717033
  75.0462305  78.0707633  78.2719043  74.6819660  76.4035638  77.7670321
  75.2450767  76.6056784  79.8340096  75.9896457  75.8721268  79.5247889
  75.9181588  77.6983535  80.6419177  75.2940117  78.3080079  81.5264328
  77.1894559  77.9859335  80.3751229  78.2312469  77.2343295  79.6923945
  78.1780292  77.4584107  78.6270046  78.0501398  76.1709476  79.8489770
  79.5273285  77.6967688  80.3190039  80.3612940  77.5587645  79.6308503
  79.7258020  77.1538441  81.2430939  79.2738603  79.1828086  80.6008418
  79.4084792  79.7929854  79.7077231  79.8717725  79.5935756  81.4143964
  77.8053463  79.1614039  80.9957664  77.7640964  79.0583686  82.0801005
  77.0619827  80.4184399  80.5787619  76.6482016  80.5589287  79.4270531
  76.8926883  81.3401901  81.5276687  77.3184371  81.2521390  82.4393069
  76.0162019  82.4784913  81.2813521  75.0320841  82.1268340  80.9715963
  75.8583941  83.3167438  82.5511782  75.3449609  84.2086193  82.1919516
  75.2006435  82.7652743  83.2230008  77.1255701  83.7262280  83.3017763
  77.7846197  82.8605227  83.3674170  77.8473627  84.8590240  82.5923669
  77.1890594  85.7252977  82.5267520  78.7438327  85.1261376  83.1519138
  78.1278618  84.5396420  81.5886659  76.7724404  84.1222419  84.7241913
  76.3088347  83.2769527  85.2327730  77.6780626  84.4135285  85.2562646
  76.0765239  84.9609774  84.7062505  76.5167949  83.3518158  80.1401194
  75.7486382  84.1674835  79.6176105  77.7798519  83.2006915  79.7347007
  78.4206929  82.5852606  80.2149787  78.2822273  83.9802918  78.6099481
  78.1083301  85.0376246  78.8097136  79.7840498  83.7550427  78.4463446
  79.9733679  82.7022708  78.2367498  80.1551349  84.3618552  77.6204059
  80.2969129  84.0400285  79.3649597  77.5518432  83.6331670  77.3199589
  77.4020003  84.4908926  76.4427640  77.0900011  82.3901695  77.1830200
  77.1932737  81.7323517  77.9424342  76.4821877  81.9251047  75.9452569
  76.7701039  82.5767788  75.1203179  76.9528839  80.5003595  75.6312949
  78.0355538  80.5159293  75.5060644  76.6943292  79.8594793  76.4742196
  76.3481636  79.9964111  74.4518542  76.6643893  79.1053380  74.2857523
  74.9615427  81.9561876  75.9845576  74.3300587  81.7465954  74.9443153
  74.3629681  82.1942388  77.1508796  74.9148451  82.2526391  77.9947520
  72.9128141  82.3202305  77.2621827  72.4829949  82.5060592  76.2778949
  72.3008962  81.0349009  77.8289385  71.2155419  81.1212407  77.8804245
  72.5677909  80.1805009  77.2069514  72.8498513  80.6293682  79.4976364
  72.1324273  79.5154290  79.6131376  72.4655401  83.4905140  78.1206212
  71.3319284  83.9521729  77.9501257  73.2965131  83.9874819  79.0338307
  74.1803442  83.5297722  79.2054225  72.9778427  85.1735835  79.7998739
  73.9052560  85.5283431  80.2494842  72.6046893  85.9212952  79.1000288
  71.9536992  84.9647789  80.8872725  71.5093995  85.9423981  81.4956757
  71.5683823  83.7230277  81.1534507  71.9709243  82.9727017  80.6102471
  70.5706755  83.3885189  82.1593782  70.2274007  84.2788364  82.6862522
  69.3514985  82.6792615  81.5470338  69.6874120  81.7856466  81.0209979
  68.3675940  82.2867501  82.6322783  68.0308563  83.1799523  83.1584897
  67.5103784  81.7858602  82.1823992  68.8533685  81.6119214  83.3370698
  68.6854087  83.5715459  80.5148139  69.3963309  83.8042428  79.7220063
  67.8240252  83.0561701  80.0899542  68.3570099  84.4957055  80.9904020
  71.2387132  82.4992261  83.2003305  71.7778553  81.4448923  82.8534514
  71.2394572  82.8643021  84.4783665  71.0113051  84.1461925  85.0797496
  70.0314606  84.4952052  84.7538737  71.7795296  84.8262892  84.7117841
  71.0879743  83.9454556  86.5763696  70.1130261  83.6740632  86.9812416
  71.4472257  84.8484473  87.0699745  72.0959821  82.8004377  86.7290005
  71.9172190  82.2110653  87.6283241  73.1367939  83.1234910  86.7078594
  71.7861704  81.9675199  85.4951266  72.7307725  81.5587867  85.1362918
  70.8199492  80.8323233  85.7790341  69.6415486  80.9049917  85.4033210
  71.2766621  79.7643889  86.4356819  72.5667318  79.5001040  86.9825620
  72.6375682  79.9854521  87.9559682  73.3197901  79.9168125  86.3137150
  72.6504431  77.9930495  87.0775423  73.3533179  77.6920943  87.8543898
  72.9563264  77.5614558  86.1245136  71.2168528  77.5809645  87.4297209
  70.9615318  77.6599237  88.4864496  71.0022403  76.5714715  87.0790572
  70.4124250  78.5909991  86.6267857  70.2395603  78.1554738  85.6426446
  69.0769489  78.9034792  87.2837215  69.0182465  79.2663203  88.4617267
  67.9968645  78.7566498  86.5168389  68.1218289  78.6285718  85.5228171
  66.6331427  78.8498114  87.0380890  65.9240751  78.8703047  86.2105008
  66.3114824  77.6493321  87.9270621  67.0295818  77.5912598  88.7450231
  65.3042706  77.7382718  88.3341421  66.3699731  76.3332511  87.2105660
  65.4023880  75.9903585  86.2844377  64.5918353  76.6889711  86.0769655
  65.4547211  74.7812712  85.6267926  64.6875847  74.5227777  84.8968724
  66.4787864  73.8977040  85.8926297  66.5215397  72.9401273  85.3736702
  67.4476104  74.2250634  86.8138402  68.2589481  73.5287589  87.0259522
  67.3902541  75.4361120  87.4684985  68.1550797  75.6969782  88.1999973
  66.4035376  80.1534700  87.7985005  65.7211151  80.1854086  88.8238470
  66.9755223  81.2426667  87.2939880  67.5677382  81.1778703  86.4784015
  66.7972252  82.5463815  87.9152503  65.8431603  82.5651651  88.4420393
  67.9148504  82.8537549  88.9159262  68.8596601  82.6540264  88.4104142
  67.8476752  83.9154955  89.1531908  67.8464114  82.0461999  90.1941672
  66.9891389  82.3819286  90.7776660  67.7236992  80.9928454  89.9421988
  69.0936517  82.1997126  91.0355295  69.9740489  82.9994241  90.7188495
  69.1789042  81.4319641  92.1149179  69.9909433  81.4941672  92.7122660
  68.4313435  80.7890934  92.3339421  66.7663276  83.6142939  86.8354213
  67.5215884  83.5446075  85.8636724  65.8956991  84.5989237  87.0153661
  65.2520914  84.5997726  87.7937411  65.8219338  85.6905818  86.0593817
  65.6828511  85.2914399  85.0546723  64.6477304  86.6126764  86.3853834
  64.7278607  86.8847793  87.4378274  64.7531762  87.5064907  85.7705036
  63.2919104  85.9791472  86.1285667  63.2162126  85.7496241  85.0656980
  63.2300185  85.0557678  86.7044504  62.1555554  86.9014129  86.5286323
  62.2404894  87.1181574  87.5934830  62.2423402  87.8282978  85.9616648
  60.8081105  86.2619857  86.2488358  60.7321881  86.0834752  85.1762360
  60.7662403  85.3104512  86.7788623  59.6784203  87.1246019  86.6889204
  59.7167859  88.0062023  86.1975869  58.8033525  86.6633214  86.4850170
  59.7483459  87.2897834  87.6828643  67.1318966  86.4730021  86.0759348
  67.7410190  86.6409919  87.1388531  67.5962642  86.9614387  84.9313802
  67.0657725  86.9225562  83.6104124  66.0140110  87.2029845  83.6674898
  67.1488379  85.8972336  83.2499785  67.8814462  87.8921202  82.7842483
  67.4592702  88.8957472  82.8352322  67.9281623  87.5705851  81.7437993
  69.2669747  87.8337805  83.4377359  69.8361612  88.7563045  83.3233891
  69.8646338  86.9927711  83.0861588  68.8971463  87.6324924  84.8984457
  69.6395555  86.9607527  85.3293665  68.8819426  88.9357630  85.6776964
  67.8674436  89.6322941  85.7557371  70.0353838  89.2578479  86.2645393
  70.8141996  88.6149528  86.2797391  70.1834543  90.5395720  86.9445515
  69.3018662  90.7437198  87.5521907  71.4089860  90.5101417  87.8566359
  72.1388900  89.9386017  87.2833284  71.7550394  91.5383709  87.9619534
  71.2457817  89.8844738  89.2392541  70.6118389  90.5342121  89.8426258
  70.6166273  88.5083036  89.1479287  71.2502759  87.8578229  88.5450497
  70.5133267  88.0883331  90.1484558  69.6332517  88.5878337  88.6845199
  72.6013732  89.8085551  89.9181533  73.0148356  90.8121033  90.0183500
  72.4889970  89.3621358  90.9061728  73.2750602  89.1968355  89.3181167
  70.3057064  91.6790683  85.9427669  69.6894922  92.7366299  86.1140343
  71.0949579  91.4791246  84.8915973  71.5603054  90.5918817  84.7637256
  71.3443222  92.5339488  83.9231014  71.6517653  93.4470656  84.4328029
  72.4524167  92.1161910  82.9600526  72.0861445  91.3092740  82.3253639
  72.8697866  93.2856682  82.0973385  73.2366338  94.0928620  82.7313423
  73.6605592  92.9713741  81.4161652  72.0134745  93.6370435  81.5216949
  73.5849100  91.6519515  83.7039145  74.2808058  91.3896440  83.0968525
  70.0723570  92.8578641  83.1468866  69.2507124  91.9843563  82.8633140
  69.9151992  94.1334436  82.8031274  70.6082664  94.8269606  83.0455967
  68.7217749  94.5692715  82.1045778  67.8359103  94.1634925  82.5931333
  68.6306900  96.0918339  82.1165513  68.9504246  96.4516028  83.0945265
  69.2970314  96.4860630  81.3493013  67.3078598  96.5289434  81.8624637
  67.2797868  97.4884396  81.8758323  68.7333731  94.0530399  80.6663523
  69.7942790  93.7718164  80.1066800  67.5564791  93.9150924  80.0446764
  66.2206880  94.0925444  80.5116956  65.9617352  95.1479786  80.4274194
  66.1766143  93.7905905  81.5581087  65.3715454  93.2136216  79.6219667
  64.3470511  93.5830075  79.5765298  65.3706223  92.1846978  79.9817115
  66.0646065  93.3159149  78.2580798  65.8065665  94.2021141  77.6782820
  65.8865384  92.4243964  77.6567596  67.5260543  93.3777920  78.6740023
  67.8911554  92.3518215  78.7207351  68.3644759  94.1682321  77.6842590
  68.9924578  93.5701526  76.8015650  68.3815786  95.4987133  77.7909230
  67.8746716  95.9754533  78.5229500  69.0902012  96.3049265  76.8018277
  68.7285103  96.0712063  75.8005017  68.8532966  97.7900357  77.0722735
  69.1969696  98.0206089  78.0806504  69.4272299  98.3722537  76.3513555
  67.4803721  98.1161741  76.9557830  67.3579752  99.0522953  77.1298401
  70.5816874  95.9964504  76.7958104  71.1951736  95.8726950  75.7293488
  71.1861583  95.8792833  77.9776106  70.6953621  96.0616889  78.8412926
  72.6060800  95.5539801  78.0447395  73.1794129  96.2444205  77.4261276
  73.0942964  95.6698897  79.4857099  72.5625313  94.9248424  80.0775118
  74.1610086  95.4459339  79.4940150  72.8623671  97.0461616  80.0794213
  73.1753536  97.7887994  79.3455075  71.7954998  97.1556776  80.2741069
  73.6335506  97.2522862  81.3658993  73.3827345  96.4600443  82.0712667
  74.7030329  97.2268379  81.1569511  73.3063686  98.5374999  81.9712865
  73.8598243  99.3323113  81.6848239  72.3468058  98.7244950  82.8681466
  71.5905246  97.7259815  83.2941839  71.7394584  96.7943063  82.9337676
  70.8677538  97.9000246  83.9778586  72.1346317  99.9474545  83.3436971
  72.7022985 100.7174615  83.0197471  71.4067217 100.1010912  84.0268087
  72.8835797  94.1664821  77.4835290  73.8923067  93.9568789  76.7981631
  72.0029807  93.2033570  77.7575245  71.2544306  93.3406569  78.4215432
  72.1418012  91.8916673  77.1327989  73.0995241  91.4491867  77.4068008
  71.0226720  90.9620430  77.6006036  70.1243050  91.5684504  77.4852519
  70.9831056  90.1198646  76.9097562  71.1041980  90.4404867  79.0350758
  71.1665249  91.2857716  79.7204295  69.8720446  89.6144792  79.3612468
  69.8092869  88.7686898  78.6765567  69.9404394  89.2478525  80.3854576
  68.9808909  90.2332660  79.2561356  72.3681446  89.6215199  79.2429063
  73.2412658  90.2436700  79.0462135  72.4034196  89.2614291  80.2711046
  72.3672123  88.7714752  78.5606146  72.1322023  92.0135856  75.6159259
  72.9971313  91.4565187  74.9301684  71.1593677  92.7450605  75.0733283
  70.4413193  93.1742364  75.6392911  71.0770653  92.8905105  73.6258775
  70.9860357  91.9105969  73.1572817  69.8548839  93.7260361  73.2512103
  68.9704348  93.2705646  73.6966255  69.9842850  94.7324168  73.6493979
  69.6944600  93.7918678  71.8450267  68.9214575  94.3212104  71.6355911
  72.3480518  93.5188735  73.0728087  72.8505920  93.1040681  72.0219006
  72.8855461  94.5224304  73.7673154  72.4390669  94.9024387  74.5897199
  74.1279077  95.1341462  73.3100457  74.0346193  95.4111026  72.2599545
  74.4459634  96.3886991  74.1189057  73.5315177  96.9769739  74.1952017
  74.7585739  96.0732852  75.1143396  75.5416673  97.2347705  73.4879840
  76.4294296  96.6116057  73.3800737  75.1987163  97.5513811  72.5029741
  75.8793810  98.4543295  74.3208228  76.7017937  98.9930849  73.8502074
  75.0053985  99.1032728  74.3767388  76.2754343  98.0872918  75.6736517
  76.1174181  97.1303372  75.9553753  76.8210049  98.9223976  76.5476271
  77.0464544 100.1904916  76.2441869  76.8006331 100.5388782  75.3286003
  77.4633166 100.8041552  76.9295646  77.1513571  98.4735316  77.7549965
  76.9847138  97.5064450  77.9938974  77.5673880  99.1017598  78.4275635
  75.2967629  94.1643223  73.3986128  76.2508545  94.2766164  72.6207695
  75.2542618  93.2174597  74.3358529  74.4964244  93.1633301  75.0013240
  76.3468093  92.2605274  74.4537449  77.3022552  92.7722674  74.3382266
  76.3161811  91.5866670  75.8261618  76.3898154  92.3649059  76.5857811
  75.3598379  91.0730151  75.9244951  77.4456869  90.5913484  76.0113708
  78.4093124  90.6245449  75.2197920  77.3704494  89.7748957  76.9530354
  76.2904484  91.2057827  73.3580793  77.3391230  90.7327838  72.9053115
  75.0882635  90.8291651  72.9228650  74.2516869  91.2430802  73.3087579
  74.9417581  89.7786516  71.9253323  75.6279680  88.9592800  72.1394478
  73.5128928  89.2378021  71.9493107  72.7986205  90.0611448  71.9447279
  73.3378987  88.6008442  71.0822688  73.2050283  88.4112228  73.1563584
  71.9177650  88.1042388  73.5383729  71.9506707  87.3685065  74.6354185
  71.0270390  87.0232053  75.0999297  73.2125000  87.1850547  74.9761930
  73.5426722  86.6595601  75.7730253  74.0177425  87.8276931  74.0677319
  75.1014171  87.7930876  74.1797721  75.2869271  90.2569371  70.5219232
  75.5058758  89.4242905  69.6357380  75.3404932  91.5712478  70.2998533
  75.1251315  92.2223294  71.0413460  75.6535690  92.1052189  68.9812918
  75.0137722  91.6050064  68.2542796  75.3585402  93.6030241  68.9420016
  75.9980832  94.1187527  69.6583177  75.5532698  93.9860672  67.9402737
  74.3133845  93.7748702  69.1993297  77.0991789  91.8620719  68.5753789
  77.4400144  92.0829384  67.4093063  77.9533506  91.4218339  69.4990711
  77.6526313  91.2892209  70.4541005  79.3499706  91.1667902  69.1730923
  79.6997101  91.8684792  68.4158512  80.2197292  91.3208125  70.4206175
  81.2617721  91.1540765  70.1477698  80.0674495  92.7132327  71.0108403
  79.0256792  92.8805395  71.2843780  80.6944023  92.8029510  71.8979592
  80.3729090  93.4561435  70.2740374  79.8373296  90.3470407  71.3978938
  80.3852000  90.4463133  72.1799317  79.5723151  89.7835021  68.5771662
  80.5673571  89.5806063  67.8746907  78.6811423  88.8343582  68.8372792
  77.9029611  89.0107390  69.4564909  78.8275638  87.5016580  68.2773747
  79.8583035  87.1649200  68.3882013  77.9112325  86.5158603  69.0013504
  76.9073427  86.8197146  68.7047412  78.1128735  85.5130215  68.6248462
  78.0141037  86.5173546  70.5291148  78.0892053  87.5472132  70.8781878
  76.7916400  85.8626372  71.1453183  76.7161225  84.8325373  70.7970511
  76.8821093  85.8726877  72.2315112  75.8973538  86.4117401  70.8506345
  79.2777476  85.8187844  70.9849183  80.1464000  86.3337139  70.5745647
  79.3286268  85.8325641  72.0736435  79.2691962  84.7864656  70.6351416
  78.5144014  87.5206036  66.7835634  77.9140721  88.4618905  66.2601699
  78.9292470  86.4618842  66.0904182  79.4589798  85.7243231  66.5325563
  78.6939550  86.3782348  64.6564104  78.9993418  87.3083230  64.1770627
  79.4960757  85.2311167  64.0500735  79.3411567  85.2234058  62.9711667
  80.5514909  85.3999109  64.2638661  79.1005793  83.8810027  64.6047164
  77.9609834  83.6681430  65.0121265  80.0481106  82.9538979  64.6154515
  79.8442721  82.0319782  64.9740788  80.9694744  83.1737605  64.2649519
  77.2003040  86.2210736  64.3670022  76.3595773  86.1778985  65.2674219
  76.8732556  86.1329986  63.0763651  77.5823608  86.0744698  62.3595363
  75.4776537  86.1190933  62.6682552  75.0106425  87.0217614  63.0621969
  75.4531706  86.1437723  61.5788099  74.7005559  84.9100047  63.1520658
  73.5091866  85.0171218  63.4512151  75.3489454  83.7492814  63.2315800
  76.3335789  83.6957906  63.0130969  74.6491024  82.5169524  63.5752280
  73.6206403  82.5900295  63.2216398  75.3215222  81.3303105  62.8815036
  76.3494938  81.2386203  63.2321708  74.7758649  80.4158695  63.1142181
  75.3188710  81.4899660  61.8032633  74.6009952  82.2878370  65.0822641
  73.5255837  82.0410216  65.6450202  75.7597100  82.3368460  65.7397237
  76.6406155  82.4261149  65.2537855  75.7817979  82.1976215  67.1887401
  75.3613089  81.2341673  67.4769142  77.2182749  82.2765837  67.7024049
  77.7105588  81.4218891  67.2384514  77.6614104  83.1986848  67.3262924
  77.3985437  82.2065554  69.2197711  76.9348979  83.0851013  69.6684252
  76.7594009  80.9547274  69.7846730  77.2228780  80.0756939  69.3368028
  76.9018005  80.9292551  70.8650314  75.6929701  80.9571916  69.5592405
  78.8708983  82.2562123  69.5761813  79.3029573  83.1871079  69.2089515
  78.9850489  82.2055674  70.6590045  79.3850290  81.4117232  69.1172622
  74.9182890  83.2579089  67.8513434  74.3631616  83.0207291  68.9254874
  74.7865031  84.4282930  67.2244196  75.3158992  84.6332658  66.3890602
  73.9151459  85.4678465  67.7640696  74.2030895  85.7064070  68.7879234
  74.0366128  86.7335868  66.9148033  75.0795230  87.0463492  66.9659633
  73.7930556  86.4487215  65.8912645  73.1438774  87.8802555  67.3458012
  72.1027465  87.5613644  67.2962455  73.3925409  88.1489940  68.3724696
  73.3178733  89.1051928  66.4684489  74.0096996  89.0602376  65.4522204
  72.6843897  90.2044861  66.8545238  72.7657331  91.0492363  66.3069092
  72.1235176  90.1918662  67.6943837  72.4698201  84.9917752  67.8184260
  71.7987644  85.1212157  68.8491745  71.9732622  84.4267642  66.7169675
  72.5108133  84.3712632  65.8637045  70.6054450  83.9217601  66.7063446
  69.9178173  84.7045053  67.0266214  70.2176281  83.4779740  65.2983883
  70.3207023  84.3111493  64.6031949  70.8523487  82.6536023  64.9733634
  68.8018180  82.9989060  65.1866368  67.7581724  83.7658374  65.6649278
  67.9733417  84.7288141  66.1280454  66.4560737  83.3263249  65.5620123
  65.6411439  83.9423691  65.9421171  66.1850921  82.1110279  64.9799914
  65.1559681  81.7613719  64.8978677  67.2142887  81.3363545  64.5011630
  67.0023560  80.3724626  64.0384568  68.5148557  81.7789562  64.6063393
  69.3319993  81.1640518  64.2291539  70.4374060  82.7697808  67.6862036
  69.4246673  82.6856580  68.3920129  71.4184268  81.8680721  67.7406595
  72.2177195  81.9140904  67.1249381  71.3208912  80.7417447  68.6660002
  70.3995693  80.1946115  68.4662240  72.5028645  79.7960882  68.4668073
  73.4323382  80.3271523  68.6721108  72.4105279  78.9498447  69.1475762
  72.5107732  79.4351764  67.4383232  71.2567689  81.2256910  70.1114286
  70.4302794  80.7543880  70.9036366  72.1250989  82.1706440  70.4718780
  72.8226495  82.5077717  69.8239061  72.1301845  82.6992887  71.8279233
  72.1937828  81.8896651  72.5549475  73.3292672  83.6224532  72.0202510
  73.3082192  84.3935370  71.2501296  73.2890256  84.2734263  73.3872143
  73.3105140  83.5029326  74.1579136  74.1528790  84.9277784  73.5041747
  72.3746798  84.8587178  73.4847145  74.5392287  82.8665159  71.8895289
  75.2940083  83.4472636  72.0105250  70.8355209  83.4353191  72.1372378
  70.3103056  83.3339283  73.2495736  70.3068091  84.1885396  71.1713695
  70.7751252  84.3373643  70.2889691  69.0442393  84.8774348  71.4084811
  69.1197900  85.4979567  72.3014222  68.7046896  85.7729732  70.2192805
  69.6130897  86.3141402  69.9546168  68.4189858  85.1188949  69.3954754
  67.5848780  86.7650469  70.4900513  66.6708533  86.2050972  70.6878288
  67.8500260  87.3496425  71.3709863  67.3614660  87.6998910  69.3094601
  67.2347999  87.0951233  68.4115120  66.4524157  88.2728999  69.4921833
  68.5314728  88.6532327  69.1175158  68.7391255  89.1338945  70.0735206
  69.3988109  88.0696589  68.8088647  68.2430808  89.6926147  68.0924187
  67.4396787  90.2337586  68.3784400  69.0427734  90.3020645  67.9966972
  68.0510578  89.2474492  67.2063860  67.9334758  83.8712946  71.6706858
  67.1221381  84.0514489  72.5866386  67.8863925  82.7992012  70.8788096
  68.5164626  82.7077090  70.0947559  66.8910723  81.7536976  71.0921024
  65.8861942  82.1671555  71.0062425  67.0605858  80.6602553  70.0391245
  67.0028680  81.1475964  69.0658483  68.0574700  80.2414260  70.1766158
  66.0323933  79.5495162  70.1091807  66.1989953  78.9193652  70.9828249
  65.0555717  80.0268538  70.1870937  66.0467293  78.6762405  68.8731657
  66.3658756  79.1378538  67.7787838  65.7509427  77.3964472  69.0498391
  65.7457200  76.7686224  68.2586943  65.5321244  77.0548942  69.9748047
  67.0162490  81.1723754  72.4949414  66.0295462  81.0720174  73.2370350
  68.2344345  80.7711221  72.8688782  69.0316022  80.8694452  72.2565420
  68.4317095  80.1283004  74.1626455  67.7892127  79.2514824  74.2431888
  69.8846965  79.6844496  74.3172908  70.4496986  80.5598450  73.9970492
  70.0551803  79.5113754  75.3798729  70.3442965  78.4637278  73.5228526
  70.3607134  78.7063799  72.4603315  71.7351936  78.0636100  73.9706708
  71.7194778  77.8203478  75.0330621  72.0634003  77.1923874  73.4037913
  72.4248370  78.8898131  73.7978101  69.3851100  77.3004978  73.6790940
  68.3981700  77.5919321  73.3197683  69.7460053  76.4509201  73.0993755
  69.3204153  77.0209648  74.7306523  68.0451315  81.0633136  75.2991953
  67.4153094  80.6389107  76.2742375  68.4264650  82.3379754  75.2056266
  68.9695691  82.6708385  74.4218286  68.1129934  83.2745814  76.2758522
  68.3886101  82.8452297  77.2390716  68.8893021  84.5740948  76.0810808
  69.8883057  84.3335038  75.7174778  68.3708348  85.1835809  75.3409333
  68.9902492  85.2926740  77.2965081  69.4814939  86.1041024  77.1486483
  66.6187304  83.5567480  76.3429194  66.0769324  83.7577191  77.4342716
  65.9395157  83.5810923  75.1957356  66.4086053  83.5007239  74.3048960
  64.4968180  83.7797141  75.2009054  64.2395294  84.6231246  75.8416555
  64.0003098  84.0723516  73.7856952  64.5778382  84.9163720  73.4086147
  64.2098492  83.1901604  73.1807720  62.5189525  84.3982912  73.7088064
  61.9553693  83.4723491  73.8232885  62.2719284  85.0767047  74.5254067
  62.1597085  85.0485341  72.3849571  61.0813564  85.2023148  72.3448658
  62.6663904  86.0108395  72.3118733  62.5562823  84.2247953  71.2504275
  63.3914498  84.4982814  70.7526324  61.8960752  83.1514896  70.8370216
  60.7949530  82.7383592  71.4446252  60.4415059  83.2461741  72.2429354
  60.3133501  81.9172406  71.1071010  62.3510645  82.4743040  69.7868647
  63.1903113  82.7818304  69.3165537  61.8552912  81.6555685  69.4644058
  63.7649793  82.5718080  75.7663998  62.6541449  82.7138228  76.2891653
  64.3599915  81.3829054  75.6717680  65.2628742  81.2846641  75.2298962
  63.6847081  80.1750177  76.1455100  62.6030921  80.3053031  76.1104153
  64.0627803  78.9841364  75.2616976  65.1332253  78.7999774  75.3529838
  63.2989864  77.7451046  75.6870668  62.2284008  77.9283551  75.5956041
  63.5795848  76.9075661  75.0484018  63.5391765  77.5075109  76.7233865
  63.7550584  79.2838148  73.8962083  63.9927100  78.5360247  73.3430971
  63.9939843  79.8570724  77.6095534  63.0799219  79.7707969  78.4342549
  65.2725330  79.6769015  77.9447873  66.0162796  79.8464747  77.2828317
  65.6261581  79.1749976  79.2700309  65.1821807  78.1916923  79.4252531
  67.1417962  79.0521266  79.4018556  67.5082559  80.0296985  79.0885509
  67.3745279  78.8980314  80.4555115  67.8152220  77.9659125  78.5684916
  67.5617770  78.1091704  77.5180899  69.3204161  78.0419035  78.7399881
  69.5746814  77.8982651  79.7901386  69.7944964  77.2634854  78.1421469
  69.6752428  79.0186459  78.4110921  67.2987269  76.5944853  78.9543919
  66.2227671  76.5501909  78.7857261  67.7926512  75.8356473  78.3475106
  67.5087325  76.4097851  80.0079015  65.0904782  80.0592503  80.3886364
  64.7368484  79.5531266  81.4585498  65.0184584  81.3728420  80.1687182
  65.2187896  81.7649106  79.2597358  64.7060724  82.2865352  81.2625833
  65.4243231  82.1586602  82.0724370  64.7746138  83.7330538  80.7726985
  64.4711641  84.3927672  81.5855919  65.8023455  83.9577936  80.4874623
  63.9221306  83.9325302  79.6602816  63.9819772  84.8459542  79.3710155
  63.3415452  82.0192294  81.8812788  63.0869436  82.4724947  83.0024954
  62.4587417  81.2995272  81.1882011  62.6741122  81.0308246  80.2387203
  61.1522885  80.9435448  81.7276700  60.9617311  81.5063475  82.6414753
  60.0547126  81.2706373  80.7144989  59.1141841  81.3032361  81.2644468
  60.2758793  82.2603669  80.3149734  59.9379188  80.2774072  79.5703585
  60.9340439  80.0917493  79.1686537  59.5242785  79.3469046  79.9591626
  59.0385160  80.8092038  78.4674732  58.7881029  79.9940207  77.7886000
  58.1252999  81.2041454  78.9126213  59.6837269  81.8716742  77.7040771
  60.6611912  81.7411509  77.4858422  59.0835706  82.9797327  77.2855512
  57.8013583  83.2077783  77.5202504  57.2557205  82.5277918  78.0301501
  57.3742869  84.0607627  77.1883960  59.7895687  83.8828912  76.6116126
  60.7686152  83.7181571  76.4260572  59.3435006  84.7294444  76.2883951
  61.0755514  79.4764741  82.1348115  59.9795357  78.9129497  82.2038461
  62.2138359  78.8480052  82.4112248  63.0998558  79.3276231  82.3402694
  62.2187992  77.4430907  82.7817105  61.4786780  76.9115799  82.1835332
  63.5916397  76.8242659  82.5226777  64.3421339  77.3400627  83.1216869
  63.5723846  75.7690627  82.7952137  63.8411217  76.9216008  81.4660870
  61.8435764  77.2665843  84.2500208  61.9100974  78.1987624  85.0556050
  61.4421001  76.0428999  84.5880493  61.3479907  75.3438866  83.8651226
  61.0957418  75.6742497  85.9549663  61.5455828  76.3759457  86.6573658
  59.5791414  75.6866065  86.1552917  59.3493434  75.2919853  87.1450226
  59.0369203  77.1019630  86.0359755  59.2659448  77.4971108  85.0462758
  57.9567058  77.0912282  86.1813049  59.4988200  77.7337182  86.7946814
  58.9546421  74.8556303  85.1686788  58.0033695  74.8658062  85.2974316
  61.6582330  74.2897326  86.2573073  61.3308101  73.3284858  85.5499992
  62.4955559  74.1344371  87.2822759  62.9109453  75.0234843  88.3225526
  62.0329352  75.5787915  88.6524503  63.6380349  75.7144208  87.8958836
  63.5032716  74.1683766  89.4198713  62.7313684  73.8444078  90.1179463
  64.2761260  74.7140586  89.9611925  64.1036468  72.9803952  88.6579357
  64.1297380  72.0700161  89.2567915  65.0969507  73.1782589  88.2550747
  63.1051298  72.8234443  87.5222438  63.6681225  72.5307880  86.6359652
  62.0433514  71.7762805  87.8157460  61.1015165  72.0178954  88.5730196
  62.2010702  70.6058294  87.2067845  62.9578854  70.4724048  86.5514007
  61.2561353  69.5107221  87.4052183  60.2799084  69.9023908  87.6910079
  61.1128811  68.6540814  86.1361332  60.9806975  69.3158566  85.2801650
  62.3429512  67.7890542  85.9217211  62.4755340  67.1266377  86.7771315
  62.2157789  67.1933448  85.0178084  63.2214762  68.4255658  85.8161472
  59.8647300  67.7745885  86.2264220  59.9586406  66.9997167  85.4655967
  59.8633228  67.3145397  87.2145782  58.5687857  68.5298328  86.0198469
  58.5692605  68.9898033  85.0316532  57.7288850  67.8395383  86.0983301
  58.4739439  69.3046283  86.7806339  61.7231320  68.6796744  88.5948548
  62.8611373  68.2135332  88.6187535  60.8820264  68.4627279  89.6121476
  59.5541978  68.9155099  89.8565280  58.9739323  68.7403002  88.9506065
  59.6018849  69.9861422  90.0554534  59.0334255  68.1316421  91.0405540
  58.5674558  67.2016503  90.7148446  58.3116978  68.7200933  91.6070659
  60.2953790  67.8649766  91.8715340  60.2317399  66.9548124  92.4678981
  60.5653357  68.7022752  92.5150821  61.3375757  67.6943616  90.7778255
  62.2630943  68.1397043  91.1427686  61.5811419  66.2365893  90.4294226
  60.6411272  65.5006742  90.1125217  62.8386635  65.8136502  90.4805693
  63.5713822  66.4614470  90.7327241  63.2139258  64.4497430  90.1236527
  62.9934043  64.2644182  89.0724038  64.7134829  64.2423950  90.3529352
  64.9476467  63.2259194  90.0366380  65.2360491  64.9515851  89.7110053
  65.1591405  64.4400896  91.7953069  64.3404398  64.1305864  92.4449513
  66.0233535  63.7993252  91.9703958  65.5275192  65.8780512  92.0979279
  64.7132316  66.7743834  91.7913429  66.6275110  66.1133363  92.6406581
  62.4161391  63.4061032  90.9052430  62.0022417  63.6946926  91.9940455
  62.1811157  62.2811338  90.4630146  62.1649409  62.1468426  89.4621132
  61.8431827  61.1393876  91.3248469  60.9978093  61.4086923  91.9580278
  61.4684206  59.8998854  90.5100822  62.2610767  59.7556550  89.7759207
  61.4303838  59.0384920  91.1769065  60.1414769  60.0445530  89.7973468
  58.9322570  59.9603387  90.4913626  58.9661342  59.8008242  91.5690950
  57.7152987  60.0735677  89.8478864  56.7780160  60.0152968  90.4012466
  57.6990856  60.2734422  88.4743488  56.4945182  60.3787412  87.8222365
  55.7407916  60.2996058  88.4115017  58.8747833  60.3590559  87.7552672
  58.8549932  60.5192537  86.6772851  60.0937776  60.2387790  88.4194843
  61.0273765  60.2964323  87.8598692  63.0031041  60.8301838  92.2797340
  64.1784329  61.1810985  92.0321173  62.6800169  60.1617572  93.3966039
  61.7346312  59.8449366  93.5577559  63.6720505  59.9210283  94.4290399
  64.0403974  60.8711413  94.8159571  63.0574107  59.1227557  95.5903855
  62.6211749  58.2817247  95.0514380  63.8919974  58.7713130  96.1970593
  61.9925130  59.7550301  96.5014569  61.1764117  60.1375431  95.8884616
  61.4536417  58.7145454  97.4700736  62.2691410  58.3318790  98.0837723
  60.6998333  59.1707050  98.1117840  61.0050416  57.8939833  96.9101306
  62.5206768  60.9808289  97.2615030  62.8447861  61.7390758  96.5486817
  61.7286974  61.3884334  97.8897772  63.3638911  60.6861012  97.8861823
  64.8968041  59.1763123  93.8971267  66.0040075  59.3469462  94.3809229
  64.7027217  58.3292172  92.8764775  63.7488934  58.1260992  92.6136964
  65.8001253  57.5859019  92.1886957  65.3917575  57.0798996  91.3138834
  66.9429419  58.5267359  91.7282571  67.2210612  59.1726856  92.5610222
  67.8003352  57.9194789  91.4380578  66.5039847  59.3826547  90.5466338
  66.2518998  58.7733254  89.6787215  65.6563723  60.0186177  90.8019894
  67.7137471  60.2542361  90.2217545  67.6461252  61.1927068  90.7720262
  68.6271832  59.7318926  90.5061682  67.7384590  60.5342369  88.7744204
  67.7115983  59.6156713  88.1882324  66.9113013  61.1787755  88.4769658
  69.0467707  61.2492563  88.5298617  69.8133800  60.6520159  88.8050231
  69.1297882  61.4730424  87.5484709  69.0716841  62.1006643  89.0726165
  66.3735256  56.4311177  93.0209544  67.5956004  56.2808304  93.1731482
  65.4977646  55.6024121  93.5692654  64.5032033  55.7520644  93.4767923
  65.9637838  54.4470191  94.3778190  67.0225318  54.5717503  94.6049622
  65.1889518  54.3302159  95.6986132  64.1314110  54.2361307  95.4519255
  65.5269972  53.4226107  96.1986913  65.3922257  55.5368363  96.6332094
  65.0857323  56.4506379  96.1241620  64.7710775  55.3877303  97.5164107
  66.8486545  55.6904374  97.0796361  67.4433842  54.7428982  97.6073368
  67.4377004  56.8670471  96.8556015  68.3978139  57.0090180  97.1351151
  66.9206180  57.6100208  96.4075867  65.7849467  53.1879126  93.5199955
  64.7157309  52.9477395  92.9105799  66.8344094  52.3618113  93.4604503
  67.6584192  52.5770475  94.0033872  66.8798752  51.2251469  92.5656118
  65.9317848  51.1229109  92.0376236  68.0344069  51.3774390  91.5331884
  68.9780997  51.4677177  92.0711419  68.0923905  50.1736622  90.6080478
  67.1491489  50.0829949  90.0693684  68.9066507  50.3017816  89.8948392
  68.2630284  49.2713580  91.1952693  67.8518204  52.6554228  90.7071299
  66.9644261  52.5095676  90.0912091  67.6736973  53.4658691  91.4139173
  69.0433755  53.0126201  89.8099363  69.2218280  52.2027901  89.1025256
  68.8252222  53.9301939  89.2635237  69.9311002  53.1590894  90.4252343
  66.9849012  49.8856897  93.3350985  68.0337176  49.5534760  93.9113139
  65.8976668  49.0958122  93.3548970  64.5074640  49.3022783  92.9558592
  64.4096882  49.0445324  91.9012943  64.2610891  50.3547154  93.0964815
  63.6953793  48.3949481  93.8533471  62.7485699  48.1305609  93.3824432
  63.5019728  48.8727575  94.8137602  64.5976760  47.1669162  94.0247889
  64.5257434  46.5065448  93.1605931  64.4290742  46.5922839  94.9355418
  65.9724353  47.8145980  94.0672064  66.2152089  47.9889913  95.1154174
  67.0708438  46.9485131  93.4240075  67.1592857  46.8355607  92.2007121
  67.9210463  46.3267063  94.2361516  67.9157492  46.4997863  95.2311966
  68.9616433  45.4598884  93.6896961  69.4783548  45.9752923  92.8800868
  69.9898992  45.0871358  94.7700453  69.4614553  44.7609740  95.6658493
  70.6008688  44.2680173  94.3907550  70.9025164  46.2424455  95.1389036
  71.0094135  47.2185098  94.3867430  71.5474269  46.1466132  96.2844483
  72.1670285  46.8893063  96.5753101  71.4190026  45.3309322  96.8660602
  68.3747714  44.2085960  93.0220213  69.1163478  43.3313646  92.4981984
  67.0481640  44.0897409  93.0225668  66.4896882  44.7296531  93.5691163
  66.3624042  42.9696765  92.3341705  66.8438209  42.0311282  92.6088781
  64.8776480  42.8910089  92.7198132  64.4521376  42.0023635  92.2536057
  64.8126316  42.7984092  93.8039250  64.1551135  44.0373463  92.2992118
  63.2350990  43.9486976  92.5586622  66.5400445  43.0529269  90.8302309
  66.0896511  42.1775970  90.0664113  67.2092677  44.1234814  90.3635487
  67.5737886  44.7850466  91.0340376  67.4295106  44.3877087  88.9309067
  66.8441851  43.7067354  88.3130324  66.9798063  45.8202882  88.6401903
  67.5746742  46.5262136  89.2197598  67.0884261  46.0404490  87.5781965
  65.2508062  46.1656743  89.0501320  65.2690481  47.4394066  88.6678083
  68.9109206  44.2343736  88.4959736  69.3882398  44.9119219  87.5817123
  69.6493125  43.3329480  89.1561911  69.2085033  42.7604324  89.8618910
  71.0966847  43.1997915  88.9568089  71.5609702  44.1767805  88.8225306
  71.7868860  42.4829641  90.1420370  71.3121340  41.5122979  90.2852741
  73.2680764  42.2872018  89.8794897  73.7436306  43.2575274  89.7366002
  73.7246130  41.7811543  90.7301311  73.4017965  41.6820603  88.9828157
  71.5879869  43.2741134  91.4386549  70.5225653  43.3624187  91.6512130
  72.0801755  42.7547583  92.2609202  72.0194922  44.2689003  91.3277361
  71.4038199  42.4654913  87.6266483  70.9268552  41.3259118  87.3815011
  72.1899021  43.0856826  86.7584366  72.5069921  44.0317294  86.9151169
  72.5169368  42.4477598  85.4865546  72.4981662  41.3648775  85.6094885
  71.5107362  42.8350748  84.3924031  71.5091369  43.9212312  84.3009649
  71.8424961  42.3923993  83.4532153  70.1986975  42.3838415  84.6902254
  69.6025684  42.6451463  83.9845699  73.9317758  42.7275022  85.0441884
  74.8624330  42.6200728  85.8418433  74.1488212  43.0612818  83.8845689
  73.2311701  43.2843695  83.5264522  75.2863443  43.1989734  82.9950390
  76.1748866  43.3821357  83.5992271  75.4075622  42.2656785  82.4451606
  75.1193513  44.3344094  82.0076362  74.6858681  45.4267438  82.3715206
  75.4659345  44.0765234  80.7512148  75.9208182  43.1995681  80.5411427
  75.2566696  45.0231031  79.6650224  74.8363371  45.9546627  80.0439911
  76.5830921  45.3322106  78.9717973  77.1378864  44.4065760  78.8184877
  77.1698779  46.0081252  79.5938277  76.4163601  46.1325535  77.3768852
  74.2537157  44.4444939  78.6774066  74.4126039  43.3099209  78.2179322
  73.2281492  45.2279627  78.3513776  73.1502369  46.1319280  78.7950845
  72.1715809  44.8134609  77.4384829  72.1516001  43.7263590  77.3616107
  70.8118525  45.2924806  77.9522775  70.8264420  46.3679272  78.1291982
  70.0258000  45.0532468  77.2360452  70.3138049  44.5347893  79.5140234
  69.1519040  45.1741646  79.6144409  72.3868538  45.3008846  76.0111053
  71.4819782  45.1628207  75.1819808  73.5503214  45.8771608  75.7014120
  74.3188064  45.9113939  76.3559033  73.7121810  46.5367151  74.4082583
  72.9530893  47.3119153  74.3036427  75.0937101  47.1902123  74.3225807
  75.2582259  47.5620782  73.3112695  75.8599303  46.4547875  74.5678500
  75.3361241  48.6272673  75.4310560  73.5101331  45.5482522  73.2639817
  72.8831045  45.8812505  72.2514655  74.0667377  44.3410683  73.3916823
  74.5269917  44.0637766  74.2468869  74.0225415  43.3885804  72.2914812
  74.6461229  43.7713460  71.4835604  74.4278904  42.4403732  72.6446026
  72.6189508  43.1598467  71.7654478  72.3633743  43.2593098  70.5611253
  71.6870087  42.8449903  72.6683229  71.9194818  42.7583069  73.6473743
  70.3173440  42.5561633  72.2540206  70.3183296  41.7957793  71.4730505
  69.5049049  42.0387274  73.4372572  70.0178286  41.1925126  73.8943448
  69.3476893  42.8151720  74.1859341  68.1559279  41.5534871  73.0373023
  67.8368460  40.3226609  72.5487437  68.6523232  39.6074452  72.4412112
  66.4901269  40.2540975  72.2873612  66.0001616  39.4480632  71.9263318
  65.9182088  41.4586023  72.5988091  64.5941583  41.8730565  72.5066636
  63.8515258  41.1685080  72.1322211  64.3070219  43.1508511  72.8958673
  63.2802143  43.5120472  72.8383915  65.3018861  44.0103791  73.3680917
  65.0603026  45.0276234  73.6762325  66.6148406  43.6013472  73.4590226
  67.3517683  44.3098516  73.8372552  66.9401326  42.3011128  73.0705981
  69.6545410  43.7859409  71.6528315  68.8644251  43.6730896  70.7095381
  69.9431838  44.9663390  72.1976348  70.5247230  45.0380743  73.0202924
  69.3834645  46.1912692  71.6375220  68.2945469  46.1428511  71.6338707
  69.8160524  47.3831135  72.4884654  70.9043227  47.3236036  72.5034848
  69.5095601  48.2937204  71.9737252  69.2878887  47.4063900  73.9216491
  69.5370539  46.4641888  74.4097826  69.9128701  48.5550733  74.6912113
  69.6637402  49.4977121  74.2039072  69.5287162  48.5613287  75.7112542
  70.9957584  48.4325278  74.7120852  67.7772924  47.5227509  73.9304096
  67.3436425  46.6700146  73.4080227  67.4194886  47.5378078  74.9599002
  67.4804379  48.4442621  73.4296167  69.8373585  46.3676866  70.1952085
  69.0335854  46.6719976  69.3034044  71.1358395  46.1839056  69.9535111
  71.7776118  45.9696886  70.7034037  71.6726227  46.3374055  68.6075157
  71.4100564  47.3127232  68.1977433  73.1940845  46.2146875  68.6382461
  73.4609335  45.2229063  69.0032966  73.7757154  46.4162094  67.2517096
  73.5096576  47.4080189  66.8861597  74.8609866  46.3247720  67.2955796
  73.3750004  45.6608385  66.5757340  73.7361314  47.1972114  69.5282365
  74.6927701  47.1191099  69.5467521  71.0787634  45.3048407  67.6636609
  70.7783726  45.6103578  66.5026102  70.8724498  44.0807771  68.1543339
  71.1813812  43.8201862  69.0799435  70.2437937  43.0609413  67.3225556
  70.7720879  42.9790750  66.3726596  70.2879671  41.7042561  68.0243726
  70.0459221  41.8733939  69.0736133  69.5189819  41.0788694  67.5708826
  71.6346277  41.0057841  67.9214550  71.7974004  40.7301215  66.8795260
  72.4076558  41.7067806  68.2363097  71.6963621  39.7602484  68.7902673
  72.7306313  39.4178625  68.8242957  71.3694388  40.0275918  69.7951296
  70.8135571  38.6496777  68.2499895  69.8021590  39.0399073  68.1364320
  71.1980675  38.3491995  67.2753287  70.7911740  37.4721102  69.1582554
  70.4345043  37.7502331  70.0613247  70.1956176  36.7563848  68.7669119
  71.7282011  37.1101020  69.2632758  68.8088270  43.4378245  66.9801321
  68.3797110  43.2698954  65.8365001  68.0536147  43.9486740  67.9515523
  68.3914830  44.0258933  68.9002259  66.6836363  44.3663775  67.6685952
  66.1082119  43.5453988  67.2408336  66.0001831  44.8224506  68.9567742
  66.5145827  45.7064160  69.3337336  64.5358115  45.1568095  68.7038439
  64.0206165  44.2731389  68.3272806  64.0700530  45.4790188  69.6351598
  64.4673754  45.9578768  67.9678355  66.0910298  43.7864196  69.9416522
  65.6611210  44.0748640  70.7500944  66.6594765  45.4834741  66.6331679
  65.8800297  45.4422749  65.6677575  67.5624864  46.4547125  66.7710923
  68.2143517  46.4653932  67.5424915  67.5739003  47.5785199  65.8399458
  66.5885827  48.0339761  65.7409099  68.5687361  48.6555252  66.3060383
  69.5289199  48.1854371  66.5185556  68.7491520  49.7096760  65.2267287
  67.7894083  50.1805606  65.0139832  69.4556792  50.4651596  65.5704789
  69.1319770  49.2405994  64.3203547  68.0949245  49.2923522  67.6007313
  68.0131063  48.5280278  68.3735289  68.8105116  50.0517807  67.9158550
  67.1205917  49.7549767  67.4433942  67.8997796  47.0869862  64.4384686
  67.2191888  47.4363449  63.4655052  68.9496853  46.2753262  64.3059696
  69.5193921  45.9887114  65.0891589  69.3431400  45.8435970  62.9707343
  69.4118718  46.7057492  62.3073576  70.7033742  45.1540292  63.0165631
  70.6534098  44.3679780  63.7700392  70.8841861  44.7081266  62.0385151
  71.8341530  46.1064802  63.3543757  71.9892529  46.7656724  62.5002618
  71.5329313  46.6978102  64.2190701  73.1211228  45.3758512  63.6672031
  73.8347023  46.0859374  64.0851516  72.9126513  44.5968073  64.4005037
  73.7056791  44.7492027  62.4172653  74.5372221  44.1067210  62.7068411
  72.9337819  44.1487355  61.9358994  74.1889146  45.7874984  61.4687948
  74.9044844  46.3437416  61.9145001  74.5720113  45.3412635  60.6476910
  73.4184529  46.3826814  61.2000106  68.2842492  44.9309573  62.3613905
  67.9971004  45.0230928  61.1624987  67.6856268  44.0464972  63.1670099
  67.9935200  43.9240386  64.1211090  66.6112446  43.1976710  62.6745030
  66.9261770  42.6944600  61.7603392  66.2503239  42.1378791  63.7161937
  66.0727191  42.6593055  64.6567629  65.3269498  41.6629273  63.3846806
  67.3204124  41.0777109  63.9192381  67.4584429  40.5522073  62.9743072
  68.2460965  41.5851274  64.1907828  66.9538435  40.0815053  65.0024725
  65.7454746  39.8980718  65.2589443  67.8743441  39.4799332  65.5961818
  65.3751906  44.0000285  62.3114303  64.4818410  43.4660813  61.6449021
  65.3037406  45.2619834  62.7326107  65.9791767  45.6352096  63.3842145
  64.2124024  46.1239427  62.2998890  63.3357609  45.5266269  62.0492642
  63.8331825  47.1073227  63.4089522  64.7336938  47.6123313  63.7584459
  62.8419674  48.1396377  62.8895802  61.9409470  47.6353808  62.5403141
  62.5830819  48.8310943  63.6914313  63.2912136  48.6925637  62.0646249
  63.2463650  46.3940306  64.5053192  63.0093793  47.0131506  65.1996739
  64.5719359  46.8934548  61.0337596  63.7319433  47.1087716  60.1611698
  65.8296779  47.3261748  60.9031471  66.5028952  47.2151246  61.6478254
  66.2460433  48.0289144  59.6924486  65.4646536  48.7164970  59.3687827
  67.5218859  48.8314861  59.9657657  68.2954360  48.1429265  60.3057749
  68.0081836  49.5666864  58.7089937  67.2352923  50.2558146  58.3686394
  68.9149591  50.1248774  58.9419748  68.2200889  48.8421449  57.9227137
  67.2658269  49.7998236  60.9890669  68.0651650  50.3030265  61.1606647
  66.4678450  47.0655278  58.5308040  66.1580902  47.3979402  57.3810653
  66.9908844  45.8730671  58.8036341  67.2811882  45.6513732  59.7452683
  67.2083012  44.8763662  57.7597347  67.2173999  45.3616372  56.7837591
  68.5484499  44.1637802  57.9645091  68.5138121  43.7036595  58.9520254
  68.6119098  43.3857524  57.2037558  69.7706117  45.0681401  57.8686359
  69.6557208  45.8714386  58.5963807  70.6509461  44.4757742  58.1180671
  69.9377985  45.6641002  56.4775568  69.0312883  46.2089652  56.2140035
  70.7844065  46.3506081  56.4853836  70.1769108  44.6387279  55.4680703
  69.3814345  44.3383632  54.9230036  71.3570353  44.0833253  55.2249177
  72.4398177  44.4300180  55.9018871  72.3766978  45.1338612  56.6234969
  73.3244151  43.9892030  55.6938746  71.4539908  43.1552523  54.2763349
  70.6333901  42.8840915  53.7536627  72.3477389  42.7262215  54.0833439
  66.0764639  43.8575068  57.7353193  64.9629688  43.8833849  57.2896995
  66.8976375  42.7581943  58.5070446  67.8865754  42.8404965  58.6950007
  66.2126342  41.5361475  58.9232189  65.9409368  41.7122391  59.9640222
  64.9210584  41.3553169  58.1006472  64.3796538  42.3012399  58.0861202
  65.2409343  40.9285055  56.6650528  65.7819692  39.9823589  56.6787493
  64.3130193  40.8077831  56.1060366  65.8558063  41.6911671  56.1871614
  64.1815208  40.2450770  58.6216891  63.3763671  40.1293650  58.1118474
  67.1305501  40.3287566  58.7625463  66.7517358  39.2830459  58.2291629
  68.3638274  40.4761725  59.2316697  68.6450119  41.3776844  59.5898746
  69.3619217  39.4260037  59.1515553  68.9172858  38.5066278  59.5325356
  69.8809904  39.1672949  57.7260478  70.5385000  38.2999857  57.7856715
  69.0111896  38.9219739  57.1166512  70.6360316  40.3366972  57.0895528
  69.9751992  41.2035181  57.0943397  71.5023772  40.5374592  57.7198220
  71.0984020  40.0589728  55.6648852  72.3274501  40.0715089  55.4033714
  70.2296879  39.8158358  54.8003632  70.4602399  39.8157617  60.1283146
  70.2875674  40.7090537  60.9621010  71.6178211  39.1560061  60.0500749
  70.8393250  38.0697875  60.5114576  70.7575005  37.3513146  59.6958586
  69.8491942  38.4531771  60.7579378  71.5536508  37.5013503  61.7163919
  72.2790207  36.7452119  61.4160714  70.8427292  37.0639556  62.4173752
  72.2432029  38.7269287  62.3290888  73.1487807  38.4993075  62.8914200
  71.5616631  39.3018138  62.9560738  72.5955299  39.5216435  61.0815844
  72.4461617  40.5751857  61.3178809  74.0446342  39.2978149  60.6476610
  74.3993884  39.3928102  59.4692713  74.8995180  38.9946841  61.6220200
  74.5561624  38.9512111  62.5708700  76.3159605  38.7378131  61.3867205
  76.5227641  37.6749010  61.2620231  76.7963481  39.5090790  60.1284162
  76.0819733  39.3448086  59.3217042  76.9037862  41.0012822  60.4150093
  77.6183795  41.1663900  61.2213570  77.2421574  41.5205542  59.5183699
  75.9278112  41.3861927  60.7106709  78.1289664  38.9695134  59.6117516
  78.3180299  39.4416891  58.6476946  78.8986147  39.2728724  60.3214799
  78.1568102  37.4683786  59.4506894  77.3876874  37.1642883  58.7407041
  79.1345985  37.1602387  59.0804474  77.9682698  36.9954715  60.4144898
  77.1193211  39.1862514  62.6138129  76.8358631  40.2231230  63.2152794
  78.1289733  38.4198414  63.0066006  78.2774011  37.4968138  62.6243852
  79.0217669  38.8823318  64.0680751  79.7653968  38.1126993  64.2749077
  79.7497480  40.1723460  63.6664386  80.2225284  40.6021769  64.5495147
  80.5143265  39.9227343  62.9307663  78.8157259  41.2073013  63.0636640
  78.1243962  40.9378342  62.0797287  78.7868461  42.4004498  63.6590123
  78.1833253  43.1262255  63.2996905  79.3686290  42.5727375  64.4664443
  78.2344879  39.0914829  65.3596825  77.8769370  40.2043749  65.7416129
  77.9460007  37.9148407  66.0833034  78.3550178  36.9932907  66.1428849
  76.7355039  38.1847243  66.8499419  76.1190597  38.9220347  66.3356763
  75.9029476  36.9047719  67.0563996  75.0356410  37.1433612  67.6719926
  75.4372224  36.3446956  65.7191742  76.3040456  36.1054194  65.1031677
  74.8511309  35.4412012  65.8873817  74.8226459  37.0859883  65.2084087
  76.6856743  35.9211945  67.7434595  76.1621513  35.1263956  67.8692320
  77.0621712  38.7936773  68.2110622  76.1845941  38.9387687  69.0610457
  78.3289654  39.1435760  68.4142771  79.0229823  38.8810000  67.7290809
  78.7685715  39.8624075  69.6013672  77.9856700  39.8376398  70.3593586
  80.0364181  39.2385232  70.1875330  80.8422860  39.3240148  69.4585828
  80.4376913  39.9486051  71.4725161  79.6324502  39.8631385  72.2021611
  81.3415077  39.4906025  71.8743227  80.6269040  41.0013410  71.2626437
  79.8044837  37.8525309  70.4676505  80.6010122  37.4627385  70.8353524
  79.0209826  41.3161484  69.2275116  79.7649598  41.5975298  68.2819560
  78.4024505  42.2328701  69.9660707  77.8347211  41.9343142  70.7462290
  78.4782581  43.6555275  69.6729493  79.2614961  43.8334789  68.9360838
  77.1505896  44.1760672  69.1118275  76.3912417  43.9395069  69.8571658
  77.2353892  45.2580805  69.0110492  76.7553633  43.5764416  67.7830746
  77.4889438  43.8362415  66.6352638  78.3657726  44.4801361  66.7036045
  77.1241169  43.2934693  65.4192742  77.7111217  43.5001304  64.5243896
  76.0104370  42.4876683  65.3411795  75.6423051  41.9451839  64.1336156
  76.2300390  42.1931817  63.4162137  75.2636175  42.2207597  66.4654065
  74.3820806  41.5827016  66.4031578  75.6358749  42.7653420  67.6751104
  75.0466900  42.5611175  68.5691202  78.8441469  44.4116171  70.9431934
  78.9965814  43.8297820  72.0206300  78.9869814  45.7265893  70.8067957
  78.9461525  46.1290032  69.8813253  79.2780022  46.6060462  71.9294040
  78.8794393  46.1752742  72.8479258  80.7926829  46.7907984  72.0914132
  80.9737966  47.4507119  72.9398300  81.2429184  45.8174436  72.2862685
  81.3685267  47.3520171  70.9260298  82.3141235  47.4563200  71.0547444
  78.5464590  47.9244551  71.6948650  77.6893559  48.0330317  70.8141049
  78.8868783  48.9365710  72.4940721  79.6011402  48.8280414  73.1998699
  78.2007910  50.2203435  72.3960434  77.1290549  50.0836650  72.5402650
  78.7196014  51.1709777  73.4695634  78.7461971  50.6015327  74.3986082
  79.7334876  51.4581754  73.1909015  77.8811335  52.4110553  73.6637263
  76.4966491  52.3455854  73.6697727  76.0148554  51.3781696  73.5280650
  75.7324332  53.4743707  73.8504570  74.6443869  53.4096333  73.8585921
  76.3498040  54.6919597  74.0124799  75.5885317  55.8225819  74.1917637
  74.6452318  55.6443769  74.1864789  77.7225063  54.7841480  74.0052907
  78.2127712  55.7483078  74.1399629  78.4766979  53.6483655  73.8264913
  79.5646488  53.7133914  73.8111748  78.3867676  50.8450322  71.0200177
  77.4358164  51.3826700  70.4355363  79.6148581  50.8058150  70.5008090
  80.3760840  50.3804087  71.0103815  79.9052231  51.4232843  69.2133325
  79.7711487  52.5037683  69.2650766  81.3524335  51.1288396  68.8149024
  81.4313817  50.0809281  68.5255084  81.7816848  52.0080573  67.6535543
  81.7034425  53.0561807  67.9423712  82.8140813  51.7811084  67.3875642
  81.1360779  51.8188732  66.7959403  82.2147122  51.3679567  69.9326821
  83.1226700  51.1829264  69.6817304  78.9415422  50.9273552  68.1446574
  78.3773685  51.7196922  67.3826330  78.7445370  49.6110101  68.0732820
  79.2479351  48.9807665  68.6811329  77.8497515  49.0413593  67.0777064
  78.0091904  49.5232320  66.1130940  78.1194554  47.5462916  66.9266886
  78.3324533  47.1418194  67.9162003  77.2173876  47.0799504  66.5305829
  79.2844254  47.2577715  66.0020691  79.3137123  47.8198029  64.8885895
  80.1722882  46.4680696  66.3875190  76.3847369  49.2721453  67.4130526
  75.5245776  48.9710435  66.5804508  76.0786763  49.7863441  68.6045762
  76.7653487  49.8437224  69.3430124  74.7194842  50.2308446  68.8885640
  74.0018477  49.5808220  68.3879966  74.4557840  50.1816727  70.3955605
  74.6542983  49.1780807  70.7717178  75.0980916  50.8958833  70.9107733
  73.0375715  50.5164270  70.7864237  72.0056669  50.4593321  69.8672013
  72.2237837  50.1656237  68.8404295  70.7150058  50.7681243  70.2357571
  69.9122099  50.7159051  69.5003030  70.4389401  51.1415606  71.5284748
  69.4180321  51.3878904  71.8203110  71.4509031  51.2042402  72.4530954
  71.2335736  51.4994165  73.4796133  72.7421745  50.8939673  72.0838801
  73.5460678  50.9444956  72.8182521  74.4877482  51.6368531  68.3527726
  73.4818097  51.8995360  67.6812212  75.4149362  52.5542983  68.6323327
  76.2083748  52.3581753  69.2257047  75.2444633  53.9141218  68.1325939
  74.2436216  54.2716807  68.3745998  76.2682934  54.8573281  68.7697483
  75.7733575  55.8221940  68.8800734  76.4927862  54.4499023  69.7555004
  77.5601752  55.0373276  67.9902385  78.0360470  54.0635588  67.8743887
  77.3309539  55.4483949  67.0070888  78.5266797  55.9675825  68.6898511
  78.4649401  56.1431240  69.9049867  79.4236970  56.5759303  67.9235960
  80.0930517  57.2077844  68.3393196  79.4327653  56.4041736  66.9283479
  75.3431900  53.9493804  66.6133428  74.6120690  54.6999131  65.9589937
  76.2352414  53.1438664  66.0328726  76.8571575  52.5667676  66.5808476
  76.3733354  53.1242409  64.5807852  76.5260921  54.1357092  64.2043594
  77.5770818  52.2700043  64.1873853  78.4528412  52.7194592  64.6555038
  77.4123022  51.2766056  64.6046462  77.8047537  52.1585093  62.6923936
  76.9526330  51.6463733  62.2455068  77.8849245  53.1620023  62.2744505
  79.0759599  51.3822947  62.3924589  79.9255596  51.9550784  62.7642091
  79.0271638  50.4261092  62.9134461  79.2428317  51.1389369  60.9037558
  78.3746459  50.5830686  60.5496875  79.2835222  52.1060418  60.4026055
  80.4807410  50.3708655  60.6002139  80.4430435  49.4745156  61.0641487
  80.5539442  50.2308405  59.6026497  81.2853695  50.8859714  60.9278387
  75.1127986  52.6056461  63.9023867  74.7977169  53.0230116  62.7829067
  74.3815322  51.7011841  64.5543523  74.6968005  51.2990512  65.4255551
  73.1254287  51.2245703  63.9874659  73.2560995  51.0802643  62.9149921
  72.7411253  49.8879497  64.6161807  72.5978865  50.0182118  65.6888477
  71.8153301  49.5276669  64.1676276  73.5353162  49.1620580  64.4417066
  72.0055090  52.2386929  64.1798222  71.1911905  52.4527078  63.2702305
  71.9466203  52.8724392  65.3528950  72.5652334  52.6417315  66.1172189
  70.9070844  53.8697768  65.5815100  69.9219765  53.4782557  65.3277918
  70.8953183  54.3132922  67.0539599  71.8924250  54.6541409  67.3327064
  69.9015363  55.4422768  67.2522330  68.9040529  55.1020173  66.9741119
  69.9020286  55.7478879  68.2985131  70.1834910  56.2892421  66.6267308
  70.5448422  53.1432768  67.9494601  71.2840724  52.3526065  67.8210804
  70.5396942  53.4697830  68.9893960  69.5581584  52.7641645  67.6833213
  71.0926645  55.0530739  64.6446103  70.1124354  55.6689569  64.2076196
  72.3417638  55.3952050  64.3227390  73.1358535  54.9394962  64.7491781
  72.5909012  56.4843861  63.3845507  72.1540899  57.4092201  63.7613492
  74.0948749  56.6904021  63.2099129  74.5908518  55.7268889  63.3271665
  74.2847802  57.0767381  62.2085235  74.6745498  57.6600172  64.2213261
  75.8348782  58.0561907  64.1250787  73.8679039  58.0425803  65.2027058
  74.2020113  58.6875712  65.9044599  72.9234230  57.6870679  65.2435412
  71.9287270  56.2071138  62.0417881  71.2130756  57.0590880  61.5030302
  72.1553822  55.0152794  61.4839788  72.7775035  54.3414638  61.9071062
  71.5484119  54.6847898  60.1995809  71.7625794  55.4716680  59.4763560
  72.1085871  53.3665468  59.6671337  72.0052238  52.6272550  60.4614025
  71.4928530  53.0738482  58.8166638  73.5598915  53.4454157  59.2364362
  73.6660405  54.2625710  58.5229304  74.1718774  53.6491782  60.1151034
  74.0165047  52.1480699  58.5915602  73.8311313  51.3297908  59.2873727
  73.4372500  51.9891504  57.6819954  75.4940946  52.1948089  58.2482282
  76.0560629  52.3230691  59.1733452  75.7677594  51.2463598  57.7860043
  75.8125128  53.3115135  57.3153882  75.5594019  54.1904912  57.7436789
  76.8018300  53.3085991  57.1120585  75.2922069  53.1926230  56.4579235
  70.0334306  54.6087156  60.3073087  69.3191488  55.0496084  59.3978781
  69.5174853  54.0477355  61.4032507  70.0932536  53.6370041  62.1242846
  68.0687789  53.9644798  61.5444607  67.6456011  53.4212831  60.6995009
  67.6995046  53.2296607  62.8313389  68.0491745  52.2088827  62.6769291
  68.2404658  53.6761822  63.6656527  66.2004797  53.2134624  63.1453995
  65.8604435  54.2390691  63.2889515  65.4165376  52.5741315  62.0100619
  65.7557179  51.5482844  61.8662098  64.3546470  52.5740518  62.2560073
  65.5765114  53.1411272  61.0929879  65.9334162  52.4851261  64.4471077
  66.4577093  52.9880940  65.2596590  64.8626809  52.4853774  64.6511347
  66.2874837  51.4572602  64.3681969  67.4469899  55.3546372  61.5233277
  66.4584611  55.5972264  60.8220250  68.0264243  56.2905972  62.2780149
  68.7927492  56.0665860  62.8966137  67.5261753  57.6612124  62.2646353
  66.4654705  57.6738195  62.5153256  68.2805529  58.5041727  63.2914602
  69.3296895  58.2890639  63.0886307  68.0758121  59.5518460  63.0710925
  67.9797771  58.2259135  64.7599287  68.0291176  57.1520828  64.9403556
  68.9947226  58.9327684  65.6374933  68.9456511  60.0067588  65.4579510
  68.7738304  58.7296268  66.6853677  69.9952109  58.5706901  65.4008016
  66.5703487  58.6707468  65.1058536  65.8553401  58.1269439  64.4884878
  66.3717237  58.4650289  66.1576756  66.4704376  59.7401549  64.9201575
  67.6580909  58.2753222  60.8774967  66.7235197  58.9078373  60.3726331
  68.8201589  58.0992700  60.2435395  69.5749314  57.5787688  60.6672095
  69.0473261  58.7072492  58.9385992  68.9546787  59.7918052  58.9956427
  70.4520996  58.3621831  58.4416979  70.5403696  57.2786695  58.3622818
  70.7158072  58.9924125  57.0842244  70.6281664  60.0760270  57.1629547
  71.7208740  58.7329085  56.7516624  69.9877926  58.6209785  56.3630226
  71.4259650  58.8341301  59.3810744  72.3062364  58.6159754  59.0662234
  68.0018340  58.2534141  57.9316980  67.5367936  59.0480740  57.1075997
  67.6182508  56.9802820  57.9818433  68.0183008  56.3588950  58.6702745
  66.6718592  56.4295566  57.0218717  66.7497129  57.0304256  56.1157842
  67.0526221  54.9846168  56.6851900  66.9707195  54.3686622  57.5807300
  66.3803751  54.6005412  55.9179416  68.0781138  54.9549427  56.3169707
  65.2218682  56.4696397  57.4899683  64.3370043  56.0770339  56.7231975
  64.9427692  56.9302768  58.7114622  65.6818913  57.2698076  59.3102248
  63.5849864  56.8916460  59.2429842  62.9285516  56.3490274  58.5627214
  63.5847713  56.1765624  60.5981183  64.1250906  56.7898216  61.3192753
  62.5538675  56.0508167  60.9290647  64.2058104  54.9088297  60.4983479
  64.1949486  54.4787653  61.3565591  62.9555592  58.2724313  59.3798729
  61.8892256  58.5170489  58.8097467  63.5739267  59.1813570  60.1266624
  64.4573374  58.9713630  60.5689150  62.9656552  60.4873054  60.3783721
  62.0304555  60.3551318  60.9224592  63.8943005  61.3740081  61.2104834
  64.8910268  61.0051225  60.9684930  63.7993421  62.4076739  60.8778905
  63.6780989  61.3035220  62.7243779  62.6097189  61.3660956  62.9311376
  64.2265196  60.0038914  63.2855766  65.2950194  59.9408099  63.0795967
  64.0623307  59.9747173  64.3627449  63.7165261  59.1617050  62.8178918
  64.3057082  62.5026966  63.4178828  63.8517756  63.4194028  63.0414598
  64.1388356  62.4299575  64.4925752  65.3769757  62.5194289  63.2173711
  62.6091413  61.1883381  59.0718994  61.7331895  61.6615156  58.9775139
  63.2559695  61.1723964  58.3097641  76.9892477  48.3673897  77.0667011
  22.8530183  52.0736644  71.3433861  23.5796776  51.6367349  70.7946057
  21.9775562  51.6074865  71.1527433  23.1777318  52.1688097  72.2950205
  22.6723663  53.4730201  70.8455441  21.6620744  53.6274085  70.4666331
  22.9488742  54.5248964  71.9845813  22.8459583  55.5326043  71.5820475
  21.9457788  54.3248037  73.1156812  22.0484196  53.3174040  73.5190550
  22.1367175  55.0526023  73.9043197  20.9342117  54.4611823  72.7332763
  24.2757176  54.3458135  72.4868905  24.4442673  54.9869979  73.1812059
  23.6261362  53.6616292  69.6580023  24.5841599  52.9100737  69.5390363
  23.3515928  54.6180008  68.7623481  22.4335515  55.0356851  68.7090635
  24.3626041  55.0315085  67.7808985  24.6321284  54.1847298  67.1496919
  23.8775823  56.1825640  66.8795866  23.0037632  55.8585940  66.3142701
  23.6126014  57.0410535  67.4967421  24.9621771  56.6048492  65.8988647
  26.0552710  56.0430790  65.8978103  24.6570208  57.5990467  65.0618014
  25.3411032  57.9179608  64.3906644  23.7434669  58.0277453  65.1034853
  25.6320160  55.4163166  68.5738061  26.7199424  54.9611223  68.2568848
  25.4851376  56.1945865  69.6472559  24.5751008  56.5546304  69.8968572
  26.6567070  56.6652808  70.4100069  27.4579488  56.9141481  69.7141795
  26.3316641  57.9143980  71.2545959  25.3513178  57.7539981  71.7032520
  27.0844423  57.9770203  72.0404097  26.3191306  59.2259097  70.4514907
  27.2361571  59.2635948  69.8634915  25.4587617  59.2261268  69.7822618
  26.2530259  60.4640594  71.3268161  25.8333634  60.3981912  72.4798182
  26.6514130  61.6033259  70.7751663  26.6277398  62.4572124  71.3140715
  26.9764699  61.6113000  69.8189363  27.2915799  55.5728275  71.2668617
  28.5112020  55.4154845  71.2461243  26.4845032  54.8080261  71.9990877
  25.5049742  55.0344545  72.0957962  27.0233996  53.7125822  72.7981016
  27.8941204  54.0648462  73.3511428  25.9846962  53.1816526  73.8022505
  25.0668383  53.2145918  73.2152658  26.2211301  52.1464138  74.0481769
  25.7918368  53.9875858  75.1031064  25.6706368  55.0405985  74.8489892
  24.5460719  53.4976789  75.8750902  24.6667472  52.4447924  76.1299751
  24.4312885  54.0812554  76.7885255  23.6602006  53.6209298  75.2520799
  27.0553622  53.9330206  75.9642523  27.8927154  54.3555160  75.4088817
  26.8986104  54.5076357  76.8771310  27.2761719  52.8969825  76.2210933
  27.6110129  52.5895185  71.9074111  28.6776556  52.0515865  72.2084117
  26.9376682  52.2365992  70.8196814  25.9936267  52.5586402  70.6610159
  27.5061255  51.2609390  69.8835679  27.7417255  50.3487358  70.4317257
  26.5466414  50.9090192  68.7319848  26.1397476  51.8502662  68.3624030
  27.1485778  50.4428062  67.9519731  25.3881771  49.9652933  69.1207521
  25.7943141  49.0235957  69.4900204  24.7854818  50.4310554  69.9004482
  24.4941277  49.6734146  67.9241038  24.7393396  50.1692142  66.8266095
  23.4535406  48.8650463  68.1384459  22.8286108  48.6388901  67.3779082
  23.2959726  48.4833255  69.0601633  28.8687224  51.7759243  69.3771897
  29.8172294  51.0065143  69.2819229  28.9732892  53.0792623  69.1086814
  28.1499426  53.6620161  69.1596492  30.2306933  53.6895420  68.6640077
  30.6328382  53.1365539  67.8151362  29.9897330  55.1483415  68.2316282
  29.2943519  55.1331036  67.3923950  29.5115527  55.6192452  69.0905190
  31.2372275  55.9421780  67.8448051  31.6349679  56.0593211  66.5109044
  31.0414569  55.5627839  65.7432488  32.7681141  56.7944414  66.1516110
  33.0686739  56.8721050  65.1067503  33.5083422  57.4232654  67.1305880
  34.6241689  58.1444404  66.7865774  34.7948202  58.1435889  65.8418673
  33.1338207  57.3335173  68.4578257  33.7225438  57.8286063  69.2300901
  31.9963207  56.6050045  68.8073525  31.6859797  56.5462854  69.8505881
  31.3190391  53.6180677  69.7467213  32.4979596  53.4380135  69.4299879
  30.9375188  53.7410363  71.0205117  29.9774773  53.9443794  71.2594073
  31.9219937  53.6324200  72.1132398  32.7540854  54.3081605  71.9155093
  31.3083482  53.9964885  73.4603089  30.4451884  53.3427481  73.5855205
  32.0603370  53.7522449  74.2106142  30.8645876  55.4821170  73.6336911
  30.0794473  55.6424678  72.8948115  30.4390639  55.5467822  74.6351151
  32.1364573  56.7646226  73.4413864  33.3490315  56.1770668  74.6181065
  33.6797984  55.1786796  74.3318977  34.2037356  56.8534388  74.6282299
  32.9034397  56.1405709  75.6121976  32.4979563  52.2030927  72.1723287
  33.6604233  52.0302814  72.4745944  31.6655594  51.1948841  71.8779818
  30.7076195  51.4168728  71.6473922  32.0741183  49.7753306  71.8815146
  32.6788179  49.5362971  72.7563292  30.7803023  48.9309004  71.9296688
  30.2157737  49.3732038  72.7505065  30.2880609  49.1617638  70.9849464
  30.8437169  47.4049497  72.1150094  31.3980606  46.9219503  71.3103260
  31.3404584  47.2102874  73.0655127  29.4276753  46.8026689  72.1674788
  29.0052617  46.2494780  73.1838900  28.6770439  46.9616638  71.0825111
  27.7394101  46.5868269  71.0614997  29.0476125  47.4566149  70.2838849
  32.8750103  49.5013791  70.6084975  34.0143982  49.0349715  70.6827947
  32.3017447  49.8516570  69.4553080  31.4042796  50.3145926  69.4739201
  32.8614858  49.4646822  68.1476928  33.3230757  48.4796847  68.2170744
  31.7523562  49.4119861  67.0940607  31.2624308  50.3836221  67.0308495
  32.1994752  49.1677351  66.1304601  30.7144347  48.3697500  67.4213204
  30.9917822  47.4106784  68.1558073  29.5139921  48.5476291  66.8966447
  28.7804152  47.8790213  67.0835360  29.3360663  49.3513027  66.3113653
  34.0283075  50.2650393  67.6048589  34.8074344  49.7262571  66.8320057
  34.1492663  51.5326309  67.9837063  33.4242464  51.9577525  68.5438108
  35.2392307  52.3791388  67.5026708  35.8867432  51.8387412  66.8121658
  34.6848406  53.6547645  66.7760481  33.9315060  54.1148588  67.4155006
  35.7852038  54.6579750  66.4895688  36.5387339  54.1987189  65.8497429
  35.3627548  55.5274955  65.9860100  36.2462293  54.9698786  67.4267312
  33.9794536  53.2647478  65.4523479  33.1491420  52.5919965  65.6670344
  33.6017901  54.1625650  64.9630685  34.6906113  52.7649817  64.7946326
  36.2033611  52.7032554  68.6861035  37.4051850  52.4599061  68.5872627
  35.6670472  53.2010173  69.8091126  34.6687848  53.3335903  69.8865450
  36.5167964  53.7115903  70.8774588  37.3636137  54.2607219  70.4658106
  35.7677135  54.6260756  71.8535225  34.9078012  54.0943243  72.2608192
  36.6996836  55.0343448  72.9926261  37.5596659  55.5665917  72.5861232
  36.1648455  55.6843680  73.6850989  37.0405912  54.1438498  73.5207382
  35.2133374  55.8789272  71.0991989  34.5289978  55.5575692  70.3140172
  34.6830964  56.5216279  71.8019648  36.0409980  56.4319995  70.6551383
  37.2444035  52.5639699  71.5876645  38.4775770  52.5316282  71.5565807
  36.5021967  51.6023898  72.1545665  35.4988441  51.6992539  72.2178132
  37.1319364  50.4329930  72.7897405  37.8623365  50.7529851  73.5328556
  36.0976168  49.4788125  73.4821389  35.3004660  49.2535656  72.7736802
  36.7657285  48.1771811  73.9281157  37.5627419  48.4015995  74.6369929
  36.0265223  47.5336182  74.4050869  37.1847174  47.6674237  73.0605344
  35.4158278  50.1476764  74.7080418  34.8871418  51.0447569  74.3858004
  34.7077675  49.4504286  75.1559210  36.1736914  50.4176531  75.4434711
  37.9826406  49.6703795  71.7502018  39.1275547  49.3518249  72.0207692
  37.4546604  49.3974482  70.5552334  36.4985514  49.6299453  70.3274176
  38.2216160  48.5571421  69.6005006  38.5668858  47.6594841  70.1134314
  37.3594226  48.1312016  68.3806570  36.8183328  49.0102427  68.0305029
  38.0349804  47.7854818  67.5982253  36.3433659  46.9995413  68.7272615
  36.8594335  46.3135009  69.3989190  35.5181117  47.4745619  69.2577453
  35.7879270  46.2091530  67.5041802  35.4508100  46.9270532  66.7564700
  36.5960279  45.6062848  67.0899071  34.6156858  45.2928029  67.9006132
  34.9521780  44.5742816  68.6480090  33.8069594  45.8950498  68.3145691
  34.1323955  44.5739141  66.7129565  34.8815095  44.0154625  66.3294729
  33.3634908  43.9728566  66.9729863  33.8201490  45.2395205  66.0204471
  39.5689780  49.2071681  69.2013879  40.6149859  48.5347474  69.2090610
  39.5502769  50.5187780  68.9367017  38.6764449  51.0221202  68.9929479
  40.7577181  51.2627861  68.5731354  41.1860451  50.8142671  67.6767728
  40.4671331  52.7583700  68.2882085  39.9983614  53.1939897  69.1705854
  41.7427451  53.5204544  67.9638211  42.2118697  53.0856720  67.0812193
  41.5026285  54.5657398  67.7693435  42.4292361  53.4568919  68.8080903
  39.5856981  52.8716976  67.1725987  39.4075179  53.7988046  66.9984583
  41.7517137  51.1945076  69.7145073  42.9352570  50.8918306  69.5029942
  41.2869441  51.4813699  70.9269021  40.3230204  51.7474594  71.0688418
  42.2034889  51.5356999  72.0791620  43.0806785  52.1168074  71.7946420
  41.5704535  52.1791441  73.3299233  40.7280844  51.5203962  73.5410267
  42.2919599  52.1179448  74.1446522  41.0724970  53.6144662  73.1991607
  40.3637220  53.6591386  72.3722730  40.3979266  54.0874237  74.4667482
  41.1062639  54.0434717  75.2940482  40.0562862  55.1141813  74.3357852
  39.5441730  53.4461040  74.6856413  42.2397053  54.5198335  72.8227289
  42.6625261  54.1924433  71.8729197  41.8876390  55.5470782  72.7282884
  43.0047386  54.4682732  73.5974318  42.7505140  50.1640657  72.3958846
  43.9377676  50.0277869  72.6981992  41.9063280  49.1408465  72.3184149
  40.9439089  49.2983339  72.0556481  42.3224741  47.7641918  72.6647933
  42.6867370  47.7412158  73.6918687  41.1405374  46.7795146  72.5384975
  40.2078086  47.2612430  72.8318469  41.0629362  46.4366088  71.5067545
  41.2754913  45.5536344  73.3884800  41.9970222  44.4157740  73.0961774
  42.5087547  44.3896249  72.1341245  41.9074383  43.5208680  74.1339944
  42.3290607  42.6033433  74.1559585  41.1144630  44.0577872  75.1180767
  40.7065661  43.5132533  76.3377324  41.0563844  42.5159562  76.6044237
  39.8824370  44.2769430  77.1310647  39.5507007  43.8913313  78.0950951
  39.4588939  45.5417016  76.7273319  38.8068762  46.1391599  77.3645257
  39.8530113  46.0831397  75.5003592  39.4874164  47.0741396  75.2313605
  40.6910545  45.3339466  74.6767407  43.4748531  47.2871106  71.7955561
  44.3699859  46.5552874  72.2700633  43.4661195  47.6993003  70.5284344
  42.7169159  48.2899872  70.1969495  44.4835585  47.2826982  69.5820061
  44.6947422  46.2214192  69.7131068  44.0059419  47.5167796  68.1246971
  43.7644238  48.5767409  68.0456383  44.8557835  47.2893256  67.4811648
  42.7849579  46.6755983  67.6825433  43.0258910  45.6154508  67.7608971
  41.9345301  46.9028670  68.3253680  42.4331305  47.0111036  66.2371096
  42.1916140  48.0710650  66.1580492  43.2829719  46.7836475  65.5935782
  41.2296793  46.1820033  65.8013071  41.4706111  45.1218557  65.8796614
  40.3792528  46.4092751  66.4441302  40.8905426  46.5054072  64.4080033
  41.6782855  46.2944803  63.8121253  40.0935022  45.9562996  64.1193732
  40.6668417  47.4876321  64.3352614  45.8074463  48.0375951  69.8309351
  46.8263871  47.6234097  69.3656823  45.7928882  49.1631091  70.5261907
  44.9342494  49.4846738  70.9497882  47.0059827  49.9904747  70.6872895
  47.4453080  50.2123430  69.7147326  46.6356629  51.3059797  71.3667008
  45.7342773  51.7266434  70.9210045  46.4664493  51.1285586  72.4287689
  47.6915882  52.3600790  71.2720720  48.8171709  52.3580290  72.0635474
  49.5687560  53.4029161  71.7655860  50.5189614  53.5709191  72.2725214
  48.9553153  54.0952845  70.8245782  49.2845154  54.9562977  70.4118030
  47.7857454  53.4568931  70.4887156  47.1429038  53.8703521  69.7116008
  48.0637916  49.2676102  71.5211812  47.7271330  48.6122003  72.4916429
  49.3334571  49.4207812  71.1467734  49.5179804  49.9717909  70.3206749
  50.4820704  48.7863069  71.8404627  50.3711551  47.7021329  71.8213924
  51.8065513  49.1581860  71.1455194  52.6196742  48.7821704  71.7664403
  51.8236741  48.6525998  70.1800199  51.9815636  50.6781019  70.9335660
  51.2972312  50.9799112  70.1406591  51.7146609  51.1906524  71.8577721
  53.3925767  51.0884248  70.5401907  54.3869592  50.5292093  71.0177088
  53.4783051  52.0873598  69.6685696  54.3851471  52.4109858  69.3636019
  52.6362443  52.5185782  69.3148950  50.6237535  49.1286517  73.3242204
  51.2769099  48.3993734  74.0603665  50.0605930  50.2629458  73.7362106
  49.5832814  50.8460570  73.0637120  50.1201187  50.7116431  75.1189519
  50.9968516  50.2832145  75.6046345  50.2157747  52.2439007  75.1955384
  49.4105060  52.6709280  74.5978017  50.1242896  52.5875450  76.2258971
  51.5179274  52.8277257  74.6545542  52.6438970  52.0426418  74.4554445
  52.6010600  50.9779291  74.6849042  53.8424133  52.6127429  73.9585415
  54.7183023  51.9854127  73.7930848  53.9003528  53.9799739  73.6808361
  54.8182697  54.4267413  73.2988317  52.7769924  54.7731221  73.8945799
  52.8160300  55.8422110  73.6857134  51.6060005  54.2018061  74.3741932
  50.7257698  54.8223952  74.5420112  48.9041803  50.2848362  75.9421389
  48.8588256  50.6081753  77.1256607  47.9402891  49.5778893  75.3288553
  48.0451995  49.3086513  74.3610723  46.6631861  49.2888104  75.9984913
  46.4086531  50.2168466  76.5104103  45.5917269  48.9957623  74.9644015
  45.8279203  48.0644805  74.4495939  44.6248592  48.9018804  75.4588238
  45.5517651  49.8101531  74.2410275  46.7034032  48.1736523  77.0580724
  45.8721979  48.1670846  77.9715397  47.6694043  47.2592570  76.9436422
  48.2884053  47.3400304  76.1496569  47.7541455  46.0489688  77.7728022
  46.8606966  45.4429296  77.6225862  49.0008551  45.1973629  77.3996073
  49.0186359  44.2890406  78.0018811  48.9569204  44.9315702  76.3434235
  50.2839722  45.8635019  77.6099386  50.9529425  46.6439214  76.7057456
  50.4867367  46.7741713  75.7291254  52.1138414  47.1102086  77.2532044
  52.7769155  47.7154688  76.7905033  52.2338177  46.6261945  78.5328278
  53.2495843  46.8201753  79.4770067  54.1020961  47.4422918  79.2044387
  53.1050923  46.2093771  80.6949593  53.8698531  46.3451357  81.4596884
  51.9790288  45.4009464  80.9858318  51.8659366  44.9227602  81.9587900
  50.9813913  45.1932515  80.0346345  50.1697668  44.5073925  80.2774592
  51.0917496  45.8357495  78.7958010  47.6345320  46.2112129  79.3008527
  47.0029832  45.3750625  79.9478246  48.2068264  47.2747026  79.8914845
  49.0170423  48.3856952  79.3628925  48.3737478  49.2103714  79.0560022
  49.6084763  48.0504450  78.5108877  49.8647219  48.7282732  80.5457084
  50.3179442  49.7150478  80.4510278  50.6442475  47.9859000  80.7169490
  48.8515257  48.6973486  81.6380921  48.2192736  49.5846123  81.6046359
  49.3026799  48.6103872  82.6265238  48.0098895  47.4421713  81.3317012
  48.3760582  46.5322136  81.8070914  46.5575376  47.6926836  81.7588108
  46.2305092  47.5126553  82.9217838  45.7081615  48.1022956  80.8143087
  46.0450911  48.1726925  79.8647709  44.3366237  48.5377066  81.0996983
  44.2004179  48.6549493  82.1747803  44.0513872  49.8968100  80.4134954
  44.0560333  49.8009985  79.3277248  43.0788080  50.2639962  80.7411599
  45.0585909  50.9725125  80.7574924  44.8921155  51.7588258  81.8902740
  44.0193148  51.6002806  82.5236634  45.8236747  52.7403824  82.2209870
  45.6657450  53.3632085  83.1014679  46.9355296  52.9237804  81.4431400
  47.6747230  53.6756739  81.7194534  47.1218828  52.1529231  80.3031486
  47.9992763  52.3127881  79.6764716  46.1878126  51.1747572  79.9594664
  46.3383600  50.5669476  79.0672765  43.2798312  47.5243511  80.7032627
  42.0831380  47.8275083  80.7999375  43.6867933  46.3099000  80.3312460
  44.6695044  46.0803041  80.2904554  42.7142718  45.2904269  79.9082593
  41.9804763  45.7399602  79.2392577  43.4089142  44.1488734  79.1732894
  44.2148567  43.8593056  79.8476086  42.7046623  43.3228952  79.0738443
  43.9916942  44.4906516  77.7989113  43.5568831  45.5785773  77.0767070
  42.7876749  46.2171342  77.5110607  44.0717326  45.8691824  75.8301755
  43.7290688  46.7380329  75.2682305  45.0143667  45.0204360  75.2828918
  45.5495253  45.2932651  74.0571583  45.2003854  46.0974369  73.6659950
  45.4422025  43.9212777  75.9692748  46.1802984  43.2491477  75.5316036
  44.9386205  43.6659787  77.2136797  45.2812871  42.7948651  77.7721067
  41.9022670  44.7120289  81.0574307  40.7919015  44.1954629  80.8637068
  42.4942499  44.7552776  82.2420285  43.3822457  45.2284856  82.3294174
  41.9183061  44.1692332  83.4160535  40.8507174  44.0073109  83.2672766
  42.5795286  42.8249361  83.7073269  43.6551590  43.0003283  83.7261953
  42.2446874  42.5170963  84.6978904  42.2642014  41.7343384  82.7072492
  41.1867640  41.6245469  82.5840611  42.7137395  41.9987147  81.7501061
  42.8383616  40.4049042  83.1620654  44.0541419  40.2407054  83.2577893
  41.9639450  39.4547290  83.4703257  42.2927213  38.5509072  83.7787308
  40.9739507  39.6400455  83.3950235  42.1567597  45.1012660  84.5842521
  43.0263336  45.9842694  84.5011727  41.3733911  44.9299918  85.6707003
  40.1777139  44.0596919  85.7919404  40.4965548  43.0212153  85.8814228
  39.5583807  44.1736933  84.9022612  39.4969537  44.5623164  87.0311632
  38.9583214  43.7523069  87.5229547  38.8002561  45.3628794  86.7825416
  40.6106225  45.0711368  87.8821747  41.1107689  44.2509301  88.3971636
  40.2791820  45.8095682  88.6122198  41.5783688  45.7252161  86.8739960
  41.2950446  46.7507150  86.6369779  43.0311224  45.7011766  87.3974441
  43.7035560  44.6696023  87.2698920  43.5153629  46.8293115  87.9449190
  43.0512888  47.7112598  87.7809013  44.7903998  46.8383916  88.6738199
  45.5666475  46.4576366  88.0100697  45.2052538  48.2638443  89.1612558
  44.3969101  48.6652516  89.7724447  46.4842771  48.2320601  89.9734647
  47.2932398  47.8311723  89.3627526  46.7375877  49.2429135  90.2930107
  46.3432608  47.5991984  90.8496508  45.4379554  49.1788981  87.9301297
  44.5191090  49.2457191  87.3475850  45.7276109  50.1744751  88.2663228
  46.2308620  48.7602810  87.3103235  44.6771678  45.8115956  89.8024046
  43.7124507  45.8236595  90.5853634  45.6086078  44.8586072  89.8017774
  46.3009720  44.8562224  89.0664369  45.6808627  43.8087693  90.8322921
  44.6983435  43.6693057  91.2831859  46.1321877  42.4799542  90.2228522
  45.4966875  42.3184963  89.3521226  47.1708990  42.5641082  89.9033261
  45.9896842  41.3050696  91.1792105  45.9936715  41.4741388  92.4211802
  45.9117346  40.1790070  90.6679632  46.6929488  44.2751681  91.8604346
  47.9089655  44.0356129  91.7328507  46.1902503  44.9612510  92.8798234
  45.1988288  45.1473041  92.9304892  47.0467249  45.5240409  93.9008390
  47.7979317  46.1490910  93.4180348  46.2288807  46.3890898  94.8439039
  45.4781542  45.7753723  95.3417600  46.8859571  46.8352809  95.5904053
  45.7347254  47.1783471  94.2773505  47.7957862  44.4299693  94.6713957
  48.8450628  44.7190070  95.2208807  47.2870411  43.1868617  94.6899338
  46.3855111  43.0073819  94.2714483  47.9716855  42.0788008  95.3731533
  48.4299482  42.4706594  96.2811959  47.0386931  40.8998514  95.7344916
  46.6501860  40.4618957  94.8150584  47.8160242  39.8102270  96.5424521
  48.2044626  40.2473487  97.4623113  47.1423285  38.9890606  96.7872389
  48.6439961  39.4335232  95.9419057  45.8543423  41.4048613  96.5660223
  45.2264055  42.0065206  95.9089058  45.2953046  40.5317975  96.9026763
  46.2734226  42.2432408  97.7810936  46.8321487  43.1167887  97.4451781
  45.3851668  42.5672125  98.3234434  46.9010501  41.6420657  98.4389478
  49.1296926  41.5832550  94.5050928  50.2797753  41.6304492  94.9220982
  48.8361463  41.1533815  93.2835379  47.8762691  41.0918495  92.9754002
  49.8826625  40.6916462  92.3804396  50.3739727  39.8128379  92.7980632
  49.2832912  40.3187526  91.0299725  48.4210137  39.6820368  91.2278857
  48.9504897  41.2448937  90.5613513  50.2490178  39.5918061  90.0926087
  50.9621562  40.3174746  89.7015335  50.7811977  38.8330289  90.6663192
  49.5032470  38.9206319  88.9200426  49.2074253  37.9203430  89.2362872
  48.6128144  39.5110081  88.7039755  50.3640564  38.8228497  87.6662935
  49.8173685  38.3136570  86.8725960  50.6514764  39.8183397  87.3279319
  51.5759145  38.0489595  88.0037114  51.3098253  37.1263356  88.3168592
  52.1637378  37.9705109  87.1861483  52.0828566  38.5208400  88.7388560
  51.0006901  41.7320921  92.1934968  52.1686850  41.3621829  92.1367418
  50.6604890  43.0210947  92.1081307  49.6851922  43.2823851  92.1330874
  51.6627285  44.0776139  91.8552806  52.5335487  43.6527025  91.3560595
  51.0599273  45.1797725  90.9471792  50.1501704  45.4295702  91.4931121
  51.7211746  46.0460844  90.9283194  50.6955922  44.7748910  89.4917988
  49.9635640  43.9692414  89.5480501  50.1140243  45.9426077  88.6593365
  50.8457126  46.7485059  88.6022467  49.8812063  45.5920385  87.6538526
  49.2049386  46.3109411  89.1347248  51.8717770  44.1365359  88.7595324
  52.1875914  43.2389721  89.2912654  51.5688495  43.8705961  87.7468072
  52.7004982  44.8432702  88.7165588  52.2533598  44.6709975  93.1559806
  53.0934514  45.5852009  93.1332616  51.8047166  44.1496262  94.2889574
  51.0657151  43.4619397  94.2563476  52.2718237  44.6004940  95.5936620
  51.6735837  44.1449704  96.3827795  53.7433360  44.1941316  95.7950026
  53.8486865  43.1369781  95.5512257  54.3599817  44.7857093  95.1183314
  54.2347985  44.4168266  97.2236304  53.4424423  44.5625873  98.1600718
  55.5555045  44.4410543  97.3921761  55.9412654  44.5847111  98.3144836
  56.1653915  44.3156608  96.5969308  52.0821173  46.1072702  95.7939374
  53.0493256  46.8290182  96.0601549  50.8299201  46.5616244  95.6680863
  50.1123735  45.9070340  95.3910708  50.4552594  47.9751834  95.8443310
  51.3336921  48.5635654  96.1094005  49.8652775  48.5336592  94.5342237
  48.8704086  48.0886106  94.5178924  49.7780618  49.6124849  94.6631760
  50.5839855  48.2322186  93.2059333  50.7691152  47.1609295  93.1274001
  49.6941115  48.6912539  92.0204950  49.5089194  49.7625994  92.0980936
  50.2024003  48.4780944  91.0801194  48.7450381  48.1559731  92.0493844
  51.9351983  48.8791028  93.1206953  52.5651912  48.5140332  93.9318258
  52.3965560  48.6333647  92.1642105  51.8267980  49.9604915  93.2040433
  49.4507897  48.1406143  97.0255313  48.2306246  48.2725538  96.7904478
  49.9492768  48.1087400  98.2892436  51.3826414  48.0421046  98.6432318
  51.8148804  49.0410718  98.5854894  51.8964889  47.3834243  97.9430889
  51.3756150  47.4995252 100.0353780  52.2368057  47.8938727 100.5747663
  51.4405201  46.4122663  99.9934645  50.0745737  47.9391628 100.6737073
  50.1882072  48.8667688 101.2347185  49.7083011  47.1561452 101.3376557
  49.0816469  48.1487602  99.5071593  48.3903467  47.3110572  99.4152028
  48.2857629  49.4483551  99.7253699  47.2862020  49.4564931 100.4485082
  48.7612239  50.5315400  99.1207722  49.6469169  50.4629110  98.6402129
  48.1131313  51.8275822  99.1865326  47.4552390  51.8814387 100.0539290
  49.1847459  52.9198455  99.3148956  48.6886183  53.8834115  99.1987182
  49.6098362  52.8490117 100.3160854  50.3197899  52.7911588  98.2599738
  50.4170111  51.7534417  97.5365845  51.1288184  53.7469960  98.1544555
  47.1886342  52.0902028  97.9748744  46.4769433  53.0889499  97.9654293
  47.1909514  51.2058017  96.9710615  47.7718793  50.3816220  97.0289397
  46.4504715  51.4599788  95.7045274  46.8274910  52.3846316  95.2675233
  46.6022804  50.3063446  94.6474909  47.6365858  49.9886008  94.5157694
  46.0189510  49.4820381  95.0577901  46.0215735  50.7176637  93.2988107
  44.6976014  50.3727874  92.9677230  44.1444660  49.7446130  93.6659620
  44.0973413  50.8034224  91.8032183  43.0626607  50.5333138  91.5920805
  44.8174173  51.6249984  90.8933366  44.1803529  52.0175811  89.7165250
  43.2857922  51.6771239  89.6427023  46.1442580  51.9877965  91.1868401
  46.7211285  52.6085934  90.5013241  46.7371103  51.5278928  92.4102046
  47.7602948  51.8091111  92.6594233  44.9676806  51.7529593  95.9884067
  44.4030582  52.7870980  95.5640311  44.3358089  50.8692631  96.7372819
  44.7979327  50.0256566  97.0452902  42.8929413  50.9935513  96.9637761
  42.4030703  51.3584599  96.0610207  42.3017264  49.6326713  97.3235670
  42.9747827  49.1648262  98.0420483  41.2962045  49.6743607  97.7422408
  42.2355378  48.7198480  96.1427678  41.4032603  48.9631816  95.0703667
  41.5723643  48.0170051  94.1639960  40.9833944  48.0158188  93.2468198
  42.5082827  47.1883146  94.5950259  42.8520476  46.3743029  94.1058322
  42.9461972  47.6106923  95.8259938  43.7307193  47.0591452  96.3440886
  42.4806822  52.1075699  97.9369719  41.3223051  52.4913396  97.9578607
  43.4232900  52.6666098  98.6928197  44.3175262  52.2120868  98.8105050
  43.1111068  53.8206016  99.5460574  42.0298890  53.8782866  99.6715152
  43.7739102  53.7276825 100.9593881  43.7280021  54.7398840 101.3611838
  43.1177757  53.0775150 101.5380674  45.2136644  53.2084547 101.0466153
  45.2676897  52.2868424 100.4671217  45.8629437  53.9590361 100.5958759
  45.6792425  52.9298645 102.5123528  46.6248567  53.4516645 102.6594501
  44.9260105  53.3489092 103.1795429  45.8661300  51.4261485 102.8257170
  44.9207548  50.9037290 102.6792786  46.6196026  51.0064851 102.1591881
  46.3027133  51.2668467 104.2203198  45.6044668  51.6552669 104.8381235
  46.4247017  50.2853269 104.4248624  47.1789193  51.7505009 104.3561163
  43.3667594  55.1498385  98.8057701  42.7444479  56.1656925  99.1165915
  44.2346687  55.1279701  97.7914801  44.7509030  54.2791808  97.6093862
  44.5072737  56.3119421  96.9426951  44.4051215  57.2175640  97.5406191
  45.9389892  56.2526432  96.3310062  46.0811937  55.2720422  95.8768035
  46.1341595  57.3116667  95.2983824  45.9925618  58.2926391  95.7519722
  47.1431813  57.2420709  94.8920177  45.4095261  57.1750986  94.4956652
  46.9928176  56.4309545  97.4395985  46.8941160  57.4497257  97.8143838
  46.7446613  55.7266322  98.2336061  48.4155173  56.1970926  96.9855721
  48.6645700  56.9014039  96.1918351  49.0942274  56.3426860  97.8259615
  48.5151146  55.1783104  96.6110551  43.4898428  56.4423167  95.8085246
  43.0931969  57.5528037  95.4303426  43.0960569  55.2921945  95.2652379
  43.4593658  54.4307924  95.6474583  42.1992340  55.2154695  94.1193426
  41.9619271  56.1881905  93.6885311  42.7807125  54.3112853  93.0408647
  43.0585022  53.3615437  93.4979470  41.7641760  54.0589784  91.9100244
  41.4862422  55.0082835  91.4521233  42.2112730  53.4100490  91.1569670
  40.8751292  53.5799277  92.3201530  44.1114454  54.8908793  92.5236978
  44.8287719  54.7422794  93.3308295  44.3897802  54.2700998  91.6720746
  44.1138420  56.3911708  92.0959928  43.8360333  57.0126479  92.9472792
  45.1101272  56.6701223  91.7529169  43.3970393  56.5404687  91.2885252
  40.8467290  54.6880926  94.6371050  40.7178857  53.4933172  94.9805654
  39.8682431  55.5968844  94.7343674  40.0673177  56.5697520  94.5499841
  38.5419811  55.2445168  95.2519378  38.6369365  54.4370236  95.9779112
  37.8771766  56.4546536  95.9439305  38.3937886  57.3468656  95.5901382
  36.8393642  56.4805895  95.6117065  37.9227901  56.4115268  97.4991815
  37.4771558  57.3377764  97.8619110  37.3126210  55.5663073  97.8176147
  39.3432351  56.2651634  98.0763233  39.6964854  55.2590575  97.8503497
  39.9845430  56.9945347  97.5815090  39.3854557  56.4924038  99.5884917
  40.3917013  56.8212568  99.8481570  38.6728659  57.2820064  99.8269088
  39.0485943  55.2714861 100.3637230  39.7090364  54.5398333 100.1432688
  39.0915827  55.4774157 101.3515717  38.1160596  54.9668439 100.1235748
  37.6202815  54.6078484  94.1832919  36.7363330  53.8382522  94.5170148
  37.8402377  54.8912276  92.9029855  38.5899911  55.5062319  92.6206049
  37.0096468  54.2888118  91.8629745  36.3090283  53.5871317  92.3156090
  36.2156277  55.3558207  91.1130921  36.9398996  56.0157154  90.6355269
  35.5795234  54.9039007  90.3520141  35.3708805  56.1588077  92.0174587
  35.5784865  57.3643552  92.1700037  34.4311116  55.4983142  92.6747270
  33.8204273  55.9928725  93.3092162  34.3289229  54.5027309  92.5388148
  37.8826117  53.5926260  90.8738125  38.1428156  54.1521676  89.8082721
  38.3672647  52.3880305  91.2035657  38.0837833  51.5643088  92.3949194
  37.0567740  51.2013747  92.3545337  38.2222435  52.1618797  93.2959393
  39.0892760  50.4594549  92.2821892  38.7192907  49.5593180  92.7730695
  40.0332269  50.7590864  92.7374682  39.2518317  50.2483019  90.7823855
  38.4541335  49.5939775  90.4307661  40.2171306  49.8256013  90.5037784
  39.0944830  51.6302490  90.1693051  40.0355368  52.1464551  89.9794439
  38.3097424  51.5019504  88.8593041  37.0904527  51.3337350  88.8849986
  39.0029860  51.5570317  87.7259232  39.9795729  51.8146031  87.7317845
  38.3509331  51.3393120  86.4347070  37.5921308  50.5629640  86.5326964
  37.6780150  52.6206932  85.9463530  37.0786417  52.9905496  86.7782527
  38.4795130  53.3281969  85.7338922  36.7880187  52.4667100  84.7027563
  36.2510756  53.4058469  84.5692843  37.4468277  52.3011315  83.8503147
  35.5855186  51.0975666  84.8065469  34.6994531  51.5882869  86.3055524
  34.2472579  52.5687837  86.1564057  33.9196317  50.8583327  86.5226840
  35.3968570  51.6338245  87.1420064  39.3794195  50.8071743  85.4470662
  40.5735641  51.0926765  85.5744912  38.9177676  49.9724693  84.5179322
  37.9373731  49.7299514  84.5284682  39.7581671  49.3929508  83.4883940
  40.5954324  50.0569553  83.2734891  40.3106761  48.0452591  83.9565850
  41.0573362  47.6862333  83.2482782  40.7818406  48.2175096  84.9242801
  39.2234018  47.0145754  84.1045800  38.4898101  47.0685886  85.1270221
  39.0837393  46.1785751  83.1821619  38.9213481  49.1971919  82.2467884
  37.6986125  49.2580606  82.3008127  39.5808633  48.9204085  81.1313295
  40.5884536  48.8532156  81.1499382  38.8979375  48.7682214  79.8433304
  38.1470211  49.5507645  79.7344728  39.8920687  48.8751404  78.6748851
  40.8724162  48.6082351  79.0695744  39.5867205  48.1376391  77.9326221
  39.9630038  50.2232512  78.0366724  38.9506024  50.6271535  78.0393423
  40.6010022  50.8391212  78.6705211  40.6091529  50.2435906  76.3402967
  42.1968443  49.4595331  76.6131626  42.0438627  48.4596836  77.0193604
  42.7349155  49.3887056  75.6678777  42.7790526  50.0525270  77.3184944
  38.1231080  47.4595584  79.7021701  37.1250250  47.4200148  78.9977337
  38.6030689  46.3905717  80.3220426  39.5182360  46.4243569  80.7479853
  37.8394320  45.1407952  80.4123215  37.7148140  44.7055650  79.4207852
  38.3573567  44.4311920  81.0575476  36.4752656  45.4325450  80.9967581
  35.4404832  45.0546694  80.4311873  36.4701992  46.1564498  82.1127380
  37.3422818  46.3921021  82.5644452  35.2216166  46.4977536  82.7944669
  34.6542555  45.5783315  82.9389090  35.4643783  47.1459911  84.1671445
  36.1010923  48.0191288  84.0245748  34.1208810  47.5844216  84.8553240
  33.4837929  46.7116817  84.9986540  34.3384689  48.0375600  85.8224952
  33.6074218  48.3084793  84.2227098  36.0976584  46.1754187  85.0005793
  36.2612284  46.5554133  85.8668641  34.3238433  47.3342710  81.9247609
  33.1222950  47.1092628  81.8896867  34.9024821  48.3011885  81.2202870
  35.8897741  48.4847340  81.3282913  34.1335673  49.1526518  80.3104176
  33.2589151  49.5757908  80.8044177  34.9863966  50.2824335  79.7275202
  35.9153481  49.8677984  79.3360778  34.2287438  50.9747559  78.6061576
  33.2998281  51.3900760  78.9969587  34.8406446  51.7777791  78.1952660
  34.0017144  50.2535444  77.8210393  35.4084661  51.2738292  80.8368271
  34.4923379  51.7439510  81.1943120  35.8442698  50.6742054  81.6359679
  36.4329804  52.3873381  80.3977889  35.9976687  52.9877044  79.5989373
  36.6614730  53.0278071  81.2496632  37.3496003  51.9179582  80.0405908
  33.5225213  48.3898287  79.1544259  32.3853871  48.6651808  78.7500002
  34.3119314  47.4813253  78.5858703  35.2550372  47.3682509  78.9291849
  33.8941663  46.6828996  77.4688140  33.5573565  47.3245395  76.6545925
  35.0680284  45.8315357  76.9685279  35.8930157  46.5282967  76.8201389
  35.3084328  45.1537511  77.7876212  34.8424482  45.0122616  75.6682470
  34.0865058  44.2500758  75.8572572  34.4928092  45.6833411  74.8837045
  36.1740933  44.3246414  75.2116815  36.8639099  45.1377876  74.9857493
  36.5347750  43.7736546  76.0802560  36.0861166  43.3730471  73.9992108
  35.3924193  42.5731807  74.2582442  35.6854184  43.9436513  73.1613856
  37.4475313  42.7643211  73.6023068  37.8187980  42.2351875  74.3783729
  37.3244141  42.1540933  72.8069678  38.0903440  43.5053086  73.3618315
  32.6967238  45.7832274  77.8727132  31.7185020  45.7055219  77.1449701
  32.8203556  45.1118932  79.0228499  33.7177544  45.1677986  79.4829037
  31.7642466  44.2860506  79.6449945  31.4976319  43.4509178  78.9972530
  32.2947279  43.7251573  80.9782497  33.3359626  43.4644875  80.7885640
  32.2512767  44.5579471  81.6801566  31.5619735  42.5087929  81.5785667
  30.6841889  42.3341961  80.9563841  32.2416333  41.6609232  81.4932336
  31.1147453  42.6753477  83.0848925  30.0546465  42.9243047  83.0368309
  31.2353373  41.6851955  83.5243871  31.8669763  43.7433336  83.9775053
  31.8208328  44.6789231  83.4201512  31.2764579  43.8345921  84.8891297
  33.2996639  43.4423479  84.3354325  33.8471098  43.3581729  83.4908513
  33.6693745  44.1915060  84.9030382  33.3425960  42.5756647  84.8522652
  30.4946869  45.1370575  79.8801187  29.3931819  44.7534729  79.5067106
  30.6706076  46.3113740  80.4692134  31.5871231  46.5594925  80.8135039
  29.5585817  47.2373699  80.7196589  28.8052260  46.7467371  81.3359655
  30.0470321  48.4894151  81.4492259  30.9597464  48.8269709  80.9581985
  29.2773790  49.2548756  81.3502087  30.3211135  48.2456342  82.8915904
  29.4003172  47.9051983  83.3652341  31.0798046  47.4671649  82.9720606
  30.8111946  49.5023150  83.5849655  31.8370658  49.7336075  83.2982759
  30.1695709  50.3528171  83.3546081  30.7709233  49.2638539  85.0140962
  30.5804835  48.3120596  85.2932373  30.9490733  50.1747468  85.9571246
  31.1999162  51.4511515  85.6736870  31.2591588  51.7491659  84.7104748
  31.3298219  52.1156007  86.4231745  30.8830994  49.7828803  87.2095575
  30.7011686  48.8125984  87.4229923  31.0146231  50.4537693  87.9530009
  28.8172450  47.6275049  79.4397196  27.5884401  47.6267346  79.4172730
  29.5589245  47.9556930  78.3914953  30.5554260  48.0857628  78.4923211
  28.9572780  48.2049904  77.0854711  28.2256069  49.0081753  77.1729388
  30.0091271  48.6125648  76.0535430  30.8138628  47.8913047  76.1959635
  29.6158327  48.5221162  75.0410023  30.5490883  50.0259320  76.2653921
  30.7549452  50.1679579  77.3263126  31.8460219  50.2465327  75.4555010
  31.6408408  50.1051222  74.3943683  32.2113705  51.2598089  75.6225111
  32.6022220  49.5305342  75.7773830  29.4218941  51.0237348  75.8947903
  28.5568764  50.8495550  76.5347163  29.7782114  52.0441018  76.0361781
  29.1369634  50.8800765  74.8525448  28.1844359  46.9857901  76.5845602
  27.0768252  47.1439912  76.1399346  28.7502526  45.7827912  76.6871286
  29.6910476  45.6850779  77.0413267  28.0674809  44.5920181  76.2057429
  27.7096385  44.7639966  75.1906214  29.0076317  43.3802350  76.1952945
  29.4584690  43.3039327  77.1847504  28.4020623  42.4945161  76.0032326
  30.1240444  43.4839028  75.1260795  29.6934635  43.1870343  74.1697480
  30.4158369  44.5332153  75.0824957  31.3641532  42.6180893  75.4215808
  32.2857247  42.5913503  74.5679602  31.4353125  41.9760219  76.4983889
  26.8112392  44.2818480  77.0072385  25.8798446  43.7451233  76.4527543
  26.7905737  44.6345571  78.2947451  27.6019333  45.0873440  78.6906984
  25.6509801  44.3582176  79.1737179  25.1088787  43.4911268  78.7963868
  26.1073383  44.0635880  80.6290280  26.7143273  44.8967079  80.9833932
  25.2133263  43.9775600  81.2466378  26.9289503  42.7607633  80.7648465
  27.8154409  42.6571042  81.6238536  26.6247914  41.7767798  79.9345147
  27.1320728  40.9047281  79.9823809  25.8867044  41.9021570  79.2565700
  24.6643647  45.5196584  79.2011277  23.7389024  45.5009657  79.9969744
  24.8588947  46.5322523  78.3540353  25.6507304  46.4966055  77.7280760
  24.0269723  47.7762218  78.3756930  24.5133626  48.5525137  77.7850201
  22.6291616  47.5107517  77.7843448  22.7183716  46.8917067  76.8916387
  22.0560704  46.9753688  78.5413334  21.8781120  48.7914116  77.4178758
  20.6422735  48.8031911  77.3107059  22.6095241  49.8655102  77.2600705
  22.1691483  50.7414739  77.0174667  23.6108177  49.8132690  77.3816554
  23.9359096  48.3989092  79.7636833  22.8627440  48.7987308  80.2246532
  25.0797433  48.4434990  80.4476198  25.9090623  48.0292061  80.0467572
  25.1841808  49.0660173  81.7621687  24.4531151  48.6314472  82.4439245
  26.5876105  48.8312672  82.3339926  26.6525764  47.7575836  82.5102939
  27.3152986  49.1190308  81.5752026  26.8804318  49.5702609  83.6174606
  27.4051769  50.8561903  83.5994639  27.6090983  51.3317567  82.6401140
  27.6699270  51.5351763  84.7809216  28.0688291  52.5494166  84.7637286
  27.4303539  50.9076881  85.9877830  27.6890709  51.5580930  87.1626280
  28.0342122  52.4444139  87.0325798  26.9222071  49.6282345  86.0263116
  26.7232238  49.1385570  86.9795807  26.6645700  48.9649835  84.8418846
  26.2833559  47.9439939  84.8607536  24.9333045  50.5828263  81.6892270
  24.2901300  51.1680638  82.5866949  25.4584004  51.2117846  80.6295649
  25.9254791  50.6858564  79.9047640  25.4556291  52.6549977  80.5359952
  25.5845838  53.0751355  81.5334690  26.5878380  53.1810979  79.6292187
  26.4222862  52.7582231  78.6383258  26.4908690  54.2657331  79.5816415
  27.9866812  52.8174270  80.1086988  28.5391401  53.4388889  81.2124738
  27.9509481  54.1924111  81.7362427  29.7988731  53.1255296  81.6519277
  30.2174988  53.6386475  82.5177015  30.5396621  52.1860050  80.9897576
  31.7811209  51.8785536  81.4521057  32.0236972  52.3772525  82.2357229
  30.0287837  51.5338003  79.8752149  30.6121074  50.7831898  79.3419067
  28.7548322  51.8526334  79.4451882  28.3314757  51.3501361  78.5754953
  24.1130486  53.1525551  80.0611951  23.4456592  52.5276460  79.2575869
  23.7377160  54.2992832  80.5993719  24.2607149  54.6816884  81.3741865
  22.5712291  55.0090932  80.1475897  21.8282467  54.3193657  79.7471497
  21.9668326  55.7382517  81.3324807  22.7326805  56.2816869  81.8858832
  21.1787334  56.4282377  81.0309529  21.3528288  54.7834458  82.2848409
  21.9125636  54.2715953  83.4183012  22.9230118  54.5991298  83.6628734
  21.0305532  53.4114312  84.0314604  21.1969935  52.9227761  84.8995695
  19.8758987  53.3476285  83.2881541  18.6956816  52.6331056  83.5091215
  18.6363376  51.9928390  84.3892553  17.6709442  52.7841610  82.5916556
  16.7346901  52.2443975  82.7337242  17.8103470  53.6219128  81.4750448
  17.0067593  53.7305701  80.7466631  18.9898764  54.3443612  81.2644559
  19.0363651  55.0119674  80.4040830  20.0420338  54.2029834  82.1779864
  22.8746944  55.9970613  79.0244544  21.9594867  56.4229831  78.3235774
  24.1415200  56.4002179  78.8912936  24.8399605  56.0483064  79.5303855
  24.5587655  57.3667246  77.8670494  23.9867915  57.1987490  76.9545095
  24.3218228  58.8043500  78.3350485  24.4970972  59.4739913  77.4930516
  23.2854297  58.8942494  78.6604830  25.1887333  59.1558961  79.4093852
  25.0145717  60.0609268  79.6780616  26.0235797  57.1909369  77.5263048
  26.7797418  56.6138262  78.3193793  26.4208289  57.6902692  76.3527949
  25.7313961  58.0466033  75.7064144  27.8256461  57.6875254  75.9379815
  28.1973226  56.6628679  75.9322586  27.9759810  58.2698935  74.5314988
  27.6163557  59.2988268  74.5233760  29.0260656  58.2502602  74.2398878
  27.3927967  57.6761591  73.8275991  28.6713035  58.4714354  76.9392516
  29.7873602  58.0551762  77.2645006  28.1331863  59.5960313  77.4447125
  27.2599097  59.9528472  77.0839220  28.8644118  60.4087465  78.4467540
  29.8452511  60.6824449  78.0579834  28.0841421  61.6958384  78.7620723
  28.6087736  62.2468418  79.5426209  28.0286250  62.3070462  77.8612710
  26.7825531  61.3870300  79.2001264  26.3086052  62.1993541  79.3927470
  29.1915568  59.5983833  79.7137511  30.2611083  59.7784201  80.3356774
  28.2938087  58.6780527  80.0835252  27.3981973  58.6221417  79.6200023
  28.5265811  57.8278615  81.2313101  28.8222802  58.4587863  82.0695196
  27.2776429  56.9934350  81.6518282  26.3998767  57.6395368  81.6651752
  27.1239769  56.1874103  80.9343249  27.4962767  56.3980893  83.0513349
  28.4061405  55.8012843  82.9875184  27.6689614  57.2542690  83.7034357
  26.3792293  55.5533397  83.6155654  25.3295428  55.4499930  82.9717528
  26.6126537  54.9889569  84.7333141  29.7344984  56.9330865  80.9934391
  30.5140131  56.7039350  81.8957109  29.8711120  56.4195972  79.7830154
  29.1512613  56.6011176  79.0982055  31.0055871  55.5967016  79.3900941
  31.1493635  54.7828989  80.1008351  30.7399881  54.9993036  78.0125377
  29.7945989  54.4570559  78.0300278  30.6850497  55.8006316  77.2756827
  31.9545866  53.8528482  77.4043137  31.3462680  53.6065345  76.2475180
  32.2851486  56.4343789  79.3423945  33.3384867  56.0427930  79.8559481
  32.1800569  57.5882183  78.7106032  31.3473099  57.8046177  78.1816391
  33.2917448  58.5388759  78.6738997  34.1247294  58.1079216  78.1184591
  32.8726301  59.8321755  77.9948711  31.9593516  60.1773555  78.4795075
  33.6668378  60.5610430  78.1563835  32.6218038  59.6718558  76.4790565
  33.5952668  59.6292787  75.9905304  32.1010533  58.7254425  76.3333757
  31.6515974  60.9989911  75.7493309  32.6427595  62.3223365  76.2487714
  33.6435961  62.2043594  75.8334322  32.2094907  63.2565512  75.8915297
  32.7015974  62.3424410  77.3369971  33.8455693  58.7994378  80.0797663
  35.0482266  58.8902563  80.2746212  32.9640214  58.8953745  81.0561501
  31.9754263  58.8712025  80.8507364  33.3748370  59.1025137  82.4283946
  33.9810638  60.0047949  82.5088734  32.1459699  59.2627629  83.3089489
  31.6269592  60.1637388  82.9818869  31.5087265  58.3949708  83.1387791
  32.4653746  59.3723637  84.7852718  31.5328386  59.3480007  85.3490837
  33.1081624  58.5548201  85.1116894  33.1556548  60.6599490  85.0638226
  32.4856494  61.6795548  85.2129121  34.5246590  60.6478759  85.1098957
  35.0281698  61.5032941  85.2965448  35.0244315  59.7836098  84.9570137
  34.2557642  57.9838804  82.9697611  35.2193972  58.2201811  83.7327713
  33.8919872  56.7492544  82.6379090  33.0211584  56.5768859  82.1561979
  34.6959495  55.5946990  83.0567888  34.8898856  55.6490690  84.1280180
  33.9583271  54.2952692  82.7610213  33.4412659  54.4257932  81.8103845
  34.6844448  53.4873237  82.6711490  32.9528176  53.9518612  83.8388440
  32.9933966  54.6153428  84.9143822  32.1519353  53.0164254  83.6119357
  36.0889803  55.5881674  82.4272926  37.0593276  55.2475272  83.0817293
  36.1873367  56.0018925  81.1709122  35.3574692  56.1941019  80.6282570
  37.4799415  56.1434753  80.5253301  38.0338179  55.2077780  80.6014266
  37.3094309  56.4882106  79.0567683  36.4328116  57.1135346  78.8876299
  38.2027346  57.0190686  78.7276812  37.1648326  55.2959814  78.1608381
  35.9674275  55.0246774  77.5239205  35.1048509  55.6628084  77.7158846
  35.8575932  53.9591872  76.6530840  34.9111920  53.7854490  76.1409898
  36.9239265  53.1223528  76.4285504  36.8266401  52.2684589  75.7581024
  38.1413883  53.3735849  77.0684428  38.9993307  52.7210762  76.9063708
  38.2512377  54.4670416  77.9174419  39.2015112  54.6854433  78.4046595
  38.3195992  57.2126642  81.2141167  39.4976665  56.9710913  81.5032495
  37.7207459  58.3781722  81.4699252  36.7809770  58.5403752  81.1373234
  38.3975230  59.4565264  82.1875546  39.2707139  59.7765536  81.6190307
  37.4812106  60.6516417  82.3833375  36.4549644  60.2916033  82.4560719
  37.7562151  61.1535803  83.3109852  37.5639533  61.6513655  81.2494142
  38.0717866  61.3540617  80.1609649  37.0616657  62.8592125  81.4995235
  37.0864987  63.5712421  80.7836345  36.6582208  63.0576246  82.4039380
  38.9030807  59.0099886  83.5427333  40.0211728  59.3614536  83.9217271
  38.0682738  58.2863781  84.2856999  37.1295975  58.1210841  83.9515383
  38.4549811  57.7200721  85.5860045  38.7562589  58.5191110  86.2634022
  37.3036204  56.9334723  86.2350773  36.9630344  56.1699794  85.5356632
  37.7664335  56.2576131  87.5530728  38.1067510  57.0205677  88.2532042
  36.9337865  55.7079174  87.9919723  38.5843116  55.5689503  87.3411302
  36.2454218  57.8637300  86.4878584  35.5066533  57.4051753  86.8947355
  39.6377878  56.7700383  85.4535135  40.6074287  56.8599778  86.2171131
  39.5545876  55.8703444  84.4776807  38.7144053  55.8138041  83.9200104
  40.6303722  54.9335536  84.1997390  40.7256441  54.2144448  85.0133145
  40.3236258  54.1751076  82.9121850  39.3075910  53.7885328  82.9917620
  40.3771906  54.8879403  82.0893239  41.2747950  53.0364119  82.6523097
  42.2748735  53.4693816  82.6303739  41.1895556  52.3631302  83.5052622
  41.0046499  52.1274808  81.1678913  41.4751304  53.3183439  79.9014609
  42.5174833  53.6050041  80.0408360  41.3509213  52.8695852  78.9159212
  40.8421447  54.2022307  79.9800381  41.9865441  55.6582464  84.0641795
  42.9853398  55.2993337  84.6858931  42.0158915  56.6701617  83.2188966
  41.1807154  56.9212897  82.7094706  43.2419857  57.4218574  82.9538898
  44.0618650  56.7437420  82.7171272  43.0120452  58.3487537  81.7562923
  42.1285624  58.9615288  81.9353570  43.8740499  58.9948038  81.5899575
  42.7706096  57.6113944  80.4651533  43.6339785  56.5909080  80.0572554
  44.4938152  56.3534827  80.6836818  43.4149263  55.8837038  78.8798514
  44.0845869  55.0770530  78.5815732  42.3343544  56.2136117  78.0853420
  42.1516599  55.6673231  77.1599818  41.4654365  57.2594884  78.4720375
  40.6144620  57.5228087  77.8438616  41.6952141  57.9467206  79.6450734
  41.0325276  58.7608726  79.9385065  43.7054042  58.2384662  84.1557643
  44.8932484  58.2339392  84.5221734  42.7521479  58.9195429  84.7785468
  41.8185612  58.9114487  84.3932550  43.0118132  59.7566521  85.9475071
  43.7895608  60.4851067  85.7182437  41.6999724  60.5351045  86.3791871
  40.8979189  59.8110310  86.5224628  41.9168392  61.3103810  87.6655654
  42.7184908  62.0350225  87.5229159  40.9989233  61.8330500  87.9345387
  42.1890982  60.6207267  88.4645352  41.3273262  61.4628205  85.3297192
  40.5330009  61.9359855  85.5881038  43.5685770  58.9329015  87.0840435
  44.4884680  59.3719146  87.7775173  43.0104409  57.7537266  87.3196971
  42.1948113  57.4385894  86.8141911  43.5524590  56.8873067  88.3806962
  43.4106938  57.3693878  89.3479602  42.8518161  55.5289651  88.4045643
  42.8877920  55.1466034  87.3844640  43.3733175  54.8399173  89.0689056
  41.3930554  55.6166746  88.8410094  40.9648102  56.6244897  89.4070869
  40.6438541  54.5330283  88.6247180  39.6702914  54.5340646  88.8935571
  41.0540584  53.7171494  88.1932381  45.0505556  56.6583431  88.2386639
  45.7982426  56.7196188  89.1993571  45.4523305  56.3711036  87.0097606
  44.7411204  56.2007822  86.3131473  46.8419560  56.1798584  86.6356586
  47.3034392  55.3797640  87.2144344  46.8626274  55.7844979  85.1436945
  46.2536976  54.8934028  84.9912045  46.4665135  56.6020554  84.5413711
  48.3982698  55.4234854  84.4989283  47.9722428  55.1526104  83.2684706
  47.7177786  57.4232599  86.9591849  48.8000375  57.2583805  87.5545542
  47.2429958  58.6440118  86.6113887  46.4006868  58.7014084  86.0570238
  47.9428938  59.8990094  86.9538107  48.9892050  59.8133857  86.6605520
  47.3274547  61.1216887  86.2364998  46.3808011  61.3721033  86.7152885
  48.0352401  61.9375353  86.3832454  47.1011097  60.9084022  84.7455083
  48.0068797  60.1793827  83.9893071  48.8895168  59.7638991  84.4755423
  47.8031602  59.9770525  82.6402171  48.5356830  59.4207456  82.0553797
  46.6785699  60.4702313  82.0373271  46.4990479  60.2528044  80.7035852
  47.2147333  59.7518635  80.3055246  45.7428565  61.1831881  82.7730737
  44.8399250  61.5690446  82.2998614  45.9634680  61.4007079  84.1097564
  45.2410834  61.9686614  84.6960068  47.9564662  60.1621504  88.4771336
  48.8819972  60.7563810  88.9804740  46.9397792  59.7210706  89.2119792
  46.1747979  59.2270272  88.7751449  46.8840639  59.9496538  90.6714430
  47.1920470  60.9692567  90.9030794  45.4623077  59.6802894  91.2842569
  45.1298656  58.6815381  91.0012754  45.5304368  59.7828060  92.8229530
  45.8623839  60.7814963  93.1067301  44.5427364  59.5954198  93.2441834
  46.2343680  59.0439970  93.2060214  44.4208219  60.6473292  90.7178422
  44.6797440  61.6403705  91.0851691  44.5249761  60.6231813  89.6330988
  42.9574369  60.3204807  91.1027776  42.8523904  60.3448969  92.1874292
  42.2904547  61.0583729  90.6569650  42.6976232  59.3277061  90.7353605
  47.8897256  59.0281130  91.3557706  48.6364450  59.4556052  92.2378282
  47.8807979  57.7477873  90.9636235  47.2539988  57.4241382  90.2408002
  48.7255717  56.7669128  91.6368326  48.6878145  56.9472429  92.7111485
  48.2764048  55.3280726  91.3660470  47.2131568  55.3061656  91.6050512
  48.4195433  55.0477531  90.3224798  49.0023575  54.3655987  92.2427971
  48.7127225  54.2955557  93.5922157  47.9182853  54.9299257  93.9853362
  49.3970004  53.4549407  94.4312479  49.1467507  53.4129941  95.4913033
  50.4120129  52.6723163  93.9328851  51.0746218  51.8345659  94.8015356
  50.7431674  51.8884907  95.7008853  50.7383192  52.7279101  92.5816103
  51.5386910  52.1084814  92.1768716  50.0357059  53.5800250  91.7498285
  50.2904188  53.6415650  90.6917953  50.2006975  56.9265937  91.2529536
  51.0435253  56.7474436  92.0939694  50.5113364  57.2588405  89.9938510
  49.7825200  57.4558015  89.3229320  51.8972303  57.1999559  89.5177504
  52.5229828  56.6656837  90.2326533  51.9389858  56.4538158  88.1748068
  51.3370323  56.9945630  87.4445029  52.9722553  56.4080667  87.8307704
  51.3985812  55.0249521  88.2930163  52.1306610  54.0981525  88.6753285
  50.1048081  54.8383757  87.9695560  49.7002732  53.9149470  88.0306349
  49.5448242  55.6227109  87.6673358  52.5932924  58.5784305  89.4535378
  51.9453752  59.6194432  89.5507441  53.9166591  58.5724106  89.3573591
  54.4214995  57.7008637  89.4324687  54.6835036  59.8067140  89.2213933
  54.2621500  60.5727799  89.8723183  56.1583023  59.5835095  89.6134781
  56.5741165  58.8997316  88.8734474  56.6500490  60.5525859  89.5287653
  56.3891388  59.0113683  91.0297969  55.9739706  59.6948714  91.7704451
  55.8980409  58.0420162  91.1151277  57.8854193  58.8459865  91.2735565
  58.3012349  58.1622102  90.5335251  58.3771644  59.8150634  91.1888452
  58.1132873  58.2811981  92.6716680  57.6981186  58.9647000  93.4123168
  57.6221918  57.3118460  92.7569959  59.5556034  58.1217830  92.9066364
  60.0107900  59.0199631  92.8280402  59.7065201  57.7477254  93.8325980
  59.9404236  57.4881374  92.2207021  54.5243539  60.3049385  87.7538271
  54.4000840  59.4977918  86.8187778  54.5124884  61.6349975  87.5419888
  54.8045472  62.6713775  88.5512876  55.8773926  62.7071534  88.7405578
  54.2801670  62.4389119  89.4781556  54.3000616  63.9032815  87.9129086
  54.8699997  64.7566086  88.2804714  53.2479549  64.0333544  88.1663922
  54.4767492  63.7223457  86.4296036  55.4561674  64.0482881  86.0794598
  53.7000059  64.2726156  85.8985927  54.3112361  62.2221579  86.1875586
  53.2906552  61.9668216  85.9023984  55.2905799  61.7599099  85.0733381
  54.9637131  61.8467304  83.8875319  56.4801479  61.3122011  85.4568624
  56.7323022  61.3397893  86.4344903  57.4699139  60.8414355  84.5033273
  57.2852370  61.2864979  83.5256192  58.8906970  61.2356657  84.9648213
  59.6120476  60.7592909  84.3008781  59.0957511  62.7574826  84.9356105
  58.3750096  63.2345492  85.5997180  60.1067271  62.9948232  85.2668147
  58.9512496  63.1246548  83.9195375  59.0860641  60.7714021  86.3017088
  59.9669440  61.0115543  86.5983194  57.3898728  59.3062805  84.2793883
  58.0764801  58.7918687  83.4025919  56.5624954  58.5796600  85.0390206
  55.9953304  59.0224930  85.7477674  56.4889636  57.1146755  84.9000976
  57.4843102  56.6907210  85.0329393  55.5417949  56.4901835  85.9503496
  54.6290199  57.0858453  85.9390337  55.3138855  55.4710934  85.6379191
  56.1226831  56.4716097  87.3711419  57.3084164  56.7630640  87.5608149
  55.3963411  56.1432384  88.3278309  56.0170461  56.7006344  83.4900618
  55.1563670  57.3633611  82.8780898  56.5623918  55.5858366  83.0026494
  57.2745436  55.1176492  83.5446270  56.1769563  55.0077225  81.7241199
  56.5087134  55.6604223  80.9166427  56.8065021  53.6269103  81.5267500
  56.6227989  53.0515753  82.4341319  56.3075334  53.1463623  80.6852014
  58.2999040  53.6888766  81.2609042  58.8037180  54.7471887  80.7975243
  58.9648878  52.6579307  81.5162491  54.6842161  54.8392116  81.6202471
  54.1216278  55.2014584  80.6123082  54.0506705  54.2947258  82.6613063
  54.5910037  53.9309221  83.4331782  52.6101250  54.0451911  82.6451196
  52.3473471  53.5086321  81.7334446  52.1367188  53.2168897  83.8954109
  52.8009417  52.3600429  84.0082021  52.1594622  54.0485839  85.1726703
  51.4950722  54.9054224  85.0608031  51.8251777  53.4372755  86.0109165
  53.1744221  54.3986143  85.3609104  50.7197255  52.6659888  83.7133698
  50.5182480  52.0425415  84.5844732  50.0518521  53.5273715  83.7214031
  50.4932209  51.8760530  82.4767631  51.1604621  51.0141850  82.4682383
  49.4586151  51.5342213  82.4477636  50.6940686  52.4990149  81.6051677
  51.8298274  55.3591103  82.4407443  50.8398804  55.3718894  81.7127892
  52.3039172  56.4684206  83.0150260  53.0577225  56.3980757  83.6835531
  51.6536088  57.8032738  82.8157075  50.5745597  57.7354543  82.9541011
  52.2106915  58.8899999  83.7782985  53.2978337  58.8114816  83.7857804
  51.8007778  60.3155051  83.3477191  50.7136997  60.3949359  83.3404458
  52.2128318  61.0402997  84.0498479  52.1861019  60.5187309  82.3485564
  51.7370097  58.6096162  85.1718937  52.0921497  57.6282469  85.4863644
  52.1264020  59.3703222  85.8485026  50.6474002  58.6260182  85.1960407
  51.7165705  58.2548479  81.3460675  50.6819699  58.6306767  80.7548311
  52.9066422  58.1459114  80.7526107  53.7115926  57.8507553  81.2864993
  53.1029681  58.5282953  79.3661314  52.7490065  59.5488706  79.2204038
  54.5995377  58.4605182  78.9638943  54.7853627  57.3890228  79.0378267
  54.6578060  58.7676539  77.9196852  55.6602927  59.2239348  79.7841503
  55.6638486  58.8340834  80.8020423  57.0645979  59.0547023  79.1634455
  57.0619492  59.4447780  78.1456377  57.7944230  59.6021439  79.7599049
  57.3297859  57.9975944  79.1461666  55.3328558  60.6958134  79.9383556
  54.3755700  60.8041246  80.4482301  56.1128459  61.1826918  80.5237325
  55.2743467  61.1605985  78.9541552  52.2376129  57.6517732  78.4590420
  51.6861883  58.1483295  77.4843647  52.1018748  56.3651422  78.7946266
  52.6283614  56.0089799  79.5795212  51.2525321  55.4360406  78.0507333
  51.5265427  55.4567364  76.9959399  51.4155906  54.0062743  78.5702470
  51.2221687  54.0301675  79.6426817  50.6571697  53.3972938  78.0782708
  52.7954816  53.4039560  78.3155526  52.8421051  53.2046917  77.2449356
  53.5138658  54.1828288  78.5712545  53.2105777  51.8884014  79.2230075
  52.3136442  50.5954577  78.3088494  52.6622595  50.5714798  77.2763808
  52.4951712  49.6273479  78.7756598  51.2455182  50.8120385  78.3261955
  49.7880164  55.8331103  78.1375328  49.1038300  55.9076321  77.1156945
  49.3206632  56.1026405  79.3546094  49.9028741  55.9251556  80.1606050
  47.9617578  56.5947411  79.5759622  47.2748150  55.8284428  79.2168022
  47.6973873  56.8297825  81.0537639  48.3715757  57.6012470  81.4258023
  46.6654236  57.1523481  81.1919764  47.8652560  55.9045924  81.6050737
  47.6801900  57.8729614  78.8063718  46.5950159  58.0235678  78.2661276
  48.6311527  58.8091706  78.8034861  49.4604788  58.6933953  79.3682104
  48.4630997  60.0703965  78.0588275  47.5492246  60.5703806  78.3796817
  49.6465823  61.0035935  78.3157848  50.5534794  60.4014109  78.2608932
  49.6549316  61.7456644  77.5174358  49.5864167  61.7185894  79.6812916
  48.8196154  62.4914382  79.6281762  49.3195763  60.9950803  80.4516375
  50.8927191  62.3625613  80.0583745  51.9452591  62.0579897  79.5054752
  50.8353321  63.2443009  81.0050714  51.6776373  63.7137018  81.3055481
  49.9485400  63.4584370  81.4384844  48.2722418  59.8204789  76.5601012
  47.4113092  60.4301690  75.9244425  49.0783598  58.9225814  75.9998738
  49.8559050  58.5420881  76.5202080  48.9367725  58.5484117  74.5831099
  49.0279625  59.4703226  74.0087721  50.0824606  57.5475756  74.1224507
  49.9986761  56.6161144  74.6823258  49.9786561  57.3411970  73.0572123
  51.0568273  57.9981107  74.3114662  47.5439295  57.9780400  74.2927606
  46.8975339  58.3573866  73.3174700  47.0897004  57.0805466  75.1627051
  47.6763793  56.8119072  75.9397123  45.7903578  56.4315941  75.0200743
  45.6901760  56.0495256  74.0041577  45.6305810  55.2764855  75.9903446
  45.8838301  55.7198738  76.9533457  44.5825080  54.9770942  75.9931509
  46.4941166  54.0718783  75.7518708  47.5415304  54.3659706  75.6845294
  46.3019652  53.0861901  76.9698640  45.2548079  52.7912728  77.0375716
  46.9195603  52.2003017  76.8219491  46.5986612  53.5854297  77.8922694
  46.1544906  53.3912053  74.3972549  46.3157015  54.0988063  73.5839829
  46.7974717  52.5225838  74.2552218  45.1116777  53.0739866  74.4008089
  44.6629478  57.3955895  75.2316177  43.6578508  57.3480355  74.4962194
  44.8088869  58.2666234  76.2267492  45.6102212  58.2136574  76.8392501
  43.8076655  59.2847547  76.4896224  42.8392128  58.8067350  76.6369175
  44.1461145  60.0976474  77.7388553  44.1419416  59.3987214  78.5752669
  45.1548605  60.4844828  77.5943224  43.1959373  61.2543679  78.0380260
  43.1258208  61.8746681  77.1444869  42.2275052  60.7960216  78.2384184
  43.6119699  62.1354427  79.2484263  44.5115957  61.7529024  80.0391490
  43.0455760  63.2410620  79.3882230  43.6778811  60.2292028  75.2770682
  42.5761466  60.7123864  74.9740226  44.7899836  60.5547368  74.6276279
  45.7025127  60.2614415  74.9460109  44.7112757  61.4555885  73.4495344
  44.1917225  62.3746523  73.7206165  46.1192657  61.8154859  72.9558140
  46.5856367  62.4035443  73.7462473  46.6576333  60.8751417  72.8374366
  46.1659983  62.5880275  71.6602846  45.9923970  61.9019006  70.8313134
  45.3848385  63.3481319  71.6718039  47.5119005  63.2522600  71.4902419
  47.6984173  63.8875768  72.3560842  48.2776596  62.4784337  71.4363411
  47.5534835  64.0944958  70.2260364  47.5350504  63.4250329  69.3660479
  46.6696566  64.7321784  70.2084262  48.7889987  64.9492870  70.1689011
  49.6080820  64.3585668  70.1847740  48.7828034  65.4934929  69.3180770
  48.8060561  65.5699980  70.9654724  43.8730102  60.8363593  72.3370637
  43.0109221  61.4995422  71.7712847  44.1174045  59.5519477  72.0535640
  44.8827742  59.0883707  72.5219708  43.3639418  58.8007364  71.0369015
  43.3735175  59.3196072  70.0783710  43.9508555  57.3592357  70.8559761
  44.1852727  56.9501676  71.8387335  42.9406190  56.4390686  70.1447986
  42.7060514  56.8472687  69.1617160  43.3717370  55.4444159  70.0312026
  42.0282327  56.3735082  70.7375483  45.2819126  57.4470818  70.0679202
  45.0243383  57.2380433  69.0296239  45.6107536  58.4823129  70.1588031
  46.3947693  56.5257894  70.5051746  46.0668107  55.4902929  70.4141246
  47.2690309  56.6862830  69.8742961  46.6532244  56.7345612  71.5433052
  41.8725658  58.7310591  71.3947170  41.0244603  58.8879535  70.5305531
  41.5818379  58.4419441  72.6694145  42.3499509  58.1767367  73.2692201
  40.2233823  58.4514863  73.2377185  39.6322628  57.6420352  72.8093894
  40.2932661  58.2548650  74.7718888  40.4855798  57.2086749  75.0097984
  41.0943009  58.8724892  75.1780706  39.0433837  58.6381250  75.5037773
  37.8457447  57.9483111  75.2771065  37.8437915  57.1248619  74.5629443
  36.6797699  58.2933764  75.9388901  35.7545500  57.7523344  75.7405411
  36.6923318  59.3407551  76.8649993  35.7879182  59.6191019  77.4059788
  37.8784503  60.0303371  77.0921436  37.8938411  60.8603794  77.7984673
  39.0518922  59.6619386  76.4168766  39.9839294  60.1910753  76.6154237
  39.5089957  59.7640443  72.9108896  38.3766809  59.7602593  72.4067984
  40.1769370  60.8821769  73.1944158  41.0692596  60.8371968  73.6654110
  39.5946543  62.1941880  72.9410257  38.5775753  62.2236272  73.3319003
  40.4122079  63.2978219  73.6199654  41.4053926  63.1170943  73.2088438
  40.0477808  64.2657962  73.2759907  40.4852061  63.2943363  75.1555273
  40.7368152  62.2884927  75.4917895  41.5768286  64.3093027  75.6715549
  41.3256346  65.3155034  75.3360547  41.6081020  64.2872947  76.7608843
  42.5521622  64.0274757  75.2748205  39.1223476  63.5768155  75.7862493
  38.4116545  62.8112261  75.4749816  39.2147613  63.5660380  76.8722718
  38.7670903  64.5549667  75.4620404  39.4229785  62.4667995  71.4468164
  38.3802680  62.9818210  71.0389638  40.4354753  62.1263987  70.6370809
  41.3001804  61.7862918  71.0329491  40.3577448  62.3023207  69.1785147
  40.1882987  63.3540186  68.9476060  41.6587477  61.8536246  68.4968040
  41.9456721  60.9178461  68.9764834  41.4051142  61.6638470  67.4538493
  42.8406798  62.8531886  68.5669271  42.6488585  63.6713756  67.8727547
  42.8942228  63.2443779  69.5829026  44.1911765  62.2180872  68.2145893
  44.4492945  61.0764983  68.5692834  45.0406803  62.9538141  67.5141221
  45.9418002  62.5749328  67.2600879  44.7835598  63.8904411  67.2371379
  39.1442570  61.5353673  68.6024167  38.4329901  62.0399205  67.7257010
  38.9004985  60.3319991  69.1150802  39.5321346  59.9430970  69.8005657
  37.7774780  59.5149365  68.6669734  37.6772174  59.5923618  67.5843598
  37.9928323  58.0471282  69.0337162  38.1201923  58.0072859  70.1155162
  37.0828894  57.5153321  68.7556932  39.1835399  57.3956099  68.3611224
  40.0655839  58.0050538  68.5577881  39.3232683  56.4049068  68.7936560
  38.9826706  57.2702215  66.8783094  38.3416358  56.4117349  66.6778746
  38.5030003  58.1757769  66.5068456  40.3039494  57.0820342  66.1839070
  40.8244686  58.0390094  66.1470457  40.9015727  56.3654271  66.7473074
  40.0992516  56.5788652  64.8073208  39.5458643  57.2429475  64.2849637
  40.9948744  56.4583527  64.3562815  39.6173203  55.6919105  64.8412723
  36.4505676  59.9927848  69.2289304  35.4178811  59.9626666  68.5319615
  36.4560651  60.4505559  70.4821663  37.2589876  60.3365019  71.0841685
  35.2413490  61.0363855  71.0495528  34.4030337  60.3450672  70.9634963
  35.4071240  61.4284350  72.5334679  36.3622679  61.9340082  72.6755768
  34.2890319  62.3521177  72.9245080  33.3335174  61.8470468  72.7830995
  34.3990968  62.6336902  73.9717439  34.3219682  63.2468535  72.3028451
  35.4278500  60.1780136  73.4010777  36.2610717  59.5418163  73.1025869
  35.5450899  60.4625831  74.4467232  34.4922515  59.6329061  73.2761215
  34.7676373  62.2420079  70.2135978  33.5833367  62.3717088  69.9545616
  35.7068771  63.0786138  69.7669433  36.6615403  62.9176106  70.0546855
  35.4159478  64.2678886  68.9245583  34.6807069  64.8631637  69.4660079
  36.6748554  65.1000518  68.7412415  37.4173524  64.5206027  68.1925732
  36.4349577  66.0044936  68.1821937  37.0762028  65.3725850  69.7173282
  34.8381639  63.9342933  67.5589046  34.2435836  64.7871686  66.9209147
  35.0463516  62.7057499  67.0997837  35.5766717  62.0539120  67.6601114
  34.5519501  62.2607623  65.8096886  34.2964250  63.1232706  65.1941518
  35.6195136  61.4397510  65.0822344  35.6887616  60.4935980  65.6189825
  35.2300504  61.2606915  64.0800587  37.0139693  62.0748332  64.9831482
  36.9997331  62.8220615  64.1897076  37.2726104  62.5534552  65.9276734
  38.0898960  61.0272662  64.6523142  37.8008615  60.0199873  64.0095846
  39.3199704  61.2553562  65.1041338  40.0570584  60.5928221  64.9095800
  39.5112574  62.0900374  65.6396877  33.2985654  61.4039261  65.9822471
  32.8581586  60.7620131  65.0371795  32.7389531  61.3809270  67.1915188
  33.1871703  61.8743225  67.9503083  31.5049319  60.6432342  67.4753692
  31.5850843  59.6265256  67.0906895  31.2558917  60.5768510  68.9906030
  32.1393173  60.1132834  69.4296516  31.1768646  61.6073452  69.3369213
  29.9946056  59.7909742  69.4195738  29.1282807  60.4150209  69.2001478
  29.9511216  58.8845685  68.8157197  29.9741980  59.3381988  71.1784450
  30.7185767  60.7944090  71.9032804  30.1108668  61.6684982  71.6692809
  30.7778509  60.6727235  72.9848441  31.7212289  60.9305730  71.4980037
  30.3076540  61.3101895  66.7941194  30.2794695  62.5392518  66.6468597
  29.3204726  60.5006882  66.3622474  29.5029912  59.0615416  66.0899054
  29.3429418  58.4970121  67.0084864  30.5168759  58.8879407  65.7293510
  28.4687764  58.7691567  65.0478527  28.1296570  57.7389124  65.1559902
  28.9055609  58.9054010  64.0585306  27.3455583  59.7446807  65.2783307
  26.6359152  59.3366914  65.9980878  26.8237535  59.9895277  64.3531986
  28.0096870  61.0069346  65.8564218  28.2261834  61.7543391  65.0931302
  27.1062096  61.6356997  66.9550756  27.2280852  61.2501327  68.1200449
  26.2338019  62.5875149  66.6005355  26.2334012  62.9381730  65.6533618
  25.2912891  63.1885445  67.5721934  25.6088299  62.9279610  68.5818286
  25.2340508  64.7161528  67.4555631  26.2235574  65.1327604  67.6437491
  24.9087570  64.9925560  66.4526248  24.2475954  65.2675090  68.4795438
  23.2576964  64.8516779  68.2917000  24.5724969  64.9918853  69.4828247
  24.1616616  66.7847723  68.3958036  24.8375811  67.4035678  67.5768625
  23.3262798  67.3840839  69.2473823  23.2314797  68.3895322  69.2336723
  22.7928896  66.8293050  69.9014593  23.9120969  62.5998010  67.3599859
  23.7623097  61.3849545  67.3424761  22.9334296  63.3326955  67.2354244
  51.9004780  12.6098507  61.9261710  52.5032727  12.5085453  62.7302088
  52.3047725  13.2926616  61.3013386  51.6601788  11.6909158  61.5827842
  50.6153023  13.2074453  62.3837439  50.4469051  14.1601467  61.8816467
  49.4256389  12.2746691  62.0822151  49.3552067  12.1107961  61.0069086
  49.5753913  11.3196037  62.5857271  48.1364915  12.9166942  62.5837400
  48.2059978  13.0804635  63.6591233  47.9858107  13.8716546  62.0803039
  46.9595786  11.9939151  62.2854451  46.8891467  11.8300399  61.2101390
  47.1093313  11.0388510  62.7889589  45.6704311  12.6359422  62.7869685
  45.7399368  12.7997128  63.8623516  45.5197507  13.5908999  62.2835299
  44.5359652  11.7464425  62.4994334  44.6751853  10.8616514  62.9661905
  43.6821687  12.1716537  62.8315885  44.4711231  11.5949035  61.5029745
  50.6704349  13.4641340  63.8781339  51.2213529  12.6569909  64.6292925
  50.1479888  14.6196895  64.2921950  49.9013178  15.3295070  63.6173529
  49.9477953  14.9103676  65.7029529  50.7741955  14.4887272  66.2751253
  49.8848823  16.4211366  65.9721739  49.2914232  16.7796065  65.1311003
  49.3330346  16.5786175  66.8988691  51.2032758  17.1893255  66.0284812
  51.8112311  16.9202225  65.1647251  50.9327094  18.7177454  66.0143570
  50.3251532  18.9876977  66.8781278  51.8800479  19.2553438  66.0548367
  50.4026620  18.9849895  65.1001739  52.0278764  16.7807214  67.2449855
  52.2488027  15.7145943  67.1933726  52.9607556  17.3443378  67.2581835
  51.4641458  16.9908389  68.1539175  48.6584996  14.2596748  66.1861064
  47.6519095  14.1783479  65.4675353  48.7252555  13.7559854  67.4030364
  49.6318074  13.5916157  67.8168547  47.5478582  13.4539047  68.1880662
  47.1259481  12.4873563  67.9126116  47.9798886  13.3995736  69.6696596
  48.0322702  12.3532978  69.9707617  48.9685669  13.8509341  69.7526589
  47.0744345  14.0884892  70.5131625  47.3774515  14.0314487  71.4222977
  46.4510670  14.5096852  68.0702376  46.7008197  15.6973535  67.9258887
  45.2145781  14.0888512  68.2211241  45.0013333  13.1025777  68.1776427
  44.0955502  15.0422295  68.2914052  44.1156546  15.5527856  67.3285826
  42.7808961  14.2790152  68.4108599  42.7126643  13.5440761  67.6087950
  42.7419934  13.7698087  69.3738217  41.6260933  15.2462830  68.3063435
  41.6933933  15.9813034  69.1084136  41.6640623  15.7555692  67.3433870
  40.3095611  14.4819794  68.4259714  39.8314691  14.3358524  69.5825509
  39.7945299  14.0515546  67.3596330  44.2349281  16.1579837  69.3966638
  44.1390149  17.3663101  69.1119818  44.4478105  15.7807539  70.6574571
  44.3766258  14.8173059  70.9520754  44.6883741  16.8113697  71.6866307
  43.8896115  17.5515698  71.6399252  44.7265285  16.2133960  73.1160752
  45.0415326  15.1714509  73.0593124  45.4320346  16.7727640  73.7304600
  43.4064243  16.2266114  73.8526370  43.2288795  15.5722076  75.0560275
  41.9888306  15.7505911  75.4791541  41.6519116  15.3045031  76.4148838
  41.3534962  16.5021020  74.6004104  40.3930990  16.8087595  74.6612238
  42.2151791  16.8073649  73.5736942  41.8733686  17.4195203  72.7391089
  45.9894791  17.5980399  71.3609595  46.0872329  18.7946311  71.6578835
  46.9812015  16.9654056  70.7347587  46.9710406  15.9605660  70.6333016
  48.2031777  17.6851952  70.3814001  48.4692558  18.3630711  71.1924400
  49.3728447  16.7234964  70.1431533  48.9034232  15.8765172  69.6427845
  50.1058959  17.1778956  69.4766270  50.0864287  16.2300817  71.4427928
  49.3258253  15.8468567  72.1230295  51.1094905  15.1366142  71.1569971
  51.8707262  15.5192619  70.4771444  51.5795751  14.8253457  72.0898600
  50.6107028  14.2822896  70.6993501  50.7403004  17.3573054  72.2099411
  49.9840653  18.0868191  72.4997991  51.2210259  16.9585923  73.1032676
  51.4877987  17.8401773  71.5805129  47.9734147  18.6972242  69.2551425
  48.6225641  19.7449308  69.2032867  47.0722949  18.3715765  68.3199604
  46.6983099  17.4381058  68.2257960  46.6791839  19.3796091  67.3335436
  47.5702315  19.7288425  66.8118449  45.6967092  18.8319406  66.3060244
  44.8733839  18.3789818  66.8583496  45.3250984  19.6810551  65.7324305
  46.2878266  17.8206998  65.3737244  47.0073687  18.3404108  64.7410631
  46.8075685  17.0800265  65.9814855  45.2357069  17.1119836  64.4841337
  44.2448061  17.2061324  64.9283751  45.2297739  17.5528034  63.4872676
  45.5640925  15.6885198  64.3661513  46.4849552  15.4204679  64.6827889
  44.7556273  14.7412190  63.8813851  45.1573043  13.4745365  63.8810335
  46.0684941  13.2368054  64.2461595  44.5495663  12.7553411  63.5156403
  43.5592863  15.0442261  63.3995014  43.2481921  16.0051155  63.3960248
  42.9638748  14.3129355  63.0378415  46.0986854  20.6246747  68.0114832
  46.3851766  21.7373700  67.6282235  45.2644381  20.4451668  69.0344604
  44.9679305  19.5151042  69.2936249  44.7049075  21.5883285  69.7756135
  44.2302237  22.2804525  69.0801002  43.6553697  21.1154312  70.7895531
  42.9378955  20.5533599  70.1917187  44.1540592  20.4415246  71.4861581
  42.9208523  22.2089985  71.5741345  43.5217266  22.8683453  72.6558483
  44.5380837  22.5940164  72.9384460  42.8398426  23.8642963  73.3701744
  43.3256342  24.3895604  74.1924919  41.5358795  24.1773775  73.0223318
  40.8398346  25.1256380  73.7214566  41.3495874  25.5141667  74.4361574
  40.9233418  23.5319138  71.9593054  39.9045011  23.7953383  71.6752777
  41.6077657  22.5500453  71.2566511  41.1184258  22.0261874  70.4355425
  45.8200766  22.3526029  70.4714414  45.8785851  23.5645680  70.4018541
  46.7321138  21.6201284  71.1055850  46.5913206  20.6280250  71.2321062
  47.9197180  22.2339473  71.7013264  47.6177982  22.9399229  72.4749814
  48.8185380  21.1774837  72.3304299  48.9931765  20.3642487  71.6259801
  49.7725694  21.6186709  72.6190090  48.1582272  20.4227579  73.8020768
  49.1899471  19.6114689  74.0171641  48.7261462  23.0717865  70.6786627
  49.1233949  24.2066184  70.9713896  48.8972144  22.5394137  69.4651900
  48.5520112  21.6141486  69.2534864  49.6554649  23.2554959  68.4271922
  50.6258329  23.5601723  68.8191837  49.8817449  22.3426875  67.2092023
  50.1378015  21.3469620  67.5712312  48.9321260  22.3016745  66.6756837
  50.9594743  22.8302071  66.2779816  51.9334988  23.4857871  66.6945198
  50.8231857  22.5164965  65.0851878  48.9085285  24.5284778  68.0514425
  49.5109773  25.5568605  67.8253838  47.5779757  24.4563772  68.0464701
  47.1062534  23.5672636  68.1304608  46.7794610  25.6349293  67.8183269
  47.1139004  26.1368380  66.9103968  45.3204471  25.2653603  67.6572863
  45.2266585  24.5112452  66.8758687  44.9479653  24.8608799  68.5984308
  44.5719363  26.3961620  67.3066625  43.6491584  26.1508456  67.2071608
  46.9648940  26.6764983  68.9159378  47.0198933  27.8758732  68.6196676
  47.0011626  26.2594989  70.1874971  46.8136794  25.2919557  70.4084260
  47.2594432  27.1881535  71.2936837  46.5426323  28.0083642  71.2544947
  47.2301553  26.5492369  72.6904754  47.9569358  25.7380187  72.7330838
  47.5799958  27.6057193  73.7490507  46.8533355  28.4170930  73.7073604
  47.5585212  27.1499430  74.7389535  48.5767513  28.0009348  73.5531368
  45.8667757  25.9116787  72.9573118  45.1343984  26.7162798  73.0231994
  45.6294032  25.2738267  72.1059020  45.8289215  25.0785396  74.2469995
  46.0657552  25.7158582  75.0989589  44.8333468  24.6542325  74.3769750
  46.5607622  24.2734060  74.1816622  48.6403675  27.8586815  71.0812640
  48.7903988  29.0757229  71.2578307  49.6317427  27.0537724  70.6853592
  49.4635989  26.0616200  70.5989845  50.9811367  27.5477312  70.4535454
  51.3537614  28.0483447  71.3472098  51.9048180  26.3979154  70.1234507
  51.8668447  25.7838352  71.0232077  51.4785277  25.8433827  69.2874662
  53.3551785  26.7525553  69.8111445  53.3564053  27.4185588  68.9482779
  54.0703123  27.4379400  70.9886539  54.0698938  26.7723140  71.8518113
  55.0982591  27.6661647  70.7069812  53.5500867  28.3615418  71.2424753
  54.0630630  25.4718675  69.3977835  53.5758933  25.0551128  68.5162617
  55.1055991  25.6906646  69.1668121  54.0158558  24.7504746  70.2135425
  50.9849404  28.6091227  69.3552692  51.6154483  29.6615927  69.5089756
  50.2709689  28.3295522  68.2547952  49.8118567  27.4339086  68.1703093
  50.1784060  29.2679549  67.1296825  51.1760536  29.4888292  66.7501921
  49.3454033  28.6643736  65.9945304  49.8576766  27.7457187  65.7086133
  48.3793103  28.4188738  66.4355453  49.1326638  29.5384902  64.7524309
  48.4888692  30.3730130  65.0302815  50.1032394  29.9192336  64.4344377
  48.4676048  28.7326196  63.5642600  47.3860143  28.8658098  63.5870910
  48.8571917  29.0904871  62.6112372  48.7692390  27.2945189  63.6878932
  49.7162570  27.0301696  63.4568613  47.9152396  26.3381583  64.0759400
  46.6232828  26.5992450  64.3199305  46.2721375  27.5400143  64.2115320
  46.0068697  25.8540071  64.6110577  48.3572101  25.0882073  64.2193573
  49.3269906  24.8744692  64.0351241  47.7201497  24.3609703  64.5115543
  49.5714156  30.5893842  67.6207511  50.0860074  31.6594015  67.3260508
  48.5545438  30.5116129  68.4782989  48.1321820  29.6287302  68.7277544
  47.9700188  31.7291931  69.0110409  47.7194064  32.4039639  68.1925197
  46.6945044  31.4207033  69.7985103  45.9477960  31.0008161  69.1245514
  46.9214006  30.6992091  70.5834078  46.1619411  32.6726932  70.4127689
  46.9009011  32.9367388  71.1692865  46.1476107  33.4381140  69.6368663
  44.7984185  32.5800279  71.0527175  44.1870922  31.4835589  71.0822655
  44.3341458  33.6626543  71.4948180  48.9642438  32.5001359  69.8741352
  49.0770977  33.7147192  69.7701137  49.7066981  31.7975430  70.7073008
  49.5778532  30.7991281  70.7889463  50.6726745  32.4436491  71.5864830
  50.1756496  33.2373666  72.1442267  51.2794971  31.4548727  72.5803534
  51.6269919  30.5919934  72.0122108  52.1309929  31.9459062  73.0514595
  50.3031214  30.9960661  73.6515883  49.8076451  31.8916145  74.0265512
  49.5721342  30.3579503  73.1550323  51.0263558  30.1036682  75.0265552
  51.5667474  28.5917972  74.2706648  52.2902800  28.8153073  73.4866732
  52.0320703  27.9549154  75.0229657  50.7102854  28.0752127  73.8374044
  51.7928662  33.1439237  70.8400682  52.3239646  34.1295401  71.3490749
  52.1068190  32.6542361  69.6265919  51.6670774  31.7899961  69.3440746
  53.1115178  33.2335476  68.7522462  53.8627728  33.7565276  69.3440292
  53.8044210  32.1344969  67.9429831  52.9476271  31.5184189  67.6701253
  54.2558048  32.5480765  67.0411491  54.8405501  31.2717795  68.6856763
  54.4640679  31.0793938  69.6903403  55.1016402  29.9353095  67.9719672
  55.4786076  30.1268925  66.9673327  55.8391756  29.3612828  68.5328910
  54.1725057  29.3688829  67.9089559  56.1843133  32.0324923  68.9732983
  55.9818791  32.9082025  69.5899436  56.8722157  31.3699876  69.4986355
  56.6326845  32.3479398  68.0311969  52.5692503  34.3289265  67.8289559
  53.3361095  34.9520039  67.1047829  51.2552470  34.5509902  67.8490331
  50.6899676  34.1470390  68.5820965  50.5879500  35.3476319  66.8166385
  51.1192322  35.2410161  65.8708735  49.1349034  34.8802827  66.6198569
  48.7521608  35.3192739  65.6985025  49.1297471  33.7937198  66.5335163
  48.3140364  35.2709600  67.7048074  47.4165563  34.9658014  67.5531249
  50.5953930  36.8201583  67.1928575  50.8095086  37.1876724  68.3520338
  50.3599098  37.6780324  66.2193988  50.1699622  37.3510961  65.2828456
  50.4474135  39.1123722  66.4446044  51.4455912  39.3792884  66.7917300
  50.1672324  39.8622552  65.1248669  49.2503960  39.4628332  64.6913092
  50.0300966  40.9191926  65.3532902  51.3014508  39.7033520  64.1385401
  51.5545765  38.6446423  64.0823100  50.9523677  40.0451775  63.1641694
  52.5366503  40.5000376  64.5436392  52.2844018  41.5589684  64.5996331
  52.8866122  40.1584331  65.5177709  53.6367058  40.2939653  63.5077638
  53.8898315  39.2352558  63.4515322  53.2876224  40.6357935  62.5333955
  54.8276374  41.0620971  63.8983461  55.1515202  40.7452105  64.8009992
  55.5561986  40.9256179  63.2122909  54.5934060  42.0431970  63.9500934
  49.5194828  39.6139969  67.5407372  49.8350603  40.5856328  68.2289206
  48.3744454  38.9569913  67.6954464  48.1609273  38.1948404  67.0680427
  47.3802189  39.3224167  68.7085091  46.9169633  40.2761110  68.4556048
  46.2834515  38.2432171  68.7686286  45.7932987  38.2359162  67.7950804
  46.7865758  37.2896196  68.9286843  45.2303101  38.4591840  69.8716869
  45.7485250  38.4919704  70.8300601  44.7436001  39.4173081  69.6894407
  44.1726779  37.3449622  69.8995746  43.8236852  37.1795017  68.8802975
  44.6436897  36.4360223  70.2738413  42.9701885  37.7124529  70.8032194
  42.2424287  38.2264418  70.1753009  42.5420845  36.7770253  71.1634988
  43.3261153  38.5867822  71.9776922  43.7224266  39.4538016  71.6440539
  42.4943353  38.7820445  72.5163152  44.0001428  38.1105164  72.5598922
  47.9988434  39.5086211  70.1002007  47.5902084  40.4087336  70.8625576
  48.9563172  38.6504527  70.4414732  49.2344535  37.9158377  69.8065872
  49.5262463  38.6583423  71.7775449  48.9686871  39.3450822  72.4144242
  49.4602534  37.2671425  72.3881912  50.0561847  36.5590448  71.8123763
  49.8222418  37.2945136  73.4159632  48.0813645  36.7198329  72.4380469
  47.0957247  37.2354142  73.2583884  45.9769718  36.5558496  73.0574457
  45.0687314  36.8249432  73.5966925  46.2075538  35.6074663  72.1674329
  45.5396794  34.9312561  71.8256970  47.5240992  35.6867592  71.7718044
  47.9177371  34.9783789  71.0428684  50.9410551  39.2281920  71.8755969
  51.5559368  39.1696164  72.9233499  51.4001102  39.8791994  70.8038745
  50.7780197  40.0988916  70.0391275  52.8031838  40.2131338  70.6656379
  53.3824963  39.3034903  70.8238938  53.0864889  40.7306702  69.2715145
  52.5204304  41.6464911  69.1013678  54.1516891  40.9383771  69.1699924
  52.7916242  39.9803137  68.5379484  53.2523378  41.2284227  71.7296840
  54.4097688  41.1978395  72.1522278  52.3486548  42.0962922  72.2139747
  51.4047354  42.1053410  71.8547622  52.7424917  43.1467356  73.1721615
  53.5684150  43.6698349  72.6901687  51.5917568  44.1604183  73.4234180
  50.7608485  43.6533762  73.9139276  51.9511577  44.9681701  74.0609666
  51.2549647  44.5717385  72.4718477  53.2741792  42.5848237  74.4709130
  54.1127410  43.2239895  75.1188846  52.8468702  41.3736790  74.8539240
  52.1098179  40.9166602  74.3362493  53.3358488  40.7329616  76.0823572
  54.1001302  41.3697045  76.5279261  52.2130710  40.5033803  77.1251283
  52.5778314  39.6967286  77.7610230  52.1108857  41.4134387  77.7162729
  50.8782006  40.1254323  76.5549518  49.9645520  41.1167853  76.1962955
  50.2385052  42.1613650  76.3442902  48.7200806  40.7919352  75.6572738
  48.0287855  41.5823464  75.3649330  48.3721554  39.4940463  75.4942604
  47.1332545  39.2038959  74.9810438  46.6169472  39.9881758  74.7812154
  49.2471892  38.4784325  75.8413276  48.9697901  37.4368215  75.6794740
  50.4997190  38.7947707  76.4054014  51.1709817  37.9972990  76.7240634
  54.0777353  39.4268363  75.8227747  54.8543031  39.0227944  76.6479708
  53.8699048  38.8093278  74.6666485  53.2232158  39.1956121  73.9938357
  54.4673586  37.5231886  74.3831966  54.4778160  36.9949648  75.3365955
  53.6233332  36.7359259  73.4030948  53.6106970  37.2476860  72.4407841
  54.0456004  35.7388280  73.2782483  52.6052593  36.6537403  73.7837130
  55.9185296  37.6082852  73.8868394  56.6510202  36.6191279  73.9804296
  56.3251945  38.7472997  73.3358341  55.7164567  39.5518525  73.2885852
  57.5781291  38.7843470  72.5925708  57.5723653  38.0020688  71.8335539
  57.7745205  40.1410565  71.8980041  58.6162522  40.0875370  71.2075531
  56.8678266  40.3890692  71.3461926  58.0479393  41.3012753  72.8227718
  57.1481783  42.1744106  73.3564881  56.1032679  42.0172761  73.0889611
  57.7807490  43.0958167  74.1445028  57.3406234  43.8234072  74.6894807
  59.1215931  42.8111056  74.1322274  60.1719269  43.4073804  74.8177355
  59.9421635  44.2330416  75.4912271  61.4251853  42.9244251  74.6069684
  62.2708011  43.4205836  75.0832673  61.6606358  41.8150409  73.8009140
  62.6668112  41.4191067  73.6632669  60.6153438  41.1791438  73.1468646
  60.8417684  40.3159830  72.5209366  59.3128613  41.6817830  73.3164064
  58.8383245  38.3378054  73.3602857  59.7361325  37.7403357  72.7577603
  58.9056544  38.5823722  74.6808991  58.0908420  39.4269377  75.5863310
  57.2809690  38.8360492  76.0141821  57.6731154  40.2673345  75.0319514
  59.1028045  39.8660601  76.6255631  58.6204597  40.1556386  77.5591513
  59.7175412  40.6903183  76.2639023  59.9007151  38.6543602  76.7911054
  59.3664034  37.9208994  77.3949640  60.8664741  38.8673365  77.2494180
  60.1033368  38.1130326  75.3737181  60.9594129  38.5731510  74.8802374
  60.2724993  36.5995594  75.3756828  61.3435486  36.1085837  75.6632786
  59.1814837  35.8949163  75.1066028  58.3259895  36.4093345  74.9529711
  59.1177809  34.4391428  75.1289515  59.9591867  34.0203433  75.6809865
  57.8177405  34.0292378  75.8318133  56.8964740  34.1984637  75.2743818
  57.9172101  32.9668412  76.0543422  57.6569120  34.7338088  77.1548666
  58.3909018  34.3472386  78.2683748  59.0224637  33.4618767  78.1951373
  58.3331171  35.0587004  79.4514513  58.9326060  34.7514469  80.3083696
  57.5241670  36.1457733  79.5433779  57.4792383  36.7092289  80.4753645
  56.7643983  36.5359876  78.4675813  56.0797021  37.3774435  78.5736154
  56.8623916  35.8700150  77.2544549  56.3177712  36.2382462  76.3850330
  59.2552098  33.7880632  73.7611867  59.1886674  32.5838580  73.6391252
  59.5335253  34.6022443  72.7456831  59.6347274  35.5953882  72.8990540
  59.6555291  34.0959464  71.3797415  58.8345447  33.4109532  71.1679202
  59.6079457  35.2427247  70.3697175  60.3042092  35.9789190  70.7713820
  59.9859644  34.8667285  69.4190184  58.2485451  35.8953305  70.1529118
  57.0831538  35.3473678  70.6535074  57.1404961  34.4445936  71.2616275
  55.8568994  35.9278713  70.3927661  54.9397902  35.4944014  70.7916600
  55.8035137  37.1004193  69.6364177  54.6060807  37.7327609  69.3314482
  53.8403165  37.2802408  69.6925996  56.9695695  37.6465563  69.1405364
  56.9349242  38.5607651  68.5479807  58.1581153  37.0458568  69.3904987
  59.0780421  37.4686396  68.9866552  60.9362958  33.2821070  71.0912507
  60.9686286  32.4926931  70.1672971  61.9924839  33.5441616  71.8547945
  61.9021491  34.1921563  72.6242370  63.2792915  32.8625987  71.6661057
  63.1339883  31.9448570  71.0962493  64.2495557  33.7670254  70.8987710
  64.6924673  34.4417918  71.6313137  65.0233429  33.1177669  70.4891167
  63.6193795  34.5835021  69.7697657  63.3846841  33.8906003  68.9617397
  62.6963516  35.0138464  70.1582568  64.4999256  35.6783284  69.2485441
  64.5840105  36.4414604  70.0222742  65.4839585  35.2542036  69.0488019
  63.9432797  36.3135496  67.9592181  63.8088066  35.5366987  67.2065427
  62.9818550  36.7792518  68.1757432  64.8887465  37.3431040  67.4459899
  65.7795573  36.9116967  67.2448842  64.5147795  37.7526373  66.6018743
  65.0131593  38.0632656  68.1431182  63.9090083  32.6102874  73.0200358
  63.4905965  33.2135698  74.0137178  64.9164585  31.7258828  73.0691952
  65.4460892  30.8347335  72.0302255  66.0812820  31.4105207  71.3570989
  64.6146613  30.4086725  71.4687109  66.2131034  29.7929473  72.7985619
  67.0223902  29.3851276  72.1928912  65.5539047  28.9845958  73.1149891
  66.7380958  30.5424120  73.9746616  67.6053311  31.1176026  73.6503811
  67.0098154  29.9298496  74.8343333  65.5883386  31.4959744  74.3511922
  64.8706283  31.0623408  75.0475772  66.1364193  32.8018140  74.9317646
  66.6063217  33.6592917  74.1722334  66.1215917  32.9135247  76.2517471
  65.6298939  32.2396631  76.8211706  66.7738474  34.0224168  76.9114788
  66.3787615  34.9719532  76.5503875  66.6355891  33.9832588  78.4574889
  66.9325932  32.9935650  78.8044674  67.5197815  35.0535870  79.1364087
  67.2230420  36.0436486  78.7902518  67.3961169  34.9951686  80.2177944
  68.5647044  34.8779308  78.8807080  65.1652739  34.1727996  78.8168505
  64.5754774  33.3721863  78.3704644  65.0494170  34.1479754  79.9003913
  64.8188030  35.1338682  78.4368430  68.2504951  34.0069437  76.5295492
  68.9304176  33.0068131  76.7431777  68.7402419  35.1234675  76.0058492
  68.0907578  35.8702611  75.8044315  70.1251028  35.2996527  75.6302680
  70.5960177  34.3225410  75.5226062  70.2546810  36.0465547  74.3188577
  69.6346091  35.5242584  73.5902861  69.8774976  37.0599515  74.4561883
  71.6967163  36.1039205  73.8126242  72.6361110  36.0514900  74.6343782
  71.8838659  36.2214978  72.5800611  70.7912099  36.0110926  76.8145975
  70.7740170  37.2445700  76.9390116  71.3049299  35.2113907  77.7329714
  71.3587529  34.2173447  77.5624576  71.7652389  35.7153273  79.0123090
  70.9437229  36.2070967  79.5332442  72.2626168  34.5489352  79.8730608
  73.0914451  34.0521304  79.3687507  72.5993676  34.9268439  80.8384023
  71.4512902  33.8370815  80.0250895  72.8722767  36.7385843  78.8325611
  72.8764449  37.7761060  79.4546136  73.8113821  36.4552576  77.9420033
  73.8489641  35.5793455  77.4405405  74.8897809  37.4056088  77.7478141
  75.2727732  37.7299198  78.7154083  76.0211422  36.7766812  76.9665479
  75.6026599  36.3074907  76.0761367  76.7122707  37.5657060  76.6701003
  76.7533814  35.7495126  77.7745080  76.0744048  34.9822471  78.1465230
  77.4786920  35.2956592  77.0992000  77.4798875  36.3883010  78.9397922
  78.3387438  37.2828270  78.7072025  77.1420015  36.0337237  80.0994818
  74.4352864  38.6841087  77.0814044  74.8229801  39.7664108  77.5150721
  73.5398842  38.5948169  76.0969559  73.2000025  37.7079691  75.7533272
  73.0678107  39.8286825  75.4371618  73.9336725  40.3873111  75.0817512
  72.1763840  39.5018654  74.2451924  71.3003372  38.9503103  74.5864095
  71.8581516  40.4268846  73.7643931  72.7321404  38.8943044  73.5309770
  72.3247007  40.7148811  76.4200949  72.3244520  41.9423372  76.2780327
  71.6241750  40.1147834  77.3966641  71.5691166  39.1073464  77.4429106
  70.8525088  40.9030142  78.3760136  70.6165356  41.8829560  77.9611282
  69.5407336  40.1867117  78.7172902  69.8529987  39.2334199  79.1436991
  69.0048038  40.7632572  79.4712627  68.6204375  39.9328938  77.5196928
  69.1941074  39.4184367  76.7487599  67.4198948  39.0896326  77.9032404
  66.8454394  39.6036857  78.6738566  66.7913117  38.9316329  77.0268728
  67.7587526  38.1265781  78.2850803  68.1610092  41.3085272  76.9096278
  69.0351388  41.8715908  76.5825861  67.5060245  41.1279438  76.0572864
  67.6231376  41.8803902  77.6657797  71.6278157  41.2025155  79.6522566
  71.0844554  41.8205093  80.5761284  72.8793852  40.7462026  79.6985290
  73.1773988  40.1081487  78.9745300  73.7687696  40.9683837  80.8339284
  74.6985317  40.4231196  80.6716672  74.1014539  42.4701092  81.0194893
  73.2029014  42.9433594  81.4153895  74.8976366  42.5251010  81.7618969
  74.5485921  43.2084991  79.7238668  73.7385975  43.0074503  79.0227327
  74.5860307  44.2765217  79.9384018  75.8865420  42.7623815  79.1039159
  76.7020853  42.1375021  79.7999079  76.1646617  43.0853685  77.9128409
  73.2773798  40.2956340  82.1262109  73.4837714  40.7786328  83.2342635
  72.6521918  39.1298177  81.9514018  72.5372677  38.7906264  81.0070285
  72.1238374  38.3170186  83.0508377  72.0039293  38.9339926  83.9413793
  70.7594872  37.7278938  82.6758157  71.0497999  37.0544592  81.8694016
  70.3433660  37.1486845  83.5001092  69.7001171  38.7199206  82.1595688
  70.1408777  39.3074227  81.3541669  68.4285888  37.9774783  81.6278724
  67.9869795  37.3900887  82.4328901  67.7026860  38.7084878  81.2717952
  68.7095083  37.3161776  80.8081981  69.3713280  39.7835172  83.2170757
  70.2748400  40.3397227  83.4668775  68.6208079  40.4686874  82.8229151
  68.9846034  39.2982427  84.1132073  73.1401661  37.2331997  83.2648155
  72.9905708  36.0951029  82.8249759  74.2270428  37.5762357  83.9234583
  74.3321266  38.4883059  84.3443915  75.3681548  36.6543655  83.9666298
  75.4826607  36.1808184  82.9915705  76.6844670  37.3868377  84.3180320
  76.5766928  37.7995010  85.3211237  77.5558160  36.7327303  84.2864969
  76.9808735  38.5381502  83.4114557  77.1878826  38.3783224  82.0574142
  77.3913400  39.5611277  81.5066196  77.5802024  39.6517251  80.4369364
  77.3170940  40.4804426  82.4564578  77.4377612  41.4752227  82.3301571
  77.0478252  39.8663553  83.6527558  76.9327214  40.4628100  84.5577940
  75.1697798  35.4826936  84.9125930  75.9640346  34.5431874  84.8669498
  74.1118439  35.5338510  85.7444082  73.5765334  36.3891110  85.7899305
  73.7163121  34.4262372  86.6006397  74.5393786  33.7172174  86.6898123
  73.3546014  34.9268538  87.9879887  73.0607288  34.0590418  88.5784465
  74.2491288  35.3743758  88.4211685  72.2261303  35.9466497  87.9898700
  71.8193884  36.3955717  86.9133502  71.7464488  36.3034262  89.0891117
  72.5176307  33.6082505  86.0936892  72.0546165  32.6764734  86.7838075
  72.0186985  33.9097228  84.8899077  72.4635018  34.5898724  84.2902029
  70.7592076  33.3073608  84.4430086  69.9669686  33.5470989  85.1522210
  70.3592020  33.8395998  83.0643548  70.4229795  34.9261449  83.0056067
  71.1026496  33.3961785  82.4019627  68.9835728  33.3944230  82.6437945
  68.8264824  32.3059591  81.8262972  69.7153216  31.7929938  81.4589678
  67.5749749  31.8574825  81.4673559  67.4598946  31.0101365  80.7914393
  66.4505696  32.4856182  81.9930032  65.1955404  32.0137203  81.6530631
  65.2263121  31.2611980  81.0577793  66.5962990  33.5797136  82.8282830
  65.7134152  34.0959427  83.2052764  67.8479413  34.0145017  83.1816917
  67.9597774  34.8428119  83.8813309  70.8360698  31.7800698  84.4163601
  69.9338751  31.0957867  84.8843317  71.9179868  31.2325209  83.8721251
  72.6629501  31.8156313  83.5184142  72.0275481  29.7761504  83.6937597
  71.0651934  29.3718289  83.3799179  73.0732846  29.4359053  82.6263401
  73.9491864  30.0459492  82.8471152  73.3597183  28.3844497  82.6040485
  72.6448312  29.7899259  81.2454613  71.6671204  29.0910939  80.5723599
  71.4626566  29.6579082  79.4001376  70.7248444  29.2487726  78.7099635
  72.2653329  30.6989187  79.2915928  72.3347953  31.3143183  78.4937468
  72.9972226  30.8177991  80.4388822  73.7026062  31.6409775  80.5525157
  72.3550932  29.0522813  85.0065018  72.1858456  27.8323519  85.1127961
  72.8345348  29.8057480  85.9949979  73.1262206  30.7536638  85.8040152
  73.0254769  29.2734601  87.3683150  73.4808239  28.2845919  87.3144817
  73.9473568  30.1987171  88.2046451  73.5486410  31.2098300  88.1223303
  73.9130237  29.8788410  89.2460867  75.3810594  30.1808500  87.7186002
  75.8464614  29.1122002  87.2643597  76.0545636  31.2305143  87.8061898
  71.6758501  29.0818546  88.0719248  71.4546121  28.0968261  88.7747923
  70.7718011  30.0403833  87.8610502  70.9909657  30.8120917  87.2474278
  69.4451059  30.0255911  88.5270277  69.4635625  29.5514462  89.5083254
  68.8886070  31.4728789  88.6609378  68.8732173  31.9209008  87.6673886
  67.4567217  31.5048200  89.2656612  67.4714012  31.0573540  90.2594718
  67.1151265  32.5374013  89.3376971  66.7782961  30.9421297  88.6243989
  69.8675280  32.3394878  89.4709679  70.7909043  32.4120755  88.8963305
  69.4222620  33.3295771  89.5687473  70.1653696  31.7971172  90.8172507
  70.6111183  30.8071672  90.7202615  70.8619338  32.4599504  91.3306218
  69.2424750  31.7246667  91.3926778  68.4255814  29.1675024  87.7406572
  67.6365528  28.3943072  88.3355740  68.4631246  29.2970069  86.4156515
  69.1342374  29.9377791  86.0167556  67.5378487  28.6030950  85.5086113
  66.7416174  28.0504482  86.0073059  66.9267842  29.5908903  84.5145345
  67.7381339  30.1252419  84.0202873  66.0611897  28.8777660  83.4556720
  65.2492983  28.3435368  83.9491619  65.6456343  29.6150791  82.7688068
  66.6760558  28.1700044  82.8996933  66.1620159  30.7289034  85.2395639
  66.9078955  31.3191172  85.7719284  65.7007714  31.3409037  84.4644454
  65.0784146  30.2528681  86.2320596  65.5390053  29.6411473  87.0077875
  64.5985980  31.1181183  86.6894624  64.3318820  29.6629315  85.7003043
  68.3265030  27.4874829  84.8160420  69.0311019  27.7264239  83.8398732
  68.1372977  26.2686782  85.3031584  67.4741624  26.1659520  86.0580082
  68.8486150  25.0839105  84.8428874  69.8708307  25.3425512  84.5667006
  68.8935959  24.0364938  85.9670626  67.8561296  23.8285054  86.2287945
  69.3438348  23.1443367  85.5318147  69.6652352  24.4345067  87.2234302
  69.1133163  25.2297157  87.7245578  69.7226497  23.5646729  87.8777962
  71.0647952  24.9170500  86.9014273  71.4774413  24.2775825  86.1211046
  70.9988865  25.9411762  86.5341115  71.9906041  24.8732109  88.1507543
  72.2581058  23.8286550  88.3102738  72.8858118  25.4430408  87.9017636
  71.3839638  25.4219032  89.3869769  70.5546675  24.8937513  89.6181112
  72.0474992  25.3558650  90.1455675  71.1364088  26.3899269  89.2395126
  68.2276886  24.4430848  83.6055076  68.9013519  23.7039123  82.8908195
  66.9653867  24.7451920  83.3451173  66.4734976  25.3728222  83.9649761
  66.2254361  24.1601021  82.2105858  66.9218030  23.6761300  81.5257914
  65.2093239  23.1029995  82.7127092  64.4418295  23.6139820  83.2940426
  64.7410819  22.5590718  81.8923482  65.8208843  22.0700093  83.6206978
  66.5536041  21.0160553  83.1306492  66.9929749  20.2745625  84.1376227
  67.5921489  19.3832873  83.9512954  66.5746112  20.8197596  85.2708615
  66.7522779  20.4742765  86.2031575  65.8463599  21.9518832  84.9724086
  65.4220006  22.5543874  85.7755332  65.5174637  25.2457160  81.4303252
  64.3203386  25.4598273  81.6249369  66.2431839  25.9011345  80.5257204
  67.6937658  25.8080658  80.2635635  67.8933511  24.9560177  79.6137327
  68.2273538  25.6790144  81.2052262  68.0048704  27.1220994  79.6041769
  68.8343192  26.9999983  78.9076103  68.2711215  27.8616720  80.3593219
  66.7602233  27.5093372  78.9006049  66.7409189  26.9901727  77.9423802
  66.6480430  28.5808333  78.7350414  65.6200258  26.9942811  79.7979364
  65.2577048  27.7253864  80.5206444  64.4487223  26.5073665  78.9323515
  64.4911583  25.3656033  78.4343262  63.4573637  27.3722618  78.7371871
  63.4447073  28.2536189  79.2302884  62.3435510  27.0532158  77.8784520
  62.6840221  26.4824250  77.0145212  61.3207289  26.2057585  78.6557442
  61.8762971  25.3680939  79.0773616  60.9506766  26.8384838  79.4624784
  60.1500924  25.6802101  77.8487082  59.5526832  25.0558577  78.5130780
  59.5611787  26.5414882  77.5332993  60.6281522  24.7043029  76.3730938
  61.6746565  23.3849716  77.0770566  61.0945186  22.8039702  77.7939781
  62.0229278  22.7312031  76.2774351  62.5323797  23.8307262  77.5807578
  61.7316256  28.3200467  77.3442594  61.7644840  29.3323781  78.0099962
  61.2020994  28.2449077  76.1177191  61.2151424  27.3587610  75.6332883
  60.6124619  29.4028446  75.4346965  60.0282123  29.9858950  76.1465981
  61.6993523  30.3055736  74.8367177  61.2664588  31.2642957  74.5511401
  62.4449302  30.4619500  75.6163074  62.3453778  29.6808751  73.6514153
  63.1591438  28.7391416  73.8259456  62.0013751  30.1224960  72.5265273
  59.7030024  28.8737069  74.3300320  59.7486635  27.6483727  73.9983663
  58.9288952  29.7617400  73.7214195  58.9203468  30.7375283  73.9819255
  57.9397323  29.2921015  72.7172151  57.3553479  28.4680639  73.1265512
  56.9887533  30.4279520  72.3468144  57.7089740  31.2041761  72.0882463
  56.4077978  30.1632251  71.4633494  56.0515085  30.9459244  73.4355310
  56.6170642  31.1309544  74.3487733  55.4022443  32.2567601  72.9605532
  54.8360938  32.0724183  72.0475414  54.7317125  32.6317254  73.7337859
  56.1781306  32.9964655  72.7632291  55.0362697  29.8529300  73.8674190
  55.5752782  28.9883532  74.2548155  54.3820869  30.2502434  74.6434913
  54.4378774  29.5519751  73.0075052  58.5708325  28.6639921  71.4817868
  57.9863702  27.7774649  70.9056189  59.7399169  29.1500960  71.0491975
  60.1558479  29.9781233  71.4510326  60.3964018  28.5344541  69.8820494
  59.6642315  28.4580005  69.0781957  61.6128855  29.3353773  69.3672220
  61.8543630  28.9507116  68.3763536  61.3006082  30.3765273  69.2860458
  62.7592365  29.2490517  70.2003422  63.4712589  29.7684286  69.8197223
  60.8137582  27.1002311  70.1283257  60.8564356  26.2884405  69.1853386
  61.1898564  26.8042700  71.3789200  61.2722677  27.5399036  72.0660524
  61.5836409  25.4655731  71.7573634  62.2098908  25.0081240  70.9914322
  62.3480959  25.4672587  73.0735814  61.7400096  25.9609101  73.8316313
  62.6606134  24.0550946  73.5190265  63.2691063  23.5609247  72.7616415
  63.2070871  24.0834603  74.4617147  61.7310552  23.5023458  73.6550078
  63.5547325  26.2320624  72.8991206  64.0487816  26.2424896  73.7221680
  60.3368493  24.5588014  71.8040172  60.3698135  23.4280848  71.3512718
  59.2449906  25.0742911  72.3609948  59.2809306  25.9247833  72.9045669
  57.9790352  24.3367083  72.3072401  58.0789698  23.3205162  72.6886401
  56.8402714  25.0437585  73.0775941  56.6791483  26.0267947  72.6351256
  55.5430296  24.2369784  73.0122683  55.7032531  23.2539135  73.4550017
  54.7612050  24.7599036  73.5630860  55.2385620  24.1211762  71.9720803
  57.2296030  25.3299181  74.5254707  58.1082023  25.9747205  74.5453544
  56.4030453  25.8272024  75.0330239  57.4559871  24.3924708  75.0334507
  57.5842865  24.0440599  70.8658868  57.1856562  22.9265953  70.5480508
  57.7507783  25.0366027  69.9878297  57.9711941  25.9756810  70.2872428
  57.5048796  24.8009694  68.5592424  56.5002321  24.4004512  68.4237151
  57.6258784  26.1037265  67.7568327  56.8082382  26.7502387  68.0755577
  58.5770733  26.5592479  68.0322028  57.5694823  25.9225796  66.2539081
  58.5090553  25.4717353  65.9344665  56.7464447  25.2445902  66.0279843
  57.3671561  27.1976324  65.5374660  56.3482590  27.5378608  65.7223778
  58.0714527  27.9295673  65.9328609  57.5876582  27.0402760  64.0250868
  57.3339071  27.9793739  63.5333489  58.6374629  26.8086395  63.8452149
  56.7433054  25.9550013  63.4802766  55.7704717  26.1696540  63.6464649
  56.9043146  25.8696425  62.4868533  56.9785757  25.0846441  63.9354968
  58.4190726  23.7142870  67.9785441  57.9443691  22.8317332  67.2448381
  59.7217368  23.8254801  68.2111016  60.1007230  24.6299268  68.6899902
  60.6590381  22.8117137  67.7003551  60.6420493  22.8112566  66.6104879
  62.0853364  23.1106877  68.1670279  62.3340922  24.1202102  67.8397909
  62.0906153  23.0707318  69.2562826  63.1041807  22.1414954  67.6240807
  62.6924972  21.1392033  67.7425210  63.2260254  22.3606611  66.5633157
  64.4909812  22.2207791  68.3336591  65.1289700  21.4696250  67.8680018
  64.8936446  23.2136144  68.1330608  64.4862056  21.9997315  69.7838333
  64.6924776  22.8020024  70.3616851  64.2509017  20.8390538  70.3752624
  64.2879625  20.7759488  71.7021043  64.4933352  21.6066781  72.2385843
  64.1105895  19.8975468  72.1679888  63.9956556  19.7345948  69.6453757
  63.9833571  19.7910766  68.6370311  63.8178962  18.8557343  70.1102460
  60.2186374  21.4176186  68.1272041  60.2014126  20.4779290  67.3325497
  59.8948522  21.2797369  69.4108301  60.0104896  22.0532686  70.0498732
  59.5041362  19.9842303  69.9564636  60.2215185  19.2281708  69.6373464
  59.4659296  20.0071565  71.4814454  58.8171580  20.8246019  71.7960526
  59.0512571  19.0607188  71.8284359  60.8419441  20.2006424  72.0732294
  61.4427646  19.3677400  71.7080044  61.2189541  21.1323501  71.6514637
  60.9277721  20.2602176  73.5927999  61.9619514  20.4873483  73.8516123
  60.2836875  21.0750691  73.9233621  60.5073946  18.9764404  74.2757017
  59.4593296  18.7992461  74.0343252  61.1151737  18.1686185  73.8681143
  60.6746630  19.0252925  75.7567303  60.1112279  19.7734994  76.1346551
  60.3802168  18.1464136  76.1579449  61.6458263  19.1890505  75.9806148
  58.1906893  19.4826751  69.3591525  58.0743250  18.3099380  69.0793934
  57.2110637  20.3821401  69.1897227  57.3254831  21.3290780  69.5218614
  55.9393799  20.0087264  68.6026379  55.5265652  19.1480312  69.1288385
  54.9495810  21.1630018  68.7053572  54.8941256  21.4535799  69.7544465
  55.3508008  21.9905992  68.1203740  53.5668607  20.8171788  68.2052761
  53.0098996  21.7521373  68.1440576  53.6874548  20.4005626  67.2052811
  52.6538458  19.6507840  69.2255957  52.2995021  20.6938039  70.6543998
  51.7146140  21.5575486  70.3382509  51.7340636  20.1225337  71.3906269
  53.2354447  21.0323826  71.0987838  56.1345046  19.5693579  67.1647047
  55.6231808  18.5348224  66.7580547  56.8983484  20.3589055  66.4233389
  57.2897799  21.2036270  66.8149079  57.1569561  20.0636482  65.0208157
  56.2167543  19.9579066  64.4795778  57.9583834  21.2054572  64.3906407
  58.7491416  21.4152739  65.1109029  58.4021026  20.8903754  63.4462167
  57.1365467  22.4518873  64.1689526  55.9021214  22.3677082  64.3194781
  57.7366412  23.4846692  63.7716277  57.9032043  18.7499613  64.8868707
  57.7148702  18.0104178  63.9151256  58.7329325  18.4550394  65.8741064
  58.8530497  19.1059331  66.6370012  59.4863412  17.2159325  65.9023081
  59.7610318  16.9884222  64.8723162  60.3878700  17.4062516  66.4846515
  58.7616890  16.0279455  66.4918978  59.3360278  14.9406171  66.6155784
  57.4877178  16.2344343  66.8341766  57.1346781  17.1783575  66.7673083
  56.6264164  15.2171157  67.4054003  55.6894851  15.6695640  67.7302841
  56.3119963  14.1268524  66.3705366  57.2299695  13.5622680  66.2072304
  55.5574115  13.4736554  66.8087552  55.8070767  14.6641229  65.0457413
  56.5517428  15.3471004  64.6369442  55.6648743  13.8293434  64.3594298
  54.5121205  15.3882368  65.2238464  53.8250430  14.7263229  65.7510024
  54.7011312  16.2733042  65.8313249  53.8873205  15.8075103  63.9635831
  53.5815962  15.0584319  63.3590059  53.6928250  17.0651627  63.5663868
  54.1058796  18.1105059  64.2990727  54.5783823  17.9522893  65.1775991
  53.9424292  19.0508641  63.9687546  53.0772252  17.2941079  62.4114158
  52.7635318  16.5173397  61.8472104  52.9257944  18.2438580  62.1029646
  57.2057509  14.6347971  68.6939866  57.1013615  13.4294002  68.9535233
  57.8094574  15.4973851  69.5069869  57.8986916  16.4665576  69.2370957
  58.4433862  15.0651684  70.7380417  58.8229063  14.0530628  70.5976637
  59.6024162  15.9673588  71.1557089  59.1851245  16.9685799  71.2630552
  59.9335898  15.6060181  72.1292883  60.7688627  16.0108748  70.2162952
  61.0380421  15.0017318  69.9044079  60.4365701  16.5820378  69.3494310
  61.9742294  16.6861926  70.8329264  62.1564923  16.6790214  72.0684789
  62.7889222  17.1984377  70.0546318  57.4890808  14.9206841  71.9109303
  57.7701791  14.1520224  72.8066624  56.3614886  15.6344815  71.9152975
  56.1482085  16.2888021  71.1760577  55.4240625  15.5205002  73.0322875
  55.9800285  15.4285157  73.9653147  54.5238570  16.7449041  73.1211137
  53.9866879  16.8600140  72.1796795  53.8118115  16.5549697  73.9242427
  55.2922346  18.0087376  73.4191233  55.9863687  18.1569916  74.6019895
  55.9354004  17.3440746  75.3263290  56.7339327  19.2957201  74.8856625
  57.2995502  19.3936372  75.8122644  56.7516156  20.3172260  73.9534661
  57.4722195  21.4556073  74.2357142  57.9083465  21.4212412  75.0902385
  56.0667831  20.1887689  72.7954104  56.0841270  21.0077804  72.0763694
  55.3537096  19.0433836  72.5176610  54.8257068  18.9466936  71.5689966
  54.5877559  14.2647847  72.8806328  53.9602416  14.0530790  71.8366790
  54.5430586  13.4355097  73.9339347  55.3057980  13.5617092  75.1828003
  55.0678736  14.5133404  75.6580794  56.3723870  13.5233825  74.9614003
  54.8428669  12.3742120  75.9968065  54.0794595  12.6990201  76.7037774
  55.6906504  11.9605541  76.5429307  54.3069540  11.3954437  75.0403761
  53.5088263  10.8305850  75.5220667  55.0622653  10.7062665  74.6627001
  53.7332862  12.2278686  73.8854003  53.8890091  11.7571111  72.9147119
  52.2402522  12.5146700  74.0796643  51.3701819  11.7205998  73.6578361
  51.9556882  13.6318569  74.7484526  52.7102576  14.2094686  75.0906357
  50.6012051  13.9890537  75.1084790  49.9529441  13.8714412  74.2401334
  50.0699370  13.0957918  76.2433444  49.0709043  13.4650224  76.4750806
  50.0019743  12.0723627  75.8744623  50.9301294  13.1255766  77.5077379
  51.7031009  14.0698896  77.7040492  50.8538900  12.1654826  78.3145799
  50.5052297  15.4641043  75.4470115  51.5129279  16.1512467  75.5008778
  49.2743946  15.9457002  75.6345763  48.4810393  15.3385702  75.4859833
  49.0226034  17.3440882  75.9692002  49.4484931  17.9444994  75.1653198
  47.5476222  17.6412488  76.0629018  47.1087121  17.0541659  76.8696184
  47.4024021  18.7022984  76.2658428  47.0637707  17.3824448  75.1210911
  49.7290267  17.7516489  77.2802460  50.1274188  18.8904917  77.4528205
  49.8127902  16.8268260  78.2211628  49.3816666  15.9244152  78.0801433
  50.4518388  17.0944947  79.5034359  49.9927813  17.9677900  79.9668156
  50.2946559  15.8986525  80.4492921  50.6632602  15.0202120  79.9196014
  50.9261018  16.0907412  81.3167471  48.8836033  15.6544032  80.9019010
  48.9074083  15.3407785  81.9455358  48.3344775  16.5921698  80.8173043
  48.1421112  14.5682327  80.0737009  48.2385355  14.4916730  78.8427992
  47.3940092  13.7160778  80.7746005  46.8852597  12.9853452  80.2978352
  47.3393910  13.8050813  81.7791883  51.9142321  17.4444536  79.3295287
  52.4217863  18.3454888  79.9930046  52.5942824  16.7540505  78.4308903
  52.1583912  16.0029068  77.9152533  53.9899890  17.0571110  78.1595540
  54.5539626  16.9739222  79.0885925  54.3716705  16.3352276  77.4375409
  54.1659878  18.4598614  77.5974802  55.0893318  19.1894090  77.9723857
  53.2965050  18.8205324  76.6593427  52.6665203  18.1284902  76.2794791
  53.2626382  20.1746366  76.0971935  54.2137964  20.4254045  75.6276055
  52.1636088  20.2223223  75.0322271  52.5133834  19.7105889  74.1356303
  51.2729529  19.7214888  75.4116977  51.7307395  21.6068528  74.5996204
  52.4494940  22.3099033  73.6650210  53.3410542  21.8580526  73.2302207
  52.0559394  23.5737050  73.2745085  52.6487820  24.1172655  72.5388589
  50.9346930  24.1430062  73.8017425  50.6089911  25.1282253  73.4680337
  50.2127289  23.4671475  74.7602647  49.3397984  23.9330923  75.2174167
  50.5975540  22.1938409  75.1428115  50.0084453  21.6438550  75.8766824
  53.0468974  21.2257056  77.1873673  53.8123958  22.1825873  77.3030549
  52.0389341  20.9964302  78.0248616  51.4657135  20.1712586  77.9218601
  51.6869036  21.9554407  79.0591393  51.5264801  22.9218826  78.5812758
  50.3877720  21.5464324  79.7972200  50.5357618  20.5847127  80.2884372
  50.1405825  22.3010128  80.5439502  49.5715738  21.4653739  79.0793417
  52.8365568  22.1224299  80.0543852  53.0622718  23.2200405  80.5418446
  53.5348969  21.0307388  80.3587137  53.2465138  20.1325910  79.9977911
  54.6462721  21.0722305  81.3031148  54.2714441  21.5053484  82.2304831
  55.1667165  19.6770023  81.5951435  55.5538593  19.2336548  80.6777213
  55.9647070  19.7338843  82.3354650  54.3559437  19.0598678  81.9823021
  55.7582118  22.0224740  80.7929762  56.3172860  22.8228168  81.5497672
  56.0238477  21.9719653  79.4827665  55.5957237  21.2990585  78.8630846
  57.0339624  22.8786822  78.9321544  57.9150970  22.8616082  79.5735665
  57.4461595  22.4835885  77.5365572  56.5712338  22.0368023  77.0643428
  57.7287542  23.3868345  76.9958291  58.5970340  21.4952741  77.5059530
  59.1267521  21.1559372  78.5912461  58.9593332  21.0911522  76.3892244
  56.5495065  24.3272749  78.9357183  57.3158437  25.2483536  79.2189960
  55.2731881  24.5601159  78.5707206  54.6749892  23.8352927  78.2007358
  54.7744191  25.9248188  78.5841151  55.4426403  26.5853517  78.0315974
  53.3590414  26.0351004  77.9774364  52.6845976  25.3763554  78.5245012
  52.8482449  27.4857312  78.0718355  53.5219723  28.1450512  77.5245793
  51.8492759  27.5485306  77.6403059  52.8116300  27.7912667  79.1174975
  53.3590236  25.5712932  76.5335764  53.6833376  24.5317765  76.4853310
  52.3525281  25.6567285  76.1239822  54.0411959  26.1915384  75.9521664
  54.8528585  26.4839922  80.0122798  55.2640269  27.6360624  80.2276304
  54.4303903  25.6839150  80.9825055  53.9506417  24.8177794  80.7831321
  54.5026726  26.1327599  82.3736876  54.1160924  27.1488229  82.4528769
  53.6819417  25.2330531  83.2672861  53.9561042  24.1923690  83.0943386
  53.8624286  25.4870237  84.3118068  52.2117531  25.4285086  82.9463191
  51.9799002  26.4903019  83.0296253  52.0365229  25.0981217  81.9224827
  51.3653718  24.6793944  83.8450085  51.6650383  23.6318636  83.8137320
  51.5016527  25.0657454  84.8550876  49.9377798  24.7727415  83.4924912
  49.5488167  25.6978234  83.3783395  49.1437162  23.7348573  83.3411860
  47.8574748  23.9310903  83.1265292  47.4941836  24.8723548  83.0802602
  47.2415964  23.1392117  83.0093897  49.6284113  22.4875562  83.4272134
  50.6111341  22.3423983  83.6096557  49.0085577  21.6989201  83.3091742
  55.9405563  26.3148258  82.8770250  56.2076817  27.1599927  83.7330566
  56.8465914  25.4798925  82.3816134  56.5639168  24.6728282  81.8441735
  58.2705402  25.6428980  82.6949890  58.4069736  25.6414736  83.7764154
  59.1077939  24.4982171  82.0914315  58.7586838  23.6427996  82.6697760
  58.8407562  24.3610648  81.0435860  60.6415827  24.6144824  82.2201925
  60.9522437  25.5301240  81.7170116  61.1063648  24.6504684  83.6748758
  60.7964510  23.7348851  84.1786214  62.1927530  24.7327907  83.7078077
  60.6620106  25.5094442  84.1776782  61.2753033  23.4617193  81.4145906
  60.9780808  23.5421586  80.3689866  62.3612201  23.5200771  81.4886202
  60.9350466  22.5071955  81.8160985  58.7787746  27.0099938  82.2474851
  59.5452754  27.6817854  82.9617347  58.4160265  27.3764848  81.0267790
  57.9237252  26.7397337  80.4166259  58.7469657  28.7107478  80.5177333
  59.8258270  28.8299529  80.4179959  58.1066847  28.8767842  79.1369697
  58.5392037  28.1126129  78.4911611  57.0394818  28.6896721  79.2559954
  58.3147558  30.2518696  78.5074791  57.9498948  31.0133785  79.1967406
  59.3801965  30.4013497  78.3325681  57.4390334  30.3953530  76.9564430
  55.7974443  30.7583135  77.5988679  55.8310646  31.6764302  78.1854089
  55.1014615  30.8830196  76.7693156  55.4642058  29.9356185  78.2315024
  58.2585105  29.8428778  81.4495027  59.0300776  30.7263120  81.8479174
  56.9931303  29.7857788  81.8653931  56.3368786  29.0936099  81.5332255
  56.5162387  30.7996397  82.7777277  56.7452888  31.7853718  82.3727987
  55.0044786  30.6970715  82.9888609  54.7684421  29.6906656  83.3345964
  54.6668149  31.4232377  83.7282972  54.1786366  30.9316166  81.7435138
  54.3645133  32.0697531  81.0007775  55.0982213  32.8123446  81.3143542
  53.6183327  32.2752236  79.8504552  53.7996803  33.1566386  79.2353769
  52.6371766  31.3564405  79.4799850  51.9997290  31.5623120  78.6201144
  52.4727454  30.1969770  80.1934083  51.7801184  29.4210577  79.8673451
  53.2106085  30.0238006  81.3514709  53.0364591  29.1530339  81.9835606
  57.2353265  30.7292956  84.1333226  57.6292660  31.7485081  84.6901597
  57.3512472  29.5152097  84.6738610  56.9319224  28.7167508  84.2191859
  57.9569047  29.3246877  85.9668711  57.4537094  29.9565260  86.6987686
  57.8496653  27.8704199  86.4216644  58.2599015  27.2204413  85.6487910
  58.4154072  27.7391329  87.3440525  56.4793379  27.5316922  86.6510037
  56.4192488  26.6170565  86.9363644  59.3964607  29.8253501  85.9869121
  59.8388151  30.3693355  86.9989900  60.1395413  29.6174175  84.9003390
  59.7868532  29.0993385  84.1083133  61.5168282  30.1230937  84.8439181
  62.1003242  29.6848227  85.6535786  62.1683552  29.7660408  83.5328319
  61.4000965  29.9579977  82.7838124  63.0310928  30.4034726  83.3392742
  62.6037303  28.3107362  83.4215878  62.7346869  27.5933411  84.4317326
  62.9101451  27.9043090  82.1900871  63.2077534  26.9516249  82.0354194
  62.8433774  28.5508056  81.4169862  61.5275875  31.6472638  85.0177934
  62.3840181  32.2121171  85.7051015  60.5971619  32.3168430  84.3531860
  59.9775952  31.8265047  83.7240559  60.4971553  33.7584638  84.4294625
  61.4571526  34.2158054  84.1899984  59.4607325  34.2530910  83.4318290
  59.7093051  33.8950220  82.4327807  58.4732224  33.8872769  83.7130831
  59.3118617  36.0304778  83.2988533  58.3550818  36.0211236  82.3750660
  60.1795864  34.2352309  85.8611703  60.8113729  35.1338934  86.4099129
  59.1978551  33.5859745  86.4892515  58.6209962  32.9230018  85.9914561
  58.8720732  33.8791019  87.8677523  58.7117155  34.9521987  87.9719048
  57.6092944  33.1475629  88.3355840  57.8954234  32.0969227  88.3844165
  57.3503797  33.4998648  89.3340562  56.4089006  33.3031066  87.4168296
  56.1131130  34.5018927  86.7987812  56.7434917  35.3721592  86.9814235
  55.0189541  34.6027315  85.9480157  54.8329107  35.5593992  85.4598800
  54.1803448  33.5464713  85.7239643  53.0925759  33.7009342  84.8648543
  53.0319925  34.5831692  84.4912360  54.4437166  32.3440718  86.3519704
  53.8035800  31.4788749  86.1794600  55.5390998  32.2419234  87.2128742
  55.7285271  31.3100499  87.7456303  60.0117536  33.5768358  88.8277552
  60.2395102  34.3246992  89.7975898  60.7270121  32.4808959  88.5765419
  60.4993464  31.9033261  87.7798732  61.8295586  32.0528852  89.4585039
  61.4785598  31.9961198  90.4888809  62.3467827  30.6616995  89.0364358
  61.5226164  29.9525616  89.1137182  62.6789438  30.7203746  87.9999387
  63.5115890  30.1911693  89.9213661  64.3374777  30.8946732  89.8160521
  63.1785146  30.1753977  90.9591112  63.9749122  28.8038185  89.5181388
  64.1736666  28.8409110  88.4470553  64.9059947  28.6185111  90.0537187
  62.9901342  27.6835805  89.8119402  62.0134507  28.0203953  89.4644555
  63.3063496  26.8210948  89.2252329  62.9012473  27.3031122  91.2389556
  62.6078330  28.1020590  91.7827310  62.2291712  26.5569911  91.3472012
  63.8060630  26.9905767  91.5610259  62.9633824  33.0843222  89.4064807
  63.4790157  33.5158006  90.4357162  63.3508932  33.4688670  88.1890389
  62.8953989  33.1115986  87.3614016  64.5025313  34.3387533  88.0203923
  65.3175446  33.9769664  88.6472596  64.9861754  34.3759438  86.5558121
  65.1966485  33.3448772  86.2717312  64.1905735  34.7711160  85.9241820
  66.2353515  35.2135539  86.3770372  67.4582204  34.7342648  86.8076966
  67.5144134  33.7293578  87.2261506  68.5917273  35.5035754  86.7146529
  69.5423587  35.1388772  87.1037505  68.5054325  36.7812886  86.1784596
  69.6377335  37.5393370  86.0716788  70.4219610  37.0897970  86.3949443
  67.3202688  37.2668409  85.6988809  67.2669954  38.2506553  85.2326495
  66.1762781  36.4897532  85.8118145  65.2195196  36.8736429  85.4577777
  64.2770300  35.7696848  88.5079434  65.1908565  36.4050204  89.0613076
  63.0800744  36.2893154  88.2396480  62.3453330  35.6814569  87.9068380
  62.7959620  37.7072289  88.3655733  63.7240734  38.2774740  88.3264708
  61.8854843  38.1705065  87.2152275  61.0962860  37.4187468  87.2262987
  61.4454681  39.1602851  87.3369824  62.5824321  38.1152688  85.8856605
  62.4602849  37.1265663  85.1160863  63.4289952  39.0665500  85.6795420
  63.9409385  39.1031509  84.8096717  63.5758554  39.7702475  86.3890085
  62.1374579  38.0855992  89.6799596  61.2978072  37.3631168  90.1535931
  62.4588346  39.2642365  90.2241333  63.5919905  40.1377818  89.8800558
  63.3513590  40.7391549  89.0033875  64.4804149  39.5397815  89.6770861
  63.7301916  40.9618096  91.1221619  64.2165761  41.9116380  90.9000020
  64.3078834  40.4257519  91.8751664  62.3075353  41.1652813  91.5792608
  61.8797487  41.9224548  90.9221565  62.1477445  41.4542083  92.6180523
  61.6507673  39.8088815  91.3073042  61.6704020  39.1300420  92.1598825
  60.2116932  39.9703118  90.8185928  59.9905250  40.2558513  89.6407589
  59.2334474  39.7626364  91.7033239  59.3771908  39.4724518  93.1429074
  59.9796233  40.2514965  93.6100955  59.8693495  38.5081910  93.2697145
  57.9990310  39.4624355  93.6277177  57.8585139  40.3804053  94.1984063
  57.9035900  38.6038132  94.2923681  57.0639501  39.3736844  92.5355877
  56.2099693  40.0390914  92.6622735  56.7137411  38.3442211  92.4603642
  57.8406193  39.7568499  91.2674220  57.7501429  38.9507242  90.5393604
  57.3373375  41.0576553  90.6498310  56.3547675  41.0352196  89.8940461
  58.0215097  42.1608155  90.9471188  58.7643956  42.1132026  91.6297262
  57.6392045  43.4730226  90.4295262  56.5794988  43.4802999  90.1744376
  57.8971404  44.5583391  91.5005571  57.3481749  45.4434391  91.1791009
  57.4967070  44.2087850  92.4521689  59.3630573  44.9061369  91.6668292
  60.2617468  44.1330045  91.2805995  59.6314172  45.9903936  92.2328322
  58.3101111  43.8045183  89.0612280  58.1374190  44.8907549  88.5171467
  59.1030097  42.8789520  88.5311781  59.3373652  42.0402919  89.0428675
  59.7261249  43.0933094  87.2436734  60.1893819  44.0799121  87.2333205
  60.8013896  42.0444000  86.9425338  60.5924458  41.1393834  87.5129606
  60.8196043  41.8067702  85.8789078  62.1852458  42.4704904  87.3089367
  63.2947131  42.0261863  86.6281385  64.3785148  42.5674632  87.1633265
  65.3675644  42.3335762  86.7694017  64.0044148  43.3547335  88.1594438
  64.6157534  43.9036426  88.7468651  62.6376199  43.3086806  88.2716978
  62.1341273  43.8921081  89.0425471  58.6379574  43.1207052  86.1584997
  57.6490760  42.3654750  86.1869740  58.8318713  43.9985343  85.1797560
  59.6159574  44.6349149  85.1978711  57.8703682  44.1136326  84.0831184
  56.8842421  44.3806285  84.4630760  58.3403748  45.2122347  83.1295356
  58.3478117  46.1404598  83.7008869  59.3591799  44.9580208  82.8371119
  57.4931614  45.3890003  81.8955808  57.9338213  46.1890686  81.3007612
  57.5336198  44.4553354  81.3345709  56.0388471  45.7308326  82.2098507
  55.7649217  46.2587851  83.3198687  55.1714498  45.4742680  81.3433366
  57.6703161  42.7967000  83.3354950  56.5684138  42.4702930  82.9212877
  58.7268783  42.0181858  83.1847738  59.6392409  42.3061097  83.5084923
  58.6229407  40.7760256  82.4173488  58.0758796  40.9047748  81.4834072
  59.9857436  40.1569665  82.1040648  60.6388080  40.9414721  81.7217598
  60.6226922  39.5225615  83.3475997  59.9703752  38.7375927  83.7302321
  61.5893182  39.0940328  83.0828396  60.7614824  40.2847691  84.1143320
  59.8816678  39.1671065  80.9732247  59.5138736  39.6723114  80.0801415
  60.8644858  38.7415531  80.7705611  59.1912292  38.3702272  81.2495918
  57.6895715  39.7837709  83.1248922  57.0350068  38.9885230  82.4654130
  57.5871614  39.8697634  84.4534114  58.2089515  40.4767471  84.9682388
  56.6877045  39.0083883  85.2032570  56.7025269  37.9597189  84.9063193
  56.9669065  39.0960729  86.7234253  57.0793217  40.1465135  86.9918218
  55.8207202  38.4723947  87.5528055  55.7080007  37.4217648  87.2852762
  56.0540125  38.5534422  88.6144582  54.8909613  39.0016736  87.3442056
  58.3230876  38.5036354  87.0159568  59.0875471  39.0585675  86.4721241
  58.5232677  38.5636088  88.0857375  58.3397368  37.4600606  86.7016715
  55.2256274  39.3161752  84.8453188  54.4110261  38.4094220  84.6429074
  54.9013099  40.6031957  84.7336129  55.5300901  41.3345105  85.0334687
  53.5531440  40.9793580  84.3063418  52.8735132  40.4672381  84.9874691
  53.3257025  42.4917448  84.4318069  53.9928560  43.0178947  83.7490387
  52.2912156  42.7261690  84.1808439  53.5312518  42.8069698  85.4547839
  53.2326107  40.4537209  82.8881704  52.0868950  40.0621065  82.5798234
  54.2279400  40.5002636  82.0065042  55.1037898  40.9349274  82.2595928
  54.0673503  40.0165792  80.6482162  53.1685118  40.4436895  80.2035080
  55.2733767  40.4250698  79.8008782  56.1666500  40.0008095  80.2593162
  55.1427024  40.0046245  78.8037574  55.4253168  41.9382398  79.6979576
  54.6191547  42.3057462  79.0630225  55.3119094  42.3476476  80.7017634
  56.9988310  42.4683490  79.0192218  56.5495486  42.1967215  77.3680014
  55.6866959  42.8145810  77.1193373  57.3831441  42.4585131  76.7163234
  56.2957663  41.1459476  77.2281082  53.8532311  38.4994731  80.6281357
  52.9472926  38.0044548  79.9383682  54.6674047  37.7671779  81.3881431
  55.4448490  38.2157958  81.8511999  54.5097423  36.3171404  81.5411390
  54.6507059  35.8331734  80.5747000  55.5529198  35.7539139  82.5322523
  55.4185279  36.2224088  83.5072146  55.4205739  34.6760747  82.6263137
  56.5565559  35.9653967  82.1633502  53.1039958  35.9908694  82.0129908
  52.4586369  35.0747867  81.5014144  52.6310713  36.7665764  82.9875908
  53.1667367  37.5433247  83.3479015  51.3419254  36.4815152  83.5900566
  51.2815994  35.4432199  83.9162510  51.1868127  37.3882403  84.8132646
  52.0742478  37.2250911  85.4247713  51.1902687  38.4101965  84.4341953
  49.9817475  37.1724994  85.6305424  49.1042555  37.4444249  85.0438865
  49.9239693  36.1185662  85.9025510  50.0300226  38.0255569  86.9016586
  50.2420135  39.0556606  86.6152231  49.0539757  37.9767491  87.3844107
  51.0508840  37.5841880  87.8593247  51.0465190  36.5987870  88.0808309
  51.9470449  38.3697010  88.4640082  52.8194254  37.8393840  89.3156713
  52.8001489  36.8466939  89.5008600  53.4974154  38.4316432  89.7735558
  51.9732183  39.6784369  88.2548829  51.3045422  40.0997320  87.6260088
  52.6617163  40.2482610  88.7253823  50.2193964  36.7041790  82.5881098
  49.2502335  35.9462607  82.5438245  50.3385159  37.7629756  81.7873593
  51.0798164  38.4381569  81.9086151  49.3252121  38.0214912  80.7635375
  48.3325775  38.0250792  81.2138295  49.5727825  39.3899013  80.1097727
  49.8615834  40.0702570  80.9109028  50.4101366  39.2606564  79.4240367
  48.3919637  39.9664269  79.3602106  48.7140491  40.9066366  78.9125863
  48.1268566  39.2614884  78.5722500  47.1850927  40.2146719  80.2424718
  46.8041885  39.2598826  80.6049470  47.4822783  40.8321146  81.0901420
  46.1151490  40.9157745  79.4659227  46.4793151  41.9006921  79.1736542
  45.8881158  40.3332412  78.5730565  44.8860029  41.0658948  80.2840484
  45.0960634  41.6060212  81.1112350  44.1773684  41.5404754  79.7430212
  44.5481544  40.1533433  80.5546169  49.2890847  36.9100568  79.7395789
  48.2237663  36.4495013  79.3662594  50.4532257  36.4247069  79.3319327
  51.3155905  36.8853327  79.5854090  50.5146600  35.3165593  78.4045241
  49.8089152  35.4816992  77.5904281  51.9279643  35.1753755  77.8095349
  52.1239078  36.1584241  77.3813751  52.6566433  34.9693149  78.5935413
  52.0409569  34.1149383  76.7196103  51.7656371  33.1486911  77.1422997
  51.0992886  34.4440815  75.5155607  51.3743144  35.4100418  75.0920276
  51.2000585  33.6716788  74.7531039  50.0661079  34.4803014  75.8609969
  53.5049014  33.9563906  76.2711205  54.1156189  33.6552597  77.1222632
  53.5666967  33.1956097  75.4929849  53.8705098  34.9058723  75.8800783
  50.0110964  34.0202448  79.0446603  49.2963230  33.2547952  78.4005423
  50.3031911  33.8402239  80.3271806  50.9498442  34.4426010  80.8161397
  49.8195911  32.6528859  81.0079811  49.9860488  31.7908643  80.3619859
  50.5174753  32.4047181  82.3413919  51.5929349  32.4059138  82.1639535
  50.2597814  33.2230046  83.0137765  50.1072619  31.0748011  82.9765673
  49.1354928  31.2274129  83.4461152  50.0202554  30.3129648  82.2018820
  51.0831030  30.5857823  84.0298820  51.8799034  31.3493857  84.5569352
  51.0348509  29.2808646  84.3161433  51.6601849  28.8956117  85.0094246
  50.3732807  28.6861836  83.8378329  48.2968819  32.6441962  81.1528653
  47.6670910  31.5884655  81.0677945  47.7199762  33.8212264  81.3485277
  48.2566734  34.6718852  81.4403700  46.2665115  33.9116519  81.4062202
  45.9089597  33.3401000  82.2627156  45.7849011  35.3586494  81.5479158
  46.3237892  35.8963573  80.7678074  44.7145530  35.4044113  81.3470160
  46.0722084  35.9921507  82.8842132  46.3848952  35.2630758  83.8582783
  45.9123606  37.2463372  82.9544541  45.6653322  33.3566213  80.0915277
  44.6648970  32.6530439  80.1070598  46.2339156  33.7591777  78.9526882
  46.9291369  34.4916133  78.9701467  45.8138821  33.2391513  77.6633510
  44.7446786  33.4021527  77.5279497  46.5794296  33.9424399  76.4925222
  47.6522254  33.8181123  76.6400043  46.1837083  33.3383583  75.1854464
  45.1110430  33.4627138  75.0370356  46.7216702  33.8344449  74.3776124
  46.4291528  32.2763518  75.1862661  46.2587987  35.4200798  76.4793641
  46.5629480  35.8668380  77.4259381  46.7954429  35.9015783  75.6618852
  45.1865438  35.5585104  76.3407735  45.9902035  31.7206631  77.6195162
  45.0553834  30.9775945  77.2734462  47.1842164  31.2622172  77.9433165
  47.9308709  31.8828691  78.2215207  47.4639072  29.8489411  77.8620224
  47.3304480  29.5083682  76.8352322  48.9137118  29.5485298  78.2966677
  49.5356539  29.8927462  77.4703493  49.2513085  30.0133553  79.2229861
  49.1644470  28.0800376  78.4384023  49.2150006  27.2818579  77.3220321
  49.1435269  27.7335469  76.3326037  49.3559576  25.9100404  77.4483798
  49.4134799  25.2958084  76.5497636  49.4221306  25.3323741  78.6655896
  49.5007855  24.2486898  78.7524323  49.3900551  26.1172199  79.8047363
  49.5094029  25.6723139  80.7926203  49.2031327  27.4869933  79.6783490
  49.0850053  28.1053231  80.5681884  46.5146651  29.0013861  78.7167223
  45.9333322  28.0294730  78.2593461  46.4074380  29.3430437  79.9898780
  46.8831566  30.1585117  80.3487694  45.6208095  28.5313633  80.9220946
  45.9853972  27.5042285  80.9090899  45.7339641  29.0735226  82.3523520
  45.4299190  30.1193883  82.3096793  45.0176609  28.5116163  82.9517442
  47.1263473  28.9714093  82.9906778  47.7902470  29.5462870  82.3450357
  47.0727618  29.4458545  83.9705398  47.6644659  27.5601361  83.1410020
  46.8743572  26.5797550  83.1584088  48.8886028  27.4148919  83.2655857
  44.1607741  28.5166026  80.5002512  43.4825905  27.4745612  80.6277570
  43.6600387  29.6580452  80.0017317  44.1925032  30.5162194  79.9908655
  42.2794517  29.6973300  79.5457118  41.6368280  29.2728522  80.3170434
  41.8172072  31.1198311  79.2554052  41.9567227  31.6978770  80.1689136
  42.4638580  31.5165109  78.4727253  40.3472267  31.2181990  78.8053841
  40.1404890  32.2626780  78.5720947  40.2348772  30.6159690  77.9038306
  39.1833347  30.6496767  80.0419219  39.5694760  31.7177677  81.4719343
  39.4178927  32.7617685  81.1977373  38.9137863  31.4623945  82.3043742
  40.6075600  31.5675697  81.7684531  42.0718567  28.8149076  78.3310744
  41.1495757  27.9713926  78.2873325  42.9434009  28.9477233  77.3352407
  43.7141323  29.6002458  77.3521769  42.7633306  28.1185569  76.1447733
  41.7498162  28.2468544  75.7647369  43.7480513  28.5032515  75.0459925
  44.7514364  28.3573972  75.4460475  43.5863933  27.8186775  74.2133309
  43.6046377  29.8919782  74.5746331  43.5437466  30.5338331  75.4535048
  44.4999299  30.1408961  74.0049018  42.3605309  30.1080595  73.6948194
  42.3639338  29.4923074  72.7954103  41.4262367  29.9558224  74.2352059
  42.4500101  31.5099411  73.3017858  42.8676396  31.6884549  72.3996673
  42.0761414  32.5464328  74.0433337  41.3877619  32.3788773  75.1850744
  41.1454285  31.4480159  75.4930868  41.1157978  33.1845556  75.7300676
  42.3500240  33.7645375  73.6118883  42.8342712  33.8891673  72.7343508
  42.0739211  34.5656293  74.1615409  42.9597524  26.6238540  76.4664357
  42.2252214  25.7633957  75.9582146  43.9713860  26.3142397  77.2683405
  44.5929194  27.0224382  77.6320031  44.2474811  24.9176961  77.5934552
  44.3543286  24.3321371  76.6803268  45.5390613  24.8241275  78.3831472
  46.3397075  25.4117967  77.9340261  45.3483120  25.1837987  79.3942612
  46.0594475  23.4195695  78.5171477  46.5129892  22.7129504  77.4089170
  46.5144515  23.1838570  76.4258886  46.9609660  21.4164678  77.5531934
  47.2666818  20.8577713  76.6686049  47.0244156  20.8286856  78.7921116
  47.3965438  19.8107174  78.9077023  46.6116335  21.5395466  79.8951790
  46.6594810  21.0760830  80.8805786  46.1413259  22.8252706  79.7619745
  45.8288720  23.3853464  80.6433300  43.0684500  24.2996371  78.3783085
  42.6799586  23.1533235  78.1346273  42.4968998  25.0626914  79.3082442
  42.8772811  25.9761239  79.5108534  41.3647431  24.5944129  80.0988930
  41.6685321  23.6457772  80.5415011  41.0300209  25.5618853  81.2120682
  40.7152539  26.5138008  80.7844250  40.2228988  25.1524532  81.8195379
  41.9103214  25.7176840  81.8356844  40.1185939  24.3534496  79.2729319
  39.3201412  23.4717767  79.6129237  39.9530239  25.1137742  78.1935052
  40.6320357  25.8389324  78.0113296  38.7887311  25.0064579  77.2978878
  37.9063106  24.7312926  77.8755704  38.5181388  26.3369221  76.5970442
  39.4477179  26.6128155  76.0991841  37.7515688  26.1358902  75.8486749
  38.0639401  27.4811675  77.4938893  38.7635706  27.5213244  78.3287578
  38.1496892  28.3940163  76.9044351  36.6842591  27.3574455  78.0127247
  36.0096743  27.2107486  77.1692117  36.6385306  26.4885418  78.6692418
  36.2608576  28.6156219  78.7959906  37.0859230  28.9550840  79.4221959
  35.9840468  29.4074424  78.0999336  35.1247247  28.2887350  79.6309294
  35.3811405  27.5553324  80.2762753  34.8402986  29.1082062  80.1482964
  34.3599472  27.9745655  79.0508329  38.9397771  23.8891151  76.2632869
  38.0391019  23.6575037  75.4630972  40.0941808  23.2334863  76.2259112
  40.8683459  23.5416865  76.7966828  40.2919262  22.0847267  75.3596496
  40.1564514  22.3838338  74.3202841  41.6926867  21.5143066  75.5226979
  42.4036974  22.3068273  75.2893013  41.8110326  21.2158996  76.5643541
  41.9501198  20.3320099  74.6307917  41.3177110  19.5162629  74.9811012
  41.6515698  20.6147520  73.6213231  43.6740404  19.7812166  74.6091013
  43.9468703  19.2698172  76.2933268  43.2529221  18.4685260  76.5472312
  44.9704798  18.9118177  76.4036022  43.7844058  20.1157112  76.9612863
  39.2400670  21.0255432  75.7196435  39.2271259  20.5472522  76.8452207
  38.3538818  20.6617794  74.7701395  38.1477187  21.2059423  73.4061125
  38.7894880  20.6839619  72.6963457  38.3808784  22.2706071  73.3911327
  36.6917615  20.9363608  73.1720024  36.4836153  20.8521762  72.1053783
  36.0809492  21.7316690  73.5991963  36.4493858  19.6275491  73.8862986
  36.7857304  18.7949697  73.2684129  35.3997154  19.4870467  74.1442727
  37.2875102  19.7040055  75.1498179  36.7573438  20.1598987  75.9859897
  37.8197156  18.3431918  75.5695468  38.7783188  17.8374731  74.9916527
  37.2784271  17.6843208  76.4888165 100.3915784  60.7991429  57.2736733
 100.4996015  61.3455990  56.4311665  99.8027469  60.0038463  57.0714823
 101.3014075  60.6610311  57.6898891  99.6719540  61.5667774  58.2018619
  98.7512215  61.0445917  58.4620024 100.4790555  61.8076883  59.4859312
 100.8535660  60.8431006  59.8285851 101.3194571  62.4542848  59.2334672
  99.6406245  62.4662996  60.6126417 100.2508852  62.4478971  61.5156057
  99.4640106  63.4999250  60.3151050  98.1314811  61.7044496  60.9341906
  97.5655987  62.3305412  62.5832474  97.4534003  63.4139711  62.5421340
  96.6076885  61.8759105  62.8358726  98.3022666  62.0706622  63.3434345
  99.3390784  62.9116935  57.6611212 100.1912910  63.4330789  56.9258349
  98.1980612  63.4856451  58.0686409  97.5481133  62.9363688  58.6126654
  97.8540920  64.8990398  57.7793473  98.0271712  65.1499795  56.7328426
  96.3380514  65.0582251  58.0841862  96.1917104  64.9538012  59.1592580
  96.0282155  66.0552285  57.7709994  95.5459768  64.0692306  57.3928117
  94.6183141  64.1976034  57.6039096  98.5999651  65.9827053  58.6263233
  98.7863331  65.8428017  59.8270726  99.0067505  67.0432222  57.9469003
  98.5611025  67.0788070  57.0412342 100.0278569  68.0611861  58.2650909
 100.0133295  68.2214249  59.3431501 101.3952339  67.7000889  57.8620699
 101.5145028  67.5837991  56.7848741 101.8526201  68.6374676  58.1786438
 102.0906852  66.5085340  58.5941564 101.9951066  66.3512837  60.0035662
 101.3972866  67.0533391  60.5847968 102.6637975  65.3014017  60.6460218
 102.6484703  65.2927969  61.7358809 103.2303249  64.2295627  59.9452929
 103.8844687  63.1941234  60.5661201 103.9098923  63.2855299  61.5214202
 103.2137783  64.3187341  58.5622309 103.6641832  63.5228703  57.9690726
 102.6329851  65.4044091  57.9343988 102.5751443  65.4381252  56.8464569
  99.4920629  69.3480127  57.5972451  99.1448793  69.3483863  56.4260041
  99.4553537  70.4443411  58.3390466  99.7284757  70.2817624  59.2977290
  98.8694301  71.7500243  57.9918711  98.9319090  71.9128766  56.9159181
  97.3806530  71.7923977  58.4128679  97.3167548  71.9036489  59.4952908
  96.9249033  72.6577528  57.9316687  96.5954938  70.5265825  57.9991542
  96.2325468  70.3158817  56.8035390  96.3037206  69.6265505  58.8901848
  95.7907352  68.7997912  58.6192330  96.5913353  69.7581046  59.8493887
  99.7333318  72.9184532  58.4469192 100.7520141  72.7961847  59.2501763
  99.3384100  74.1181191  58.0550933  98.5793022  74.1422332  57.3893057
  99.9793661  75.3541145  58.4007979 100.4846193  75.3074997  59.3654975
 100.9916924  75.5608721  57.3479993 101.8241459  74.8693295  57.4779580
 100.4391481  75.2980800  56.4459266 101.5251984  76.9757887  57.2198456
 100.9019811  77.8038236  56.2805769  99.9631084  77.5090572  55.8118230
 101.5055196  79.0378731  55.9409887 101.0876009  79.6846108  55.1695121
 102.4934874  79.5268219  56.8052050 103.0767019  80.6919519  56.5181528
 102.7415938  81.0905259  55.7116536 103.0554959  78.7318186  57.7941064
 103.9207651  79.0700695  58.3641907 102.4971969  77.4863994  58.0524905
 102.8277351  76.9095645  58.9162648  98.8905574  76.4201433  58.5645385
  97.7930072  76.2798545  57.9608924  99.1724465  77.3877765  59.4215860
 100.0437525  77.3154256  59.9272445  98.1840855  78.3732765  59.8757648
  97.6148300  78.8629402  59.0856529  97.1769554  77.7535754  60.9098095
  96.6633583  76.9150860  60.4394343  97.8771079  77.2867925  62.1068998
  98.3906021  78.1248747  62.5781139  97.1575530  76.8621903  62.8069385
  98.6054665  76.5251043  61.8286435  95.9899974  78.6638036  61.2491345
  95.4259136  78.8796025  60.3417523  95.3419938  78.1636019  61.9688492
  96.3573664  79.5959890  61.6782862  98.7122082  79.7784502  60.2876231
  99.6846537  79.8277921  61.0024379  98.1657383  80.8397507  59.6128464
  97.3436794  80.7122595  59.0400772  98.8780298  82.1439618  59.5438874
  99.3068895  82.5660717  60.4527337  99.9552239  82.1651318  58.4325532
 100.6810430  81.3967488  58.6987735  99.4617718  81.9244770  57.0333104
  98.7362054  82.6927873  56.7661894 100.3018238  81.9619376  56.3397617
  98.9889370  80.9439401  56.9778453 100.8922185  83.3007813  58.5148173
 101.4197295  83.2689345  59.4681378 101.6126310  83.2379111  57.6992482
 100.3378936  84.2361519  58.4379640  97.8474221  83.2554195  59.4775348
  96.7930365  83.0003037  58.9153927  98.0118295  84.4450889  60.1382587
  98.6570314  84.3716042  60.9118309  97.3676613  85.7026211  59.9089774
  96.3358972  85.4448941  60.1480145  97.8692541  86.7447858  60.9399800
  98.9396843  86.8773474  60.7827958  97.1824906  88.0627984  60.8190351
  96.1120049  87.9311038  60.9765681  97.5777049  88.7490912  61.5679724
  97.3550252  88.4730317  59.8240271  97.3833787  86.3451997  62.2108557
  97.6765537  86.9713696  62.8768587  97.6405145  86.1812926  58.4104879
  98.7927521  86.4418994  58.1122721  96.6157667  86.3898862  57.6413067
  95.7118843  86.0872620  57.9752447  96.6878408  87.0675236  56.3245403
  97.6660843  86.9549261  55.8571425  95.6005767  86.4897038  55.3556905
  94.6144936  86.6035685  55.8059957  95.6320250  87.0302009  54.4096597
  95.7977142  85.4327753  55.1764192  96.4123335  88.5509564  56.5145061
  96.8917638  89.3516840  55.7562589  95.7561097  88.9511455  57.5909623
  95.5645103  88.1945620  58.2320321  95.2905450  90.2600391  57.9286959
  96.0165419  91.0257235  57.6552822  93.9810368  90.5013536  57.1151765
  94.2847092  90.7544000  56.0993764  93.4380960  89.5562376  57.1067432
  93.1170882  91.5536370  57.6406823  92.3964871  91.6212725  56.8256606
  92.6001715  91.2788452  58.5601325  93.7687791  92.9337022  57.8366114
  94.5106741  93.3347226  56.9707751  93.6877672  93.5973642  58.9781466
  94.1299100  94.5012097  59.0657506  93.1841474  93.1971367  59.7567906
  95.0030021  90.4426777  59.4632864  94.1848139  89.7605093  60.0649010
  95.8429380  91.3126618  60.0613077  96.6066048  91.6616588  59.4999581
  95.8649147  91.5750973  61.5121126  96.0313717  90.6622085  62.0839739
  97.0030117  92.5075654  61.7605489  97.1717212  92.5086182  62.8374125
  97.8694995  92.0777725  61.2579784  96.7948612  93.9325079  61.2798867
  96.9126563  94.0113698  60.1991434  95.8141853  94.3121891  61.5666249
  97.8642412  94.7419387  61.9608398  97.6384696  94.7393918  63.0271979
  98.8116081  94.2308779  61.7893397  97.9700783  96.2293137  61.4501274
  98.6928487  96.7352214  62.0902531  98.3537002  96.1895021  60.4306430
  96.6447384  97.0003708  61.4674247  96.2893125  97.0377475  62.4120807
  96.7970052  97.9392153  61.1275927  95.9749963  96.5319861  60.8739937
  94.5061119  91.9367025  62.1387565  93.5292034  92.3426385  61.3862309
  94.3074748  91.7792896  63.4334497  95.2882061  91.2699755  64.3276098
  96.0027060  92.0708919  64.5176703  95.7926145  90.4459891  63.8229143
  94.5470309  90.8112926  65.6177367  95.1714488  90.9159926  66.5050017
  94.1959375  89.7822767  65.5405300  93.3464986  91.8092432  65.6444365
  93.6117056  92.7117636  66.1950917  92.4691857  91.3505696  66.1005507
  93.0499910  92.1622012  64.1681838  92.2438558  91.5551900  63.7561381
  92.6707261  93.6740580  64.0588163  93.6656019  94.4605640  64.1703667
  91.3958489  94.0499939  63.9530942  90.6408643  93.3806837  63.9991536
  91.0614827  95.4573054  63.7909688  91.9548395  96.0771872  63.8668594
  90.4032353  95.7155810  62.4427340  90.0786500  96.7556642  62.4115614
  91.4013878  95.4376887  61.2428384  91.7260667  94.3976076  61.2730796
  90.8963445  95.6327541  60.2968046  92.2690125  96.0913665  61.3324675
  89.2418257  94.9685846  62.1550829  88.9130882  95.2101190  61.2860645
  90.0690403  95.9810582  64.8383718  89.8886985  97.1976964  64.9026867
  89.3987958  95.1334629  65.6132134  89.5007880  94.1656588  65.3429316
  88.4388310  95.4587467  66.6313544  87.9223730  96.3378740  66.2459904
  87.4501527  94.3810522  66.8320922  87.9508334  93.4967720  67.2263860
  86.6891355  94.7124119  67.5386003  86.9794357  94.1370964  65.8797213
  89.1515955  95.9352990  67.9298327  90.0325540  95.3211413  68.4803328
  88.6777405  97.0744931  68.4938278  87.9907128  97.6628799  68.0445026
  89.2644748  97.5315925  69.7618105  90.3044302  97.2305216  69.8880968
  89.1800807  99.0397085  69.8745786  88.1561153  99.3330356  69.6431627
  89.5564083  99.5562968  71.2646232  90.5804731  99.2637357  71.4965717
  89.4766459 100.6432237  71.2827470  88.8806007  99.1304949  72.0062959
  90.0168435  99.7920285  68.8384875  89.6798590  99.5265974  67.8364447
  89.9013789 100.8655884  68.9876075  91.0664283  99.5207705  68.9520289
  88.6125713  96.8413275  70.8993913  87.4789277  97.2401230  71.3097316
  89.2528530  95.8614942  71.4826177  90.1062481  95.5124458  71.0703299
  88.7256265  95.1833325  72.6310689  87.6384653  95.1243974  72.5790461
  89.3049389  93.7281475  72.6618530  90.3770350  93.9231564  72.6357618
  89.0561966  93.1900912  73.5765786  88.9509117  92.8807278  71.5045343
  89.6579486  92.6555632  70.5188220  87.7382228  92.4480310  71.4599577
  87.4414765  91.8644016  70.6909205  87.0900309  92.6944983  72.1942614
  88.9632079  95.9168686  73.9469370  88.1804852  95.6687570  74.8911122
  89.9237429  96.7830386  73.9736972  90.5570641  96.8977344  73.1953345
  90.1069005  97.5961966  75.1089541  89.1276182  97.9890572  75.3823880
  90.4754070  96.9523210  75.9075319  91.0630732  98.7465069  74.9258614
  91.9005360  98.7835791  74.0634168  90.8251355  99.8158120  75.6876837
  90.0566862  99.7960141  76.3428119  91.6849188 101.0500165  75.6333963
  92.6900184 100.7664883  75.3211694  91.1409260 102.0978445  74.6469638
  91.7546401 102.9968804  74.5904953  90.9814769 101.7037691  73.6432803
  89.5491347 102.6244320  75.2273776  89.3189484 103.4852916  74.2400411
  91.7915002 101.8153668  76.9855669  90.9150597 101.8308988  77.8757881
  92.8141413 102.6102788  77.1115194  93.4835278 102.7451976  76.3673299
  93.0539851 103.2938596  78.4051759  92.1846954 103.8173805  78.8031212
  93.5772497 102.2726484  79.5022018  92.9189307 101.4053143  79.4527341
  95.0250432 101.8209949  79.3450746  95.6840420 102.6877929  79.3949039
  95.2783580 101.1261357  80.1457635  95.1492069 101.3257175  78.3820661
  93.4260526 102.6740985  80.9491663  92.3709798 102.8274999  81.1758631
  93.8237655 101.8862124  81.5888221  93.9740564 103.5989388  81.1293419
  94.0378321 104.4235933  78.1968495  94.9379590 104.2761615  77.3790534
  93.9518908 105.5272237  78.9904186  93.1716382 105.6339827  79.6228012
  94.9795661 106.5435074  78.9924589  95.9716113 106.4169179  78.5589610
  94.3413426 107.8449732  78.4077209  95.0928117 108.6102650  78.6019450
  93.9164902 107.9110995  76.9502595  93.1646397 107.1463508  76.7553751
  93.4972529 108.8945487  76.7377342  94.7823931 107.7398974  76.3107264
  93.3392692 108.5468935  79.1644564  93.0494690 109.3189022  78.6729090
  95.5315989 106.9270397  80.3980523  94.9209653 106.8517205  81.4850112
  96.7201057 107.4369672  80.2574651  97.1558423 107.5439395  79.3525950
  97.4653976 107.8764321  81.4464194  96.9113276 108.6963997  81.9033205
  97.5104087 107.0375529  82.1409372  98.8665724 108.3393747  81.1456581
  99.1537712 108.6012371  79.9955995  99.7179910 108.4994799  82.1548230
  99.3695521 108.1604969  83.0401367 101.0725039 109.0723249  82.1115052
 101.2363649 109.5866904  81.1645750 101.2406213 110.1224319  83.2967418
 100.6593721 109.6835585  84.1076911 102.2412672 110.3624453  83.6561877
 100.5797199 111.4336249  82.9527237 100.3648184 112.4376651  83.9051420
  99.7674713 113.4240147  83.2757511  99.3898644 114.2746421  83.8431531
  99.7422672 113.1634450  81.9648501  99.3937207 113.7741879  81.2398616
 100.2565752 111.9539495  81.7614077 100.3470151 111.5636345  80.7477135
 102.0757848 107.8760848  82.3141156 102.4592611 107.5166167  83.4048023
 102.3793170 107.1557408  81.2388966 102.1432146 107.5241228  80.3285946
 103.0694718 105.7931991  81.3128452 103.0560319 105.3586025  82.3123673
 102.1896083 104.8819767  80.3504529 101.2136607 104.7005260  80.8006764
 102.0589441 105.3784500  79.3889223 102.8208597 103.4566028  80.0439485
 102.9571762 102.5014506  81.0955283 102.6141015 102.7140048  82.1080600
 103.5668367 101.2278870  80.7921050 103.6555938 100.4770997  81.5773064
 104.0314346 100.9590252  79.5315546 104.4760402  99.9838336  79.3329919
 103.9409960 101.9348114  78.4806508 104.4035512 101.7497616  77.5111666
 103.2520903 103.1303303  78.7100795 103.0451360 103.8077167  77.8815763
 104.5076060 105.8503906  80.8488816 105.3162493 104.9402638  81.0705263
 104.8331294 106.9576399  80.0863769 104.2138284 107.7400563  79.9302038
 106.2038782 107.0045426  79.4815646 106.6444579 106.0313183  79.6979513
 106.0771444 107.1544995  77.9859108 107.0805976 107.1676667  77.5604598
 105.2707483 106.0147623  77.3559001 104.2669599 106.0012500  77.7805481
 105.2068579 106.1665753  76.2784170 105.7637670 105.0642528  77.5597747
 105.3094596 108.2733474  77.6549964 105.2444657 108.3457163  76.6999368
 107.0243178 108.1765136  79.9748685 108.2595479 108.0541045  80.0341874
 106.3510604 109.2446580  80.4592734 105.4513612 109.2920818  80.0027740
 106.7063716 110.3115419  81.4237430 106.4743489 110.0078106  82.4445329
 108.2502251 110.5714887  81.3165521 108.7892808 109.6859411  81.6531878
 108.5094169 110.7813600  80.2788268 108.6027715 111.6602642  82.1125577
 109.5477295 111.8146823  82.0432090 105.9408038 111.6107819  81.2432122
 105.3378274 111.8204856  80.1916454 105.6827379 112.2720633  82.4157832
 106.3400723 112.1649187  83.1750795 104.4999951 113.0750479  82.6404345
 103.6203030 112.4314452  82.6363660 104.6565526 113.6870985  84.0479454
 105.5281903 114.3413507  84.0653156 103.7651678 114.2636343  84.2952099
 104.7870677 112.8893470  84.7791483 104.2723580 114.1501121  81.6263200
 103.1418707 114.4996094  81.3966722 105.2644520 114.6976681  80.8859060
 106.2157255 114.4182621  81.0785463 105.0331752 115.7247763  79.8547921
 104.5882692 116.6272868  80.2738777 106.3868881 116.0717447  79.2928674
 106.1833861 116.8797065  78.5900987 106.9365248 116.4646905  80.1481996
 107.2160375 115.0027738  78.6073506 106.4514094 114.3121143  78.2517748
 107.7021159 115.4763645  77.7543918 108.2585696 114.2328381  79.4266504
 108.0612257 113.8673141  80.5938952 109.3614129 114.0591151  78.8312161
 104.0644458 115.3409957  78.7055364 103.3714827 116.1914014  78.1245791
 103.9702651 114.0697297  78.4188542 104.6118822 113.4550513  78.8990597
 102.9881909 113.4579851  77.4309469 102.6101316 114.2500699  76.7845941
 103.6268486 112.3480296  76.5383500 103.8467940 111.4756927  77.1537779
 102.8348414 112.1025422  75.8308470 104.8499673 112.7498237  75.7931297
 105.7543860 111.9745365  75.5853476 104.9147044 113.8760111  75.3199308
 101.8020445 112.8150784  78.1361198 102.0521617 112.2002228  79.1749075
 100.6059856 112.8618036  77.6264249 100.4559334 113.5966209  76.9499434
  99.4143216 112.0124161  78.0455904  99.6496288 111.4998125  78.9783108
  98.1584916 112.8647853  78.2585192  98.2918087 113.5123425  79.1251191
  98.1681275 113.4674681  77.3503448  96.7831765 112.1130621  78.3733691
  96.5440350 111.6754634  77.4041325  96.8416027 111.0082165  79.4311956
  97.0802574 111.4451351  80.4008578  95.8755007 110.5066026  79.4871520
  97.6107149 110.2850490  79.1599106  95.7958906 113.1459958  78.9191606
  95.7322505 113.9880939  78.2300160  94.8121661 112.6886221  79.0249745
  96.1386949 113.4984085  79.8919861  99.2904390 110.9220836  76.9855384
  98.9260097 111.1727359  75.8171448  99.6926067 109.6566226  77.3377096
 100.0036860 109.5600850  78.2937480  99.6670616 108.4256034  76.4661861
 100.0582894 108.6977989  75.4859057 100.5045435 107.2386493  77.0237013
  99.9183726 107.0036231  77.9121075 100.5057124 106.3800612  76.3521917
 101.9272765 107.5237608  77.4454173 102.2199018 107.8174810  78.5821287
 102.7894086 107.6027402  76.4919990 103.7583618 107.7912178  76.7057881
 102.4925023 107.4758270  75.5350034  98.2126812 107.8171443  76.3135776
  97.3981478 107.8548765  77.2552153  97.8477366 107.3502291  75.1318621
  98.4881929 107.5440020  74.3753126  96.6504825 106.5267099  74.8448693
  95.9844338 106.5460986  75.7074830  95.8647426 107.0680364  73.5892294
  95.3480057 108.0018382  73.8108065  96.7249548 107.2718525  72.9515821
  94.8911355 106.0976205  72.8534277  95.4425545 105.2149588  72.5294739
  93.7768692 105.6818715  73.7777163  93.2246707 106.5640165  74.1017470
  93.1029676 105.0042925  73.2534605  94.1954746 105.1760175  74.6477632
  94.0950445 106.8673537  71.7471005  94.7927778 107.2889514  71.0235516
  93.4185272 106.1791792  71.2403053  93.5186859 107.6706938  72.2059627
  97.2890138 105.1390465  74.4953076  98.0020587 104.9939211  73.4901108
  96.8391750 104.0640174  75.1401792  96.2561597 104.3420666  75.9166334
  97.1119285 102.6069044  74.9446739  97.8468789 102.4874698  74.1486322
  97.6592206 101.9405127  76.2255796  96.8168162 101.9657671  76.9168221
  97.9139367 100.9046013  76.0017329  98.8460998 102.6247707  76.8550672
  99.4077731 103.1272271  76.0675638  98.4317978 103.6250754  77.8876007
  97.8704321 103.1232516  78.6757252  99.3176181 104.0943824  78.3155891
  97.8050726 104.3874013  77.4248101  99.7955534 101.5903572  77.4724217
 100.1485743 100.9115434  76.6960922 100.6469160 102.1009201  77.9225423
  99.2668536 101.0224617  78.2379739  95.7961102 101.9082355  74.4465676
  94.6910999 102.0920659  74.9900100  95.9417268 101.0469488  73.4158101
  96.8913621 100.9440511  73.0876270  94.8718757 100.2691524  72.7346601
  93.9604191 100.3291813  73.3294228  94.6069682 100.8807723  71.3027976
  95.5780284 101.1744383  70.9041713  93.9069813  99.9310420  70.3052267
  92.9355884  99.6372912  70.7029790  93.7694141 100.4416562  69.3521008
  94.5214049  99.0432007  70.1558252  93.6637254 102.1223956  71.5693885
  92.6286973 101.9243529  71.2908264  93.7026933 102.4579274  72.6057279
  94.2368850 103.2101321  70.6598445  94.1978219 102.8754876  69.6232216
  93.6500968 104.1221952  70.7690216  95.2718193 103.4090605  70.9381220
  95.2338205  98.7609443  72.5574901  96.2649805  98.3568294  72.0354458
  94.2670534  97.9201712  72.9743809  93.5135352  98.2975397  73.5310698
  94.2839924  96.4787945  72.7145459  95.2764367  96.1847109  72.3729786
  94.0056651  95.7963642  74.0392270  93.0115808  96.0739340  74.3897288
  94.0557906  94.7153080  73.9092076  94.7492084  96.1084556  74.7726037
  93.2828425  96.0261993  71.6382385  92.1247506  96.3518297  71.6777215
  93.7852248  95.1869322  70.6607485  94.7850434  95.0502073  70.6186969
  92.9546203  94.5362807  69.6516942  91.8987671  94.6801814  69.8809665
  93.2545127  95.1685373  68.2336934  94.1961161  94.7563246  67.8709773
  92.4488132  94.8823614  67.5576375  93.3565174  96.7271698  68.2918120
  92.4435434  97.1549823  68.7060050  94.2083695  97.0322662  68.8995672
  93.5438689  97.2142570  66.8924216  94.3257123  96.6140223  66.4270849
  92.6066572  97.0687969  66.3552299  93.9466138  98.7282481  66.8393131
  93.0559271  99.3182372  67.0553929  94.6936877  98.9021536  67.6137398
  94.4864950  99.1216573  65.5488871  93.7942398  98.9609947  64.8312033
  94.7284036 100.1020341  65.5698999  95.3120779  98.5753760  65.3486652
  93.1736820  93.0441511  69.6215885  94.1852818  92.6111828  68.9748850
  92.4063162  92.1435990  70.2313694  91.5316906  92.5224861  70.5653962
  92.7409426  90.7499102  70.5754297  92.1480839  90.4257129  71.4307156
  92.4333157  89.8062024  69.3679152  91.4432087  90.0151828  68.9628044
  93.1774631  89.9082358  68.5780204  92.4583386  88.3401501  69.8881666
  91.9295141  88.0876158  70.9210504  93.0525260  87.3959896  69.2281088
  93.0523341  86.4533038  69.5906598  93.5129014  87.6074449  68.3543571
  94.1791327  90.5484060  71.1032603  94.4015651  90.5354754  72.2721626
  95.1990170  90.3747645  70.2064628  94.9432905  90.4679125  69.2338238
  96.5745251  90.0526223  70.5271354  96.8833406  89.9610918  71.5684588
  96.9980365  88.8194072  69.7925514  98.0880230  88.8200697  69.7871476
  96.4923495  87.5028099  70.3837683  95.4023637  87.5012164  70.3890745
  96.8534480  86.6703204  69.7798906  96.8602916  87.3971470  71.4043341
  96.7764758  88.9891718  68.3542083  97.0508940  88.1937158  67.8920993
  97.5829159  91.1627848  70.1883461  98.7655674  90.9411560  70.2883460
  97.0946261  92.4043669  69.8980360  96.0904192  92.5023378  69.9435281
  97.8627771  93.5375239  69.5521686  98.9045224  93.2384417  69.4363417
  97.3869586  94.1789518  68.2387924  96.3897004  94.5872566  68.4026905
  98.0734552  94.9876860  67.9882502  97.3423302  93.1630347  67.0759051
  96.6241810  92.3961722  67.3662230  96.9636847  93.7053198  66.2095007
  98.6650211  92.5093792  66.7243312  99.0068585  91.9485142  67.5942028
  98.4933289  91.8233755  65.8948614  99.7080945  93.4579215  66.3392708
  99.3417590  94.3858714  66.1817693 101.0233359  93.2705032  66.2501344
 101.4242348  92.0788974  66.3837562 100.7556655  91.3397372  66.5473326
 102.4111237  91.8719039  66.3262797 101.8412395  94.2318980  65.9599127
 101.4838856  95.1616514  65.7927094 102.8325495  94.0473219  65.9021634
  97.7793486  94.6249898  70.6375757  96.6593651  94.8042382  71.1713845
  98.8942331  95.2439450  70.8815593  99.7774049  94.9181659  70.5155334
  98.9087007  96.3626376  71.8995035  97.8968481  96.7017134  72.1214971
  99.5337257  95.8283572  73.1786178  98.7646644  95.2359777  73.6743299
 100.3198354  95.1683920  72.8117699 100.1206464  96.8117375  74.1597652
 100.6035673  97.5989680  73.5808384  99.0681581  97.4443414  75.1194874
  98.5851104  96.6577120  75.6991235  99.5643686  98.1405759  75.7956038
  98.3178564  97.9777967  74.5359008 101.0729500  96.0790833  75.0089800
 101.8581283  95.6485842  74.3874778 101.5168056  96.7633990  75.7320329
 100.5504082  95.2817269  75.5374419  99.5806926  97.6323848  71.1943666
 100.6989552  97.5161797  70.6917922  98.8966722  98.7349119  71.0578819
  98.0373558  98.7810484  71.5866030  99.3432231  99.9524852  70.3310142
 100.3140152  99.7641152  69.8725619  98.3494998 100.3420998  69.2311158
  97.3677127 100.4569767  69.6904595  98.6683402 101.2968375  68.8128852
  98.2700207  99.2810553  68.0978754  99.2394658  99.0833167  67.6405174
  97.9654665  98.4181339  68.6900853  97.2264816  99.5409735  66.9959201
  96.5833196 100.6212998  66.9683193  97.2150478  98.6955118  66.0799743
  99.2872051 101.1840520  71.2774587  98.5049944 101.1616857  72.2474763
 100.1799569 102.1350084  71.0101887 100.6926936 102.0845478  70.1414804
 100.4756023 103.2373180  71.9278501  99.6437157 103.4385641  72.6028048
 101.7664093 103.0789859  72.7409320 102.5812429 102.8394793  72.0577167
 102.0985747 104.3538446  73.4975465 101.2843519 104.5937590  74.1813468
 103.0184728 104.2112216  74.0645976 102.2315555 105.1725259  72.7903151
 101.7033701 101.8104541  73.6672139 100.9903697 102.0493492  74.4563021
 101.3044390 101.0061820  73.0490715 103.0328440 101.3614920  74.2967417
 103.4321806 102.1651324  74.9154439 102.8636715 100.4787358  74.9133626
 103.7462511 101.1219672  73.5082127 100.5767510 104.5500805  71.0739927
 101.3357872 104.6241314  70.0680774  99.8839143 105.5720339  71.4923594
  99.4523289 105.5088978  72.4033189  99.6997460 106.8300145  70.7067159
 100.5262028 106.9306629  70.0031974  98.3863137 106.8385733  69.9223925
  97.7652336 106.6697687  70.8020878  98.2004481 107.8398273  69.5337479
  98.0575719 105.8490567  68.8967480  98.1175352 106.2105005  67.5296533
  98.4248540 107.2145300  67.2371136  97.7764750 105.2619177  66.5432348
  97.8428058 105.5352372  65.4901448  97.3332563 103.9739122  66.9112360
  97.0538001 103.0135909  65.9839203  97.1911361 103.3119471  65.0818548
  97.1853038 103.6395340  68.2817010  96.8646005 102.6364840  68.5630204
  97.4495704 104.5923955  69.2708441  97.1972854 104.3831897  70.3104042
  99.6679384 108.1112591  71.5928364  99.5006447 107.9404974  72.8009421
 100.0151913 109.2800068  71.0702062 100.2721181 109.2899302  70.0934824
  99.8786084 110.6012222  71.7878202  99.2555388 110.6367969  72.6814744
 101.2664376 111.1315006  72.1392873 101.2227155 112.1962874  72.3682346
 101.7267726 110.3991246  73.3165323 101.7711977 109.3342346  73.0881977
 102.7188361 110.7512739  73.5992003 101.0342368 110.5646442  74.1418196
 102.3978982 111.2487547  71.0838190 102.0804671 111.9163158  70.2827561
 103.2953693 111.6490322  71.5554366 102.6137565 110.2633946  70.6708160
  99.3381027 111.6191444  70.7216476  99.5780788 111.4884346  69.4722356
  98.6468070 112.6755144  71.2112472  98.4083746 112.6216535  72.1912208
  98.0348933 113.7769546  70.3873030  97.7647015 113.3649873  69.4149972
  96.7228822 114.2669542  71.1086223  96.9471291 114.8821554  71.9800235
  95.9615885 115.1451815  70.0213787  95.7365779 114.5304982  69.1498079
  95.0328554 115.5257594  70.4464854  96.5931986 115.9816225  69.7221518
  95.7350140 113.1568147  71.5391331  96.2296209 112.4796543  72.2354950
  94.8696811 113.6080338  72.0246226  95.4087711 112.5995161  70.6610188
  99.1104817 114.8372268  70.0286283  99.7913338 115.4289779  70.9070115
  99.2522781 115.1451293  68.7361707  98.6724156 114.6705954  68.0589142
 100.3177602 116.0734237  68.2338376 100.6255366 116.5974407  69.1387017
 101.5712661 115.3406434  67.6259188 102.1866555 116.1339219  67.2015306
 102.4103730 114.4936008  68.5498785 101.7957365 113.6997688  68.9743221
 103.2359951 114.0535083  67.9906240 102.8066022 115.1145670  69.3533112
 101.1580260 114.3702422  66.7248000 101.9261643 113.9268564  66.3574133
  99.8172247 117.1112375  67.2206434  98.6730141 117.0274698  66.7744336
 100.6054985 118.0666098  66.7345702 101.5533674 118.1845469  67.0628000
 100.0388077 119.1030623  65.8133250  99.2707153 119.6148666  66.3931436
 101.1273710 120.1210013  65.4328200 101.8991918 119.6253325  64.8440034
 100.6840519 120.9255518  64.8460773 101.5713627 120.5344936  66.3383557
  99.2971424 118.4796352  64.5570670  98.2013665 118.9033628  64.1185796
  99.8528350 117.4781095  63.9143696 100.7909774 117.2392311  64.2023372
  99.3153608 116.8544321  62.6778071  98.6994355 117.5692800  62.1321627
 100.4901868 116.4120821  61.7634935 101.2489610 115.9012276  62.3562740
 100.1231145 115.7404656  60.9874205 101.1010452 117.6528552  61.1153583
 101.7316752 117.3179155  60.2918160 100.2478540 118.2029949  60.7184826
 101.9026223 118.5559423  62.0296356 102.5428632 118.1090196  63.0311672
 102.0159273 119.7845404  61.8399789  98.2718822 115.8380129  62.9965458
  97.8167308 115.1577232  62.0815419  97.8916135 115.6118937  64.2713540
  98.3270112 116.1881616  64.9773593  96.9237348 114.6228216  64.6941782
  96.1338820 115.1215587  65.2558659  96.4966318 114.1486936  63.8105013
  97.5580220 113.5514008  65.5745339  98.5236651 113.7690901  66.2780834
  96.9948979 112.3030885  65.5726309  96.4112130 112.0232598  64.7973199
  97.2586157 111.3413358  66.6098472  97.3542044 111.7911061  67.5981127
  96.0053963 110.4477116  66.5952570  95.1701016 111.0986351  66.8534828
  95.8716537 110.0707886  65.5812837  96.0555786 109.3003115  67.5499469
  97.0815403 108.9437337  67.6413565  95.5456190 109.7716784  68.9400773
  94.5194880 110.1279919  68.8495520  95.5797467 108.9383673  69.6418811
  96.1794044 110.5797863  69.3052870  95.2377339 108.0918994  67.1378300
  95.5984725 107.7180078  66.1796170  95.3363329 107.3113516  67.8922334
  94.1896232 108.3763933  67.0449526  98.4914620 110.5869640  66.1222655
  98.4287168 109.7403217  65.2054591  99.5766833 110.7926126  66.8042957
  99.5695428 111.4887866  67.5359994 100.8606050 110.1361364  66.4732155
 100.9621684 109.9537072  65.4034008 101.9719321 111.1252683  66.9153696
 101.7194632 112.1071237  66.5149716 101.9653297 111.1649904  68.0046256
 103.3829703 110.7136189  66.4221312 103.6470050 109.7820332  66.9226656
 103.3182713 110.5424527  65.3475996 104.4264625 111.7382658  66.6990277
 104.2534033 112.1382334  67.6981150 105.3999889 111.2490175  66.6676927
 104.4280168 112.8887702  65.7079141 103.6057750 112.8398311  65.1234290
 105.3194760 113.7845950  65.4434439 106.3999883 113.8383390  66.1498211
 106.5404076 113.1804513  66.9031910 107.0991042 114.5379854  65.9452938
 105.0503899 114.7239638  64.5455263 104.1547628 114.7302977  64.0787158
 105.7424590 115.4282406  64.3330803 100.9050114 108.7227469  67.1297054
 100.6823291 108.6043491  68.3357778 101.3303052 107.6681283  66.4203425
 101.5745694 107.6313774  64.9897169 102.4526841 108.2562186  64.8266578
 100.7044610 108.1017484  64.5317196 101.7720064 106.2478641  64.5289410
 102.8086036 106.0578871  64.2505994 101.1205413 106.0046456  63.6895726
 101.3677715 105.4429563  65.7967843 102.1055924 104.6406367  65.7951868
 100.3667427 105.0151986  65.8521405 101.6096261 106.3765161  67.0041249
 100.9884619 106.2025402  67.8827520 103.1017157 106.3970151  67.4230358
 104.0261692 106.6286666  66.6287787 103.2922888 105.9895565  68.6901149
 102.4661709 105.9282581  69.2679306 104.6019742 105.7922397  69.3246505
 105.5082962 106.1935976  68.8712287 104.5262104 106.2791493  70.7966250
 103.6490451 105.8075231  71.2396249 105.7577879 105.9575537  71.6409460
 106.6353416 106.4292574  71.1987967 105.6138808 106.3356260  72.6530984
 105.9042604 104.8779547  71.6743157 104.0270689 107.7750526  70.8335213
 103.0383640 107.8400297  70.3792719 103.9743428 108.1156303  71.8676037
 104.7230994 108.4046465  70.2792163 105.2294248 104.3659003  69.2123975
 106.3318934 104.1081686  68.7673274 104.4904104 103.3277684  69.6463234
 103.6844856 103.5556026  70.2108375 104.9274474 101.9036853  69.5802396
 105.4595412 101.7021441  68.6505318 105.8809039 101.6386762  70.7603756
 106.7012714 102.3396569  70.6063548 105.3098463 101.9360779  71.6398899
 106.4378454 100.2501676  70.9679839 106.8384493 100.1822317  71.9794195
 105.6298619  99.5283677  70.8485284 107.5359642  99.9483345  69.9689354
 107.2232347 100.2475599  68.9685538 108.4453764 100.4844500  70.2403188
 107.8010808  98.4738609  69.9888118 108.2423517  98.1993698  70.9469533
 106.8623044  97.9365046  69.8544753 108.7443841  98.1134910  68.8839162
 109.6144948  98.6109835  69.0084481 108.9196276  97.1189717  68.9018371
 108.3354995  98.3673682  67.9959642 103.7408647 100.9681703  69.3544274
 102.7541965 101.1267083  70.0763004 103.8729795  99.9158087  68.5309332
 104.6659009  99.9702289  67.9077050 102.9222421  98.7396392  68.3859135
 102.1791413  98.7095668  69.1827800 102.2140191  98.9541963  67.0759427
 101.6163898  99.8622562  67.1557282 102.9666513  99.0823784  66.2979876
 101.2953521  97.7626082  66.7131898 101.8296797  96.8317929  66.9033939
 100.5141157  97.8920599  67.4621966 100.6676935  97.7123502  65.3308774
 100.4763005  98.7897280  64.7287288 100.4808966  96.6270183  64.8185058
 103.7181592  97.4079359  68.4991090 104.7101339  97.1422869  67.8285497
 103.1804238  96.4477186  69.3340475 102.3640028  96.8033613  69.8105707
 103.6780331  95.1124425  69.7038471 104.4206502  94.8382600  68.9545521
 104.3337150  95.0629439  71.0813318 104.9134933  94.1406235  71.1171289
 105.2502139  96.2598193  71.4150443 104.6709970  97.1825183  71.3798968
 105.6674876  96.1312008  72.4137637 106.0601018  96.3119034  70.6873970
 103.2967833  95.0783675  72.1553451 102.6438739  94.2127848  72.0431936
 103.7824278  95.0425786  73.1305211 102.7059173  95.9910160  72.0775573
 102.5539021  94.0921170  69.5473239 101.3730109  94.4359827  69.5035383
 102.8589489  92.7950581  69.6667675 103.8325202  92.5322519  69.6102768
 101.8339813  91.7053976  69.8805014 100.8685560  92.1633645  70.0957213
 101.7573787  91.1070246  68.9726571 102.2181207  90.8069229  71.0296129
 103.3939928  90.7464866  71.3603595 101.3030289  89.9743183  71.5229886
 100.4613862  89.9870984  70.9648007 101.3486887  89.0822536  72.7038407
 102.3687148  88.9596903  73.0680168 100.5018833  89.7430325  73.8179349
  99.5140308  89.9308058  73.3972354 100.4196449  89.0175339  74.6272485
 101.0652190  91.0150220  74.3476109 102.0087760  90.7869957  74.8433983
 101.2499911  91.6806117  73.5044314  99.9347953  91.8534972  75.5478077
  99.8783258  90.8652836  77.0562404 100.8803814  90.7876570  77.4780907
  99.2163154  91.3421385  77.7790491  99.5041151  89.8681772  76.8241920
 100.7693770  87.6855473  72.3832950  99.9362287  87.4500752  71.5071828
 101.1747266  86.7722024  73.2154475 101.9219783  86.9311532  73.8760903
 100.5729243  85.4373794  73.1551586 100.2645558  85.1927737  72.1387059
 101.6269986  84.4233879  73.6036154 101.7320336  84.6513976  74.6643126
 101.1874394  83.4327580  73.4872530 102.9803788  84.4508815  72.9489772
 103.0803191  84.6470184  71.5654675 102.1979357  84.8569576  70.9609639
 104.3429581  84.5693390  70.9598871 104.4082949  84.5823472  69.8719240
 105.5481474  84.4296174  71.7580942 106.7828841  84.5280598  71.1406581
 106.7183388  84.6873339  70.1961660 105.3929546  84.2433364  73.1305127
 106.2737359  84.1178628  73.7602597 104.1253995  84.2170751  73.6965307
 104.0075331  84.0078936  74.7597573  99.3267564  85.2405894  73.9616003
  99.2363267  84.4198453  74.9306836  98.3511987  86.1622044  73.7098125
  98.4858810  86.8137749  72.9499337  97.1647047  86.2483311  74.4593845
  96.7723455  85.2338107  74.5293974  97.4537460  86.5948270  75.4516017
  96.1192469  87.1282838  73.9331951  96.3893353  88.2862329  73.5362591
  94.9218847  86.6386868  74.2125096  94.8352713  85.6501669  74.4007271
  93.7066618  87.4307720  74.1146717  93.6872471  88.1007897  73.2551379
  92.5949412  86.3152045  73.9135734  92.7533589  85.8315235  72.9496980
  92.6902761  85.5770792  74.7099290  91.1970285  86.9267818  73.9518804
  91.0149258  87.1711050  74.9984202  91.2658919  87.8466735  73.3712264
  90.0190159  86.0546925  73.4081237  90.0187209  85.1377349  73.9974348
  89.1053237  86.6145408  73.6077128  90.0877566  85.7022188  71.9113571
  91.1111723  85.3945514  71.6967374  89.4137104  84.8620945  71.7441680
  89.7267330  86.7767774  71.0539391  90.3514673  87.5552051  71.2083968
  89.7939038  86.4769299  70.0918167  88.7782989  87.0617380  71.2523560
  93.4531246  88.4129554  75.2335549  93.0977833  88.0746601  76.3693445
  93.9164570  89.6522865  74.9403817  94.2294618  89.8851030  74.0087575
  94.0354836  90.6619063  75.9800406  94.7100590  90.2939915  76.7531421
  94.5722130  91.9862494  75.4213871  93.9434410  92.3075754  74.5910282
  94.5594285  93.0419723  76.4993906  95.1883967  92.7215431  77.3299475
  94.9418267  93.9792885  76.0952734  93.5388143  93.1887995  76.8527850
  96.0250253  91.8000661  74.9018244  96.6583275  91.7619642  75.7881525
  96.0431112  90.8320530  74.4011018  96.5476516  92.8782973  73.9471469
  96.5302998  93.8465880  74.4473588  97.5699336  92.6398497  73.6535800
  95.9150817  92.9166783  73.0603086  92.6734844  90.8848197  76.6679656
  91.7637778  91.3973799  76.0187463  92.6357098  90.6117985  77.9677543
  93.5157908  90.2822710  78.3378467  91.4479532  90.5513594  78.8344666
  90.6499877  90.7181842  78.1109200  91.3494634  89.1282267  79.3442058
  92.1365729  88.9487655  80.0765666  90.3768876  88.9758405  79.8121535
  91.4639631  88.4346278  78.5111934  91.2425867  91.6269068  79.9778399
  90.1492084  91.7361009  80.5692210  92.2892475  92.4593510  80.1342454
  93.0072159  92.3592703  79.4309641  92.4711835  93.4639383  81.1645723
  91.4928795  93.9075539  81.3495745  93.0427315  92.9177881  82.5285059
  93.9675728  92.3844399  82.3087166  93.3223162  94.0245303  83.5517532
  92.3977858  94.5580618  83.7724086  93.7136685  93.5825052  84.4680270
  94.0545694  94.7210684  83.1434132  92.1122053  91.9735546  83.2400346
  91.9125912  91.1111897  82.6039662  92.5733528  91.6397859  84.1695728
  91.1755806  92.4846553  83.4627702  93.4504240  94.4105363  80.5792431
  94.5034596  94.0602422  80.0688080  93.1815738  95.7306241  80.7160385
  92.2261369  96.0522334  80.7777393  94.2450639  96.7306548  80.6163727
  95.2027735  96.3222091  80.9389617  94.3573025  97.1365484  79.1553977
  94.3701313  96.2555646  78.5136796  93.5240802  97.7796574  78.8721110
  95.6661531  97.9009362  78.9945796  95.4832872  98.9177395  79.3421021
  96.3952942  97.4202256  79.6467856  96.3276291  97.9577993  77.2940676
  95.0394566  98.8565877  76.4388132  94.9234372  99.8425491  76.8888340
  95.3085415  98.9666350  75.3882973  94.1001885  98.3091280  76.5173280
  93.9879037  97.8781485  81.6245789  92.9678545  98.4953858  81.5055418
  94.9117045  98.1065551  82.5655697  95.7721042  97.5849573  82.4775499
  94.7646386  98.9581498  83.6576865  94.0309784  99.7243430  83.4071073
  94.2876860  98.2123563  84.9423414  93.3691072  97.7240170  84.6170155
  95.0635062  97.4618691  85.0939066  94.0275600  98.9695485  86.2828019
  93.8023384  98.2894607  87.1042985  94.9757040  99.4711188  86.4765785
  92.9357694  99.9920973  86.1668828  91.8147050  99.7020096  86.6768912
  93.1955348 101.1198406  85.6750677  96.1000566  99.7256950  84.0117063
  97.1760586  99.2275159  83.7954235  96.0796930 100.9441891  84.5246709
  95.1962827 101.4332230  84.5477251  97.3223515 101.6715197  85.0287056
  98.2326520 101.1193504  84.7951222  97.3701369 103.0326654  84.3003808
  96.3404397 103.3692878  84.4208311  98.0403313 103.7261715  84.8083068
  97.7125173 102.9852226  82.8420263  97.1575193 102.1860660  82.3506743
  97.3278972 104.3279885  82.2218383  97.8828754 105.1276451  82.7123964
  97.5673559 104.3195657  81.1584995  96.2587471 104.4958162  82.3516549
  99.1483752 102.5913333  82.4713789  99.3616746 101.5927335  82.8526940
  99.2587832 102.5968708  81.3869986  99.8461530 103.3041780  82.9107621
  97.3376336 101.8661342  86.6149744  96.3182533 102.1206904  87.1941013
  98.5496529 101.8355439  87.1850922  99.2959072 101.4738498  86.6085671
  98.8523628 102.1669845  88.6088376  98.1627303 102.9317322  88.9661430
  98.7005960 100.9146095  89.4940662  98.8978792 101.3425439  90.4769450
  97.7312046 100.4163161  89.5032371  99.7608955  99.8142434  89.2703492
  99.6753540  99.0045546  88.1084637  98.8921890  99.2407506  87.3880722
 100.5332674  97.9551851  87.8725717 100.4847368  97.4095415  86.9302243
 101.4754247  97.5866212  88.8517108 102.1563721  96.7490975  88.7001699
 101.5250782  98.3165375  90.0306080 102.2404039  98.0280376  90.8007880
 100.6651143  99.4208183  90.2413894 100.7092175  99.9747295  91.1791193
 100.1786220 102.8333383  88.9586849 101.0819378 102.5820858  88.1570785
 100.3123024 103.5880544  90.0611005  99.4657707 103.8546429  90.5431939
 101.6155306 104.1617114  90.5401410 102.4628309 103.6959677  90.0368874
 101.6076601 105.6651264  90.2020621 101.3464031 105.7732837  89.1493770
 100.8459070 106.1454765  90.8161435 103.0221103 106.3551556  90.4727083
 103.3190401 106.2303092  91.5140281 103.7883587 105.9313001  89.8236227
 102.8530199 107.9069456  90.1512724 102.0712078 108.3245037  90.7857123
 103.7935016 108.4215469  90.3481966 102.4967376 108.1150124  88.7949051
 102.0675175 107.3282483  88.3292104 102.6509590 109.2495244  88.1144087
 103.3918707 110.2056613  88.5501805 103.8749091 110.1046784  89.4314162
 103.4873390 111.0532018  88.0091994 102.1045853 109.4641480  86.9661933
 101.5275984 108.7509269  86.5436985 102.2562382 110.3444454  86.4948372
 101.8854750 103.8558783  92.0330861 101.4727017 104.6554786  92.8884010
 102.6485964 102.7942426  92.3844683 103.1872492 101.8113146  91.4947107
 104.0808625 102.2154070  91.0190377 102.4441846 101.5781644  90.7320869
 103.4876884 100.6323325  92.3834382 104.2436012  99.9921997  91.9285483
 102.5838555 100.0516949  92.5679578 103.9987620 101.2684598  93.6722407
 105.0660669 101.4837383  93.6211104 103.7902390 100.6769959  94.5637496
 103.2200323 102.5530912  93.7155119 102.3989419 102.4663934  94.4271243
 104.1558642 103.6791453  94.1533425 104.9237770 104.2233422  93.2979264
 104.1617379 103.9609199  95.4942715 103.4787122 103.5995265  96.1446330
 105.1164813 104.9827688  95.9758355 104.9883233 105.8974296  95.3969830
 104.8930225 105.3041718  97.4522570 105.1319691 104.4217962  98.0459041
 105.5519930 106.1237113  97.7389849 103.4024101 105.7182829  97.7086370
 103.1186044 106.4353761  96.9383562 102.7872226 104.8233095  97.6155296
 103.1840748 106.3562300  99.1204777 103.7005630 105.7219525  99.8409158
 103.6524031 107.3403204  99.1022011 101.7200833 106.4975953  99.5256229
 101.5874796 107.1322981 100.4017902 101.0943251 106.8659623  98.7127074
 101.3443084 105.1635115  99.8456958 101.9237442 104.8221360 100.5992319
 100.3756834 105.1459106 100.1312754 101.4667020 104.5753012  99.0338290
 106.5857425 104.6585168  95.6874795 106.9590893 103.5355607  95.6975736
 107.3384796 105.6365059  95.1313876 106.9336917 106.5593546  95.0635922
 108.7092703 105.4340790  94.6209140 109.3465166 106.2259339  95.0145917
 109.0714467 104.4681691  94.9729730 108.7696100 105.4614607  93.0656297
 109.7654900 105.7967506  92.4231992 107.6560001 105.2764811  92.3746062
 106.8702500 104.8675032  92.8598207 107.5088565 105.5822395  90.9211700
 108.4561536 105.4559310  90.3969816 106.4958579 104.6087307  90.3362979
 105.5767642 104.8585794  90.8663372 106.4143678 104.9294002  89.2977266
 106.7181421 103.0949273  90.3866463 106.4832892 102.8086342  91.4118201
 105.9838847 102.6571155  89.7104170 108.1332561 102.5784652  90.0172695
 108.6755725 101.7864876  90.8537864 108.7025260 102.9218279  88.9907405
 107.0768146 107.0306609  90.5990996 106.1131493 107.6002923  91.1273697
 107.7491117 107.6658415  89.6434908 108.6719907 107.3492485  89.3824113
 107.2609963 108.9337582  89.0789027 106.5102963 109.3922447  89.7225942
 108.4701302 109.8856164  88.9765345 108.1578009 110.8617206  88.6053604
 108.9474821 110.0031421  89.9493772 109.3690389 109.3193449  88.0866358
 110.1362810 109.8898574  88.0002947 106.4689594 108.7936914  87.8052509
 106.0768238 109.8190191  87.2691495 106.1529919 107.5968800  87.2993061
 106.6027454 106.7827526  87.6930289 105.3223177 107.4221134  86.0738735
 104.5195884 108.1579122  86.1220920 106.0636167 107.5898314  84.7351010
 105.3678992 107.4485726  83.9079841 106.4987486 108.5875114  84.6768357
 107.1899477 106.5297745  84.6487775 107.9006621 106.7635724  85.4414468
 106.7264171 105.5640506  84.8503184 107.9189530 106.4733764  83.3150907
 107.1925718 106.1619659  82.5644291 108.2603742 107.4842391  83.0921837
 109.1369137 105.4972314  83.2965005 109.4819951 105.4243323  82.2651397
 109.9206854 105.9403556  83.9108637 108.8194426 104.1576414  83.8011604
 108.0935030 103.7466857  83.2317512 109.6460876 103.5786314  83.7623589
 108.5000689 104.2249244  84.7569702 104.5829561 106.0920664  86.2212781
 105.0911364 105.1763637  86.8551751 103.3778764 105.9833734  85.7201167
 102.9528979 106.8591454  85.4508288 102.5144900 104.7556298  85.7595962
 102.3954186 104.4303464  86.7930911 101.1258086 105.0304085  85.1691660
 101.1582773 105.1000478  84.0818779 100.6788373 104.0793401  85.4586232
 100.2825654 106.1833978  85.7303313  99.1397023 106.2761672  85.2893033
 100.6525283 106.8938967  86.7458306 103.1603892 103.4757254  85.2598222
 103.8828609 103.4706043  84.2674285 102.8432885 102.3888386  85.9267842
 102.5229702 102.5624858  86.8687726 102.9476911 101.0116323  85.4779591
 103.6216411 100.9506047  84.6234614 103.4987490 100.1246803  86.6010042
 102.6472768 100.0854180  87.2803810 103.7053705  99.1245349  86.2200622
 104.7426277 100.6552339  87.3614727 104.5808190 101.6821286  87.6892012
 104.9519816  99.7488278  88.5940894 105.1143253  98.7217777  88.2671161
 105.8209576 100.0926196  89.1551498 104.0686411  99.7913987  89.2312688
 105.9832174 100.7926615  86.5739781 105.8168955 101.4883023  85.7514695
 106.7802868 101.1712913  87.2138384 106.2700273  99.8200344  86.1741836
 101.6771274 100.3626724  84.9859377 100.5991842 100.6924375  85.4420849
 101.8543278  99.4084920  84.1353557 102.8169526  99.1202394  84.0335553
 100.8770439  98.8050424  83.2954999  99.9064689  99.2780136  83.4451046
 101.2961415  98.9824354  81.7884697 101.3189716 100.0624553  81.6430904
 102.3031183  98.5800999  81.6779082 100.3750477  98.3463647  80.7433031
 100.4047871  97.2623604  80.8535352  98.9544929  98.8335835  80.9322132
  98.9238741  99.9175296  80.8216589  98.3096057  98.3741235  80.1831352
  98.6055626  98.5604569  81.9280796 100.8586300  98.6651981  79.3074161
 101.8665339  98.2744020  79.1677469 100.1863657  98.2012733  78.5856572
 100.8639128  99.7446942  79.1565545 100.5310498  97.3753840  83.5013904
 101.4900833  96.5870913  83.4249022  99.3523711  97.0369910  83.9861757
  98.7476486  97.7924552  84.2754573  98.9063392  95.6815950  84.2041715
  99.7732406  95.0263613  84.1190247  98.2450459  95.4455986  85.5701312
  99.0224449  95.6207610  86.3138168  97.4316794  96.1552726  85.7214512
  97.6827062  94.0817405  85.8496080  98.6193994  93.0385596  86.0487624
  99.6788828  93.2392788  85.8896817  98.1922246  91.7378965  86.4524481
  98.8957334  90.9506238  86.7233316  96.8291794  91.4929676  86.4930899
  96.4662789  90.5122507  86.8006571  95.8997097  92.5191709  86.1340399
  94.8389071  92.2754766  86.0756348  96.3393434  93.8341778  85.8567585
  95.6122130  94.6208629  85.6554931  97.9700401  95.2071163  83.1490654
  96.9265157  95.8517398  82.9559141  98.2542002  94.0343680  82.6607536
  99.1017071  93.6456836  83.0490265  97.5664705  93.2879766  81.6364798
  96.5376352  93.6439185  81.5826061  98.2242470  93.4274634  80.2686383
  99.2570251  93.0844389  80.3303149  97.4677119  92.5861957  79.2345003
  96.4349015  92.9289598  79.1719222  97.9447577  92.6919710  78.2601597
  97.4847290  91.5385708  79.5349862  98.2165683  94.9142043  79.8362570
  97.1809886  95.2511728  79.8823847  98.8087146  95.4598282  80.5709384
  98.7795781  95.1768147  78.4257320  98.1876164  94.6318505  77.6904122
  98.7345078  96.2440714  78.2088655  99.8153424  94.8405036  78.3789654
  97.5147415  91.7952507  82.0925233  98.5168272  91.1955471  82.4103062
  96.3725318  91.1508043  82.0033057  95.6090640  91.7899542  81.8338841
  96.0776365  89.7344367  82.0841112  96.9980599  89.1620242  82.1992798
  95.1840112  89.4697905  83.2933322  95.8072460  89.6846887  84.1613739
  94.3866470  90.2099988  83.2269850  94.5873128  88.1063269  83.4339877
  95.1484339  87.3863135  82.8383161  94.6550323  87.7116036  84.9029821
  94.0937114  88.4309440  85.4992766  94.2250622  86.7184763  85.0330773
  95.6948718  87.7024161  85.2297078  93.1182679  87.9288229  83.0068091
  93.0127804  88.1830066  81.9521231  92.8167590  86.8929552  83.1622820
  92.4841126  88.5847055  83.6032687  95.3213414  89.3769146  80.7752931
  94.5806980  90.1864114  80.2011223  95.4338630  88.1025351  80.3927231
  95.9308562  87.4776031  81.0112351  94.8874778  87.5539697  79.1324163
  94.3473492  88.3344697  78.5965246  96.0609312  87.0324613  78.2156387
  95.6572086  86.7438540  77.2451676  97.1398389  88.1695357  78.0196643
  97.5443772  88.4583599  78.9897308  97.9460771  87.8007347  77.3855783
  96.6745812  89.0352268  77.5482678  96.6780351  85.9056423  78.8451144
  97.3935853  85.5826150  78.2926277  93.9356974  86.3933019  79.4489685
  93.6514718  86.1133797  80.5801592  93.2427137  85.7734179  78.4981881
  93.5319093  85.9438369  77.5456007  92.0770396  84.9210497  78.7267188
  91.5048751  85.3932415  79.5253188  91.2314063  84.9116874  77.4633037
  91.7874662  84.4336860  76.6568224  90.3100998  84.3586613  77.6462159
  90.9895143  85.9359924  77.1797782  92.3603095  83.4844709  79.1286494
  91.4621610  82.8412805  79.6476017  93.6084167  82.9782790  78.9501240
  94.2104226  83.5194183  78.3460904  94.1376359  81.7421521  79.5314117
  93.3603168  81.0150608  79.7663850  95.0442563  81.1563248  78.4014295
  94.7418661  81.5415560  77.4276449  96.0904109  81.4043037  78.5807813
  94.8687438  79.6302663  78.4250454  95.3463110  79.2184537  79.3141128
  93.8074805  79.3818336  78.4352247  95.5393075  79.0168946  77.1369443
  94.9719631  79.2892909  76.2469895  96.5647252  79.3725991  77.0364843
  95.5408771  77.5138927  77.2923757  96.1504272  77.2721024  78.1630574
  94.5127306  77.1987667  77.4704474  96.0760444  76.8059544  76.1019164
  97.0288845  77.0974947  75.9369931  96.0521456  75.8093229  76.2639492
  95.5111060  77.0295307  75.2950971  94.9300828  81.9357365  80.7990055
  95.5800391  80.9667780  81.2575959  94.8587042  83.1206979  81.4249613
  94.4995080  83.7449635  80.7168865  95.2825730  83.6944895  82.7093384
  94.9043556  84.7106739  82.8207832  94.7169417  82.8368127  83.8386478
  95.2786330  81.9033159  83.8730845  94.9583315  83.4380361  84.7152101
  93.2119369  82.5284110  83.8282637  92.2465450  83.5828176  84.0640752
  92.6503649  84.5582236  84.3353907  90.8883362  83.4060494  83.9622223
  90.2039624  84.2305154  84.1621975  90.3952141  82.1857622  83.5315509
  89.0344911  82.1784039  83.4366942  88.6367999  83.0168505  83.6825572
  91.2090021  81.0670204  83.2968599  90.8311884  80.0973104  82.9727923
  92.6245544  81.2559217  83.5094490  93.3054055  80.4083925  83.4304806
  96.7765959  83.9970290  82.8910293  97.2290300  84.3469178  83.9646043
  97.5453367  83.9574083  81.7656922  97.1981992  83.5312697  80.9183429
  98.8692136  84.5952045  81.7331813  99.5188963  84.1844763  82.5060423
  99.4952753  84.3185877  80.3741103  98.9060479  84.8733348  79.6439281
 100.5200276  84.6900349  80.3709808  99.5094311  82.7984742  79.9594472
  98.7735318  82.3480046  79.1435406 100.3601573  82.0314531  80.5886416
 100.4119181  81.0483841  80.3628187 100.9618874  82.4253314  81.2977830
  98.6749427  86.1212606  81.8677495  97.8180536  86.7874924  81.2969034
  99.5363183  86.7274399  82.7124860 100.2865352  86.1897670  83.1225859
  99.4326845  88.1383759  83.0529334  98.9876502  88.7651413  82.2801406
  98.5332127  88.2192767  84.3482305  98.9709448  87.6038461  85.1341922
  98.4755342  89.2536467  84.6871288  97.5313802  87.8562609  84.1187735
 100.7888360  88.6679267  83.3175846 101.8392566  87.9944979  83.4574565
 100.8533412  90.0340079  83.3320822 100.0157908  90.5944779  83.2651335
 102.1791842  90.7412567  83.4426464 102.8448112  90.1867624  84.1041417
 102.8580755  90.8464646  82.0120983 103.6316752  91.6141008  82.0315231
 103.3049493  89.8875885  81.7494951 101.7539155  91.2796474  80.6394004
 102.6903217  91.2566753  79.6952002 101.9547752  92.1563097  84.0123479
 100.8886348  92.8018657  83.9114118 103.0013447  92.7066993  84.5669194
 103.7316762  92.0364676  84.7605810 103.2363908  94.1021476  84.9098396
 102.4377572  94.8091818  84.6853707 103.6399868  94.2360752  86.3958071
 104.3138843  93.4029285  86.5953796 104.3309566  95.5830491  86.8236848
 103.6574349  96.4166712  86.6248296 104.5636260  95.5505358  87.8880665
 105.2512413  95.7165470  86.2550429 102.4753801  93.8651912  87.3759613
 101.7801705  94.7029568  87.4301214 101.9565292  92.9874950  86.9905490
 103.0211771  93.5617385  88.7791865 103.5397963  94.4391880  89.1654719
 102.1954715  93.3066404  89.4434413 103.7161572  92.7237271  88.7258990
 104.3696255  94.6365782  84.0489930 105.4631550  93.9954727  83.9969747
 104.0339983  95.5785175  83.1595416 103.0685886  95.8652134  83.2362809
 104.8457249  96.1633600  82.1017835 105.7301888  95.5649804  81.8832321
 103.9282739  96.1850532  80.8295500 103.0856908  96.7817522  81.1789828
 104.4312838  96.7086625  80.0165836 103.4333394  94.8647954  80.3396286
 103.1351090  94.2512100  81.1897300 102.2393392  95.0756151  79.4239869
 102.5369274  95.6887716  78.5733523 101.8794392  94.1105368  79.0673406
 101.4438525  95.5789960  79.9734493 104.5734010  94.0682511  79.6774000
 105.3684864  93.8989137  80.4035291 104.1915663  93.1092518  79.3272232
 104.9680261  94.6321375  78.8321769 105.3498112  97.5233040  82.4959069
 104.6869605  98.2153639  83.1929457 106.3845362  97.9547993  81.8235335
 106.8586912  97.2678875  81.2548258 106.9785777  99.2706022  81.9496707
 106.2044311 100.0138662  82.1403405 107.9658158  99.2863720  83.1113950
 107.3860737  99.1754991  84.0277495 108.6200707  98.4231541  82.9893069
 108.8213311 100.5742562  83.1949528 109.4311403 100.6947211  82.2995636
 108.0331118 101.3270987  83.2010902 109.7347775 100.7523112  84.4865665
 109.9476347  99.7622577  85.1869634 110.2751011 101.8415820  84.6182383
 107.6004257  99.8311701  80.6509150 108.2142572  99.0889091  79.9742220
 107.3909567 101.0965214  80.2923260 106.5172084 101.5274503  80.5587155
 108.2150658 101.7657015  79.2962431 108.3346477 101.1237487  78.4234911
 107.5582618 103.0791475  78.8523994 106.6317596 102.6801279  78.4395118
 107.3281998 103.7381537  79.6895866 108.2913870 103.8593717  77.7836035
 109.1059285 104.9431527  78.2359472 109.2803977 105.0465418  79.3069144
 109.6563794 105.8303480  77.3705112 110.3750572 106.5694492  77.7245358
 109.4613252 105.6377321  75.9666897 109.9430999 106.5396295  75.0425986
 110.4047212 107.2788032  75.4452493 108.5798973 104.6373535  75.5138636
 108.3115167 104.6227409  74.4575215 108.0430453 103.6622114  76.3967758
 107.4760411 102.8204155  75.9993012 109.7054231 101.8699048  79.5513932
 110.1922721 102.1533917  80.6209152 110.4664150 101.5401686  78.4819395
 110.0562725 101.0645492  77.6909473 111.8940666 101.8064122  78.4608092
 112.0974534 102.5505224  79.2308955 112.7979241 100.5799560  78.7090044
 112.4897641 100.1396141  79.6572848 112.6089138  99.8721870  77.9018872
 114.2304695 100.8937805  78.7584298 114.4744816 101.2888947  77.7723042
 114.3278885 101.6858199  79.5009157 115.2001181  99.7402029  79.1055454
 116.1134054 100.1704488  79.5165123 114.7271450  99.1075670  79.8566564
 115.5411206  98.9023124  77.8770659 114.6141647  98.4812853  77.4877209
 115.9817390  99.5624269  77.1299358 116.4882136  97.8070625  78.1875877
 116.0799417  97.1950283  78.8795616 116.6832306  97.2822020  77.3469987
 117.3473778  98.1970055  78.5479768 112.3624216 102.4440697  77.1062135
 111.9105654 102.0484858  76.0538898 113.1444905 103.5079743  77.2107419
 113.1516658 103.9434331  78.1220177 113.8214173 104.2005506  76.1002257
 113.8254429 103.5445666  75.2297270 113.1387977 105.5091445  75.7207173
 113.5837937 105.8963253  74.8041101 112.0758738 105.3289524  75.5600201
 113.3186992 106.5336228  76.8485491 112.6034995 106.1769972  77.5897700
 114.3167547 106.5509509  77.2863697 112.9388115 107.9501287  76.4492819
 111.8944434 108.2059776  75.8636518 113.8631951 108.8627784  76.6202596
 113.6718416 109.8233666  76.3737730 114.7628162 108.6014689  76.9977522
 115.2802529 104.2826208  76.4350346 115.6042000 104.5023746  77.6091081
 116.2029326 103.9924462  75.4688376 115.8527842 104.0273009  74.5221166
 117.6360691 103.6627229  75.6779059 118.0102348 104.3106446  76.4705576
 117.9193616 102.1778541  76.0715250 117.6665459 101.5259322  75.2353544
 118.9753588 102.0619779  76.3155389 117.1230099 101.8229394  77.2125589
 117.2979664 100.9102812  77.4534845 118.5975930 103.8505095  74.4463164
 118.4584937 103.0417667  73.5087091 119.4032608 104.9404487  74.3246937
 119.4780069 105.5497177  75.1267558 120.1584031 105.2824545  73.1229545
 120.4677411 106.3218409  73.2328869 121.0394363 104.6407426  73.1136973
 119.4345469 105.1274874  71.8366787 119.9262915 104.4695545  70.9425840
 118.2529451 105.6994976  71.7500496 117.8706783 105.8589058  72.6712230
 117.3780258 105.8024467  70.6273805 116.6108394 106.5359244  70.8754427
 118.0613010 106.2287734  69.3002176 118.8984023 105.5451799  69.1585820
 117.3231308 106.0660656  68.5148954 118.5515059 107.6328264  69.2367476
 118.7839059 107.8654393  68.1975257 117.7235596 108.2575140  69.5719631
 119.7798300 107.9049036  70.1067562 119.8584907 108.7724194  71.0429789
 120.7801934 107.1770309  69.8722071 116.3202664 104.7399120  70.4071848
 115.3164146 104.9476294  69.7214758 116.5126445 103.5726056  71.0483957
 117.3947842 103.5506672  71.5397689 115.7563535 102.4078681  71.0000296
 115.2579483 102.3153918  70.0350739 116.7132757 101.1637636  71.1959403
 117.1525179 101.1714877  72.1934902 116.1664794 100.2325963  71.0474774
 117.7267742 101.2654693  70.2405929 118.3281088 100.5227090  70.3317170
 114.5468779 102.4612328  71.9853631 114.6997909 102.7935102  73.1503379
 113.4048141 101.9142860  71.5166461 113.4238549 101.7359510  70.5226977
 112.1360951 101.7278248  72.2335402 112.2073679 102.2471528  73.1892168
 110.9166247 102.3180415  71.3992751 110.8583681 101.8006048  70.4416918
 109.6297550 102.1311250  72.1473997 109.6870838 102.6487053  73.1049616
 108.8060839 102.5404329  71.5624776 109.4597787 101.0682379  72.3190925
 111.3033927 103.8754798  71.2596098 112.2094766 103.8807281  70.6537344
 110.4834089 104.3126101  70.6898352 111.5366414 104.7008028  72.5382435
 112.3568450 104.2645196  73.1083514 111.7876669 105.7266150  72.2684385
 110.6307773 104.6963996  73.1444536 111.8997666 100.2453955  72.7185323
 112.1470945  99.3075984  71.9961365 111.5130329 100.0276577  73.9943161
 111.3523194 100.8355968  74.5787004 111.3321043  98.7114121  74.5759510
 111.0219202  98.0187411  73.7935880 112.5700771  98.1994782  75.1954734
 112.9354014  99.0996990  75.6896798 112.3643368  97.4333066  75.9429705
 113.6430177  97.6818231  74.2088722 113.3563195  96.6837718  73.4839028
 114.7756275  98.2117264  74.3083236 110.2082830  98.7541350  75.6780882
 109.8544909  99.7382415  76.2995789 109.6036203  97.6263086  75.8797330
 109.8514224  96.9022566  75.2206109 108.5119962  97.3552219  76.8428565
 108.3512295  98.0321616  77.6819071 107.0897183  97.0531925  76.1092838
 107.2120335  96.1976860  75.4450189 105.9659943  96.7383885  77.1696667
 105.8427735  97.5936752  77.8340476 105.0256605  96.5400648  76.6553314
 106.2516381  95.8634999  77.7536846 106.7511774  98.0540135  74.9560495
 107.6436818  98.1528752  74.3381797 105.9485981  97.6115313  74.3659856
 106.3062761  99.4732064  75.4640419 107.1085791  99.9165431  76.0538406
 106.0877588 100.1135383  74.6094517 105.4134961  99.3751987  76.0816487
 108.9692608  96.2620859  77.8067852 108.8828631  95.0998394  77.4038354
 109.4459167  96.6409913  79.0150314 109.3449781  97.5988476  79.3190412
 110.1568143  95.6824586  79.9160057 110.5080629  94.7466228  79.4813391
 111.3569719  96.4464329  80.5380104 111.0102370  97.4277540  80.8618687
 111.9371918  95.7039670  81.7169333 112.2845891  94.7226606  81.3937405
 112.7748528  96.2687404  82.1261468 111.1717785  95.5835088  82.4835699
 112.3798361  96.8197432  79.4894737 111.7930988  97.4246134  78.7981184
 113.0597708  97.4634026  80.0475873 113.1830940  95.7913523  78.7070813
 112.5038129  95.1475752  78.1483075 113.8512575  96.3023290  78.0138573
 113.7704835  95.1863626  79.3977772 109.2427941  95.1621160  80.9768910
 108.3850164  95.9292414  81.4326631 109.2376515  93.8724552  81.2445300
 109.9116923  93.3055863  80.7501332 108.2681110  93.1982022  82.1189372
 107.3966045  93.8268638  82.3015850 107.8135404  91.9324305  81.3833086
 108.6909441  91.3144841  81.1925068 106.7619038  91.1074487  82.2244880
 105.8839632  91.7246283  82.4153000 106.4664321  90.2188225  81.6666897
 107.2084557  90.8086936  83.1728747 107.2162369  92.1781875  80.1938760
 106.9575164  91.3475400  79.7880573 108.8736751  92.9690574  83.4182143
 109.7616365  92.1123054  83.5388354 108.4719732  93.7303477  84.4607663
 107.8261551  94.4860370  84.2820153 108.9940938  93.5589304  85.8488899
 110.0644248  93.7650601  85.8477533 108.3086340  94.5056610  86.8660188
 107.2286324  94.3861195  86.7799634 108.6257266  94.2258734  87.8706437
 108.6847863  95.9745288  86.6000025 109.7432028  95.9759500  86.3395161
 108.0981926  96.2879898  85.7364331 108.4483337  96.9258806  87.7372030
 107.3779094  96.9281093  87.9428386 108.9834248  96.5372433  88.6036544
 108.8808295  98.2974420  87.4976792 109.0994195  98.5270245  86.5387164
 108.9032596  99.2594956  88.3940183 108.4157976  99.1062826  89.5969915
 108.0037804  98.2233220  89.8629281 108.4533990  99.8715623  90.2550438
 109.5462508 100.2854775  88.0001039 109.9693943 100.2911223  87.0830337
 109.6300604 101.0887430  88.6066013 108.8385300  92.1085687  86.2850687
 109.8261231  91.4514253  86.7184051 107.5796947  91.6078744  86.2185408
 106.8849702  92.2143748  85.8066981 107.1466585  90.3273817  86.7534698
 107.8939642  89.5392702  86.6612002 106.8920924  90.5985305  88.2699642
 106.1392083  91.3792080  88.3786300 106.5392694  89.6850592  88.7486982
 107.8198396  90.9208769  88.7426979 105.9289029  89.8207319  85.9771525
 105.1949490  90.5906586  85.3372896 105.8019503  88.4904070  86.0975171
 106.3892101  87.9830344  86.7438903 104.8953325  87.7188136  85.2199125
 103.9390771  88.2290756  85.1045546 105.5445088  87.5936845  83.8574960
 104.8090933  87.4618341  83.0638470 106.0507090  88.5502633  83.7278101
 106.6259426  86.4843999  83.6536486 107.9900023  86.6056398  83.9720179
 108.5194560  85.3923314  83.5819045 109.5695506  85.2442867  83.8338630
 107.6419884  84.5915420  82.9514878 107.7773033  83.6962156  82.5040727
 106.4256014  85.2693477  83.0333410 105.5194614  84.8128769  82.6350373
 104.5764761  86.4152427  85.8774439 105.3711499  85.8113535  86.5828101
 103.4253701  85.9582207  85.5305250 102.7912520  86.5810817  85.0509024
 102.9805155  84.5715243  85.7956261 103.6538726  83.8897578  85.2761226
 103.0391075  84.3915040  86.8690593 101.5548822  84.3129148  85.3268863
 100.7535417  85.2535972  85.3041964 101.1927143  83.0223067  85.0827919
 101.8869058  82.3067997  84.9207823  99.7644008  82.6420482  85.0151012
  99.1539584  83.3159779  84.4140372  99.8403049  81.2738856  84.2997371
 100.5043851  81.1677448  83.4419313 100.2298658  80.6911352  85.1344493
  98.4684318  80.7287083  83.9237053  97.5031418  80.8265792  84.6544929
  98.2395056  80.3683853  82.6907053  97.3324169  80.0060188  82.4338386
  98.9704640  80.4535294  81.9989315  99.1746561  82.5908755  86.4932527
  99.8804008  82.2658580  87.4924609  97.8904246  82.8673062  86.6750669
  97.4091520  83.1511352  85.8336888  97.1608137  82.9108258  87.9370337
  97.6615162  82.3092978  88.6956906  97.0938584  84.3896494  88.4364810
  96.5374789  84.3967343  89.3737594  98.4645268  85.0084725  88.6566609
  99.0213646  85.0021620  87.7196482  98.3486966  86.0354864  89.0029647
  99.0078863  84.4321838  89.4054955  96.3409790  85.3340588  87.4237433
  95.3194218  84.9795948  87.2863457  96.3225312  86.3499043  87.8184803
  96.8595951  85.3267022  86.4650546  95.7678591  82.2220343  87.7274727
  94.7917601  82.3809506  88.5356078  95.6294621  81.2651339  86.8547793
  96.3235481  81.1962378  86.1243019  94.4614567  80.3443134  86.8072505
  93.5447290  80.8668587  86.5340178  94.7720454  79.3121680  85.7320355
  93.8262462  78.8112305  85.5255779  95.0779640  79.8848683  84.8565195
  95.8615312  78.2482485  86.0630434  96.7201487  78.6444732  86.6051531
  95.2713288  77.6184133  86.7286790  96.3612937  77.4050394  84.9206395
  95.7659225  77.2985020  83.8401285  97.6141006  76.8739020  84.9434859
  97.9345327  76.3102635  84.1690594  98.2177967  77.0457507  85.7347636
  94.0081079  79.6385220  88.1240099  94.8706783  79.5467179  89.0404041
  92.8461509  78.9873133  88.2500464  92.1334032  79.2400062  87.5805418
  92.5007525  77.9821351  89.3138822  93.3840468  77.8107784  89.9291280
  91.3352835  78.4487572  90.2354287  90.6216253  78.8952228  89.5429985
  90.8442181  77.6583156  90.8030173  91.8542423  79.5263075  91.2015369
  92.8852518  79.3253086  91.9367165  91.2227134  80.6030419  91.4171763
  92.1248216  76.5759608  88.6614877  91.6971389  76.5066875  87.5038928
  92.1805890  75.5291246  89.5077630  92.4878657  75.7326199  90.4481194
  91.9408594  74.1444327  89.1469721  92.6885347  73.8393317  88.4148559
  92.0193829  73.1968071  90.3525822  91.3107097  73.5692518  91.0922892
  91.6972755  72.2158157  90.0032933  93.4640703  73.0765289  91.0148937
  93.7401809  74.0719873  91.3626382  93.3690765  72.4069783  91.8697506
  94.5606711  72.5408914  90.0587200  95.3473228  72.1013791  90.6719956
  94.1085891  71.7666149  89.4388674  95.1440642  73.5300217  89.2041495
  94.6519712  73.7379198  88.3469901  96.2917265  74.2049367  89.4726097
  97.0429427  74.0873687  90.5181761  96.7915375  73.4337257  91.2459442
  97.8776782  74.6497190  90.6023088  96.7319082  75.0941613  88.5672916
  96.2100786  75.2434781  87.7155297  97.5827332  75.6094562  88.7424104
  90.6049408  73.9201719  88.4005879  90.4539561  72.9141241  87.6811788
  89.6288128  74.8053849  88.6196882  89.8032704  75.5691494  89.2571267
  88.3026815  74.6549271  88.0820822  88.3300169  74.6205551  86.9929676
  87.5196847  73.4868598  88.5987327  88.1499069  72.5983730  88.5598535
  87.0655528  73.7253643  90.0356857  86.4348614  74.6134861  90.0752918
  86.4994475  72.8624247  90.3863433  87.9374569  73.8708129  90.6734373
  86.2213329  72.9039283  87.8114452  85.8761587  72.0240486  88.3543699
  85.4490784  73.6727058  87.8379716  86.5086044  72.5297271  86.3791860
  87.2804894  71.7606059  86.3518708  85.5998604  72.1484429  85.9134545
  86.8534116  73.4092633  85.8354729  87.5776224  75.9887323  88.3148010
  88.0781533  76.8309155  89.0826853  86.4945887  76.2479343  87.5630422
  86.1690451  75.5488760  86.9107860  85.7505197  77.5281775  87.6512732
  85.1436595  77.5078137  88.5564832  86.4753073  78.3395074  87.7185498
  84.8606505  77.7672847  86.4744149  85.2845954  77.4459530  85.3880606
  83.7391998  78.4288850  86.6153059  83.4641200  78.6950899  87.5499532
  82.8189970  78.7706123  85.4771644  82.8283659  78.0149578  84.6916724
  81.3539769  78.8133915  86.1299983  81.2918033  78.0031675  86.8564766
  81.2481555  79.7693972  86.6427896  80.2655092  78.6653912  85.1290274
  80.2677952  79.5863863  84.5460492  80.5572205  77.8313023  84.4908249
  78.8245523  78.4098796  85.6975193  78.1802175  78.0890739  84.8789746
  78.8816167  77.6191931  86.4456222  78.2172802  79.6437327  86.3394665
  78.1045724  79.6360963  87.3431288  77.7923370  80.7381745  85.6451218
  77.6590014  80.7702948  84.3851838  77.8733553  79.9497539  83.8366721
  77.3390349  81.6162780  83.9357025  77.5407774  81.7765728  86.2378045
  77.6485960  81.8206694  87.2410646  77.2262662  82.5856639  85.7215167
  83.2041345  80.1119336  84.7992438  83.6002741  80.9890661  85.5406519
  83.0376774  80.3414171  83.5143518  82.6432419  79.3396004  82.5844154
  81.7786576  78.8276725  83.0069366  83.4719275  78.6373988  82.4933546
  82.3170111  80.0532102  81.2352725  81.2369102  80.0971164  81.0954392
  82.7675267  79.5013746  80.4102788  82.9207230  81.4487182  81.3506129
  82.2841394  82.2284559  80.9324389  83.8983353  81.4817474  80.8696943
  83.0787092  81.6622545  82.9081853  84.0607689  82.0768176  83.1357691
  82.0013119  82.6272311  83.3760874  80.8242573  82.2468870  83.1301891
  82.1978881  83.8465766  83.8013171  83.1528993  84.1409129  83.6549647
  81.2428057  84.8236967  84.3430134  80.7052861  84.4013378  85.1920038
  82.0083334  86.0650595  84.8162056  82.4894308  86.5233115  83.9521166
  81.2943319  86.7662558  85.2482075  82.9948385  85.7335894  85.7879747
  83.4543110  86.5306206  86.0622485  80.3531753  85.2891848  83.2236758
  80.8568169  85.7845063  82.2228262  79.0264981  85.3600303  83.3365184
  78.5843066  84.6861812  83.9452003  78.1684424  86.2141435  82.5019676
  78.1554721  85.8013802  81.4932271  76.7037868  86.3194369  83.0147807
  76.7659063  86.4993844  84.0880278  76.2684945  87.1907228  82.5254122
  75.8019149  85.0648661  82.7468123  74.7409071  85.2467765  82.9179024
  75.9837195  84.9569865  81.6775096  76.2282434  83.7619485  83.4783714
  76.6373107  82.7997842  82.7404969  76.3306224  83.7696821  84.7248054
  78.7181085  87.6537111  82.1666299  78.5809959  87.9601649  80.9786837
  79.3593397  88.4059028  83.1014931  79.1351696  88.2101480  84.0666496
  80.0125730  89.6932835  82.7806454  79.7015329  89.9731546  81.7741538
  79.6136943  90.8205650  83.7500917  79.8440268  91.7715880  83.2698809
  78.1276907  90.7829464  84.1212629  77.8966853  89.8323397  84.6019740
  77.9030638  91.6001609  84.8066842  77.5246268  90.8895354  83.2195682
  80.3014718  90.7041897  84.9359403  80.0411434  91.4137873  85.5278024
  81.4991521  89.5292544  82.3775387  82.2581718  90.4927301  82.4254211
  82.0438257  88.3660029  82.0907871  81.3619053  87.6229054  82.0370285
  83.4575042  88.0343967  81.8509024  83.4721737  86.9520549  81.7227612
  83.6997833  88.5152640  80.9031857  84.5203262  88.4313030  82.9031000
  84.2750065  88.6520770  84.1151771  85.8022767  88.4149452  82.5249394
  85.9764350  88.2294683  81.5475108  86.9832801  88.5633389  83.4438676
  86.9201489  88.1071266  84.4317867  88.2570475  88.0262583  82.7003719
  88.2425291  88.4665134  81.7033438  89.6248332  88.3509409  83.3948238
  89.6402837  87.9105871  84.3917945  90.4408951  87.9368873  82.8026217
  89.7455146  89.4313780  83.4735047  88.1394012  86.4893620  82.3272725
  88.3111139  85.9154230  83.2378819  87.1235430  86.3132604  81.9735497
  89.1457841  86.0466678  81.2426922  90.1619455  86.2220459  81.5959037
  89.0123335  84.9851830  81.0340295  88.9743758  86.6198854  80.3315716
  87.1377809  90.0017315  83.9008942  86.8351050  90.9026320  83.1446908
  87.5050891  90.2886890  85.1385795  87.6336431  89.4861936  85.7382247
  87.7358032  91.6328494  85.7078816  87.8939122  92.5258325  85.1031653
  86.5756057  91.8840347  86.7070956  86.3752347  90.9337262  87.2019345
  86.8585925  92.9634844  87.7659596  87.0586129  93.9142520  87.2718610
  85.9919709  93.0690178  88.4185930  87.7259919  92.6731245  88.3587568
  85.1721745  91.9799332  86.1073745  85.1395228  92.9087425  85.5378590
  85.0650505  91.1340322  85.4283491  84.0302509  91.9651706  87.1231941
  84.1364450  92.8111050  87.8023242  83.0768136  92.0374681  86.5999069
  84.0619743  91.0363950  87.6928162  89.1124043  91.5831952  86.4018398
  89.3863952  90.6093074  87.1255466  89.9410421  92.6331335  86.1774878
  89.8428413  93.2035892  85.3498186  90.9981222  92.9674200  87.1269099
  90.8118379  92.4553510  88.0709346  91.9597639  92.6485821  86.7248067
  91.0389083  94.4660521  87.3768128  90.9003283  95.3403309  86.4607446
  91.2405493  94.7693694  88.6276416  91.4738557  93.9298949  89.1384742
  91.0677951  96.0235933  89.3848631  91.2273533  96.9562129  88.8436967
  89.6977488  96.0880453  90.1436418  89.7616042  96.8495424  90.9209094
  88.5536292  96.4374300  89.1768467  88.4888500  95.6760847  88.3995066
  87.6126867  96.4765832  89.7256591  88.7474011  97.4075697  88.7192655
  89.4269648  94.9326076  91.0422511  88.8901496  94.1916409  90.4498842
  90.3955432  94.5288713  91.3371277  88.5919034  95.2805034  92.3268745
  87.6229423  95.6838910  92.0327782  88.4442894  94.3781930  92.9202927
  89.1283354  96.0211236  92.9200207  92.2607849  96.2387620  90.2923271
  92.9161328  95.1937189  90.6674485  92.6730708  97.4831437  90.5061507
  92.2091030  98.2679137  90.0714447  93.8789685  97.7511981  91.3523081
  94.1625520  96.9369333  92.0191308  95.1005264  98.1183043  90.4212080
  94.9293983  99.0411157  89.8669205  96.2818518  98.3174467  91.4023815
  96.4538922  97.3948465  91.9567385  97.1801947  98.5770916  90.8423230
  96.0441892  99.1207768  92.0997166  95.2955756  97.0692363  89.3058775
  95.2541519  96.1046848  89.8118670  94.4253779  97.1769408  88.6583784
  96.5579226  97.1478391  88.4719579  97.4285961  97.0397426  89.1187521
  96.5548855  96.3484116  87.7310088  96.5998230  98.1120001  87.9652650
  93.6034773  98.8744734  92.3630520  93.3377801 100.0720736  91.9802102
  93.8049068  98.5571833  93.6469769  94.0765230  97.5959798  93.7966829
  93.6043410  99.3907270  94.7907650  92.5523573  99.5800764  95.0042513
  94.2103525  98.5497432  95.9660787  93.5577677  97.7155141  96.2235551
  95.1770715  98.1666918  95.6392362  94.4088395  99.4630086  97.2213087
  93.5177299 100.2559598  97.6094788  95.4403445  99.3551042  97.8282923
  94.2601295 100.7869087  94.5494522  95.4255786 100.7910092  94.1767584
  93.6714166 101.9492191  94.9173497  92.2420264 102.1724380  95.3026523
  92.1401076 101.9432148  96.3633923  91.6260764 101.4855622  94.7222160
  91.9394359 103.6303574  94.9880732  91.1173226 104.0418510  95.5736514
  91.7610105 103.8192421  93.9294947  93.2696181 104.2058779  95.4226726
  93.4414558 104.3177898  96.4932082  93.3721523 105.1755108  94.9354372
  94.2905992 103.2048124  94.8274135  94.4028625 103.3633914  93.7548708
  95.6355507 103.4602358  95.5258363  96.3741516 104.2381570  95.0389181
  95.9479971 102.7840340  96.6508662  95.1584423 102.3388625  97.0964276
  97.2063327 102.7564302  97.3208233  97.7192973 103.7001268  97.1353423
  97.0731105 102.5622357  98.8268669  96.7068140 101.5464892  98.9758136
  98.0782541 102.6495878  99.2393667  96.1482302 103.5433898  99.5330186
  95.2133437 103.3665254  99.0012225  96.0311734 103.2561883 100.5779646
  96.5039988 105.0076935  99.4509552  97.5049338 105.4434380  98.8666567
  95.8052120 105.7784579 100.0957236  98.2310519 101.7352154  96.7348396
  99.3459494 101.5966697  97.2269895  97.9250513 100.9776461  95.7234879
  96.9899411 101.0612168  95.3510847  98.7963778  99.9072487  95.1954419
  98.2072209  99.2497685  94.5561352  99.9418957 100.4638213  94.3887419
 100.6613080 101.0172313  94.9923002 100.4644071  99.7044632  93.8069713
  99.2838057 101.6356740  93.2002160 100.4545976 101.9526779  92.6546401
  99.2885549  98.9289509  96.2477128 100.3558721  98.3028006  96.2030602
  98.4685375  98.5438837  97.2480421  97.7027594  99.1658307  97.4645256
  98.6885713  97.3675173  98.1247229  99.7476140  97.3229164  98.3787669
  97.8780793  97.4137257  99.4180107  96.8506720  97.2635538  99.0863756
  98.2143388  96.5341788  99.9670342  97.9453659  98.6455170 100.3340095
  98.8710894  98.5957448 100.9072978  97.9538613  99.5377363  99.7079308
  96.7754655  98.7060308 101.2762305  96.3889163  97.7066674 101.4761094
  97.0607889  99.1792993 102.2157553  95.6942300  99.5194191 100.6389415
  95.4523314  99.1964337  99.7130555  95.0090420 100.5797345 101.1586928
  95.1705988 101.1798776 102.3018891  95.8878978 100.8627836 102.9383116
  94.5779398 101.9599794 102.5474418  94.0680446 101.1052639 100.4028775
  93.8859673 100.7197489  99.4872760  93.5325180 101.8915483 100.7420925
  98.4588579  96.0964814  97.3663895  98.9632157  95.0791156  97.8110591
  97.6180979  96.1248231  96.3033432  97.1425013  96.9768611  96.0426935
  97.2265391  94.8420366  95.6035757  98.1254612  94.3650894  95.2129870
  96.5087536  93.8448693  96.5550074  96.1253051  93.0352451  95.9340604
  97.2666551  93.4537834  97.2337836  95.3710979  94.4470770  97.3601152
  95.7844526  95.2240185  98.0032331  94.6608818  94.8925437  96.6635131
  94.4849424  93.1803738  98.4167086  95.9781752  92.6202342  99.3245772
  96.4155814  93.4626614  99.8603862  95.7010045  91.8422592 100.0359364
  96.7061256  92.2226066  98.6174125  96.4057298  95.1003729  94.2579158
  95.5809339  95.9560402  94.1572433  96.6896070  94.2735654  93.2352344
  97.6256831  93.8943048  93.2399475  95.7810360  93.8828147  92.1375867
  95.2199428  94.7137104  91.7099350  96.6007963  93.1911898  91.0282977
  97.0781487  92.2824633  91.3949738  95.5619961  92.8206247  89.8997647
  95.0845372  93.7289542  89.5322444  96.0787633  92.3244832  89.0782442
  94.8041061  92.1521030  90.3081527  97.7893288  93.9908420  90.4980394
  97.3891606  94.8153456  89.9079885  98.3245828  94.3881568  91.3604452
  98.7413071  93.1741857  89.6447477  98.2068431  92.7768971  88.7818399
  99.5598037  93.8083304  89.3041263  99.1422636  92.3497065  90.2342964
  94.7319928  92.9086848  92.7428802  95.1852054  91.9569795  93.4325210
  93.4529649  93.1412205  92.6095689  93.2362009  94.0886818  92.3349240
  92.3520209  92.2119626  92.8083175  92.7568578  91.3131996  93.2735392
  91.6398091  92.6821524  93.4863849  91.6411001  91.8288548  91.5413151
  91.5937776  92.6005320  90.5503738  91.1820605  90.6028990  91.3626423
  91.0668035  90.1411741  92.2534988  90.7685322  89.8705198  90.1254781
  90.5509642  90.5508365  89.3021115  91.9866335  88.9768520  89.7262378
  92.1246483  88.1915887  90.4694826  91.4993406  88.5603966  88.8446424
  93.3346401  89.5446929  89.3363560  93.7686701  90.0863427  90.1767930
  94.2623688  88.3740380  88.9445900  93.8291996  87.8321579  88.1038586
  95.2397496  88.7638252  88.6601723  94.3739357  87.6986346  89.7928137
  93.3271624  90.2886471  88.0214874  92.6297738  91.1242911  88.0802038
  94.3280482  90.6654798  87.8109499  93.0182618  89.6136895  87.2232947
  89.5578484  88.8878743  90.3334434  89.5745244  88.1388223  91.2846495
  88.5803277  89.0224081  89.5028315  88.4984413  89.8748600  88.9673694
  87.5687857  87.9556629  89.2878538  87.6756295  87.2131968  90.0786937
  86.1462490  88.4752013  89.3007738  86.0350766  89.0517536  90.2191024
  86.0508896  89.1392536  88.4416805  85.0390211  87.3826525  89.2371380
  85.2692103  86.7606433  88.3721418  85.1380483  86.7902072  90.1467007
  83.5792298  87.9142005  89.1203859  82.8726230  87.2109649  89.5611414
  83.4780120  88.8838215  89.6079199  83.2707236  88.0645992  87.7345254
  83.8173930  87.4862921  87.1125826  82.3827010  88.9199752  87.1999586
  81.4601007  89.5240912  87.8783401  81.3796235  89.3612764  88.8718766
  80.8252301  90.1553115  87.4107934  82.3619385  89.1537603  85.9477404
  83.0224155  88.6909823  85.3397052  81.6851033  89.8007539  85.5690690
  87.7275664  87.2569144  87.9452837  87.4847589  87.8644945  86.8780420
  88.3392111  86.1192644  87.9192780  88.5819100  85.8140561  88.8509671
  88.7304035  85.2467924  86.7587846  88.8825220  85.8236620  85.8465452
  90.0985563  84.5757053  87.1646824  89.9546618  83.9874864  88.0709893
  90.3510558  83.9120545  86.3376928  91.2273056  85.5678552  87.3796420
  91.0972443  86.1314629  88.3035095  92.5403905  84.6821323  87.4810862
  92.6713822  84.1185443  86.5573391  93.4040744  85.3284551  87.6373477
  92.4487889  83.9902398  88.3183403  91.4405401  86.5839921  86.2037721
  90.5318455  87.1681509  86.0584033  92.2667501  87.2524697  86.4458794
  91.6714037  86.0384365  85.2888021  87.6792677  84.1774469  86.4493210
  87.4721518  83.7403255  85.2785329  86.9700725  83.5910722  87.4370937
  87.3039556  83.8157023  88.3634644  85.7618881  82.7308742  87.3117988
  85.4715628  82.5589276  86.2753409  86.1802280  81.4058886  87.9247865
  86.3033150  81.5967291  88.9908675  85.3701270  80.6921377  87.7751335
  87.4745465  80.8313056  87.3588075  87.4676310  80.1981956  86.1203787
  86.5474500  80.2069552  85.5361787  88.5623624  79.5848218  85.6402676
  88.4842663  79.0113668  84.7166052  89.7578913  79.6511874  86.3064719
  90.8784803  79.0656570  85.8651052  90.7554138  78.5968836  85.0364281
  89.8539736  80.4064110  87.5397467  90.8153341  80.5805907  88.0230146
  88.6459927  80.9313929  88.1271631  88.6727958  81.3781835  89.1210242
  84.5298396  83.2374564  88.0986925  84.7187069  84.0492435  89.0406453
  83.3452992  82.8513547  87.7481052  83.2373243  82.2506743  86.9433544
  82.1385591  83.2689969  88.4715313  81.9740683  84.3394376  88.3482486
  80.9177003  82.5149107  87.9082436  80.8831645  82.8076603  86.8588608
  81.0525840  81.4356433  87.9795753  79.5755875  82.9205249  88.6077000
  78.7156356  82.0151362  88.7787527  79.3322756  84.1093619  88.9066376
  82.1671872  83.0129370  90.0266785  82.5585937  81.9682857  90.5630351
  81.8480413  84.0736309  90.7978856  81.7061363  84.8790342  90.2051903
  81.6895503  84.2342720  92.2071298  81.0689182  85.1237905  92.3151658
  81.1246124  83.3571791  92.5228078  82.9139922  84.3766728  93.0902504
  82.6990579  84.2920810  94.3155355  84.1013877  84.4344511  92.4520721
  84.1572764  84.6405054  91.4648956  85.3159254  84.1645653  93.1584593
  85.1346102  83.9820727  94.2176668  85.9032406  82.9083303  92.5437477
  85.7905334  83.1000012  91.4766682  86.9627965  82.8390057  92.7899904
  85.1994907  81.5726936  92.9064813  84.1354703  81.7024960  92.7087120
  85.7280074  80.3511485  92.1094339  86.7919387  80.2204216  92.3070690
  85.1890403  79.4550844  92.4171419  85.5749077  80.5184625  91.0432880
  85.1526468  81.0880844  94.3423885  84.6371248  81.8248591  94.9584238
  84.6187529  80.1389261  94.3888330  86.1683387  80.9515868  94.7136530
  86.3396099  85.3369917  93.0912934  86.4805860  85.9014935  92.0058749
  86.9702241  85.7896965  94.1322690  86.8404040  85.3157796  95.0146798
  87.7836329  86.9854402  94.1092895  87.8959869  87.3026336  93.0725330
  87.1630122  88.1947187  94.9487206  86.1736922  88.4860898  94.5959485
  87.0900104  87.8301190  95.9733366  87.9777761  89.4320139  94.9959454
  88.2672767  90.1816098  93.8007013  87.8743533  89.8281619  92.8473988
  89.0388129  91.3454737  93.8499739  89.3359102  91.8352066  92.9226144
  89.4461209  91.9047468  95.1319110  89.9951120  92.8428864  95.2131683
  89.0938629  91.1627428  96.3308812  89.3722962  91.5585607  97.3075609
  88.3959821  89.9373032  96.2378328  88.1735987  89.3669259  97.1396728
  89.2306456  86.6307528  94.6268222  89.4234332  86.3318160  95.8024075
  90.2335035  86.8619622  93.8075541  90.0377282  86.9743899  92.8231094
  91.6277693  86.8174863  94.2348174  91.7167180  86.5506304  95.2878963
  92.3384483  85.6941387  93.3646389  93.0994020  85.3229725  94.0511404
  91.5473870  84.9510836  93.2636870  92.9646261  85.9524963  92.0084712
  92.1646184  86.1524048  91.2956424  93.6055670  86.8303520  92.0901179
  93.7928198  84.7597416  91.5241774  94.2220687  85.0201908  90.5567010
  94.5944098  84.5936805  92.2438834  92.9497129  83.4678945  91.3836694
  92.2991131  83.3973445  92.2553593  92.3417779  83.5621756  90.4838776
  93.8062094  82.2138388  91.2876115  94.3692980  82.1260588  92.1214734
  93.2089538  81.4043093  91.1979016  94.4088407  82.2788214  90.4797057
  92.3322696  88.1391128  94.2044588  91.8676369  89.0444020  93.5099057
  93.4579765  88.2065295  94.9780633  93.5250125  87.5434652  95.7369778
  94.4780680  89.2937113  94.8957831  94.4373221  89.9038172  93.9934474
  94.2494677  90.2215283  96.1385793  95.0939717  90.9106638  96.1364620
  92.9303229  91.0238615  96.2142069  92.0853209  90.3353372  96.2168330
  92.9174358  91.6175380  97.1282543  92.8567298  91.6852572  95.3509332
  94.3677209  89.4726759  97.4577841  95.3646099  89.0400852  97.5425167
  94.2003932  90.1631803  98.2844066  93.6229953  88.6775302  97.4928280
  95.9024926  88.8927534  94.7017662  96.3936246  87.9950198  95.3583891
  96.6413306  89.6043963  93.8756326  96.1374708  90.2914224  93.3332122
  98.0917495  89.5577559  93.7547215  98.5207667  88.6336966  94.1422236
  98.4558445  89.7045482  92.1911996  98.0447329  90.6108423  91.7465439
 100.0073638  89.7927049  92.2053939 100.4192437  88.8864983  92.6495169
 100.3752842  89.8960393  91.1845818 100.3173123  90.6574947  92.7920537
  97.9055514  88.5438210  91.3343239  98.4293327  87.6256055  91.6000947
  96.8409669  88.4257079  91.5363353  98.1184835  88.8446711  89.8051090
  99.1829392  88.9624577  89.6022295  97.7256963  88.0177645  89.2134649
  97.5945749  89.7625620  89.5384706  98.5730047  90.8276786  94.4890448
  98.4739526  91.9498538  93.9612289  99.0446758  90.6729623  95.7202037
  98.8683511  89.4426289  96.5741581  99.0165543  88.5662297  95.9432377
  97.8502784  89.4413859  96.9635493  99.9209593  89.5528917  97.6873252
 100.8276139  89.0018874  97.4373839  99.5322898  89.1980872  98.6418676
 100.1810717  91.0846951  97.7290992 101.2476570  91.1833887  97.9309767
  99.6148444  91.5667414  98.5260419  99.8408186  91.7385778  96.3706799
  99.2113968  92.6095983  96.5530249 101.0047068  92.1324640  95.4413231
 101.6239493  91.3058392  94.7831634 101.2208847  93.4687513  95.4356290
 100.6649374  94.0747525  96.0219603 102.1607331  94.0913051  94.4724153
 102.2907207  93.4914585  93.5716454 101.4947879  95.4538390  94.0751744
 101.0690479  95.8509576  94.9966632 102.2922705  96.1122283  93.7307253
 100.4075690  95.3705290  93.0074457  99.7143132  94.5624229  93.2408160
  99.6575975  96.6906692  92.9885068 100.3501558  97.4992548  92.7547312
  98.8744648  96.6534066  92.2312647  99.2090365  96.8683621  93.9659108
 101.0844556  95.0779293  91.6099902 101.6259947  94.1332269  91.6586968
 100.3161027  95.0163651  90.8393120 101.7788748  95.8820627  91.3665760
 103.6444707  94.1906351  95.0371546 104.3205678  95.1423849  94.5676122
 104.0793129  93.4010886  95.9780045 103.4011443  92.7985752  96.4220364
 105.4837814  93.3862833  96.4906233 105.6947371  94.2898232  97.0626482
 105.6601327  92.1544585  97.4241037 105.7907251  91.3291652  96.7241495
 106.5663306  92.2732857  98.0180611 104.5159221  91.8646664  98.3214262
 103.7877402  92.7788348  98.7140613 104.3888772  90.6671549  98.7136338
 106.5832545  93.3817491  95.4166781 106.5432279  92.5430233  94.5137352
 107.4863030  94.3497651  95.5497429 107.4680997  95.1163490  96.2070991
 108.5336375  94.3341030  94.5344129 108.0835276  94.3506460  93.5418271
 109.4156340  95.5161061  94.6739878 109.9917657  95.4210994  95.5943927
 110.0953355  95.5530285  93.8226697 108.5882796  96.8011765  94.7213136
 108.0265003  96.9391662  93.7974826 107.9001248  96.7926527  95.5665783
 109.5878989  97.9520351  94.8880338 109.1114198  98.8904833  95.1715501
 110.3857644  97.7223691  95.5942658 110.1679328  98.1055872  93.5637496
 110.1599846  97.2880327  92.9707566 110.6521129  99.1762548  93.1060134
 110.5128031 100.3399178  93.6062365 109.9706481 100.4621347  94.4495816
 110.9452050 101.1344576  93.1569763 111.3821080  99.1485450  92.0469627
 111.5646244  98.2685921  91.5860174 111.7691980 100.0068753  91.6815462
 109.4431811  93.1171611  94.3828880 110.0403992  92.9913313  93.3166434
 109.4279045  92.1282463  95.3093372 109.0835740  92.4766875  96.1925838
 109.9639440  90.7426579  95.2590549 110.6916969  90.6311151  94.4552931
 110.6607016  90.4650644  96.5907736 111.2398028  89.5493795  96.4713496
 111.3319507  91.2905868  96.8274959 109.6357927  90.2829110  97.7465106
 108.3746869  90.4236881  97.6326201 110.0971329  90.0065742  98.8378420
 108.8872605  89.6869693  94.8331191 109.2078886  88.5302114  94.9779766
 107.6543710  90.0813529  94.4064129 107.3155674  90.9981354  94.6610132
 106.6991698  89.1185429  93.8328098 106.9696841  88.0964566  94.0978772
 105.3828242  89.4066150  94.3772632 105.5811508  89.3949878  95.4490050
 104.9522246  90.3683378  94.0983843 104.3984899  88.3365684  94.0644752
 104.6814990  87.3081306  93.4224295 103.1454452  88.5190813  94.3086101
 102.4808384  87.7893459  94.0944050 102.8346097  89.3908955  94.7128652
 106.9296306  89.0554141  92.3364296 106.1801916  89.5955410  91.5325384
 107.9609692  88.3429229  91.9443814 108.5278268  88.0346058  92.7213707
 108.4441141  88.0926066  90.5971877 108.4792112  89.0303040  90.0425789
 109.8518970  87.4843772  90.6211492 109.7654183  86.4474979  90.9459598
 110.2493537  87.5148314  89.6066539 110.8189954  88.2538286  91.5837921
 110.7029982  89.3108223  91.3441886 110.4496585  88.0677644  92.5922921
 112.3174086  87.8678308  91.5035023 112.3320103  86.7791386  91.5548361
 112.6392782  88.1886829  90.5127686 113.2849630  88.4516726  92.5785280
 113.3033957  89.5373876  92.4837448 112.9175793  88.1800572  93.5681509
 114.6371060  87.9239482  92.3990586 114.9778829  88.1758920  91.4822734
 115.2468339  88.3135866  93.1036960 114.6203168  86.9179486  92.4872739
 107.4540297  87.3052801  89.8141336 107.3932661  87.4669707  88.5882078
 106.6821161  86.3852573  90.4452266 106.7058605  86.4122392  91.4545865
 105.8916546  85.2837312  89.7760114 106.0550344  85.2715616  88.6983945
 106.3934253  83.9494436  90.3657876 106.1333203  83.9217077  91.4239347
 105.8904516  83.1333546  89.8470235 107.8763472  83.7997159  90.2122487
 108.1359177  83.7728998  89.1539458 108.3317634  84.6750095  90.6754509
 108.3958435  82.5307117  90.8977792 109.4041141  82.5388472  91.6002820
 107.7059357  81.4969194  90.7229829 104.3775130  85.4409719  89.8959216
 103.6746549  84.4690645  89.7657970 103.8823121  86.6182956  90.3393909
 104.5761524  87.2755784  90.6659860 102.4419328  86.9594122  90.5256322
 102.3627204  87.9451447  90.9840600 101.6865787  86.9780508  89.1873666
 101.8060623  86.0152562  88.6905272 100.6343099  87.1363427  89.4235320
 102.1827907  88.1128650  88.2449630 103.1892305  87.8793488  87.8976158
 101.2120629  88.2396191  87.0014137 100.2054568  88.4735997  87.3479626
 101.5638657  89.0353827  86.3448347 101.1973581  87.2972958  86.4537725
 102.2525237  89.5854690  88.7893394 102.9295293  89.6262747  89.6426259
 102.6184382  90.2467822  88.0039270 101.2580381  89.9061752  89.0995730
 101.7563546  86.0543954  91.5835156 100.6163499  85.5268857  91.3581255
 102.4636899  85.7318882  92.7028953 103.3501548  86.1868601  92.8680615
 101.9722821  84.7208842  93.7235418 101.5459706  83.8500174  93.2255973
 103.1797263  84.2550552  94.5964341 103.6146919  85.1374728  95.0657350
 102.7980558  83.5852201  95.3669849 104.2629905  83.5246669  93.7695015
 103.7852590  82.7273162  93.2001990 104.7154323  84.2399626  93.0826604
 105.3257535  82.9398908  94.6542662 106.1260968  82.5958362  93.9991509
 105.6941500  83.7514379  95.2817810 104.8719800  81.8151252  95.5148223
 105.7151368  81.4571469  96.1056172 104.0872225  82.1721547  96.1817441
 104.3592604  80.7342030  94.7030731 105.0864068  80.4029398  94.0853170
 104.0555171  79.9789903  95.3009809 103.5776941  81.0655934  94.1558678
 100.9166861  85.5326038  94.5496492 101.1365788  86.6818572  94.8869616
  99.8082032  84.8286261  94.7238619  99.8484789  83.8371162  94.5357518
  98.4911197  85.4336363  95.0169875  98.5743918  86.4902860  95.2712636
  97.6809463  85.3039799  93.7274394  97.5811693  84.2508209  93.4647596
  96.6913258  85.7365824  93.8744310  98.1917501  85.8319397  92.9221835
  97.9257714  84.8013322  96.2804204  98.5751661  83.9770799  96.8912238
  96.6573602  85.2057637  96.5170025  96.2616627  85.9787608  96.0012523
  95.8138446  84.5231327  97.5010662  96.0776745  83.4673959  97.5636184
  96.0297541  85.1617824  98.8704217  95.7995908  86.2241173  98.9514689
  95.3357421  84.5920152  99.4883317  97.3736804  84.9737037  99.4597997
  97.6654294  83.7579602 100.1106678  96.8984227  82.9836846 100.1279255
  98.9183144  83.5285208 100.7329208  99.0674637  82.6785055 101.3987505
  99.9770545  84.4172048 100.4800743 100.9984364  84.2183098 100.8046042
  99.6762769  85.6125156  99.7727173 100.4696730  86.3510024  99.6575644
  98.4098720  85.8567397  99.2321259  98.2377084  86.7475354  98.6280212
  94.3550075  84.7341799  97.0373265  93.9891084  85.8351141  96.5134449
  93.4822803  83.7402961  97.2618151  93.8782399  82.9712817  97.7832863
  92.0628950  83.6460868  96.8376232  91.8910002  84.4045954  96.0739372
  91.6668494  82.2917898  96.2745491  91.8428583  81.4558551  96.9515524
  90.5952213  82.4083082  96.1128810  92.3304703  81.9837207  94.9374568
  93.3859532  82.5219824  94.6344139  91.8098702  81.0049937  94.1846400
  92.2294918  80.7796061  93.2940122  91.0002376  80.4971597  94.5112906
  91.2528179  83.9450453  98.1127110  91.4007721  83.2575986  99.1350283
  90.3972680  84.9874413  98.0859345  90.3046682  85.3971909  97.1674412
  89.6810133  85.6034809  99.1908138  89.8550820  85.2830055 100.2179919
  89.8941994  87.1214975  99.0851672  89.4677831  87.4742993  98.1461249
  89.2202480  87.8403068 100.2516730  89.6464951  87.4883419 101.1911062
  89.3820766  88.9142924 100.1596566  88.1503993  87.6321251 100.2381328
  91.4049957  87.5460135  98.7780408  91.7117923  87.1406408  97.8138574
  91.4840842  88.6329247  98.7563929  92.3105047  86.9925110  99.8731437
  92.2323001  85.9055418  99.8950954  93.3427674  87.2779798  99.6705591
  92.0045901  87.3978242 100.8376318  88.2067716  85.2254166  99.1894164
  87.5036969  85.5107165  98.2272673  87.7575799  84.4366916 100.2140478
  88.3297191  84.4091790 101.0459126  86.5916880  83.6155785 100.1675038
  86.5492564  83.0700783  99.2247800  86.6373516  82.5996848 101.3216095
  86.9758529  83.1031660 102.2271606  85.6372933  82.1970955 101.4825606
  87.6135645  81.4395376 100.9784116  87.2607331  80.9761922 100.0570420
  88.5972722  81.8779553 100.8104496  87.7089465  80.3790343 102.0785351
  86.7419340  79.8821059 102.1563049  88.4674543  79.6530135 101.7858591
  88.0567716  80.9147677 103.3673766  87.2728849  81.2352302 103.9177627
  89.2918689  81.0736169 103.8610349  90.3446682  80.7794304 103.1273648
  90.2200963  80.4320846 102.1871878  91.2720374  80.9024464 103.5080920
  89.4482732  81.4529428 105.0600723  88.6404807  81.6339750 105.6386902
  90.3799605  81.5723953 105.4312712  85.2506203  84.4723894 100.2263813
  84.9859184  85.1232104 101.2070499  84.3252067  84.2518648  99.2859130
  84.7067776  83.9244622  98.4099504  82.8825297  84.5938674  99.3406707
  82.7805684  85.5057023  99.9291095  82.2216436  84.8180550  97.9664544
  82.5687610  83.9665121  97.3812335  81.1373941  84.7708342  98.0678116
  82.6084719  86.1076794  97.2621223  82.5828691  86.8527426  98.0573117
  83.9590102  86.2179805  96.4901987  83.9851597  85.4734835  95.6944983
  84.0507028  87.2143921  96.0579288  84.7864701  86.0432695  97.1778662
  81.5384045  86.5225207  96.2790579  80.5987919  86.6794880  96.8087643
  81.8361057  87.4480718  95.7862795  81.4073692  85.7396562  95.5320292
  82.0974279  83.5926739 100.2024570  82.3681408  82.4164805 100.1476430
  81.0763284  83.9439477 100.9919497  80.8762402  84.9074968 101.2191877
  80.2196991  82.9360061 101.5146014  80.7616088  82.0091300 101.7025742
  79.6673158  83.4631887 102.8523596  80.5139711  83.7956635 103.4529715
  79.0220056  84.3137449 102.6327489  78.8602333  82.3896852 103.6423608
  78.6396163  82.7952943 104.6297362  77.9277254  82.2092924 103.1075837
  79.6148765  81.0906754 103.7895210  80.7619009  81.2172718 104.2892545
  79.2284055  79.9472450 103.4760358  78.9831943  82.6040638 100.5788641
  78.4125245  81.4939096 100.6130777  78.6027580  83.5406794  99.7539092
  79.1561690  84.3841671  99.8025326  77.5191701  83.4966739  98.8317689
  77.0916075  82.4953994  98.7794354  76.4405865  84.4634679  99.3202693
  76.1096157  84.1016288 100.2937322  76.9182317  85.4361462  99.4379646
  75.2523755  84.5954967  98.4034175  74.6250221  85.4217650  98.7377962
  75.6564246  84.8228710  97.4169367  74.4197277  83.3249870  98.3293047
  73.9143212  82.8013483  99.3557085  74.2055976  82.8125758  97.1664065
  78.1850052  83.9336093  97.4782945  78.7485090  84.9872732  97.3899099
  78.3816839  82.9505811  96.5679764  77.8862388  82.0733014  96.6387853
  79.3422088  83.1122536  95.4956855  80.2065368  83.6703232  95.8556780
  79.8186749  81.7430051  94.9881625  78.9161524  81.3744829  94.5005728
  80.5971887  81.8978863  94.2411497  80.2943864  80.7226217  96.0120309
  79.4257023  80.3120198  96.5267103  81.0382316  79.6353257  95.3645322
  81.9073789  80.0451242  94.8499965  81.3668266  78.9199492  96.1184305
  80.3936171  79.1323835  94.6436844  81.0763325  81.2910380  97.0894279
  80.4772264  82.0279896  97.6242864  81.3775738  80.5004823  97.7767246
  81.9638484  81.7732750  96.6797183  78.5822064  83.9275923  94.4386305
  78.0518365  83.4236709  93.4462032  78.6174504  85.2536076  94.6782492
  79.0948738  85.5618634  95.5132011  77.9181659  86.2670062  93.8543715
  77.9983262  86.0061973  92.7990742  76.4383775  86.3287420  94.2311157
  75.9484731  85.5634261  94.8330994  76.5065192  87.2530757  94.8047566
  75.4962504  86.6197352  93.0289008  75.4470059  87.8848417  92.4355118
  74.3203049  87.7646708  91.7005855  74.0236733  88.6595999  91.1535840
  73.7597177  86.5581710  91.7724272  72.9650357  86.2149176  91.2520836
  74.4661433  85.8326729  92.7040422  74.1195600  84.8428077  93.0009397
  78.5260163  87.6247370  93.9188616  78.6837030  88.1637084  95.0350940
  78.9054072  88.0815869  92.7377796  78.8377901  87.4501170  91.9524306
  79.5639140  89.4141330  92.5251044  78.9706302  90.2345309  92.9289122
  80.9766176  89.4460391  93.1891372  80.8261033  89.4081790  94.2680308
  81.8963046  88.2915936  92.7596010  82.0476689  88.3290705  91.6808122
  82.8578360  88.3852967  93.2643559  81.4364566  87.3406651  93.0286299
  81.6397763  90.7663320  92.8809098  81.0315578  91.5800039  93.2760179
  82.6269227  90.7941521  93.3422857  81.7404564  90.8797064  91.8015069
  79.5535936  89.7464315  91.0113273  80.3313896  89.5289802  90.1965964
  78.5221686  90.5351493  90.6741571  77.9284301  90.8860897  91.4120018
  78.2217537  90.9225614  89.3034348  78.2643833  90.1369139  88.5490874
  76.8363210  91.6133581  89.2512401  76.8184182  92.4073705  89.9977815
  76.5588155  92.2007842  87.8832678  76.5760965  91.4072464  87.1362071
  75.5784358  92.6771830  87.8839199  77.3218948  92.9413261  87.6436704
  75.7347460  90.6287283  89.8087513  75.7747577  89.7125744  89.2195469
  75.9804720  90.4036703  90.8465697  74.3125347  91.2262842  89.7347508
  74.0659034  91.4511848  88.6971128  73.5949063  90.5077230  90.1307033
  74.2716185  92.1422825  90.3241342  79.2986897  91.9212172  88.7932226
  79.7943703  91.7492822  87.6880108  79.7498828  92.7890558  89.6974211
  79.3373549  92.8051339  90.6191920  80.7570513  93.7756091  89.3802944
  81.4770425  93.3167902  88.7026536  80.1964933  95.0571735  88.7134771
  79.6246890  94.6648956  87.8724913  79.5304871  95.6024685  89.3821991
  81.2524835  95.9748843  88.2094437  81.1156092  97.1826990  88.0472155
  82.3338507  95.4600670  87.8262346  81.5309816  94.1197811  90.6808198
  81.0558072  93.8739591  91.7952855  82.7412661  94.6469851  90.5822475
  83.1439944  94.7989469  89.6685644  83.5816676  94.9652231  91.7978140
  82.9483955  95.4509198  92.5402185  84.1560859  93.6611302  92.4128013
  83.3010988  93.0556529  92.7136225  85.0948021  92.8103526  91.4418921
  85.9503120  93.4150546  91.1409948  85.4454727  91.9196708  91.9632523
  84.5305786  92.5145136  90.5574528  85.0534049  93.8598038  93.6325834
  84.4885152  94.3535550  94.4232865  85.4040786  92.8908825  93.9879974
  85.9089460  94.4769724  93.3582602  84.7613380  95.9575960  91.5559881
  85.3999630  95.9770549  90.5081458  85.0109223  96.7917488  92.5584983
  84.5292219  96.5534577  93.4136482  85.8828414  97.9388077  92.5625064
  86.6882984  97.7788272  91.8457467  85.1172855  99.2526090  92.1718876
  84.2807890  99.3306250  92.8663560  85.8146729 100.0710511  92.3505032
  84.5898815  99.3322771  90.7180055  84.0142406  98.4144696  90.5981403
  83.9125269 100.1861469  90.7321191  85.5448115  99.4733380  89.5776422
  86.2828992 100.2422302  89.8059627  86.0519010  98.5249503  89.4001020
  84.7638083  99.8732620  88.3299945  84.2508250 100.8158870  88.5207995
  85.4610623 100.0007867  87.5019404  83.7792847  98.8423381  87.9852945
  83.1328379  98.7243207  88.7522875  83.2725857  99.1238652  87.1581920
  84.2544580  97.9689034  87.8080344  86.5138129  98.2521217  93.9198079
  85.8697409  98.0324791  94.9314035  87.6808206  98.8798550  93.9663907
  88.1854860  99.0447358  93.1071896  88.3238990  99.2818381  95.2540846
  88.0143102  98.5981822  96.0445708  89.8730491  99.2417779  95.1415318
  90.1355651  99.6370417  94.1602311  90.3608498  99.8358645  95.9143266
  90.4762145  97.8357893  95.2234310  90.4402040  97.1425429  96.4448571
  89.9457937  97.6130988  97.2947015  91.0135343  95.8912030  96.5840682
  90.9196333  95.3685752  97.5359839  91.6937046  95.3065123  95.5437192
  92.1785576  94.3362010  95.6510201  91.7562639  96.0004971  94.3012308
  92.3036796  95.5598322  93.4680138  91.1236583  97.2353319  94.1457407
  91.1344924  97.7351043  93.1771282  87.8487802 100.6476717  95.6871259
  87.4947326 101.4574119  94.8211922  87.8070765 100.9651935  96.9735157
  87.9837534 100.1953430  97.6029716  87.4834118 102.3095466  97.5646145
  87.0333266 102.9368041  96.7951533  86.4735007 102.1974476  98.7816413
  87.0181699 101.4254487  99.3251967  86.4354557 103.1060087  99.3826149
  85.0211190 101.7037108  98.4930923  85.0832189 100.8579765  97.8082727
  84.2836568 101.2763367  99.7663974  84.2207511 102.1217331 100.4515593
  83.2785264 100.9417227  99.5097905  84.8263391 100.4611008 100.2449229
  84.1956031 102.6896332  97.5792162  84.6993755 102.8039587  96.6194024
  83.1959870 102.2858576  97.4184866  84.1202532 103.6612670  98.0674264
  88.6935541 103.1130877  98.0645669  89.6689223 102.6022529  98.6205629
  88.6428306 104.4209837  97.7876836  87.7914238 104.7658540  97.3678380
  89.7347708 105.3894406  98.0627159  90.6998944 104.9523594  97.8065996
  89.5231625 106.6833930  97.1951756  88.6206026 107.2544206  97.4129198
  90.3898459 107.2067115  97.5990290  89.6789829 106.5330877  95.6753420
  88.6247913 106.2506342  94.7835567  87.6272572 106.1642995  95.2143367
  88.8112013 106.0806893  93.3922282  88.0012873 105.6905308  92.7758537
  90.1065145 106.3048130  92.8170496  90.3842630 106.1065065  91.4905277
  89.6237574 105.8031461  90.9893257  91.1084224 106.8871015  93.6923294
  92.0492838 107.2667868  93.2939333  90.8512353 106.9567277  95.0675094
  91.6022631 107.3674636  95.7423081  89.7409328 105.7984102  99.5489561
  88.7459594 105.6807768 100.2524342  90.7917545 106.4508358 100.1027795
  91.5980986 106.6912604  99.5441162  90.7914103 106.8286569 101.5316312
  91.7902706 107.2254548 101.7130940  90.0618688 107.6352453 101.6043201
  90.4753042 105.7764029 102.5902876  89.9283598 106.1325385 103.6408537
  90.8972966 104.4914832 102.3994952  91.2730823 104.2739269 101.4875996
  90.8264451 103.3938686 103.4200123  90.2814745 103.7332833 104.3008664
  90.0963219 102.1873849 102.8284903  90.5339814 101.8319172 101.8956472
  90.0020882 101.3546967 103.5255199  88.3594610 102.7141982 102.4159324
  87.9654806 101.5355119 101.9422485  92.2366072 103.0138558 103.8268714
  93.2319164 103.1386324 103.0970520  92.4002584 102.5942772 105.0750212
  91.5501112 102.5041689 105.6128220  93.6785185 102.2725201 105.7309127
  94.4730022 102.9758945 105.4815952  93.3600361 102.3980604 107.2619628
  93.0471566 103.4231330 107.4605371  92.5414130 101.7172152 107.4952138
  94.5878152 102.0520273 108.1455061  94.1114797 102.2425327 109.1072301
  94.8895589 101.0060463 108.0909472  95.7908960 102.8949453 108.0410417
  96.4155724 103.1856532 107.0611880  96.3940653 103.2175015 109.1213890
  97.2218835 103.7947224 109.0809602  96.0397962 102.8935224 110.0100016
  94.0442367 100.8535436 105.2795594  95.1874837 100.4898001 105.2467110
  93.0052042 100.0308635 104.7792564  92.0618538 100.3895890 104.8180536
  93.2056039  98.6200766 104.3581967  94.2670053  98.5196482 104.1313918
  92.8394122  97.6118153 105.5249506  91.7776204  97.6941869 105.7571425
  93.0637743  96.5929681 105.2091781  93.4246426  97.8538955 106.4120818
  92.4544456  98.3336545 103.0127671  91.5489959  99.0999800 102.7074999
  92.8622878  97.3562263 102.1109124  93.6980283  96.2026624 102.5114847
  93.0925554  95.5054439 103.0906126  94.5281954  96.5566528 103.1227231
  94.1700995  95.6035181 101.1654499  94.1740413  94.5154535 101.2302492
  95.1761758  95.9571988 100.9400129  93.1692700  96.0976321 100.1169945
  92.5734684  95.1882317 100.0388247  93.5096706  96.3947496  99.1250529
  92.3535701  97.1866561 100.7214128  92.3412327  98.1142168 100.1490691
  90.9237925  96.7303138 100.9778534  90.6201034  95.8087568 101.7606220
  89.9066005  97.3327181 100.3276724  90.2294540  97.8350278  99.5130867
  88.4578918  97.3065741 100.6044857  88.2563320  96.3572658 101.1007584
  88.1037213  98.4640047 101.5824881  88.2914621  99.4214215 101.0964771
  86.6306629  98.3703100 101.9687226  86.4422390  97.4132850 102.4552400
  86.3818772  99.1807887 102.6537986  86.0140052  98.4498227 101.0734508
  88.7876955  98.3503596 102.7996270  88.5431984  99.0801407 103.3734223
  87.7253817  97.5665366  99.2580391  87.9951561  98.5403342  98.4782231
  86.8502698  96.6273512  98.9465973  86.7714201  95.8315262  99.5634803
  86.0759634  96.6386002  97.7665948  86.3294209  97.3938953  97.0226944
  86.0508195  95.2468782  97.0985620  85.2757864  95.2160215  96.3327475
  87.3724440  94.9986902  96.4739937  88.1479892  95.0289343  97.2393142
  87.3712480  94.0185011  95.9972039  87.5710705  95.7659207  95.7256595
  85.5167486  94.1026792  98.0254859  86.2692099  93.8946301  98.7861556
  84.6006348  94.4463581  98.5058189  85.2243776  92.8095897  97.2207773
  86.1401899  92.4650262  96.7405028  84.8555438  92.0368573  97.8952738
  84.4716160  93.0167551  96.4601642  84.6362151  97.1216168  98.0017645
  84.1259004  97.0040851  99.1413847  84.0574539  97.7724635  97.0056360
  84.6981982  98.2640999  96.3991380  82.6350191  97.9665638  96.8046845
  82.0678191  97.5568852  97.6404756  82.3560965  99.4637482  96.7134596
  81.2850584  99.6660508  96.7205554  82.8327613 100.0037988  97.5315282
  82.9903789 100.1920925  95.1996282  82.5833789 101.4311566  95.4603375
  82.2066344  97.0901966  95.5980608  83.0191328  96.7914841  94.7325423
  80.9291552  96.7576098  95.4643594  80.2302343  97.2118185  96.0347130
  80.5064748  95.7121686  94.5713572  80.8329986  95.9354326  93.5556630
  81.1349631  94.3354650  95.0112384  80.6075756  93.7035602  94.2966350
  82.2099626  94.2259693  94.8681061  80.8299308  93.7986551  96.3572634
  81.7540930  94.0244094  97.4197812  82.5893028  94.7159239  97.3087298
  81.5670631  93.3205357  98.6511672  82.2319035  93.5318746  99.4886777
  80.5443007  92.3686431  98.7896141  80.3781815  91.8134996  99.7128260
  79.6870899  92.1356344  97.6355164  78.9372278  91.3497875  97.7263550
  79.7944362  92.8789749  96.4297994  79.0830616  92.7114641  95.6211052
  78.9642687  95.6242030  94.5198637  78.2354494  96.2244759  95.2648951
  78.4916959  94.8837489  93.4978937  79.1303702  94.7310891  92.7305024
  77.1150677  94.4455702  93.3457585  76.5406047  94.8122342  94.1964341
  76.4158321  94.8797110  92.0620793  76.8203877  94.3062181  91.2280889
  74.8717352  94.6341428  92.1640551  74.4663595  95.2077115  92.9975960
  74.3910960  94.9503648  91.2382635  74.6820313  93.5732712  92.3273508
  76.6928593  96.3335485  91.7972147  77.7669478  96.4858491  91.6911932
  76.1908269  96.6381961  90.8789267  76.3219280  96.9320909  92.6292351
  76.9722456  92.9684447  93.5551105  77.6970361  92.2045102  92.9296853
  75.9475259  92.4806884  94.2554050  75.4511727  93.1964734  94.7666630
  75.5159893  91.0412746  94.4343637  75.7462402  90.4453317  93.5512239
  76.3170455  90.4605061  95.6547509  76.3616098  89.4496219  95.2495024
  77.3263166  90.8072547  95.8766455  75.4774927  90.4586260  96.9502684
  75.3442494  91.6529289  97.6405320  75.7725951  92.5535754  97.2006964
  74.6800790  91.7224639  98.8728045  74.3898007  92.6832776  99.2978662
  74.3938816  90.5336089  99.5637971  73.9303806  90.5794724 100.8347662
  73.8341706  91.4750491 101.1668590  74.5870405  89.2757047  98.9231822
  74.3218797  88.3314766  99.3988119  75.1371624  89.2806594  97.6410179
  75.3235706  88.3391910  97.1243077  74.0096384  90.9333408  94.6034142
  73.2911588  91.9099900  94.5235802  73.4999944  89.7097760  94.8334949
  74.1022774  88.9094489  94.7037606  72.0827836  89.4769141  95.0531716
  71.6296077  90.3414640  95.5382327  71.3821143  89.2469261  93.7050877
  71.7305043  90.0386361  93.0418239  71.7367197  88.2838163  93.3379714
  69.8508712  89.2473491  93.7397352  69.5880757  88.3013793  94.2132123
  69.4542137  90.0720068  94.3319384  69.2247651  89.2914621  92.3759349
  69.7307383  89.7308101  91.3558362  67.9724622  88.9140952  92.1992813
  67.5632161  88.9486393  91.2765539  67.4291600  88.5925098  92.9876385
  71.8353915  88.3896345  96.1403341  72.6391872  87.4197275  96.2612375
  70.7644632  88.5256061  96.9425563  70.2945748  89.4129962  97.0513825
  70.3677789  87.4101154  97.8260205  70.7105185  86.4597262  97.4168884
  71.0212108  87.6131083  99.2364895  70.5308236  86.7536797  99.6936569
  72.0960895  87.4372682  99.1938728  70.7324012  88.9070866 100.1018300
  71.6783903  89.3878220 100.7727840  69.5315983  89.3114149 100.2768726
  68.8474011  87.3502377  97.7301469  68.2548156  88.2024556  97.0833485
  68.1487317  86.3770534  98.4361740  68.7217590  85.2114151  99.0998888
  68.9203563  85.4947586 100.1335115  69.6627974  84.9853668  98.5984432
  67.7388527  84.0984658  98.9908883  67.8653135  83.3835411  99.8039009
  67.8367156  83.5826532  98.0356598  66.4012731  84.8164633  99.0856637
  66.1158905  85.1139734 100.0946947  65.5799011  84.2695729  98.6226750
  66.7438446  86.0776726  98.2388994  66.5768041  85.7152032  97.2245959
  65.9603713  87.3364965  98.4539946  64.8922700  87.4886856  97.9138658
  66.3331227  88.2336510  99.4259978  67.0486477  87.9639610 100.0858391
  65.6665840  89.5194346  99.6144753  64.5902289  89.3866246  99.7236558
  66.2178579  90.1678379 100.9053352  66.3162981  89.3408842 101.6085821
  67.2084307  90.5300555 100.6302643  65.4092702  91.3222479 101.5711952
  65.9084608  91.7573187 102.4370029  65.3520514  92.0640940 100.7746449
  63.9751236  90.9235793 101.9776480  63.5771209  89.7482893 102.0479922
  63.2423853  91.9233531 102.3815949  62.2877139  91.7620266 102.6691321
  63.6328240  92.8545383 102.4051123  65.7103766  90.5635843  98.4690970
  64.9157868  91.4462964  98.4766704  66.7407673  90.5753025  97.6525764
  67.4011531  89.8256983  97.8011809  67.0093424  91.5250959  96.5995437
  66.4604334  91.1809501  95.7229813  66.6018210  92.4801985  96.9309116
  68.5028739  91.7179995  96.2172403  69.2896995  91.1142077  96.8605387
  68.7551812  92.4606772  95.1168318  67.8790129  92.6641300  94.6574457
  70.0047259  92.9197863  94.4766289  70.7553689  92.1496349  94.6541148
  69.9251774  93.1985647  92.9249431  69.3899655  92.3682245  92.4643103
  69.3599741  94.1193073  92.7804498  71.3166649  93.3407368  92.2694688
  71.6814806  94.2969159  92.6446112  71.8951228  92.5315532  92.7152383
  71.4718865  93.2977871  90.7263889  70.8384443  94.0526362  90.2604995
  72.5104493  93.4716509  90.4448606  71.0708781  91.9895106  90.2403828
  70.8341189  91.2825947  90.9217889  71.0270897  91.6725173  88.9692185
  71.5112844  92.4037521  88.0605683  71.9570392  93.2769779  88.3032192
  71.4504326  92.1118138  87.0955975  70.4509178  90.5979681  88.6272726
  70.0364201  90.0045499  89.3316493  70.4086492  90.3395222  87.6518148
  70.4975085  94.1846942  95.2207486  69.7872259  95.1739071  95.2810180
  71.7230030  94.1776975  95.6487722  72.3596770  93.5238281  95.2161057
  72.2365371  95.0649756  96.6473779  71.5914631  95.9343115  96.7747897
  72.2810884  94.2895067  97.9702695  73.0626715  93.5552754  98.1655422
  72.4443877  95.1679807  98.5945425  70.9370338  93.6483057  98.4436060
  69.5971016  94.1453920  98.3286417  68.7622212  93.3839576  99.0639697
  67.6868949  93.5618863  99.0746315  69.5376540  92.4318919  99.7220502
  69.2121225  91.7168131 100.3567087  70.8833094  92.6320165  99.3504489
  71.6669232  92.0118884  99.7857555  73.6476198  95.4901115  96.3178506
  74.4760636  94.6290852  95.9957241  74.0074233  96.7844557  96.4619077
  73.2734306  97.3896584  96.1226678  75.3860094  97.3848824  96.6988768
  76.1168214  96.8561229  96.0869729  75.5442589  98.8859870  96.4605767
  75.1997952  99.1097502  95.4509361  74.7597403  99.6930866  97.4448032
  75.1039758  99.4701923  98.4547146  74.9004329 100.7542864  97.2394717
  73.7020770  99.4439978  97.3587531  77.0666565  99.1452387  96.5215944
  77.5664274  98.5614647  95.7485879  77.2620472 100.2051915  96.3590456
  77.4467178  98.8521575  97.5002454  76.0378165  96.7903781  98.0045579
  75.3689646  96.9854869  99.0218227  77.2921003  96.3275065  98.0165139
  77.8125200  96.2355963  97.1558077  77.8921525  95.7889177  99.2624800
  77.5169442  96.3583898 100.1127855  77.5418577  94.2811413  99.4775403
  76.4632774  94.1771558  99.3594266  78.0486857  93.7142806  98.6965829
  77.9664380  93.7345583 100.8747502  79.0276550  93.4861631 100.8599477
  77.7824753  94.4955064 101.6331813  77.1443184  92.4655043 101.2074113
  76.0922491  92.7496629 101.2298399  77.3086759  91.7455902 100.4056572
  77.5309088  91.8330356 102.5485016  78.3681068  91.1539537 102.3871082
  77.8326151  92.6242246 103.2348634  76.3913855  91.0829214 103.1296429
  76.1119412  90.3494655 102.4939912  76.6704590  90.6763379 104.0110667
  75.6156586  91.7120787 103.2796692  79.4657186  96.1099130  99.2428348
  80.0207137  96.3116924  98.1798171  80.0638460  96.1068745 100.4824574
  79.4975535  95.9814514 101.3093076  81.5191051  96.3756953 100.6569778
  82.0177264  96.2143690  99.7012321  81.8216311  97.7912355 101.1309543
  82.9030456  97.8335944 101.2607573  81.3895673  98.8922554 100.2560411
  80.3081293  98.8508268 100.1261365  81.6644707  99.8453475 100.7078625
  81.8755305  98.7974934  99.2849795  81.1666141  97.9469395 102.3662486
  81.3297407  98.8299144 102.7058740  82.1687876  95.3844308 101.6005706
  81.5632463  94.8157471 102.4959479  83.4522110  95.1613110 101.4484262
  83.8608981  95.6207925 100.6472077  84.3172769  94.3931165 102.3118705
  83.9866191  94.4515360 103.3488621  84.2609925  92.9896890 101.8793589
  84.4155063  93.1457089 100.8117061  85.1496868  92.5293490 102.3111107
  83.0448590  92.0609899 102.0930764  82.2507754  92.1906946 103.2626019
  82.5356045  92.9155510 104.0251995  81.1209696  91.4050193 103.4397853
  80.4189729  91.6288734 104.2430237  80.7909757  90.4709109 102.4720490
  79.7580845  89.6147549 102.6833650  79.3299468  89.7458384 103.5325499
  81.6114084  90.2335644 101.3502411  81.3899262  89.4687394 100.6058696
  82.7784875  91.0496571 101.2120382  83.4748779  90.8705478 100.3928556
  85.7710949  94.7911633 102.2358562  86.2979506  95.1023665 101.1922449
  86.4564399  94.5633539 103.3861024  85.8762126  94.3738421 104.1907892
  87.9177997  94.6486064 103.5811525  88.3832120  95.3017238 102.8429600
  88.1530284  95.2605680 105.0146603  87.7871608  96.2863205 104.9691419
  87.5288094  94.6826227 105.6961513  89.5799561  95.2566299 105.5130494
  89.8124609  94.1937353 105.4474939  90.2561882  95.8164667 104.8669904
  89.7531005  95.7356416 106.9844238  89.3433405  96.8850520 107.3452209
  90.4711050  94.9540083 107.7267883  88.5311494  93.2442526 103.3731300
  88.0534040  92.2683909 103.8923432  89.6418804  93.1435673 102.6801444
  89.9284931  93.9684821 102.1727314  90.3760601  91.9227264 102.4691023
  89.6077229  91.1565639 102.3654088  91.2616781  91.9178364 101.1844086
  92.0314032  92.6848338 101.2700682  91.9301889  90.5328457 101.0248972
  91.1610383  89.7653305 100.9387065  92.5490343  90.5287058 100.1276160
  92.5524526  90.3267169 101.8957591  90.3035357  92.1044015 100.0229158
  89.7751034  93.0510598 100.1356074  90.8627031  92.1101570  99.0872885
  89.5834624  91.2862120 100.0102182  91.2083526  91.5012630 103.7291780
  92.2097299  92.1277079 104.0514560  90.7836561  90.4242603 104.4335892
  89.8702113  90.1304351 104.1183358  91.3506749  89.7675624 105.5487424
  91.8752749  90.5044519 106.1569264  90.2911053  89.0584915 106.4331737
  89.5009747  89.7803488 106.6398498  89.8831236  88.2297507 105.8545205
  90.8012722  88.5804397 107.6253168  90.1009741  88.1546648 108.1252150
  92.4529059  88.8103802 105.0954189  92.2330026  87.5921289 105.1252921
  93.5969566  89.2518469 104.5852227  93.7707019  90.2031424 104.8766826
  94.4609037  88.6779460 103.6603886  93.8735981  88.2726348 102.8364382
  95.4313268  89.6459100 103.1159709  94.7791283  90.4282047 102.7277040
  96.0165225  90.0405167 103.9465921  96.3915784  89.1631849 101.9876020
  96.8434451  88.2290692 102.3212862  95.6858554  88.9379542 100.6287094
  95.2341107  89.8718084 100.2941322  96.4151134  88.6029763  99.8910961
  94.9106124  88.1802283 100.7425078  97.5810911  90.0458610 101.7161160
  98.1880164  90.1260892 102.6179500  98.1790436  89.6139723 100.9136035
  97.2384256  91.0373248 101.4200099  95.2016642  87.4113293 104.1086251
  95.3003407  86.4405170 103.3182459  95.6691977  87.4374997 105.3255752
  95.6606060  88.3322980 105.7939357  96.2368685  86.2971511 106.0276272
  97.0993951  85.9103753 105.4849013  96.6879053  86.7272266 107.4126651
  97.1743105  87.6982292 107.3195885  95.8006198  86.8243860 108.0382724
  97.6740520  85.7133649 108.0648369  97.1923996  84.7417403 108.1746442
  98.5653740  85.6086246 107.4462283  98.0724504  86.2473929 109.4513125
  98.9296485  85.6811848 109.8156184  98.3442822  87.2990537 109.3606679
  96.9726446  86.1252128 110.4318962  96.1688390  85.6609354 110.0338481
  96.9092826  86.5220925 111.6504683  97.9358515  87.1392193 112.1777062
  98.7653897  87.2971351 111.6236043  97.8937893  87.4546959 113.1362493
  95.8254274  86.2829353 112.3261980  95.0580900  85.7940969 111.8876432
  95.7554271  86.5870131 113.2867892  95.3060040  85.1038213 106.1760672
  95.6415027  83.9353011 105.9547301  94.1255489  85.3478067 106.6662608
  93.8831146  86.2764536 106.9808080  93.1169960  84.2942057 106.7732835
  93.5709957  83.3588331 107.1004863  92.0687885  84.7189995 107.8093120
  91.9089235  85.7911534 107.6951693  91.1450240  84.1879552 107.5796360
  92.4935151  84.4109154 109.2761731  91.7813295  85.0292302 109.8225971
  92.3535178  83.3658627 109.5525150  93.9413208  84.8511693 109.6320471
  94.8136136  83.9736256 109.6696127  94.0579806  86.0540136 110.0097575
  92.3862859  84.0201612 105.4477955  91.5535033  83.0693004 105.3685302
  92.6316691  84.7789911 104.3790124  93.1302137  85.6373744 104.5653742
  91.9859213  84.6180364 103.0662560  92.1203316  85.5112087 102.4561115
  92.6543309  83.4025285 102.3305237  92.3041254  82.5222499 102.8695645
  92.2234155  83.4101417 101.3293474  94.1990601  83.3633754 102.2270060
  94.4193899  83.0772102 101.1985775  94.5329812  84.3867265 102.3983277
  94.9400576  82.4085780 103.1990016  95.8075037  82.9093353 103.6289763
  94.2701639  82.0926181 103.9986961  95.4066971  81.1657672 102.3939557
  95.8975903  81.4655587 101.4680780  96.0889735  80.5548130 102.9849997
  94.2592391  80.4252249 102.0941104  93.6270813  80.9910258 101.5460725
  94.5173599  79.6027753 101.5677547  93.8044493  80.1469693 102.9519211
  90.4524893  84.6859348 102.9413157  89.8351790  83.9379338 102.2314597
  89.8182740  85.6292006 103.7210019  90.4024165  86.1320268 104.3737213
  88.3496848  85.8091459 103.8093451  87.9027111  85.5385626 102.8527374
  87.7319547  84.9547474 104.8891473  86.6611453  84.9979371 104.6901472
  88.0990275  83.9493293 104.6830115  87.9921717  85.3015738 106.3572957
  89.0805513  85.3525670 106.3267938  87.5929373  86.2621428 106.6829001
  87.5749818  84.2477010 107.3063325  86.8762762  84.6020074 108.2433108
  88.1177892  83.1055193 107.2146695  88.0272070  87.3129124 103.8844140
  88.9352323  88.1581902 103.7426979  86.7046909  87.7291321 103.9656136
  85.9516649  87.0573095 104.0069114  86.3667318  89.1510631 103.9872010
  87.1831479  89.7619989 103.6020758  85.1736803  89.3307373 103.0983933
  84.5321244  88.4767569 103.3157015  84.6176018  90.2535790 103.2634385
  85.4937162  89.2707484 101.5823299  86.3123233  90.3077105 101.0442471
  86.8073908  91.0688653 101.6472823  86.4552292  90.3105494  99.7159991
  86.9761445  91.1553421  99.2653626  85.9581594  89.2672486  98.8979478
  86.2611122  89.1598243  97.8564203  85.0351977  88.3404840  99.4726313
  84.4755572  87.6736231  98.8167357  84.8483263  88.2826867 100.8320339
  84.2267735  87.4982741 101.2638545  86.0457031  89.5950868 105.4179576
  85.7654726  88.8979586 106.3766109  86.0975782  90.9135912 105.5791416
  86.4578900  91.4445869 104.7991941  85.7109926  91.6520126 106.8219773
  85.1741250  90.9811943 107.4927046  86.9362133  92.1806875 107.5436212
  87.7133012  92.2083206 106.7797691  86.7877701  93.1825316 107.9465766
  87.3920025  91.2708097 108.6648530  86.6154284  90.8531095 109.5087542
  88.6312408  90.9834164 108.8253755  88.9114685  90.3741396 109.5805933
  89.3212545  91.3676827 108.1958349  84.7545031  92.8223119 106.4737557
  84.5990180  93.1568585 105.2876128  84.1662705  93.5654925 107.4146793
  84.1973938  93.1883195 108.3510933  83.3861536  94.8113335 107.1813670
  82.5076952  94.6051484 106.5698952  82.9115974  95.3795114 108.5658194
  82.4792536  94.5475489 109.1217119  83.7996419  95.7401724 109.0848575
  81.9123904  96.4826576 108.4653066  82.2470355  97.1958007 107.7119539
  80.9514206  96.0637020 108.1667847  81.7648354  97.1809125 109.7829821
  80.8178945  97.7207146 109.7869245  81.7589497  96.4321865 110.5751148
  82.9391266  98.1865533 110.0249588  83.0153117  98.2813283 111.1081551
  83.8278312  97.6855242 109.6411969  82.8342400  99.4969077 109.4346648
  82.0110430  99.9615087 109.7904629  83.6540999 100.0382625 109.6688969
  82.7640651  99.4093311 108.4309193  84.1887229  95.8060210 106.3549015
  85.3362007  95.9226327 106.7425230  83.6328989  96.5563348 105.3932140
  82.7272565  96.2549482 105.0629457  84.2205849  97.7447051 104.8018678
  85.3078496  97.6787016 104.8418436  83.9006953  97.8382737 103.7640745
  83.7621163  99.0013246 105.5865041  83.6754645  99.0115757 106.8009535
  83.5132749 100.1148320 104.9031439  83.7171915 100.3879590 103.5021287
  82.8935985  99.9112697 102.9705630  84.6548727  99.9059250 103.2255494
  83.7543391 101.8701271 103.2943530  82.8473868 102.1937838 102.7836840
  84.6238183 102.1365137 102.6933991  83.8506807 102.4627517 104.6654954
  83.3655836 103.4199332 104.8567630  84.9090902 102.5360344 104.9154927
  83.2051601 101.3924206 105.4871934  83.7085630 101.3851031 106.4539561
  81.7318212 101.7744749 105.6814205  81.4146219 102.5268521 106.6235489
  80.8428227 101.3427931 104.7104635  81.1492313 100.9595141 103.8276779
  79.3981051 101.5801944 104.9072086  79.1730970 101.7676505 105.9571280
  79.0019407 102.8204135 104.0911152  77.9287409 102.8493651 103.9026921
  79.2792167 103.6523507 104.7384935  79.6862437 103.0633998 102.7519827
  80.6101883 104.0112910 102.5219768  80.8167862 104.6967506 103.3439027
  81.0970224 103.9025053 101.2789248  81.9026373 104.4235551 100.9633439
  80.4193042 102.9718004 100.5473392  80.3979812 102.5178458  99.2087218
  80.9972229 103.1317110  98.5362803  79.6734045 101.3890042  98.8028202
  79.6831928 100.9885859  97.7890799  78.8938491 100.7505817  99.7786564
  78.2654439  99.8957638  99.5286711  78.9010966 101.1958951 101.1084870
  78.2913325 100.5893024 101.7780643  79.6139528 102.3544140 101.5415344
  78.4492664 100.4143612 104.6255011  78.8234433  99.4855596 103.8259210
  77.3003254 100.4374396 105.2420591  77.1235371 101.2365315 105.8339185
  76.2656717  99.3372616 105.1959958  76.6753692  98.3966398 105.5640690
  75.0622543  99.7660784 106.1324316  75.4926750 100.2831269 106.9900434
  74.4449914 100.4604859 105.5624449  74.2132211  98.6179817 106.6128831
  73.9483776  98.0210297 105.7401820  74.8251431  98.0207363 107.2888649
  72.9075822  99.0695274 107.3521383  72.3371900  99.6280675 106.6099895
  72.3817514  98.1458962 107.5940200  73.0660352  99.9374938 108.6523156
  73.5485117  99.3425512 109.4277899  73.6789945 100.8113163 108.4313763
  71.7418994 100.3738100 109.1220696  71.1739053  99.5642556 109.3272626
  71.8479622 100.9312257 109.9576164  71.2948326 100.9254719 108.4038082
  75.8060351  99.0494498 103.7474201  75.6271329  99.9642987 102.9197780
  75.4178334  97.7969979 103.4693795  75.7746072  97.0933264 104.0999810
  74.7267266  97.3580182 102.2642781  75.2816774  97.6912721 101.3873114
  74.5969102  95.7236188 102.2125540  74.1494694  95.4645785 101.2529738
  75.6068746  95.3168378 102.2635566  73.7317560  95.1200894 103.3719993
  74.3012845  95.2664821 104.2897723  72.7651247  95.6157156 103.4618920
  73.5034064  93.6664882 103.1825210  74.2481420  92.8111098 103.5465891
  72.4438536  93.2640354 102.5112270  72.2799234  92.2765021 102.3770395
  71.8003115  93.9448642 102.1338318  73.4225140  98.0719875 101.9926106
  72.5689585  98.3352612 102.8238885  73.1473332  98.3694782 100.6955047
  73.8845747  98.1651902 100.0360801  71.9489611  99.1174467 100.2089050
  71.1739897  99.0462060 100.9720847  72.2142225 100.5971497  99.9175349
  72.6784547 101.0190254 100.8089431  72.9197985 100.6368214  99.0876622
  70.9718151 101.4003001  99.5649980  71.1768883 102.3689071  99.1090964
  70.5313123 100.7355349  98.8219343  70.0027332 101.5801042 100.7208980
  69.0647384 100.7659293 100.7104614  70.2799308 102.3533516 101.6537158
  71.2409282  98.3921006  98.9881907  71.9271995  97.9965540  98.0473870
  69.9644685  98.2279535  99.0018834  69.4942523  98.5164803  99.8479026
  69.1822401  97.6098587  97.9629828  69.6324736  96.6633672  97.6637456
  67.7591525  97.3350333  98.4837184  67.7776251  96.7674466  99.4140965
  67.3400021  98.3237923  98.6701819  66.8896599  96.6271170  97.5141793
  66.0138444  97.1981860  96.8544185  67.1234650  95.3410007  97.2868754
  66.5462876  94.8341515  96.6310782  67.8775447  94.8747516  97.7706897
  69.1611507  98.4565456  96.7156990  68.9441190  99.6916540  96.7728241
  69.4375968  97.8585860  95.5862731  69.7554148  96.9016570  95.6443925
  69.4378135  98.5197608  94.2596843  69.0576672  99.5404000  94.3030838
  70.9234726  98.5554482  93.7060270  70.8724392  99.0135376  92.7182776
  71.9217903  99.3093637  94.5611014  71.9737199  98.8515410  95.5489286
  72.9047543  99.2715860  94.0915749  71.6060299 100.3480462  94.6587519
  71.5528336  97.1865910  93.4846770  70.9605740  96.6265400  92.7610242
  72.5673836  97.3095775  93.1056490  71.5816756  96.6424364  94.4286922
  68.4557983  97.8805033  93.2850827  67.9183484  96.7638653  93.5541312
  68.2035468  98.5710398  92.1047257  68.6679632  99.4527562  91.9404301
  67.2826103  98.0780320  91.0933078  66.2465701  98.2063266  91.4067729
  67.5150672  98.9022526  89.8096434  67.4049026  99.9491025  90.0926071
  68.5451701  98.7148055  89.5065732  66.5443508  98.5774318  88.6050181
  66.7316422  97.5734808  88.2240914  65.5189648  98.6419272  88.9690552
  66.7515847  99.5963938  87.4809364  66.8013875  99.0957708  86.3462777
  66.8295953 100.8225694  87.7280410  67.5747459  96.5688975  90.8581654
  68.7520802  96.0724535  90.8864204  66.5163630  95.7532875  90.6106599
  65.5886452  96.1451753  90.5340901  66.6687246  94.3128637  90.4846188
  67.0896791  93.8584876  91.3815239  65.1768120  93.8109696  90.3157851
  64.7446550  94.2503417  89.4167342  65.1659746  92.7244153  90.2298627
  64.5911294  94.1120953  91.1843463  67.5776942  93.8677904  89.2864251
  67.9220414  92.7376023  89.2146552  67.8972808  94.7773995  88.3693043
  67.5824239  95.7209741  88.5443230  68.6724409  94.5242745  87.1773435
  68.8830004  93.4592479  87.0799672  67.9025716  94.9652048  85.9904619
  67.8037409  96.0453703  86.0980448  68.5412683  94.7426595  85.1356870
  66.5136367  94.3433127  85.7678502  66.0867900  94.7114704  86.7007825
  65.9451725  94.7407513  84.9270231  66.4510096  92.7849304  85.7471260
  67.4492940  92.1959425  85.3019333  65.3076988  92.2934958  85.9319890
  69.9998733  95.2222457  87.0327285  70.6735569  94.9836482  86.0356972
  70.3251705  96.0478649  88.0168066  69.6043722  96.2250247  88.7017618
  71.6268695  96.8072355  88.1335667  71.6860255  97.5518414  87.3397394
  71.6299803  97.5300968  89.4838670  71.5803379  96.7971122  90.2890808
  72.5446610  98.1148546  89.5814258  70.7671589  98.1934905  89.5434253
  72.8171823  95.8979254  87.9438810  72.9363507  94.7372435  88.3720696
  73.8251945  96.4172661  87.2284772  73.8326400  97.3931172  86.9681723
  74.9710466  95.5334149  86.7509510  74.9855803  94.6261444  87.3548949
  74.8423286  95.1357930  85.2683511  74.8876833  96.0472755  84.6723296
  75.6891242  94.4965057  85.0186533  73.6263626  94.4447714  84.9880085
  73.5939281  94.2197170  84.0553251  76.3643087  96.1745062  86.9192979
  77.3528602  95.5188656  86.5404504  76.5291923  97.3859888  87.3404348
  75.7295338  97.9243402  87.6418041  77.8699954  98.0250223  87.3951075
  78.6042990  97.2481742  87.6081909  78.2762908  98.7420422  86.1005718
  77.5054607  99.4913667  85.9204797  79.2213954  99.2390725  86.3192910
  78.4348295  97.8777549  84.8716805  79.3186527  97.2609915  85.0346535
  77.5519785  97.2404761  84.8211635  78.6142884  98.7765579  83.3002529
  76.8564054  99.0275946  83.0901534  76.4668787  99.5975595  83.9336627
  76.6751717  99.5770254  82.1663672  76.3540623  98.0614421  83.0421745
  77.9789490  99.1097644  88.5221286  76.9786707  99.7298466  88.7925553
  79.1706110  99.3472684  89.0597961  79.8845868  98.8213516  88.5763196
  79.5451234 100.0772726  90.2525406  78.9194647 100.9656737  90.3385288
  79.3513642  99.2063301  91.5298368  78.2930754  98.9589060  91.6129353
  80.1601313  97.9390141  91.4845830  81.2186406  98.1856520  91.4019467
  79.9910754  97.3667301  92.3967298  79.8576246  97.3449308  90.6222279
  79.8308501 100.1051008  92.6940251  79.2262928 101.0114901  92.7267491
  79.7280260  99.5661981  93.6358907  80.8765668 100.3718068  92.5409069
  80.9217059 100.6632648  90.1000528  81.7948824 100.1632128  89.4485777
  81.1141573 101.9227027  90.5163613  80.3090228 102.2431306  91.0351905
  82.1669918 102.8790134  90.2184178  83.1418068 102.4208185  90.0514080
  81.7721350 103.7302817  88.9712925  80.7793570 104.1564134  89.1158749
  82.7691785 104.8350549  88.7993780  83.7621979 104.4096641  88.6542716
  82.5009625 105.4351922  87.9298976  82.7708674 105.4652949  89.6887000
  81.5973442 102.9372691  87.6651141  82.0049337 103.5419426  86.8549651
  82.1751759 102.0176737  87.7576041  80.1602744 102.5989292  87.3648032
  79.5818679 103.5181021  87.2717066  80.1056668 102.0397194  86.4307788
  79.7521093 101.9938348  88.1743474  82.4693675 103.6486504  91.5571642
  81.5197841 104.1794862  92.1112722  83.6953516 103.5846391  92.0620975
  84.3683683 103.0998575  91.4857862  84.1348338 104.0829061  93.3894777
  83.3215603 104.1212678  94.1141940  85.1756698 103.1707480  93.8972700
  86.0010484 103.1288813  93.1865680  85.5416435 103.5347566  94.8573019
  84.7549977 102.1732053  94.0239304  84.6044572 105.5144489  93.2209806
  85.5074205 105.8266371  92.4564894  83.8656857 106.4386659  93.8466047
  83.0498448 106.1214492  94.3504662  84.1116436 107.8758694  93.7616762
  84.4832931 108.0996838  92.7617347  82.8274904 108.6739581  93.9959688
  82.4995962 108.4831022  95.0178096  83.0094710 110.1307930  93.8001777
  83.3369390 110.3224845  92.7783558  82.0643449 110.6430000  93.9804028
  83.7612445 110.5005241  94.4974849  81.7535374 108.2745401  93.0391850
  81.5291996 107.2153776  93.1654759  80.8558737 108.8612996  93.2341535
  82.0902359 108.4548747  92.0182960  85.2215707 108.4362994  94.7010815
  85.1386326 108.1889998  95.9346836  86.1911058 109.2616183  94.2426034
  86.4745425 109.7387251  92.8635607  85.8935883 110.6460776  92.6983215
  86.1458873 108.9659059  92.1686973  87.9497757 109.9799514  92.7925193
  88.1867795 110.6909718  92.0010786  88.4847047 109.0471050  92.6143343
  88.2822430 110.5401585  94.1547309  88.1988504 111.6214109  94.2644487
  89.2937725 110.2262768  94.4123856  87.2226225 109.8117258  95.1129126
  87.7621085 108.9613112  95.5298636  86.7147773 110.6983662  96.2488827
  85.7543826 111.4471511  96.0807482  87.4370638 110.7096022  97.4075932
  88.2057466 110.0552997  97.4409731  87.2982470 111.7111427  98.5330747
  86.3217771 111.6614926  99.0148843  88.4228928 111.2961586  99.6063896
  89.3729642 111.4632647  99.0989064  88.3151101 112.0133976 100.4200549
  88.3902814 109.8728433 100.1729532  88.2554913 109.2042729  99.3226909
  89.3224183 109.6285359 100.6823978  87.2104382 109.7037174 101.1515161
  86.4036186 108.7281795 101.1744269  86.9642674 110.6216961 101.9831633
  87.7429177 113.1861516  98.0892340  88.6452324 113.2520811  97.2538541
  87.1270789 114.2503439  98.7205590  87.5838153 115.5812040  98.2779471
  87.6708850 115.5844033  97.1914348  88.5580615 115.7885531  98.7206092
  86.4976947 116.5351594  98.7837495  85.7177105 116.6604786  98.0327377
  86.9256240 117.5074022  99.0281298  85.9521064 115.8350476 100.0554688
  84.8989680 116.0635994 100.2190614  86.5312766 116.1529065 100.9224332
  86.1264544 114.3570030  99.8356072  86.5913462 113.9680192 100.7415131
  84.8781796 113.6023866  99.5574617  84.3156029 113.0619850 100.5109781
  84.3079537 113.5125940  98.3746800  84.7546078 113.8871826  97.5498873
  82.9800758 112.8967736  98.2298125  82.2959699 113.4403028  98.8814828
  82.4010804 112.9015831  96.7870893  83.3561641 112.5789401  96.3725826
  81.6269320 112.1836480  96.5162323  82.0422614 114.2175042  96.0888074
  81.6620196 115.3212694  96.8159447  81.7270902 115.2843010  97.9033725
  81.1958325 116.4829789  96.1795569  80.9257928 117.3732645  96.7475100
  81.0762673 116.4812167  94.7248899  80.8383872 117.3824139  94.1597735
  81.2737538 115.2969827  94.0714698  81.0754989 115.2955483  92.9996521
  81.7083057 114.1201666  94.7079512  81.7767893 113.1894172  94.1448212
  82.8042473 111.3376987  98.6835922  82.0844023 111.0825305  99.6335650
  83.6433287 110.4341552  98.1074104  84.3063557 110.6795805  97.3861192
  83.5854877 109.0527624  98.5474039  84.4150617 108.5064443  98.0985802
  83.6785720 109.0260462  99.6330930  82.2468100 108.3694046  98.1362977
  81.4132181 108.8147028  97.3567542  82.2226371 107.1161690  98.5880888
  82.9194940 106.7683486  99.2311369  81.1571228 106.1975316  98.1483244
  81.1601504 105.3723640  98.8604960  80.2244689 106.7539024  98.2416386
  81.2617731 105.6202309  96.7013305  82.3836456 105.5510473  96.1723373
  80.1449307 105.2170534  96.1014674  79.2743254 105.3427998  96.5977875
  80.1014288 104.6416997  94.7783530  80.9675695 104.9750899  94.2067322
  80.1150943 103.1092110  94.8398417  79.2486881 102.7598604  95.4014417
  80.0793393 102.7041581  93.8285287  81.0269798 102.7729847  95.3333151
  78.7817989 105.0407836  94.0091209  77.6891063 104.9946501  94.5495816
  78.9805208 105.3541762  92.7464014  79.9458093 105.5151492  92.4965912
  77.9943028 105.3899157  91.7065120  77.1413835 105.9861781  92.0307019
  78.6415684 106.0493559  90.4473445  79.5425847 105.5021197  90.1702119
  77.6121778 106.0081161  89.2507283  76.7110225 106.5555790  89.5269604
  78.0600029 106.4675167  88.3695334  77.3538954 104.9727444  89.0284787
  78.9654813 107.4924409  90.8110355  78.0225768 108.0348136  90.8807756
  79.4530742 107.4856208  91.7858720  79.8666038 108.1741527  89.8004653
  79.3794520 108.1817704  88.8254141  80.0592729 109.1989825  90.1178008
  80.8099491 107.6325757  89.7305089  77.6997868 103.9433334  91.3657468
  78.5490508 103.0879102  91.3353687  76.4268025 103.6690223  91.1629821
  75.7939692 104.3780882  91.5048106  75.8534299 102.3925406  90.6720111
  76.4945001 101.7711712  90.0466887  75.2215171 101.5222028  91.7896391
  74.2904739 101.9817154  92.1214631  74.9377791 100.1348290  91.2607111
  75.8684800  99.6744687  90.9291016  74.4940583  99.5281729  92.0501292
  74.2459148 100.2000306  90.4209661  75.9180105 101.5465210  93.2226260
  76.1375292 100.5185777  93.5111479  76.8493874 102.1064406  93.1382076
  75.0332029 102.1911987  94.2785688  74.1017645 101.6315178  94.3638905
  75.5492456 102.1853469  95.2386547  74.8136208 103.2193807  93.9909488
  74.8883231 102.6315578  89.4575723  74.3263800 103.6837884  89.3331876
  74.7097577 101.6980453  88.5482661  75.0841399 100.7849335  88.7631243
  74.0751573 101.9114618  87.1937485  73.5402339 102.8599368  87.1452573
  75.0901061 101.8477276  86.0744269  75.8015059 101.0652314  86.3384542
  74.4928906 101.5521396  84.6706569  73.7816921 102.3345118  84.4057209
  75.2944671 101.5253611  83.9325114  73.9829920 100.5889087  84.6876476
  75.9321508 103.2364758  86.0570392  75.1946043 103.9914638  85.7847908
  76.2312642 103.3793116  87.0954170  77.1759055 103.3728092  85.1369482
  76.8774788 103.2305469  84.0982939  77.6102433 104.3653037  85.2569670
  77.9141382 102.6183926  85.4089189  72.9626034 100.8205754  87.1153863
  73.2683729  99.6367252  87.1177860  71.7144735 101.2548893  86.9139584
  71.6199753 102.2604030  86.9033839  70.5111252 100.4414930  86.7138355
  70.5906627  99.5421942  87.3246012  69.6418506 101.0185527  87.0292134
  70.3384077 100.0445276  85.2845706  71.2364135  99.7268051  84.4817269
  69.0391390  99.8658956  84.9199924  68.2770828  99.7892642  85.5783975
  68.7135465  99.8078828  83.4176429  69.5366859 100.1831876  82.8096239
  68.4927893  98.3384831  83.0841584  69.4440446  97.8243824  83.2216832
  67.7631152  97.9472337  83.7931010  67.9806417  98.1039919  81.6279992
  67.6392766  97.0911738  81.4140599  67.1390097  98.7930314  81.5574137
  69.0304258  98.5011409  80.5766277  69.9854250  97.7995171  80.2290339
  68.8441484  99.6108876  79.8655981  69.5260078  99.8829767  79.1719579
  68.0218004 100.1757538  80.0229875  67.4272319 100.6118527  83.1545515
  67.3126168 101.0637132  82.0339608  66.6803431 100.9420520  84.1935604
  66.7653804 100.4502533  85.0716276  65.7792772 102.1085291  84.1296197
  65.5781054 102.4227740  83.1054716  64.4587221 101.6308952  84.7669306
  64.7075520 101.3759054  85.7970583  63.7994949 102.4988948  84.7571248
  63.7776516 100.4900076  84.1296264  63.5477074 100.7851069  83.1058379
  64.4227660  99.6114939  84.1177867  62.4884390 100.1613484  84.8632762
  62.2776995  98.9781681  85.2747408  61.6332759 101.0113447  85.0262316
  66.2513633 103.2888781  84.9792403  65.4940855 104.2655370  85.1106353
  67.4136386 103.3121653  85.5840243  68.0117262 102.5206838  85.3944257
  67.8339150 104.2876799  86.6651608  67.6770691 105.3075775  86.3140092
  66.9867343 104.0720495  87.9998781  67.0271648 104.9685120  88.6186023
  65.9489316 103.8479718  87.7531905  67.5519209 102.9765645  88.7141404
  67.0547067 102.8308386  89.5223124  69.3599218 104.3456664  86.9160529
  70.1375681 103.5180617  86.4324563  69.7805868 105.4080324  87.6585012
  69.1336565 106.1789637  87.7436207  71.1512375 105.5903919  88.1565813
  71.6624171 104.6451604  88.3391518  72.1006597 106.5540789  87.2596516
  71.5306761 107.4596745  87.0520087  73.4814616 106.9432379  87.9517856
  74.0522455 106.0381230  88.1593273  74.0537163 107.5881225  87.2848905
  73.2846742 107.4701536  88.8854524  72.3586154 106.0653820  85.8162420
  72.7852767 105.0685916  85.9279098  71.3700407 105.9882712  85.3636123
  73.2644709 106.9094723  84.9200739  74.2534298 106.9866505  85.3718523
  73.3487071 106.4382462  83.9408142  72.8381945 107.9063315  84.8075566
  71.1503794 105.9800591  89.6463050  70.2549816 106.7254994  90.1159512
  72.1370050 105.4574189  90.3711410  72.8693407 104.9065238  89.9465256
  72.1337359 105.6029817  91.8305130  71.4118018 106.4092562  91.9602506
  71.5956282 104.3430508  92.5328821  72.2141376 103.5193914  92.1763269
  71.5933840 104.3538344  94.1032431  70.9746613 105.1770008  94.4605650
  71.1912258 103.4106249  94.4730049  72.6127060 104.4813752  94.4676833
  70.2018056 104.4222718  92.2221031  69.7438047 103.6745920  92.6130128
  73.5029086 105.9386555  92.3423608  74.4504283 105.4230457  91.8067436
  73.6053484 106.6829848  93.3997638  72.8018933 107.2185971  93.6958698
  74.8170928 106.7982526  94.1591970  75.5760447 106.1158409  93.7765674
  75.3486620 108.2487731  94.0372569  75.8371630 108.1591930  93.0669779
  74.5154626 108.9473729  93.9608544  76.3329682 108.7546294  95.0466274
  77.6950133 108.6306064  94.8326893  78.0471859 108.1192391  93.9368225
  78.6549777 109.1736626  95.7875654  79.7052580 109.2629799  95.5100129
  78.2124318 109.6567458  97.0348528  79.0909306 110.0692228  98.0028216
  80.0091997 109.9904743  97.7341580  76.7504410 109.6287939  97.3170806
  76.3704540 109.9275805  98.2940335  75.8452004 109.2071287  96.2979898
  74.7706607 109.2317097  96.4792638  74.5516943 106.4455927  95.6515605
  73.5579013 106.8728271  96.1775036  75.6047909 105.8633788  96.3108635
  76.4263145 105.6610653  95.7592588  75.5984600 105.4502091  97.7663945
  74.9388496 106.0880919  98.3547132  75.0733852 103.9964995  97.8378207
  74.0584465 103.9720148  97.4410849  75.7027728 103.3140709  97.2666268
  75.0020407 103.4471278  99.2372513  74.2366467 104.0797104 100.3141010
  74.5420928 103.2846134 101.3584344  74.0955143 103.5621088 102.3132448
  75.3517350 102.2804329 101.0325155  75.7429784 101.5919711 101.6594516
  75.5805319 102.3313051  99.6486120  76.1401719 101.5342745  99.1590749
  76.9503949 105.5573180  98.4691794  77.9752557 105.3928594  97.8626593
  76.9250063 105.8940966  99.7986968  75.9950541 105.9686625 100.1856439
  78.0537727 106.3178450 100.6226931  78.9170958 105.6598416 100.5236791
  78.4387828 107.7429105 100.0629203  78.5144677 107.6920224  98.9767429
  77.6739715 108.4685440 100.3397230  79.7883402 108.2123995 100.6276617
  80.6074695 107.4649472 101.1397080  79.9970806 109.4853714 100.5282827
  80.8595006 109.8811196 100.8742811  79.2966277 110.0773545 100.1051723
  77.6896823 106.1566934 102.1138354  78.1048418 106.9748511 102.9385394
  76.7912445 105.2560069 102.4722240  76.3830422 104.7022712 101.7327329
  76.3510390 105.0077822 103.8534038  76.1942951 103.9310965 103.9188151
  77.1953779 105.2903625 104.4821641  75.1277324 105.7066293 104.3410455
  73.9876175 105.4649043 103.8347798  75.3155902 106.7356331 105.1916316
  76.2016689 106.7905217 105.6732446  74.2500017 107.6486121 105.5961554
  73.2869007 107.1748407 105.4062177  74.3329841 108.0152154 107.0954615
  74.9340238 108.8987398 107.3104853  73.2797658 108.2447339 107.2571791
  74.7470273 106.8935798 108.0075668  73.8601431 106.1003613 108.3976754
  75.9640647 106.6548279 108.1945116  74.1571138 108.8566205 104.6690493
  73.7681886 109.9311860 105.0882857  74.3254519 108.5922269 103.3472035
  74.7453849 107.6894606 103.1775900  74.1554521 109.4836240 102.2347408
  73.1304681 109.8487293 102.2995878  75.0769861 110.6605148 102.1236733
  74.9241719 111.1110433 101.1429740  74.7987566 111.3749200 102.8984725
  76.5549176 110.2793291 102.2865571  76.6346044 109.3079407 101.7985454
  77.0887065 111.0257541 101.6983215  77.1922380 110.1955995 103.7390690
  76.8660788 111.0881219 104.2730381  76.7659891 109.3122563 104.2145857
  78.7767912 110.1049828 103.7788536  79.1017034 109.8223392 104.7801753
  79.1182829 109.3580133 103.0622512  79.3413462 111.4017033 103.4338206
  79.0253795 112.0939226 104.0979721  80.3495775 111.3471948 103.4582825
  79.0407430 111.6635972 102.5058398  74.0985514 108.7148186 100.9196227
  74.8658770 107.7604160 100.7035832  73.1708290 109.0674505 100.0684595
  72.8068627 110.0014996 100.1916669  72.6823172 108.2913912  98.9812804
  73.5062579 107.9663657  98.3460015  71.9395957 107.0063149  99.5462091
  72.7814675 106.3675012  99.8131702  71.3508631 107.2221048 100.4377969
  71.0609241 106.2887770  98.5154804  69.8672629 106.8709711  98.0369828
  69.5774513 107.8238167  98.4799206  69.0607862 106.2822509  97.0370584
  68.2738812 106.8679617  96.5618476  69.3481260 104.9553678  96.5717542
  68.5410108 104.3672285  95.7276286  67.7887546 104.9124764  95.4859367
  70.4391735 104.2951183  97.1320613  70.6218821 103.2651467  96.8256687
  71.3152651 104.9302240  98.0892287  72.1695035 104.3855378  98.4913402
  71.6648198 109.2026254  98.2742660  70.9815044 109.9883378  98.8254919
  71.6751464 109.1473554  96.9674437  72.3542514 108.4727815  96.6451614
  70.9371764 109.9582669  95.9437500  69.9750744 110.2469979  96.3669441
  71.6892017 111.2386132  95.5057073  72.5584596 110.9311178  94.9243841
  70.9542799 111.6974947  94.8443318  72.1185726 112.2482491  96.5671709
  71.3666501 112.2134925  97.3555270  73.5214315 111.9952186  97.1795102
  74.2739871 112.0302851  96.3917735  73.7379326 112.7627663  97.9225437
  73.5393816 111.0145791  97.6550356  72.2528279 113.5823857  95.9294688
  71.2950002 113.8796139  95.5024782  72.5593814 114.3138680  96.6771719
  73.0028000 113.5344702  95.1399468  70.6079542 109.0888874  94.7540664
  71.4031938 108.2575260  94.3967764  69.4633584 109.2904504  94.1172069
  68.7303080 109.8640661  94.5092547  69.2298186 108.6588144  92.8249615
  70.1824734 108.6857691  92.2959799  68.8475472 107.1596864  93.0941208
  67.8912081 107.1159854  93.6152788  68.7684750 106.6284235  92.1456443
  69.6172387 106.6925986  93.7085337  68.1185804 109.2497573  91.9042367
  67.3106320 110.0816146  92.3411461  68.2175660 108.9082975  90.5911681
  68.9027067 108.1853161  90.4238975  67.5489030 109.5329510  89.4159934
  66.5572816 109.9451998  89.6026407  68.4895009 110.6690353  88.7773471
  67.8798776 111.2892600  88.1202465  69.1349514 111.5495309  89.8586695
  69.7451468 110.9300341  90.5159258  69.7628096 112.3047969  89.3859454
  68.3554059 112.0392368  90.4422757  69.4932120 110.0594002  87.7952147
  69.9772177 109.2156165  88.2870158  68.9412519 109.7042531  86.9249790
  70.5057351 111.0201016  87.3697459  71.0584553 111.3753722  88.2394487
  71.1936909 110.5395903  86.6740988  70.0224888 111.8640103  86.8774137
  67.1435198 108.4119833  88.4295752  67.8898227 107.5176394  88.1517296
  66.0075492 108.6798642  87.8428509  65.3870575 109.3284817  88.3058678
  65.4904961 107.9261724  86.6593282  66.3397420 107.5694356  86.0765594
  64.7569586 106.7244691  87.2351006  63.8984933 107.0652554  87.8138942
  64.4152730 106.0832039  86.4226167  65.4307106 106.1625873  87.8819749
  64.7518613 108.8307509  85.6885500  63.5852700 108.6544034  85.3430630
  65.3079164 109.9218483  85.1923220  66.7698592 110.2407260  85.2773178
  67.2736466 109.2863191  85.1243277  66.9250322 110.5724242  86.3039612
  67.1791788 111.2719763  84.2777807  67.5237809 110.8532139  83.3322722
  67.9214553 111.9754046  84.6550280  65.8006770 111.9541826  84.1239192
  65.7892641 112.4184702  83.1378128  65.5900109 112.7081391  84.8823841
  64.6968900 110.7846706  84.1907780  63.7068010 111.0643755  84.5507603
  64.5689761 110.1051582  82.8156773  65.5246284 109.5014023  82.4157440
  63.4886629 110.1971646  82.0566903  62.3006732 110.9959291  82.3269011
  62.6345114 111.9521494  82.7297595  61.7166138 110.4685190  83.0810975
  61.5412421 111.1476724  80.9968517  61.9509796 111.9663325  80.4052353
  60.4797983 111.3226930  81.1723688  61.7656731 109.8017876  80.3158454
  61.6955478 109.7804645  79.2283130  61.0761007 109.0709394  80.7382793
  63.2293008 109.4740819  80.7608803  63.1519568 108.4087601  80.9781486
  64.3620368 109.7097800  79.7120745  64.5808108 108.8096639  78.8498438
  65.2016405 110.7269533  79.8398180  65.1035740 111.4143228  80.5733065
  66.2745719 110.8963859  78.8768686  65.8694908 110.8893446  77.8649600
  67.0999287 112.2032621  79.0976079  66.4116654 113.0482327  79.1180674
  67.9006964 112.1520850  80.4372335  68.5895514 111.3075831  80.4173325
  68.4641288 113.0770698  80.5599031  67.2081602 112.0358270  81.2708862
  68.0833106 112.4659917  77.8938711  68.7075708 113.3262896  78.1352992
  68.7133490 111.5866092  77.7603140  67.3256160 112.7375212  76.6224841
  66.6956606 113.6171013  76.7551296  68.0301117 112.9150094  75.8099061
  66.7014367 111.8774211  76.3801457  67.2700117 109.6955241  78.8991288
  67.8404360 109.4567637  77.8690751  67.3717552 108.9856824  79.9941649
  66.8823187 109.2345285  80.8418836  68.1930112 107.7341723  79.9901810
  68.8633503 107.5840624  79.1438881  68.9684962 107.5704345  81.2846859
  69.3852189 106.5647578  81.3399762  70.1537492 108.6398676  81.3177646
  69.7377509 109.6458716  81.2629744  70.7170452 108.5301608  82.2444592
  70.8167005 108.4746459  80.4684728  68.1650564 107.4996803  82.6014685
  67.7919248 108.5017514  82.8129561  67.3237245 106.8264075  82.4372612
  68.9563315 107.0235445  83.7386071  69.7976436 107.6966185  83.9037293
  68.3315196 106.9979509  84.6313861  69.3294454 106.0212748  83.5280331
  67.2789803 106.4799504  79.8784850  67.7725123 105.4096282  79.6875388
  65.9321252 106.5532316  79.9535398  65.5073605 107.4023899  80.2979298
  65.0536318 105.3991986  79.6573653  65.5113083 104.4867102  80.0394600
  63.6718378 105.5693130  80.3151170  63.3512805 106.6063005  80.2151212
  62.9538320 104.9179488  79.8168275  63.7521359 105.1937267  81.8270830
  63.7525562 104.1079157  81.9225570  64.6764327 105.5948567  82.2428619
  62.5869972 105.7576466  82.5699033  62.4542364 106.8212129  82.3716604
  61.6627307 105.2275855  82.3399769  62.9374208 105.5543012  84.0436818
  63.3919984 104.5732319  84.1813877  63.6364207 106.3264062  84.3651660
  61.7008308 105.6420947  84.8508090  61.0531568 104.9264524  84.5533629
  61.9254121 105.5085158  85.8264216  61.2796802 106.5512537  84.7236827
  64.9464336 105.1734639  78.1362729  64.0430543 105.6063884  77.4351679
  65.8257050 104.3402621  77.5818807  66.3443355 103.7474948  78.2141375
  66.0656511 104.1883140  76.0996126  65.2919538 103.5513389  75.6709468
  66.0318534 105.5620168  75.3798027  66.2809896 105.3080900  74.3494865
  64.9815119 105.8472091  75.4393686  66.9321743 106.7681719  75.8566311
  66.8307344 107.0981146  76.8905309  67.9472346 106.4082981  75.6885670
  66.6802445 107.9526517  74.9428315  65.7392714 107.9990119  74.2211906
  67.5072569 108.9863051  75.1735500  67.4258466 109.8274296  74.6203924
  68.2065187 108.9174141  75.8990762  67.5000329 103.5836116  75.8749196
  68.4820593 104.0953760  76.4473875  67.6265270 102.5994666  74.9734260
  66.7911517 102.4813614  74.4181796  68.7668000 101.6130077  74.7787329
  68.4354980 100.6615532  74.3627130  69.7176509 102.3175249  73.7326522
  69.1617461 102.4474970  72.8041176  69.9932940 103.2942718  74.1302531
  70.8755204 101.5724277  73.4823812  71.4223416 102.0357215  72.8436753
  69.3237273 101.3029886  76.2024520  68.5322986 100.9474313  77.0659389
  70.6310261 101.3520410  76.3589567  71.1645536 101.5473706  75.5239153
  71.3391390 101.0121309  77.5499711  70.8108548 101.4889343  78.3756063
  71.2914610  99.5135537  77.7469367  70.2783590  99.1486642  77.5778799
  72.2477681  98.8554756  76.7387250  73.2612140  99.2195501  76.9074755
  72.2246970  97.7734415  76.8682205  71.9363006  99.1062509  75.7247228
  71.7832670  99.2362216  79.0066778  71.7633762  98.2881745  79.1563825
  72.7359140 101.6145759  77.5293415  73.4244052 101.7280945  76.4968986
  73.2155440 101.9129620  78.7346202  72.5337541 101.8781903  79.4789675
  74.6367752 102.2821851  79.0828515  75.0125903 102.9662772  78.3220097
  74.8102564 102.9114495  80.4628256  74.4067780 102.2085247  81.1916619
  76.2944630 103.2428807  80.8253008  76.6985095 103.9461609  80.0971222
  76.3356771 103.6867655  81.8199707  76.8854869 102.3271241  80.8118907
  73.9524015 104.2104125  80.4992557  74.5134323 105.0299935  80.0502209
  73.0298206 104.0532722  79.9404615  73.6083874 104.5660788  81.9843044
  74.5305267 104.7238287  82.5436556  73.0078263 105.4753181  82.0109390
  73.0469167 103.7471057  82.4338971  75.4834088 100.9816372  79.0471773
  75.1773543 100.0461877  79.8331716  76.5524606 100.8585768  78.2415232
  76.7461665 101.6555504  77.6521078  77.4139299  99.6718364  78.1156837
  77.1181086  98.8337752  78.7467482  77.4861204  99.1923221  76.6723194
  78.3732107  98.5666224  76.5739837  76.2442453  98.3916013  76.2443259
  75.3567481  99.0168357  76.3419557  76.3540426  98.0769930  75.2065077
  76.1407713  97.5128224  76.8808338  77.7631954 100.3605470  75.6901701
  78.7139956 100.8301333  75.9423006  77.8072189  99.9764300  74.6710452
  76.9633480 101.0971538  75.7660343  78.8929932  99.9454371  78.6456974
  79.6360317  98.9969595  78.8912216  79.3309587 101.1907308  78.9039814
  78.7169063 101.9472858  78.6381551  80.7162025 101.5306582  79.3802114
  80.9934029 100.9023803  80.2266900  81.7517138 101.2763119  78.1968960
  82.7980192 101.3756842  78.4858065  81.6089834 100.3332131  77.6693616
  81.4424972 102.5716816  76.9932418  82.3759668 102.1839583  76.1288324
  80.7954102 102.9511498  80.0260990  79.7923541 103.6799744  79.9527621
  81.8661007 103.3503401  80.7408016  82.6555272 102.7213895  80.7043831
  81.9658281 104.5470952  81.5926283  81.4752014 105.3982188  81.1204279
  81.2661118 104.2573555  82.9330081  81.3550901 105.0693651  83.6546885
  80.2121791 104.0402807  82.7592141  81.8460647 103.0552960  83.5742168
  82.9482904 103.0127982  84.3985011  83.0251757 101.7250562  84.7832286
  83.7822381 101.4639157  85.5226615  82.1005259 100.9604759  84.1461228
  82.0037856  99.9598699  84.2437380  81.3353393 101.7323976  83.3682543
  80.5394102 101.2862260  82.7719918  83.4434926 104.9611598  81.7983937
  84.4173656 104.2290699  81.8232467  83.5703347 106.2772216  82.0632454
  82.7235367 106.8028006  82.2269500  84.8395845 106.9844716  82.1062729
  85.6305836 106.3610920  82.5231871  85.1864644 107.3194903  80.7334693
  85.4297014 106.3614659  80.2739867  84.3266319 107.7572098  80.2263306
  86.3547638 108.2372711  80.5712657  86.4113078 109.2270657  79.9312169
  87.4180060 107.8393388  81.1537224  88.2589506 108.3959937  81.0985205
  87.4135853 106.9696039  81.6671836  84.8518301 108.2561640  82.9317875
  83.9589191 109.0400287  82.6973028  85.7705093 108.4414371  83.8875523
  86.4153422 107.6790959  84.0396238  85.9020445 109.6192870  84.7036040
  84.9296017 109.9770840  85.0418869  86.7432725 109.2346321  85.9393426
  86.3904239 108.2751113  86.3173864  87.7866913 109.1441105  85.6373771
  86.6197236 110.3002090  87.0473821  87.2015139 111.1797429  86.7716268
  85.5730784 110.5802701  87.1665530  87.1461380 109.7347943  88.3597323
  86.9634639 110.4319754  89.1774534  86.6698960 108.7802321  88.5835715
  88.6130721 109.5183809  88.2364987  89.0426588 109.8945702  87.4034103
  89.4073631 109.0567821  89.2133889  88.9572726 108.2678237  90.1315725
  87.9870367 107.9874097  90.1210690  89.5776635 107.9350018  90.8557578
  90.6821071 109.2786912  89.0426433  91.0005197 109.7671724  88.2179618
  91.3442093 108.9608980  89.7359880  86.5974604 110.7215906  83.8866191
  87.5871823 110.4515615  83.2541352  86.1099951 111.9490888  84.0487048
  85.2507768 112.0535853  84.5692081  86.7008133 113.1503518  83.4237287
  87.5333645 113.0025504  82.7358970  85.6402107 114.0106108  82.7306238
  84.9802016 114.3978611  83.5068484  86.2223148 115.1849425  81.9184773
  86.8821139 114.7984264  81.1417075  85.4098130 115.7468634  81.4578405
  86.7871047 115.8408741  82.5809483  84.5765196 113.3618612  81.9246460
  83.9992326 112.6887204  82.5584623  83.9173237 114.1248342  81.5106017
  85.0305485 112.7948028  81.1119939  87.4770836 113.9629891  84.3918150
  88.4758205 114.4821192  83.8729994  87.0832514 114.0671739  85.6736417
  86.2583369 113.5426821  85.9276570  87.6457494 114.9542576  86.6406641
  88.5394713 115.3921661  86.1961459  86.6998444 116.1209167  87.1246563
  85.7403954 115.6887434  86.8404329  86.7261450 116.2674645  88.2044397
  86.8784576 117.4591706  86.4277812  85.9505544 118.2910903  86.5776560
  87.7611696 117.7696104  85.5984377  88.2029120 114.1326207  87.8365080
  87.4112479 113.4647512  88.5033454  89.5078471 114.2014550  88.1753697
  90.5741126 115.0696951  87.5402139  90.5593202 116.0587016  87.9981961
  90.3802508 115.1617999  86.4715543  91.8253467 114.3291327  87.8255954
  92.6911668 114.9912623  87.8193506  91.9815949 113.5208111  87.1112397
  91.5712821 113.8081455  89.1438369  91.8421312 114.5185816  89.9248749
  92.1943642 112.9180549  89.2310556  90.0851615 113.4245479  89.2773033
  89.9291713 112.3840996  88.9922901  89.5541608 113.6497764  90.7002230
  89.8472277 112.8435310  91.5625304  88.7039978 114.6502234  90.9803475
  88.6841653 115.4811520  90.4065324  87.8454504 114.6099395  92.1898513
  88.3081269 114.0900948  93.0287740  87.6782275 116.1588879  92.5755317
  87.2672439 116.3907115  93.5581047  88.7421543 116.3954954  92.5622376
  86.9836453 117.0117240  91.5509288  86.1007826 116.5582157  90.8727123
  87.1577391 118.3325343  91.5971421  86.6998604 118.9232461  90.9177995
  87.7467244 118.7365046  92.3112885  86.4922680 113.8796698  92.0723161
  85.9082187 113.6496445  93.1157626  86.1109100 113.2896740  90.9167305
  86.6664967 113.3317114  90.0743199  84.8717261 112.5750224  90.8772043
  84.9962442 111.7568464  90.1678507  84.7045467 112.1682456  91.8745423
  83.6424039 113.4157996  90.4644263  82.5614604 112.8773903  90.4288518
  83.7917260 114.6997172  90.1581183  84.7101310 115.1134035  90.2322477
  82.6711316 115.5622500  89.7910453  81.8324766 115.3837682  90.4640247
  83.0687768 117.0216602  89.8891219  82.2474802 117.6385449  89.5243969
  83.2700429 117.2653127  90.9323024  84.2368998 117.2744069  89.1077168
  84.4757967 118.2013968  89.1799506  82.0379013 115.3592721  88.4159162
  80.9316424 115.7917960  88.1511606  82.8281803 114.7490602  87.5014034
  83.7598409 114.5201941  87.8172010  82.4739655 114.4661908  86.0816690
  81.3930176 114.5288452  85.9562692  83.1339900 115.4734365  85.1405857
  84.2031880 115.4561370  85.3518096  82.9594330 115.1232641  84.1232316
  82.5997159 116.9290049  85.2870849  81.5141919 116.8652532  85.3624117
  83.0052444 117.3264911  86.2174899  82.9885124 117.8849297  84.0934811
  82.8057643 117.3542814  83.1590751  82.3490601 118.7663617  84.1412076
  84.4008606 118.3221417  84.1216318  84.8520244 118.3110006  85.0251951
  85.1146042 118.6519360  83.0682100  84.6910302 118.6694320  81.8545507
  83.7347287 118.4145916  81.6529472  85.3165670 118.9379326  81.1084202
  86.3114349 119.0559882  83.2261092  86.7012177 119.1196029  84.1556911
  86.8654543 119.3110045  82.4210452  82.8041099 113.0527843  85.5742758
  83.9433512 112.6324796  85.6359037  81.8529264 112.3613527  84.9652098
  80.9387104 112.7905236  84.9762012  82.0066421 111.0313081  84.2863065
  83.0568139 110.8145124  84.0907613  81.4256890 109.9054263  85.2515389
  80.3929112 110.1048902  85.5373421  81.4621614 109.0190105  84.6182642
  82.2627829 109.6696702  86.5039522  82.0644016 110.4047048  87.7223404
  81.4342104 111.2936749  87.7486209  82.7224965 109.9430863  88.9356320
  82.3917186 110.3129784  89.9061307  83.6728541 108.9099931  88.8639812
  84.4778110 108.7528175  89.9284201  84.3004141 109.3843383  90.6293562
  83.8294120 108.2286303  87.6637902  84.5086169 107.3764697  87.6883585
  83.1702754 108.5781219  86.4526133  83.3717176 108.0160461  85.5406966
  81.2597275 110.9519982  82.9301286  80.0036878 111.1309062  82.9475940
  81.9318652 110.7648808  81.8024358  82.9259554 110.9425228  81.7843444
  81.2916069 110.3582895  80.5853167  80.5111638 111.0804212  80.3454550
  82.2536887 110.2731818  79.4089578  83.0450555 109.6852819  79.8739431
  81.8590071 109.7336412  78.5480151  82.8156887 111.6079410  78.9549269
  82.7737510 112.3082188  79.7891650  84.2790477 111.4581449  78.4816971
  84.3217303 110.7583229  77.6471157  84.6590173 112.4282935  78.1614853
  84.8900979 111.0820028  79.3022062  81.7963070 112.2153267  77.9625013
  80.8379411 112.3520605  78.4634386  82.1621453 113.1795995  77.6097386
  81.6695301 111.5429080  77.1140441  80.6677738 109.0145923  80.8990878
  81.2686852 108.1173730  81.4772236  79.5446765 108.7705025  80.2819627
  79.0513516 109.5821493  79.9385107  78.9394916 107.4221083  80.0503806
  79.5952529 106.6192168  80.3871915  77.6019905 107.3813750  80.9116817
  76.9906615 108.0695444  80.3279019  77.2022954 106.3716913  80.8174330
  77.5810814 107.7938557  82.3513405  77.8807898 108.8384406  82.4357089
  76.1687072 107.6233137  82.9071359  75.8684579 106.5788239  82.8235284
  76.1513890 107.9230419  83.9549736  75.4768922 108.2461940  82.3401151
  78.5795431 107.0636725  83.1315820  79.5728161 107.2637240  82.7297267
  78.5368414 107.3876700  84.1714393  78.3741896 105.9946396  83.0759246
  78.6109013 107.1698432  78.5447057  78.1792996 108.1296578  77.8568563
  78.5775233 105.8809595  78.1870542  78.4981689 105.2041203  78.9325010
  78.6483264 105.3824311  76.7850968  78.4936266 106.2168185  76.1010173
  79.6322398 104.9473004  76.6099539  77.5625606 104.3018695  76.5188069
  77.3296588 103.3889256  77.3174177  76.9060169 104.3543180  75.3583120
  77.2863780 104.9862704  74.6683403  75.5781370 103.7171041  75.0825541
  75.3662537 102.9907751  75.8671884  74.3585182 104.8105193  75.0379783
  74.2855132 105.3164793  76.0006694  74.7711564 105.4963201  74.2980412
  72.9235944 104.3443081  74.5794483  71.9774333 105.1220261  74.9069036
  72.6667914 103.3739567  73.8351141  75.6056084 102.7785390  73.8384922
  76.1402331 103.2087275  72.7866257  74.9316290 101.6451296  73.8778378
  74.5554493 101.3853373  74.7784466  74.8552234 100.6453220  72.7585475
  75.8486729 100.2814705  72.4963079  73.9993620  99.4484403  73.2284917
  74.4195871  99.1242933  74.1805625  72.9924707  99.8339009  73.3887731
  73.9427769  98.2529552  72.2590762  73.2674123  97.5549000  72.7537503
  73.4557193  98.6641174  71.3748689  75.4313715  97.3815751  71.7613997
  74.7881338  96.4168062  70.3906742  74.3925870  97.0873406  69.6277684
  75.5887494  95.8130799  69.9633221  73.9919910  95.7634419  70.7475677
  74.4460352 101.1993996  71.4163731  75.0395728 100.8809067  70.4259993
  73.5557144 102.1662239  71.3830477  73.0804676 102.3707239  72.2504689
  73.1305380 102.9045777  70.1475864  72.8703160 102.2044681  69.3537159
  71.8779287 103.7678231  70.4800908  71.1560443 103.0726525  70.9087165
  72.2075500 104.4678045  71.2478642  71.1791700 104.5917041  69.2573487
  70.2933779 105.1436990  69.5716335  71.9569661 105.2940575  68.9576287
  70.8231122 103.6867945  68.0710509  70.3718356 102.5087477  68.2271697
  70.8332594 104.0434953  66.8686555  74.1817116 103.7474314  69.5023927
  74.1158797 104.2004236  68.2894553  75.2819851 104.0900689  70.2122348
  75.3360706 103.7979103  71.1775417  76.4186927 104.8758249  69.6455063
  77.3577527 104.5750839  70.1100708  76.4833335 104.7275294  68.5675780
  76.1655639 106.4165805  69.9412752  76.0120628 107.1844507  69.0092201
  76.2296895 106.7957304  71.2160396  76.3609023 106.0592809  71.8946593
  76.0351572 108.1506633  71.6997005  76.6499500 108.8127496  71.0899705
  74.5651855 108.6496439  71.6466486  74.5918915 109.6909494  71.9676918
  74.2712173 108.6006536  70.5981818  73.5612856 107.8871470  72.4887534
  73.9167250 106.8573971  72.5258878  73.6088432 108.3235820  73.4864331
  72.0915052 107.9096852  71.9832452  71.6727781 108.9151010  72.0269016
  72.0169598 107.5295412  70.9644062  71.3073869 107.0315927  72.8743265
  71.8293617 106.5042075  73.5595320  70.0237216 106.8766370  72.8228073
  69.3396127 107.6351402  72.0363737  69.8098054 108.3325048  71.4771764
  68.3366747 107.5284570  71.9831418  69.3973868 105.9914142  73.5620381
  69.9218185 105.4055676  74.1959586  68.3938539 105.9001262  73.4935764
  76.6130609 108.2370348  73.1626186  76.7276497 107.2214740  73.9157764
  77.0800114 109.4242239  73.5084338  77.0085470 110.2266105  72.8991983
  77.6564204 109.6231000  74.8887113  77.7838184 108.6630671  75.3889171
  79.0678819 110.3213439  74.7696902  78.9094228 111.2367970  74.1996589
  79.4520516 110.5716028  75.7585705  80.0921361 109.4231436  74.0299008
  79.7725800 109.2603884  73.0005828  81.4578791 110.1397289  74.0366391
  81.7783319 110.3024274  75.0656862  82.1943761 109.5240211  73.5203283
  81.3675016 111.0998860  73.5286719  80.3092943 108.0343736  74.5362419
  79.3707583 107.4815310  74.4960604  81.0524947 107.5330819  73.9161926
  80.6632835 108.0738831  75.5664019  76.7582285 110.5972486  75.6853265
  76.0989507 111.4996906  75.1870162  76.7324976 110.3501190  76.9972632
  77.2112375 109.4919743  77.2307052  76.1802991 111.1178911  78.0497520
  75.6633313 111.9875233  77.6440633  75.1595167 110.2650378  78.8592424
  75.7558399 109.3542584  78.8046651  74.9131500 110.4755766  79.8999522
  73.8849324 109.9768551  78.1736371  72.6700561 110.4014310  78.7405330
  72.7276250 111.0772725  79.5937762  71.3819298 109.9793046  78.2385053
  70.4873631 110.4540747  78.6415494  71.2702306 109.0203199  77.2920902
  70.3194709 108.6064681  76.9561103  72.4669805 108.5603693  76.7378066
  72.3824483 107.8380652  75.9258760  73.7552103 108.9881419  77.1817644
  74.6542316 108.5473111  76.7510339  77.3149531 111.5741677  79.0730301
  78.4415549 111.0484765  79.0184128  77.0269344 112.6394665  79.8899963
  76.1990591 113.1676056  79.6537956  77.8509155 113.0913600  81.0692781
  78.7852497 112.5325863  81.1230450  78.1774615 114.5721596  80.8988749
  78.4677171 114.7491012  79.8632385  77.2863184 115.1554697  81.1306361
  79.2921647 114.9842342  81.8058166  79.3461389 116.0589768  81.6322775
  78.8686822 114.7968669  82.7925578  80.9305231 114.2974057  81.7328959
  81.3081753 114.9115412  80.0818265  81.2485025 115.9998904  80.0759750
  82.3144680 114.6018310  79.7997710  80.5903629 114.5049894  79.3693924
  77.0194553 112.8203117  82.3200745  75.9482556 113.3749869  82.4548949
  77.5353115 111.9465462  83.1929178  78.2773974 111.3146794  82.9280554
  76.9941986 111.8565757  84.5681582  75.9201492 112.0421199  84.5586437
  77.2505031 110.4249309  85.1569512  76.8775361 109.6941327  84.4393658
  78.3128721 110.2535402  85.3304373  76.4726888 110.2758734  86.5034313
  76.7911168 111.1014888  87.1398774  74.9557639 110.2876255  86.3788128
  74.6365275 109.4619584  85.7428404  74.5086589 110.1784066  87.3668762
  74.6342517 111.2309399  85.9373513  77.0760280 108.9272213  86.9343885
  78.1568796 109.0272612  87.0336430  76.6499753 108.6273504  87.8918109
  76.8491464 108.1705250  86.1833662  77.7149396 112.9637094  85.3452512
  78.8307103 113.1934417  85.2069445  77.0631409 113.6124023  86.3363889
  76.1670175 113.2373084  86.6127343  77.5670928 114.7756804  87.0385131
  78.6358501 114.8985436  86.8631226  76.8517074 115.9964276  86.5241776
  75.8496903 115.9233397  86.9469295  77.3714865 116.8457528  86.9675468
  76.7518931 116.1953125  84.9936182  76.6927518 115.1872528  84.5832296
  75.5986073 117.0377318  84.4443346  75.6573504 118.0461306  84.8539441
  75.6666663 117.0830981  83.3574075  74.6491103 116.5849048  84.7298231
  78.0208836 116.8526249  84.5814357  78.8635515 116.2116907  84.8406916
  78.0105925 117.0204946  83.5044886  78.1197889 117.8080750  85.0966365
  77.3343860 114.7287907  88.5129642  76.2764182 114.3395146  88.9340881
  78.2619558 115.1948196  89.3029998  79.1690602 115.3442725  88.8847597
  78.1307598 115.3453226  90.7905906  77.0911471 115.2296740  91.0970708
  78.9752530 114.2485799  91.4826003  79.9547860 114.2882754  91.0061145
  79.0546182 114.6146485  92.5062189  78.4727124 112.8024609  91.4956691
  77.3990771 112.7956265  91.6837157  78.7583932 112.1400927  90.1433615
  79.8319446 112.1461371  89.9548154  78.3985308 111.1113266  90.1588554
  78.2481629 112.6910846  89.3533150  79.2270382 111.9958651  92.5793950
  79.0523027 112.4468952  93.5561952  78.8659139 110.9674385  92.5848001
  80.2950489 112.0042367  92.3617210  78.4181443 116.7882142  91.2664763
  79.4955729 117.3369083  90.9618349  77.4768899 117.4257431  91.8980647
  76.5910652 116.9636447  92.0459801  77.6322377 118.8284338  92.3814475
  78.4957098 119.2655758  91.8800274  76.4102798 119.7155339  92.1156014
  76.2190308 119.5992199  91.0488333  75.6065136 119.2448422  92.6817368
  76.4755370 121.2400962  92.4709452  75.4470125 121.5666534  92.6245635
  77.0467973 121.3979852  93.3857304  77.1175211 122.0678617  91.3050766
  76.7786158 123.2251454  91.1360599  77.8935327 121.4651552  90.6046318
  77.9214726 118.9312395  93.8996943  77.0396652 118.6910542  94.7495435
  79.0716630 119.5389238  94.3002137  79.7861069 119.6576899  93.5962508
  79.4110035 119.8249358  95.6763835  79.0664581 118.9940839  96.2920723
  80.9386694 120.0219616  95.9153455  81.0511790 120.1863221  96.9869921
  81.4047835 119.0751539  95.6425950  81.5869773 121.1144799  95.1828774
  81.6580783 120.8410258  94.1301341  80.9819899 122.0155598  95.2836119
  83.0430175 121.3873260  95.7584803  82.9498603 121.5494254  96.8323259
  83.6435737 120.4960106  95.5768529  83.7474803 122.6438029  95.0934749
  84.8102266 122.5941346  95.3305483  83.6125739 122.5690517  94.0144421
  83.1842538 123.9571688  95.5809788  83.3095481 124.0268226  96.5807535
  83.6668934 124.7195897  95.1272461  82.1995900 124.0035755  95.3610184
  78.5049219 120.9903099  96.2395365  78.2018444 121.9712977  95.5275584
  78.2698101 120.8366164  97.5588419  78.2710926 119.8833492  97.8925774
  77.7599191 121.9234571  98.4875473  77.8742847 122.8707142  97.9605524
  76.3606052 121.7960794  98.9281895  75.8784626 121.6747432  97.9581816
  76.4183174 120.8292199  99.4281414  75.5283313 122.7839241  99.8020590
  74.4801338 122.4853733  99.7862376  75.9308274 122.6422504 100.8050668
  75.6458220 124.2775841  99.4047737  74.6677770 125.0192479  99.5365187
  76.7312918 124.7684062  99.0161313  78.8065490 122.1265444  99.6020832
  79.3524118 121.1190826 100.0962830  79.1943292 123.3450847  99.9482915
  78.8725496 124.1286897  99.3982729  80.1325610 123.6018279 101.0346155
  80.6474904 122.6718742 101.2757235  81.1755628 124.6599483 100.6824585
  80.6810415 125.4604022 100.1321662  81.5880315 125.0580615 101.6095375
  82.2941822 124.0839288  99.8388435  82.8781323 123.4180566 100.4742310
  81.7733302 123.4982525  99.0813504  83.2304991 125.0882229  99.1540018
  83.3000447 126.2827980  99.5703629  83.9347855 124.6309900  98.2137073
  79.3404184 124.0115641 102.3398968  78.7736982 125.1021528 102.4221611
  79.2817413 123.1087107 103.3422793  79.7043954 122.2243869 103.0984877
  78.5238256 123.1985780 104.6119740  77.4755150 123.3290305 104.3434108
  78.6372783 122.0354703 105.5376619  79.6815818 121.7872566 105.7271863
  78.1351538 122.2384171 106.4835919  77.9385132 120.8350540 104.8250701
  76.9286084 121.1425954 104.5537558  78.5361294 120.7144848 103.9215105
  77.8621006 119.4817882 105.5471185  78.5669254 119.1845581 106.4573098
  76.9077893 118.6824892 105.1470186  76.7987432 117.7757105 105.5782527
  76.2841441 118.9755916 104.4086020  78.8409349 124.5862853 105.2771746
  79.8869612 125.2094808 105.0263891  78.0703134 124.9473838 106.2839811
  77.1413528 124.5566055 106.3504933  78.4319804 126.0231151 107.1920120
  78.3917805 126.9706376 106.6547186  77.4861299 126.1018009 108.3947774
  76.5846490 125.5749397 108.0819697  77.9819689 125.5358036 109.1833780
  77.1049367 127.5041775 108.9282158  78.0467315 128.0006798 109.1619014
  76.6203417 128.0177151 108.0978249  76.0092754 127.5669939 110.3979509
  76.0328155 129.3746337 110.5992046  75.6373328 129.8460802 109.6995209
  75.4181480 129.6534778 111.4550845  77.0570948 129.7091004 110.7637801
  79.8817973 126.0843608 107.6562079  80.4927722 127.1713368 107.5142155
  80.5146213 125.0532216 108.0793435  79.9302364 124.2377735 108.1961253
  81.9268851 124.9644513 108.4877634  82.2777905 125.9165216 108.8859175
  82.0401496 123.9115108 109.5768408  83.0676197 123.9861382 109.9329801
  81.3601779 124.2561131 110.3559350  81.7282583 122.4715975 109.2368652
  81.0961806 122.2375437 108.2039902  82.1120870 121.4952729 109.9918723
  82.9811595 124.6845524 107.3746335  84.1290888 124.3250086 107.7005976
  82.5835608 124.7004830 106.0657071  81.6220054 124.8882545 105.8202436
  83.5537722 124.4422867 104.9685896  83.2751832 125.0524744 104.1094282
  84.5478785 124.7299182 105.3108179  83.5777846 123.0032939 104.5568031
  84.3548969 122.6240184 103.6968893  82.8545998 122.0842204 105.2187280
  82.2298366 122.4356624 105.9302466  82.8600210 120.6271627 104.9455345
  83.8901232 120.2780130 104.8742374  82.1445877 119.8423560 106.0940611
  81.0683802 120.0149457 106.0845428  82.4245937 118.3729303 105.8176745
  83.5006575 118.1994661 105.8274943  81.9515135 117.7615739 106.5861389
  82.0225342 118.1033417 104.8410626  82.6417764 120.1968584 107.3548706
  82.1809162 119.6970622 108.0326699  82.0688168 120.3401367 103.6750913
  80.8843016 120.7862911 103.4665243  82.6583251 119.5311903 102.7541230
  83.5413407 119.1260809 103.0302917  82.1333902 119.2192593 101.4008646
  81.8274040 120.2081946 101.0595748  83.2351142 118.6605656 100.4102211
  83.6583923 117.7456193 100.8247187  82.6144868 118.3622450  99.0500563
  82.1913773 119.2768767  98.6346911  83.3809398 117.9786087  98.3766519
  81.8267788 117.6176553  99.1649651  84.2028947 119.7844948 100.0848213
  84.6724740 120.1375412 101.0029475  84.9700049 119.4180312  99.4026587
  83.6618998 120.6058599  99.6149439  81.0198610 118.1714615 101.5690534
  81.2170556 117.1382687 102.1713755  79.8439568 118.3814989 101.0024646
  79.6940974 119.2895875 100.5865118  78.8187400 117.4219884 100.8979754
  79.1410850 116.4173995 101.1718257  77.6430223 117.8791622 101.9055492
  78.1422642 118.1711530 102.8294534  76.7444883 119.0072600 101.4388447
  76.2445135 118.7158055 100.5151677  75.9979393 119.2183009 102.2044984
  77.3439836 119.9000108 101.2607946  76.8344333 116.7844891 102.1776280
  76.1316232 117.0468295 102.7766570  78.2813107 117.4439186  99.4401147
  78.6085926 118.3209615  98.6456896  77.3918667 116.4835936  99.0779609
  77.1942577 115.7877464  99.7828344  76.8025968 116.2954624  97.7025971
  77.3581325 116.8969195  96.9830634  76.8704742 114.8444122  97.2750788
  77.9098894 114.5169525  97.2971102  76.3105262 114.3271384  98.0541720
  76.2458397 114.5103270  95.8717186  75.1664504 114.6259277  95.9699846
  76.7485714 115.3859802  94.7287531  77.8278940 115.2705517  94.6295670
  76.2645826 115.0848553  93.7996786  76.5130594 116.4292676  94.9389573
  76.6294924 113.1225679  95.4411699  76.2640329 112.4008709  96.1717124
  76.1882580 112.9085854  94.4677096  77.7148485 113.0502624  95.3713637
  75.4078178 116.8457198  97.5463815  74.4529797 116.3715898  98.1458004
  75.2396336 117.9631654  96.7999349  76.0828801 118.2801987  96.3432900
  74.0026102 118.7195120  96.5786933  73.5073348 118.8869807  97.5351219
  74.2915931 120.1227525  95.9062775  75.2364084 120.5227633  96.2742647
  74.3419505 120.0116018  94.8231295  73.1441708 121.0930031  96.2717605
  72.3137428 120.8269756  95.6177577  72.8811046 120.8626902  97.3041626
  73.4345063 122.5810433  96.1425686  72.5128354 123.0723855  96.4543450
  74.2161880 122.7766998  96.8765929  73.8482590 123.1026652  94.8387598
  74.9062102 122.8791977  94.7012754  73.2673118 122.5962201  94.0679726
  73.6357651 124.5626776  94.7362896  74.1743351 125.0321790  95.4501598
  73.9324115 124.8829430  93.8255037  72.6554415 124.7699223  94.8632316
  73.1401165 117.9120790  95.6525645  72.0017725 117.6566195  95.9217550
  73.6262616 117.4080695  94.5244501  74.6322286 117.3586101  94.4490606
  72.8326673 116.9151426  93.4244773  71.9799734 116.3274541  93.7645280
  72.2936487 118.2017220  92.6738392  72.1960784 118.9503364  93.4600681
  73.0978731 118.4894504  91.9966867  70.9829858 118.1072780  91.8958997
  70.6942935 119.0711280  91.1538323  70.2957447 117.0940826  92.0579145
  73.6308503 116.0252344  92.3689204  74.7357000 116.3956658  92.0380404
  72.9775605 114.9746629  91.8941932  72.0266966 114.8598325  92.2147727
  73.5036071 114.0144157  90.9812697  74.5687294 114.1869946  90.8268992
  73.3096764 112.5772798  91.5569477  73.9988173 112.6084517  92.4008744
  72.2859092 112.5187179  91.9265031  73.6036858 111.3830118  90.7212184
  73.1348173 111.4760869  89.7416266  75.1214492 111.3076577  90.5542395
  75.5910234 111.2140985  91.5334461  75.3778559 110.4412113  89.9446272
  75.4791541 112.2138615  90.0654222  73.0003947 110.0978104  91.3184138
  71.9179898 110.2036623  91.3911760  73.2397026 109.2507096  90.6755660
  73.4159463 109.9282533  92.3117245  72.7062856 114.2092211  89.6923297
  71.4677053 114.1764807  89.8387569  73.2678405 114.4925100  88.4993807
  74.2757197 114.5506869  88.5292855  72.5682526 114.8199689  87.1971309
  71.5155701 114.5452003  87.2639213  72.6649942 116.3223460  86.8990549
  73.7157293 116.6046366  86.8329712  72.1734601 116.5284162  85.9482503
  71.9793861 117.1421605  88.0235956  70.9253124 116.8680351  88.0670107
  72.4558396 116.9033269  88.9744124  72.1074796 118.6724249  87.7480218
  71.9854972 118.8655088  86.6822179  71.3408553 119.2116136  88.3044946
  73.4453411 119.1708391  88.1733123  73.9471380 118.5749577  88.8161378
  74.0601906 120.2971320  87.7161545  73.3976208 121.1727951  87.0929680
  72.4096247 121.0359251  86.9341275  73.8588081 122.0059029  86.7563119
  75.2566959 120.5772461  87.9321593  75.8290668 119.9481199  88.4768535
  75.6470253 121.4317505  87.5612632  73.0910504 113.9872902  86.0205585
  74.2552538 113.5748885  86.0936072  72.3387435 113.7021385  84.9835687
  71.3422480 113.8379962  85.0765136  72.8537099 113.0700151  83.7315625
  73.9309365 113.1993589  83.6269095  72.5312724 111.5296724  83.7468118
  73.0097694 111.0850552  84.6194259  70.9961062 111.2685201  83.8071298
  70.5169440 111.7124761  82.9345430  70.8097982 110.1945991  83.8162621
  70.5862890 111.7155670  84.7128343  73.0965062 110.8106021  82.5242577
  74.1797561 110.9294327  82.5007870  72.8489025 109.7505044  82.5788930
  72.6649566 111.2377969  81.6190668  72.3102504 113.8056210  82.4595288
  71.1319155 114.0836834  82.2641107  73.2332864 113.9633803  81.4932486
  74.1872234 113.6479076  81.5961101  72.8867236 114.7548094  80.3084126
  71.7998485 114.8106836  80.2477519  73.4497447 116.1779550  80.3194966
  74.5269251 116.1009605  80.1716676  73.0049887 116.7084712  79.4775674
  73.1767851 116.9168826  81.5647536  73.5506119 116.3918660  82.4437939
  73.7300466 117.8470435  81.4351331  71.6798933 117.2318486  81.7528634
  71.1793653 117.4903155  82.8564233  70.9433715 117.3310614  80.7348135
  73.2473402 114.0634127  78.9784204  74.0915786 113.1666709  79.0103842
  72.5653295 114.3420474  77.7990251  71.7247215 114.8988609  77.8576458
  72.8902868 113.6839234  76.4962790  73.5607876 112.8437725  76.6770393
  71.6313759 113.1634921  75.7931827  71.3331725 112.3201213  76.4159986
  70.8763488 113.9469942  75.8576696  71.7661476 112.6964650  74.3220755
  72.2061026 113.5133406  73.7500138  72.6635609 111.4097620  74.1749395
  72.2239661 110.5922687  74.7463936  72.7239538 111.1264929  73.1241245
  73.6644657 111.6191331  74.5523697  70.4331718 112.4313233  73.7096245
  69.8361093 113.3430517  73.7287880  70.5651209 112.1056613  72.6778130
  69.9222339 111.6511115  74.2738150  73.7994934 114.6196486  75.6673701
  73.4338539 115.7587671  75.4219053  74.9415023 114.1352592  75.1673376
  75.2252622 113.1944680  75.4007716  75.8405261 114.9497440  74.3100904
  75.7368658 116.0231560  74.4686476  77.2743504 114.5063905  74.7885668
  77.5569759 113.6149233  74.2286486  77.8978917 115.3440060  74.4760027
  77.4761521 114.2496053  76.3054466  76.7123613 113.5291038  76.5980248
  78.8548525 113.7243752  76.7120442  79.6191766 114.4446023  76.4201876
  78.8854073 113.5805187  77.7920777  79.0433509 112.7733765  76.2138773
  77.3491027 115.5963727  76.9866434  76.3611411 116.0122966  76.7890614
  77.4831465 115.4745471  78.0614885  78.1114561 116.2728832  76.6003149
  75.7990466 114.8898925  72.7669798  75.8222294 115.9003204  72.1088674
  75.5974275 113.7058767  72.2046903  75.5703953 112.8809880  72.7868649
  75.4117633 113.5443772  70.7700208  74.3548412 113.6828736  70.5423509
  75.9962186 114.3097199  70.2593721  75.8479098 112.1794184  70.2762063
  76.4417177 111.3915531  71.0813910  75.6910211 111.8384899  69.0208360
  75.2273272 112.5337699  68.4536737  76.0762947 110.5353185  68.3776084
  75.7159820 109.7004801  68.9787064  75.4736856 110.4407338  67.0255063
  75.6535984 109.3922716  66.7878983  74.4179327 110.5847044  67.2551980
  75.8553305 111.3045858  65.8303423  75.5716618 112.3216351  66.1009777
  76.9379684 111.2477765  65.7173515  75.1719510 110.9156795  64.4850912
  74.4973671 109.8665804  64.3588427  75.3253220 111.6874949  63.4627315
  77.6025973 110.2859222  68.2423533  78.3730378 111.2263869  67.9127465
  78.0426821 109.0316805  68.4982829  77.3481695 108.4090462  68.8856824
  79.4433917 108.4813788  68.2370422  80.0434697 108.9263852  67.4433326
  80.2586008 108.5601208  69.5924944  81.2030769 108.0821744  69.3324322
  80.5397306 109.8972747  70.3121267  79.5956606 110.3756167  70.5729339
  81.1136490 109.7085635  71.2193780  81.1085898 110.5527750  69.6527186
  79.7194229 107.6308855  70.5278771  80.2144424 107.6796525  71.3489604
  79.3464423 107.0039523  67.7905127  78.2680915 106.5465254  67.5345745
  80.4372154 106.2791346  67.7085831  81.2876587 106.8228165  67.7440177
  80.5456588 104.8351022  67.5090629  79.8691385 104.5635775  66.6986965
  81.9660806 104.3295494  67.1580114  82.3469889 105.0072269  66.3939686
  82.5578801 104.4380784  68.0669090  82.0574581 102.9843923  66.6888592
  82.9747966 102.7725899  66.5011641  80.0639924 104.0110198  68.7103954
  79.8322238 104.5287242  69.8505926  79.7889110 102.7245730  68.4541519
  79.8517039 102.3932720  67.5021036  79.2731368 101.7979692  69.4871633
  78.5062202 102.3095660  70.0687187  78.6698942 100.5688656  68.8227532
  79.4042398 100.0732755  68.1877513  78.2398039  99.6117232  69.9551007
  77.5050665 100.1064825  70.5902975  77.7997899  98.7125038  69.5239476
  79.1104562  99.3394307  70.5516914  77.4066699 100.8618485  67.9315089
  76.6057142 101.1361380  68.6180481  77.6631436 101.7208632  67.3114973
  76.9338675  99.6933106  67.0258975  76.6767576  98.8340291  67.6452759
  76.0581593 100.0053708  66.4568168  77.7341884  99.4187527  66.3387263
  80.3488788 101.4528555  70.5114931  81.2946136 100.7020333  70.2248476
  80.3082632 101.9498652  71.7749716  79.4424272 102.3222633  72.1379412
  81.4902793 102.0466003  72.5939931  82.3896383 102.2510299  72.0130792
  81.2327846 103.2590504  73.5667373  80.3403975 103.0649643  74.1617801
  82.0901003 103.3831632  74.2283308  81.0894688 104.1689801  72.9839957
  81.7576304 100.6953830  73.3050742  81.0923911 100.2978624  74.2552174
  82.7406773  99.9055314  72.8342969  83.0285401 100.1175823  71.8896971
  83.4247849  98.8031354  73.5452405  82.6856808  98.0602832  73.8452321
  84.4561851  98.1330832  72.6834413  84.0513541  98.0718257  71.6732638
  85.3439131  98.7655641  72.6808117  84.8281137  96.7408368  73.1649224
  85.6780257  96.3870680  72.5813146  85.1350969  96.8880171  74.2003926
  83.6936969  95.6940163  73.1084053  83.7019833  94.7728530  73.9697430
  82.7302718  95.7584298  72.2632858  84.1576868  99.3135519  74.7969352
  84.3523153  98.5922031  75.7914827  84.5471581 100.5743467  74.6601520
  84.3927930 101.0053121  73.7598523  85.3800547 101.2683462  75.6194903
  84.8753565 101.3548761  76.5817228  86.6757407 100.4535934  75.8138728
  87.4221535 101.0416247  76.3479012  86.4728282  99.5364478  76.3668379
  87.4485763  99.9468174  74.2764589  88.4712640  99.3088711  74.8386266
  85.5114466 102.7576490  75.2964058  85.0123646 103.2119867  74.2799692
  85.9864640 103.5189213  76.2951244  86.5183545 103.1071797  77.0485570
  85.7907222 104.9548916  76.2970111  85.9411118 105.4026715  75.3146795
  84.3242815 105.1362461  76.6980497  83.7578981 104.7621796  75.8451819
  84.2238192 104.4424876  77.5327391  83.8008539 106.4629425  77.0938948
  84.3991208 106.8716218  77.9082404  83.8794769 107.3837497  75.9013523
  83.2810399 106.9759397  75.0866971  83.4973852 108.3671739  76.1751835
  84.9168898 107.4743353  75.5793755  82.3647394 106.4919249  77.5330394
  82.2357990 105.8422923  78.3987479  82.0863383 107.5114475  77.7998124
  81.7284367 106.1430963  76.7196905  86.7192830 105.5339893  77.3481204
  86.9807891 104.9261553  78.3907797  87.4096615 106.6007167  76.9930034
  87.2435082 106.9073860  76.0451393  88.4257656 107.3726612  77.8377046
  88.1958628 107.5083639  78.8945058  89.7781666 106.7239658  77.7193168
  89.6194310 105.7348991  78.1490263  90.4947695 106.5824312  76.3378602
  90.6542743 107.5711857  75.9077179  91.4560157 106.0873308  76.4756300
  89.8745718 105.9899145  75.6652686  90.5845375 107.3107355  78.6143499
  91.4587916 106.9174072  78.5636242  88.5138380 108.8433682  77.3934648
  88.4064910 109.0930329  76.2028741  88.7084135 109.7739176  78.3318210
  88.8469341 109.3948501  79.2576823  88.8386243 111.1999725  78.1496489
  88.3276787 111.5115437  77.2386291  88.2007439 111.9395888  79.3528556
  87.1246877 111.7685895  79.3218449  88.5998557 111.5695010  80.2972309
  88.4850747 113.4538915  79.2319237  89.2764796 114.1985036  80.1590159
  89.6156855 113.7102338  81.0725976  89.6122842 115.5121682  79.9145171
  90.2410953 116.0612021  80.6154166  89.1129618 116.1587234  78.7498328
  89.4747222 117.4449345  78.4560429  90.0732292 117.8235940  79.1041216
  88.2821379 115.4992844  77.8937383  87.9021303 115.9853049  76.9951400
  87.9174501 114.1767436  78.1829918  87.1630313 113.6745503  77.5773894
  90.3320262 111.4744753  78.2011456  91.0871884 111.0469100  79.1275812
  90.8672995 112.2764035  77.2583716  90.2771908 112.4530273  76.4579497
  92.2660119 112.7263141  77.2059692  92.8315936 112.1231281  77.9161686
  92.9479481 112.6115153  75.7945723  92.1586591 112.9650135  75.1311258
  93.8418861 113.2183178  75.6504700  93.2706889 111.1325943  75.4698784
  93.7603462 110.6829941  76.3337049  91.9518531 110.3264574  75.1329383
  91.4618504 110.7752185  74.2688725  92.2059534 109.2905218  74.9085028
  91.2777804 110.3574120  75.9889571  94.3905679 111.0960876  74.3804619
  95.2821585 111.5965174  74.7582656  94.6303404 110.0604029  74.1396973
  94.0414022 111.6058443  73.4825029  92.3377665 114.1137252  77.8570651
  92.0750091 114.2623794  79.0678506  92.5968955 115.1315216  77.0868811
  92.7620367 114.9757894  76.1027189  92.6030823 116.5232454  77.5872546
  92.0571908 116.6647132  78.5200399  94.1076575 116.7389054  77.8585367
  94.4738580 115.9566183  78.5233851  94.6433326 116.6895031  76.9105327
  94.3403473 118.1109914  78.5064662  93.3250702 118.6631669  79.1368563
  95.4336412 118.7236912  78.4776482  92.0919922 117.4668971  76.4633531
  92.0435146 117.0319101  75.3117568  91.7295405 118.7302152  76.7638098
  91.7656729 118.9246581  77.7542571  91.2961617 119.8121125  75.8517671
  90.9257246 120.6563208  76.4333062  92.4706520 120.2927816  74.9799805
  92.7052187 119.4847049  74.2870954  92.1189970 121.1597115  74.4206314
  93.7442878 120.6788617  75.7284523  93.7797334 121.6300894  76.5201281
  94.8351114 119.9984952  75.5407017  95.6775271 120.2539642  76.0358493
  94.8355410 119.2173269  74.9004856  90.1488007 119.1641336  74.9787612
  90.1460791 119.3269645  73.7463682  89.1449872 118.5175711  75.5439686
  89.3329774 118.3492007  76.5219310  87.8551184 118.0316459  74.9788720
  87.1586490 117.9033238  75.8074630  87.4789272 118.8009600  74.3045312
  87.9702965 116.6837042  74.1983491  87.0232760 116.0861921  73.8083420
  89.1705874 116.1663032  74.1159795  89.9205801 116.6485289  74.5903935
  89.5111594 115.0589218  73.2328832  88.8160234 114.9847120  72.3965950
  90.9127125 115.1888920  72.6853847  91.6008672 115.3256324  73.5195576
  91.3185911 113.9327467  71.8843757  90.6311208 113.7956027  71.0497038
  92.3322197 114.0561763  71.5030325  91.2793533 113.0584690  72.5341453
  91.1230891 116.4088573  71.8058573  90.9183850 117.3117934  72.3811005
  92.1541478 116.4294984  71.4528819  90.4479472 116.3621788  70.9513952
  89.1619748 113.8265453  74.0300195  89.5938124 113.6852592  75.1729349
  88.4123596 112.9322511  73.3578820  88.1834175 113.1817292  72.4063330
  87.9176846 111.6432818  73.8820957  88.4296572 111.2869075  74.7759529
  86.3915530 111.7523995  74.1914509  85.9122409 112.2067171  73.3242977
  85.7109481 110.3518628  74.4984233  86.1894559 109.8971150  75.3657962
  84.6509622 110.4998960  74.7048612  85.8243383 109.6953492  73.6357333
  86.1662831 112.7421983  75.3133292  86.5447614 113.7204620  75.0169234
  85.0996415 112.8149446  75.5256577  86.6919255 112.4052953  76.2068040
  88.1919055 110.6472431  72.7528097  87.9619763 110.8294124  71.5245097
  88.5328081 109.4727980  73.1562907  88.8150950 109.3901011  74.1225074
  88.5790103 108.2455610  72.2941487  88.5084825 108.5430864  71.2479156
  89.8898184 107.4448483  72.4937462  90.6642220 108.1885869  72.3059935
  89.9998560 107.0538938  73.5052532  90.1562036 106.3070576  71.5647849
  90.4166684 106.5512822  70.2097257  90.4917997 107.5921180  69.8948987
  90.5780320 105.5286831  69.2782421  90.7571228 105.7385289  68.2237318
  90.5050129 104.1997849  69.7273423  90.6583665 103.3728055  69.0340260
  90.2381445 103.9460693  71.0507801  90.2030702 102.8987775  71.3508634
  90.0158952 104.9568771  72.0009158  89.7480088 104.6936523  73.0241702
  87.4290738 107.3075747  72.5384226  87.0752002 106.9535913  73.6895656
  86.7461822 106.8349473  71.4892518  87.0520055 107.0934800  70.5620343
  85.5676497 105.9111230  71.6191636  85.4168884 105.6395177  72.6639606
  84.2347915 106.4789279  71.0562910  84.3016671 106.4432374  69.9689304
  82.9538181 105.6892130  71.5302472  82.8860072 105.7248549  72.6175522
  82.0639960 106.1450931  71.0960923  83.0252014 104.6513183  71.2050076
  83.9790404 107.9719339  71.3810272  84.7816844 108.5782704  70.9612407
  83.0271795 108.2804458  70.9487300  83.9480572 108.1090641  72.4619232
  85.7816020 104.6103813  70.8468156  85.4900030 104.3799902  69.6689413
  86.5365532 103.7437432  71.5003537  86.8813890 104.0586972  72.3958935
  86.9051876 102.4020613  71.0479797  87.5002450 102.5183033  70.1421686
  87.5184249 101.9542281  71.8299546  85.7354718 101.4872734  70.7548482
  84.7046909 101.5280136  71.4122871  85.8284238 100.6970169  69.7129937
  86.7117214 100.7313698  69.2244197  84.7095710  99.9397383  69.0935759
  84.0161027  99.6362489  69.8778559  83.9586181 100.7474889  68.0755789
  83.8498892 101.7815742  68.4026031  84.4639480 100.7235201  67.1100909
  82.6841103 100.1570714  67.9533902  82.1662252 100.6443588  67.3084515
  85.1093928  98.5468565  68.5681888  86.1411288  98.3816133  67.9258201
  84.2191233  97.5963950  68.7820584  83.4721776  97.7889046  69.4340641
  84.2654624  96.2508547  68.1356229  85.1989968  96.0927856  67.5955978
  84.1758194  95.2238133  69.2699086  85.0062616  95.4299128  69.9451774
  83.2338589  95.4089936  69.7861630  84.2337763  93.7463228  68.8182760
  83.4479716  93.6283888  68.0721504  85.2065666  93.6140649  68.3446845
  84.0565226  92.7059993  69.9073738  83.6658903  91.8119023  69.4214767
  85.0508147  92.4988597  70.3030703  83.1690670  93.0607058  71.0251125
  82.9410952  94.0432617  71.0771905  82.4921931  92.2091567  71.7951150
  82.6585299  90.9367585  71.6732095  83.3081318  90.5788701  70.9876198
  82.1384717  90.3036900  72.2638561  81.8514983  92.6715213  72.8236748
  81.8736434  93.6608670  73.0256766  81.3334515  92.0400506  73.4177884
  83.1619663  96.0687079  67.1746666  83.4039533  95.3779827  66.2110179
  82.0035111  96.6885254  67.3493490  81.8396923  97.2274590  68.1876885
  80.8946745  96.5559045  66.3692964  80.9912197  95.6171078  65.8239167
  79.5236747  96.5654696  67.1033462  79.5225131  97.4262745  67.7720111
  78.8178330  96.7364763  66.2905459  79.1139753  95.3235707  67.8764765
  78.6871089  94.6346122  67.1476267  80.2460779  94.6175824  68.6487351
  80.6731555  95.3058170  69.3781434  79.8454723  93.7449034  69.1645329
  81.0212193  94.3021351  67.9503447  78.0943312  95.6691567  68.9878924
  77.2035956  96.1099298  68.5402221  77.8192967  94.7611223  69.5244843
  78.5408198  96.3802030  69.6829894  80.8939661  97.6687809  65.2498083
  79.9973196  97.6131120  64.3782534  81.8877459  98.5827137  65.2577140
  82.4484897  98.6632493  66.0938837  82.1949202  99.4534988  64.1357625
  81.8748745  98.9137234  63.2445204  81.5720766 100.3382975  64.2672789
  83.6216443  99.8825153  63.9605928  84.5009181  99.5107711  64.7112750
  83.8069848 100.9093863  63.2200214  83.0908060 101.1436993  62.5475002
  85.0330902 101.7530935  63.2685251  85.9307894 101.1469567  63.1467318
  84.9598051 102.7635673  62.1070928  83.9400436 103.1409724  62.1829283
  85.6622080 103.5832613  62.2581951  85.1776138 102.1527796  60.7126327
  85.2639413 102.9653262  59.7263165  85.1884221 100.9399573  60.4176648
  85.1338269 102.4795597  64.6495204  84.1778706 103.1118363  65.0412395
  86.2839822 102.4876927  65.3574764  87.0452059 101.8859092  65.0773078
  86.4967887 103.4042989  66.5108005  85.6591339 103.2874630  67.1983927
  87.7913813 103.1388779  67.2706318  88.6513648 103.3558259  66.6370221
  87.8357995 103.7575874  68.1669161  87.8104880 101.7568555  67.6437474
  88.6191327 101.5664496  68.1248286  86.6323066 104.9047775  66.0739484
  87.1909682 105.1164254  65.0437206  86.2490305 105.9061858  66.8946584
  85.7733788 105.7022589  67.7619926  86.5023644 107.2707696  66.5671728
  86.9446019 107.3363454  65.5730778  85.1463424 108.1066964  66.5772218
  84.7855799 108.0586178  67.6046643  85.4370597 109.1306101  66.3423088
  84.0169633 107.6544847  65.6103498  84.2431171 107.8721615  64.5665241
  83.8598874 106.5827061  65.7316749  82.7387468 108.3778927  65.9905175
  82.2409602 108.2147431  67.0894923  82.1470130 109.2264975  65.1979583
  81.2970867 109.6833480  65.4963110  82.5411248 109.4233330  64.2890947
  87.4465262 107.8569357  67.5789420  87.5301105 107.3649150  68.6851713
  88.1874028 108.8840992  67.1152633  88.6053491 108.8663688  66.1959669
  88.5334367 110.0094669  68.0262672  88.4543586 109.7048253  69.0698377
  90.0266078 110.4351878  67.7365160  90.6518806 109.5424152  67.7270212
  89.9628133 110.8441976  66.7281801  90.6248872 111.4497446  68.6460464
  89.8842930 112.2017531  68.9182676  91.0981820 110.7138207  69.9129991
  91.8391862 109.9619147  69.6416157  91.5435861 111.4292022  70.6043350
  90.2473033 110.2286297  70.3912203  91.8425626 112.0380002  68.0032930
  91.5640538 112.5125090  67.0623500  92.2819242 112.7814069  68.6684314
  92.5694095 111.2489300  67.8105220  87.4897207 111.1694854  67.9160852
  87.0380810 111.5141810  66.8091342  87.1036948 111.7284711  69.0846813
  87.5359628 111.4485112  69.9535117  85.9361524 112.7286087  69.1400321
  85.7466864 113.3491727  68.2641885  84.6227711 112.0272224  69.5403420
  83.8115203 112.7465764  69.4285330  84.3326557 110.8026244  68.6931149
  85.1433040 110.0825671  68.8047734  83.3966639 110.3485419  69.0184285
  84.2492631 111.0956695  67.6465625  84.2708540 111.6704910  71.0375972
  84.2422948 112.5836250  71.6321329  83.2972428 111.1819185  71.0760401
  85.0297318 110.9993069  71.4397380  86.2343034 113.8920654  70.0789008
  86.5503227 113.6185507  71.2705063  86.1796219 115.1034361  69.6056780
  85.9228223 115.2555320  68.6407842  86.3508354 116.3058345  70.4973405
  87.0728834 116.0928475  71.2856187  86.8678739 117.4917113  69.6642615
  87.5738900 117.1669862  68.8999356  86.0501579 118.0380621  69.1942175
  87.5906497 118.4145203  70.6751328  86.8775112 118.6181198  71.4739328
  88.4281864 117.8420024  71.0737022  88.0998775 119.7254282  70.1060314
  88.5440551 120.2812136  70.9318086  88.8723049 119.4789516  69.3775366
  87.0220961 120.5816266  69.4364722  87.4942412 121.3448808  68.8179074
  86.3890432 119.9500144  68.8132473  86.2148877 121.2178035  70.4544268
  86.8012283 121.8034529  71.0317647  85.5029104 121.7833936  70.0147721
  85.7769576 120.5107225  71.0274476  84.9898327 116.7967113  71.0197250
  84.1630162 117.2041184  70.1647338  84.8151105 116.7587330  72.3549698
  85.4065337 116.0899733  72.8272814  83.8119436 117.4589034  73.1328180
  82.8056648 117.1411136  72.8598492  84.0602366 117.1011730  74.6585638
  85.0882256 117.4388830  74.7900544  83.3956094 117.7175852  75.2638792
  83.9437401 115.6474588  75.0974826  84.7482106 115.0473216  74.6723199
  84.0505119 115.6405770  76.5703324  83.2460433 116.2401718  76.9962608
  83.9725897 114.6167064  76.9360068  85.0118256 116.0597673  76.8674115
  82.6783410 115.0026918  74.5811148  82.6738553 115.0313573  73.4915013
  82.6346710 113.9666483  74.9169840  81.8124638 115.5443372  74.9618719
  83.7315554 118.9450755  72.8846160  84.6717042 119.5775367  72.4255875
  82.5598480 119.4716508  73.1790534  81.8517808 118.7778380  73.3723511
  82.1550604 120.8656185  73.0984742  82.9703358 121.5278746  73.3897508
  81.7736157 121.1672287  71.6255502  81.3243695 120.2391492  71.2720738
  81.0297831 121.9635358  71.5989440  82.8880861 121.5296313  70.7181174
  83.8173039 122.2359760  71.0535119  82.8508012 121.1337546  69.4799698
  83.6049191 121.3750356  68.8529216  82.0679009 120.5868684  69.1512095
  81.1051174 121.0953585  74.1720524  80.1821738 121.9014921  74.0371826
  81.1363845 120.3431363  75.2697305  81.9523144 119.7626566  75.4016437
  79.9925792 120.2007816  76.2427636  79.0223784 120.0085134  75.7846778
  80.2589098 119.1019053  77.3355343  81.1594421 119.3559710  77.8946331
  79.0306110 119.0315861  78.3218615  78.1297275 118.7770943  77.7635213
  79.2153415 118.2698376  79.0793009  78.8964989 119.9991520  78.8055265
  80.6597634 117.7078146  76.7607461  81.5751233 117.8045022  76.1769054
  80.8248998 117.0097065  77.5814011  79.8596944 117.3339643  76.1218201
  79.5570490 121.5285761  76.9297630  78.3389619 121.7426833  77.0367528
  80.5112452 122.3679792  77.1608669  81.4406536 122.0028863  77.0091883
  80.3780409 123.6599790  77.7879932  79.3457869 123.8148486  78.1019459
  81.2897109 123.7502900  79.0293294  82.2264745 123.4219514  78.5790328
  81.4115720 124.7581309  79.4262005  80.9066158 122.7928931  80.1708628
  79.7744412 122.9293311  80.6257499  81.8032834 122.0970028  80.6707367
  80.5242410 124.8002734  76.7504754  80.6377386 125.9556507  77.1378236
  80.2662415 124.6335755  75.4561397  80.5586230 123.7219565  75.1343272
  79.7292686 125.5538661  74.4956865  80.2953363 126.4842950  74.5400557
  79.8031389 125.0048908  73.0718501  80.8031047 124.6305744  72.8526358
  79.0766118 124.2053400  72.9270165  79.4977716 126.0909878  72.1930251
  79.5336168 125.7863292  71.2833559  78.3062326 126.0117704  74.7344715
  77.4071188 125.1794914  74.9219655  78.1450098 127.3165028  74.5489386
  79.0269481 127.8069134  74.5911476  76.9272742 128.0986081  74.4484383
  76.0938310 127.4778393  74.7772510  76.9504072 129.3866633  75.3018765
  77.4125811 130.2480500  74.8196860  75.8812419 129.5652583  75.4162852
  77.5518467 129.2184422  76.6531179  77.1458700 128.3059253  77.3148677
  78.5832307 129.8644708  77.0941439  78.9253889 129.6866914  78.0276438
  79.0409437 130.5432647  76.5026724  76.4837207 128.4276688  73.0702031
  75.4257995 129.0294757  72.9598617  77.1613618 127.9385008  72.0298727
  77.8572985 127.2253293  72.1946688  76.9270773 128.3995638  70.6019898
  75.8887971 128.6754563  70.4177158  77.8357711 129.6974681  70.4362974
  77.5005437 130.1353883  69.4961125  77.5323720 130.3387721  71.2638106
  79.3828561 129.5668946  70.4234646  79.7815146 129.3506498  71.4146308
  79.6228361 128.7452046  69.7486799  79.9931180 130.8317673  69.9056554
  80.8732537 130.7095457  68.9960780  79.5975510 131.9721635  70.3180209
  77.3019760 127.4082768  69.5127460  76.8921329 127.5782675  68.3530293
  77.9501639 126.2972042  69.7383655  78.4383537 126.2200992  70.6191746
  77.9838030 125.1669077  68.8334482  78.2521899 125.4890738  67.8273286
  79.0155040 124.1896487  69.3151939  78.9191993 124.0758145  70.3949469
  78.8452226 123.2274011  68.8323027  80.4569073 124.6988794  68.9704772
  80.4727335 125.6732154  69.4588621  81.2341080 124.0657919  69.3985676
  80.7450301 124.8902683  67.5064207  80.6355177 123.9214475  66.7266444
  81.2233144 125.9950587  67.0803370  81.4131625 126.1132206  66.0954020
  81.4094434 126.7453720  67.7303272  76.6191161 124.4809461  68.8483910
  75.9428223 124.4888095  69.8864583  76.1459972 123.8218512  67.7706144
  76.7104958 123.8266240  66.9331074  74.9149024 123.1295315  67.7445363
  74.1871472 123.7743819  68.2371208  74.6465106 123.0156493  66.6942525
  74.8964289 121.7808379  68.4022795  74.1930082 121.5405059  69.3705315
  75.7002424 120.8757371  67.9091625  75.9090857 120.9818642  66.9267059
  76.2561676 119.7033238  68.6223001  75.4885317 119.1624366  69.1757216
  76.8342331 118.7627473  67.5253301  77.1551718 117.8422538  68.0129665
  76.0314432 118.5401105  66.8224352  77.9025021 119.3202127  66.8437733
  78.2185045 118.7004633  66.1822199  77.2968183 119.9362141  69.6841005
  78.1825991 120.8268836  69.5851603  77.3937313 119.0028880  70.5986584
  76.6530365 118.3184730  70.5434624  78.3247252 118.9725912  71.8223783
  78.8768673 119.9067033  71.9256874  77.4413562 118.7874489  73.0581872
  76.9605631 117.8380553  72.8224140  77.9891650 118.6937136  73.9958541
  76.3621830 119.8921367  73.1986330  75.0890284 119.6876219  72.6964716
  74.7778280 118.7361948  72.2651478  74.1944645 120.7490366  72.7561658
  73.2312537 120.6442262  72.2568246  74.5569674 122.0030150  73.3663574
  73.6023993 123.0029840  73.5706509  72.7266676 122.7533020  73.2667554
  75.8823232 122.1591570  73.8540927  76.1783118 123.0741399  74.3672179
  76.8007018 121.1384079  73.6735797  77.8536659 121.3063425  73.8997754
  79.5561224 118.0563744  71.7756799  80.2506046 118.0084833  72.7548356
  79.7672250 117.3050029  70.6497160  79.1778744 117.5207296  69.8583709
  80.7330515 116.1976571  70.5210365  81.7480973 116.4690560  70.8110776
  80.2941821 114.9580108  71.3500599  80.3110854 115.2527857  72.3993079
  78.9339201 114.4334974  71.0005457  78.9163743 114.1380669  69.9514919
  78.7056996 113.5694954  71.6246582  78.1892896 115.2110383  71.1710075
  81.2112078 113.6987264  71.3915043  82.1819260 113.9690325  71.8071276
  80.7499265 112.9330845  72.0152924  81.3441080 113.3119928  70.3811204
  80.8860010 115.8270291  69.0853380  79.8729974 115.4840586  68.4585191
  82.0504147 115.9572226  68.5316870  82.7251827 116.3970688  69.1410497
  82.3531647 115.8858749  67.0857818  81.5914198 115.2535174  66.6297469
  82.2877428 117.2953475  66.4292525  81.3638322 117.7799705  66.7448933
  83.4888471 118.1664311  66.8374261  84.4131649 117.6826477  66.5216871
  83.4090256 119.1430175  66.3599241  83.4963332 118.2915146  67.9202002
  82.3685959 117.1597656  64.8539921  81.5327480 116.5579598  64.4972144
  82.3222748 118.1499646  64.4007152  83.3065119 116.6778872  64.5779346
  83.4980692 114.9579014  66.6776338  84.5225139 114.9673861  67.2738042
  83.2821583 114.0741679  65.6887200  82.3346118 113.9187947  65.3754881
  84.3453299 113.2122804  65.1490525  84.7009346 112.5175371  65.9099573
  83.6481930 112.4313331  64.0753885  83.2943240 113.1125087  63.3015174
  84.3428025 111.7143623  63.6377004  82.7999913 111.8986607  64.5054039
  85.6448620 114.0212387  64.7157813  85.5827155 115.1977760  64.3775433
  86.8122974 113.4196277  64.8951849  86.8630011 112.4527477  65.1827116
  88.0797660 114.1260855  64.5714016  87.8587569 115.1671848  64.3361009
  89.0823791 114.0871814  65.7594198  89.0382663 113.0905952  66.1987026
  90.0803128 114.2627429  65.3576655  88.7807639 115.1107228  66.8122196
  88.9493805 116.0605934  66.3048586  87.7144004 114.9831881  66.9985146
  89.6634757 115.1148186  68.3901541  91.2425700 115.6920440  67.8427877
  91.1329207 116.6777337  67.3905800  91.9212280 115.7565173  68.6932976
  91.6484034 114.9982243  67.1065711  88.7159380 113.3669195  63.4817727
  89.4004468 113.9955308  62.6553216  88.6562231 112.0555814  63.5155891
  87.9225284 111.7137964  64.1197203  89.4633865 111.1251505  62.8656149
  89.5057394 111.3333972  61.7965317  90.8893340 111.2170855  63.4420000
  91.2392987 112.2444023  63.3407857  90.8552811 110.9477394  64.4976481
  91.8584108 110.2667355  62.6984881  92.7200516 110.3097176  63.3646926
  91.5790250 109.2261711  62.5333560  92.2165506 110.9183581  61.3576250
  93.2684163 111.5189670  61.1766015  91.3282271 111.0381781  60.4788324
  88.7987937 109.7563802  63.1236637  88.6996482 109.4133037  64.3510930
  88.4441979 108.9793531  62.0988990  88.4875028 109.3317172  61.1533496
  87.9045122 107.6150704  62.3168971  87.7215414 107.4701481  63.3816123
  86.6204878 107.5118876  61.5999086  86.8425484 107.6706351  60.5446415
  85.8753631 106.1803538  61.7710951  85.6525343 106.0211255  62.8261274
  84.9449312 106.2085520  61.2039968  86.4989045 105.3647744  61.4048615
  85.7150351 108.4918077  62.0917846  84.8807056 108.4209023  61.6222453
  88.9302198 106.5637803  61.8584889  89.8282345 106.7069821  61.0154605
  88.6922609 105.3698676  62.4492994  87.8067931 105.2370014  62.9166244
  89.7408384 104.2596637  62.5522102  90.5392248 104.4781112  61.8430143
  90.3448811 104.1218546  63.9331052  89.5489268 103.9551317  64.6588872
  91.0906599 103.3322205  64.0247141  91.0241575 105.4022166  64.3268634
  90.3371525 106.3171366  65.1683457  89.3595666 106.0936647  65.5955297
  90.9682823 107.5615842  65.4480729  90.4216438 108.2620616  66.0794352
  92.2865626 107.9197492  64.9313275  92.7549476 108.8707084  65.1850834
  92.9743747 106.9803381  64.0637008  93.9447625 107.1733158  63.6063088
  92.3025200 105.7390552  63.8210609  92.7771945 104.9732460  63.2076114
  89.0782394 102.9595912  62.0498318  88.2291646 102.4073921  62.8041356
  89.3906040 102.5309771  60.8402934  90.0659365 103.1141688  60.3670991
  88.7527945 101.4917242  60.0951937  87.6695132 101.6115263  60.0794373
  89.2502296 101.5118770  58.7043734  88.9809502 102.5042655  58.3427744
  90.7051734 101.2526535  58.4205237  90.9750987 100.2601954  58.7814487
  90.8819193 101.3085768  57.3464043  91.3138407 102.0011613  58.9278312
  88.5632265 100.5690726  57.9352593  88.8931712 100.5896624  57.0339752
  88.7780694 100.1320898  60.7391390  89.7225740  99.8038536  61.3812348
  87.7128319  99.3805572  60.6962334  86.9044379  99.7692051  60.2319584
  87.5648332  98.0763828  61.3964766  88.5517613  97.6295101  61.5163805
  86.9200283  98.2197027  62.7812311  87.5692606  98.8284621  63.4105232
  86.0201144  98.7836024  62.5357272  86.5208706  96.9868877  63.5513027
  87.2502962  96.0369862  63.5599837  85.4441868  97.0456436  64.2622801
  85.1471387  96.2380023  64.7910312  84.9043787  97.8989540  64.2861399
  86.8150406  97.0179230  60.5150578  85.6452922  97.2993015  60.1563815
  87.3972889  95.8725446  60.1607807  88.3811398  95.7541754  60.3560382
  86.6908993  94.7910797  59.4560904  86.1054650  95.1716596  58.6191168
  87.7401995  93.8672046  58.9244920  88.3322857  93.6381994  59.8105449
  87.2214297  92.9679305  58.5924015  88.6761259  94.3718202  57.7933373
  89.2559663  95.2255519  58.1440909  89.6047468  93.2616439  57.4106563
  89.0256141  92.4076653  57.0593381  90.2694236  93.6008352  56.6161408
  90.1962750  92.9669835  58.2774724  87.9401346  94.8780221  56.5397782
  87.2906673  95.7104958  56.8104795  88.6681335  95.2114188  55.8002070
  87.3396831  94.0711187  56.1197021  85.7238337  94.0675696  60.3539202
  84.6352774  93.7219297  59.9361101  86.0132831  93.7540577  61.6228707
  86.8881744  94.1272677  61.9625453  85.1715373  92.9134556  62.5705341
  84.9696948  91.9569220  62.0884530  85.7481100  92.7466697  63.4803944
  83.8219108  93.5863156  62.9435244  83.7171073  94.8070384  62.8941981
  82.8598252  92.8260650  63.3659108  81.6180061  93.3001815  63.9118824
  81.0991779  93.8484313  63.1255366  81.8547264  93.9785401  64.7315726
  80.8297301  92.0505674  64.3868766  79.9923492  91.8601403  63.7155869
  80.4553279  92.2079512  65.3983877  81.8664122  90.8822673  64.3514497
  81.4799354  89.9021233  64.0720708  82.3688096  90.8126438  65.3162549
  82.8373160  91.3723003  63.2975344  83.8347467  91.0415287  63.5870522
  82.4727397  90.7645098  61.9396626  81.4637794  91.0814515  61.3436416
  83.2620008  89.7664605  61.4946890  84.1542327  89.5473904  61.9142480
  82.9221750  89.1365279  60.2276309  82.2175801  89.6568676  59.5788691
  84.2316952  88.8771181  59.4593630  84.8912270  88.3307018  60.1335644
  84.0588632  88.0712215  58.1354035  83.3997803  88.6172687  57.4604645
  85.0314212  87.9359494  57.6621877  83.6244197  87.0963899  58.3569017
  85.0065276  90.2301162  59.2780898  84.4959818  90.8041781  58.5048520
  84.9569336  90.7704548  60.2234332  86.4595524  90.0318226  58.8844728
  86.5099483  89.4919208  57.9389220  86.9423635  91.0027989  58.7740297
  86.9708997  89.4581951  59.6575028  82.0187342  88.0004481  60.4124079
  82.3577341  86.8524400  60.7001847  80.7150236  88.2229289  60.2818634
  80.3971521  89.1488603  60.0334523  79.6716964  87.1337668  60.4926511
  79.8545618  86.5630332  61.4031030  78.3016552  87.8229800  60.6113997
  77.5078898  87.0759626  60.6105603  78.2635784  88.6015729  61.9182422
  79.0568216  89.3491451  61.9196289  77.2979007  89.0970533  62.0185724
  78.4087011  87.9170314  62.7539719  78.0480119  88.7817099  59.4250178
  78.0724750  88.2197042  58.4913942  77.0715160  89.2522240  59.5397870
  78.8209965  89.5499862  59.4063817  79.6418057  86.1278334  59.3088561
  79.2249066  84.9918190  59.5131046  80.0275210  86.5664172  58.1185356
  80.2918177  87.5388499  58.0505567  79.9425982  85.7761801  56.8756425
  80.4091961  84.8014153  57.0178371  78.4529608  85.5619535  56.4891136
  77.8810609  85.4009950  57.4029637  78.0514368  86.4243408  55.9569796
  78.3513093  84.3187370  55.5972914  79.2428359  83.4219039  55.5928573
  77.3776574  84.2036618  54.8272799  80.8075229  86.3835948  55.7315220
  80.8465809  87.6039486  55.6341984  81.4317746  85.6247585  54.8757602
  81.2779392  84.6326115  54.9856615  82.3881245  86.0757518  53.8414431
  82.0521814  87.0241392  53.4221548  83.8139225  86.2751593  54.4478058
  84.3094950  86.9247150  53.7262904  83.6251370  86.8307203  55.3663983
  84.6898247  85.1039816  54.7461686  84.0823065  84.3311558  55.2170855
  85.0918823  84.7266925  53.8059002  86.0211225  85.5256747  55.8167876
  86.8607200  83.8889636  55.6438515  87.1146713  83.7190529  54.5975541
  87.7706752  83.8816183  56.2438751  86.1928384  83.0992632  55.9879570
  82.4826417  85.1851285  52.6533763  82.4342839  83.9455398  52.7958944
  82.8388194  85.7636374  51.5309567  83.0244078  86.7562387  51.5109871
  82.8600643  85.0390034  50.2845056  82.9415504  83.9739469  50.5015630
  81.5798228  85.2761496  49.4270649  81.6146996  84.6577307  48.5301587
  80.6927528  85.0233156  50.0078246  81.3435834  86.9345275  48.8693769
  80.2075267  86.7017078  48.2181715  84.1059324  85.3540769  49.5033408
  84.6066672  86.5139714  49.6187333  84.6516488  84.4268130  48.7028726
  84.6103818  83.4505067  48.9582591  85.5278930  84.8208675  47.5797354
  85.8037043  85.8753854  47.5841392  86.8314630  83.9648280  47.5465937
  86.5375326  82.9985800  47.9565559  87.5379757  83.7566868  46.2143689
  87.8326394  84.7225320  45.8039820  88.4245639  83.1407605  46.3650233
  86.8633306  83.2575196  45.5188205  87.8835153  84.5081955  48.5647606
  87.4676146  84.4724212  49.5716612  88.7827552  83.8937004  48.5215989
  88.1355342  85.5382692  48.3126981  84.8553155  84.9202765  46.2929011
  84.0922995  84.0103378  46.0240757  85.1305403  85.9618783  45.5099406
  85.6022036  86.7478641  45.9340388  84.5669431  86.1317868  44.1868970
  84.4865995  85.1412380  43.7391727  83.1981690  86.8528149  44.0458511
  83.2985291  87.9065684  44.3059102  82.7518500  86.7296079  42.6069667
  82.6508147  85.6760701  42.3462927  81.7910852  87.2285265  42.4800348
  83.4913463  87.1952536  41.9554907  82.1084042  86.2802483  45.0037390
  82.4370559  86.3920940  46.0369769  81.1748195  86.8239357  44.8590909
  81.9507183  85.2240282  44.7854839  85.6827254  86.6670504  43.2883183
  86.2074038  87.7833732  43.4918539  86.0442042  85.9081342  42.2714464
  85.8657040  84.9203822  42.3836205  86.8671581  86.3595415  41.0793976
  87.6895624  87.0077238  41.3820691  87.4550284  85.0850699  40.4333632
  87.8539415  84.4419741  41.2178346  86.7264493  84.5287277  39.8436549
  88.5786645  85.5434173  39.5403729  89.0929195  86.7093583  39.6349894
  89.0059838  84.7710023  38.6299004  86.2159143  87.3406797  40.0464066
  85.7963657  86.9371186  38.9251366  86.0556600  88.5750577  40.5003941
  86.5353199  88.8507923  41.3453770  85.2347129  89.6186544  39.7660279
  84.1860178  89.3387421  39.6660939  85.3281077  90.8800227  40.6685894
  86.3465693  90.7312269  41.0273302  85.2475079  91.8619541  40.2023122
  84.3439002  90.7926454  41.8599617  84.1401775  89.7346070  42.0247421
  84.8526319  91.4173311  43.1495418  85.0561498  92.4755475  42.9856597
  84.0979284  91.3094071  43.9285641  85.7690212  90.9154806  43.4601497
  82.8793106  91.1908441  41.5696356  82.4716033  90.5395764  40.7965090
  82.2873849  91.0888682  42.4792103  82.8443876  92.2253667  41.2281063
  85.9299139  89.8872172  38.3962346  87.1190640  90.1173791  38.2884776
  85.0975521  89.7903611  37.3051527  84.1650275  89.4940902  37.5555939
  85.4587858  89.8552558  35.8409816  84.5371026  89.8613103  35.2591204
  86.3038440  91.1367558  35.4621803  87.3000185  91.0310369  35.8917838
  86.3807722  91.1892099  34.3761644  85.6480772  92.4309754  35.9949801
  84.6128579  92.5119780  35.6635282  85.6734819  92.3001711  37.0768045
  86.4000447  93.6972064  35.6204178  87.6506910  93.7396055  35.8440584
  85.8558978  94.6479614  35.0261660  86.0585747  88.5532204  35.3088032
  86.6703136  88.5855944  34.1706927  85.9982766  87.4124991  36.0264731
  85.3573575  87.4095476  36.8070583  86.9060989  86.2836896  35.8741119
  86.9839192  85.7370854  36.8139348  86.3705139  85.3130187  34.7754692
  86.3425708  85.8074813  33.8044774  86.9946537  84.4217372  34.7109186
  84.8852437  84.8943160  35.2038542  84.7474711  84.9492589  36.2837156
  84.1350079  85.5122376  34.7104768  84.7364564  83.4765081  34.7544188
  84.8460754  83.4812755  33.6699558  85.5617241  82.9211400  35.2000632
  83.5161480  82.8243214  35.0864217  82.7442374  83.4246024  35.3392384
  83.3087929  81.5153305  35.0329291  84.3426565  80.6965864  34.7453125
  85.2588208  81.0859342  34.5745750  84.1954130  79.6983105  34.7021375
  82.1239278  81.0747525  35.3214061  81.3948549  81.7254219  35.5767139
  81.9356393  80.0829739  35.2894486  88.3866551  86.6438796  35.6803949
  89.0565435  86.1347375  34.8217839  88.9255953  87.5374910  36.5336307
  88.2568222  87.9416906  37.1735248  90.2666414  88.1204832  36.4717473
  90.5318348  88.3391827  35.4373672  90.3083448  89.4418156  37.2843348
  89.3562666  89.9374122  37.0945180  90.3602847  89.1448217  38.3318065
  91.4208169  90.3751367  36.9794750  91.5421558  91.1531975  37.7331322
  92.2842477  89.7102493  37.0021487  91.3475518  91.0478642  35.5771434
  90.5054038  90.7293448  34.7624083  92.1272768  92.0586299  35.3621209
  92.1107769  92.5235143  34.4656212  92.7484332  92.3775712  36.0918760
  91.4224680  87.1426314  36.7694646  92.5342377  87.4867082  36.3828571
  91.1282849  85.9498990  37.3086278  90.1597790  85.7130525  37.4698710
  92.1655672  84.9583519  37.6805386  91.7351957  83.9652293  37.5517481
  93.0031866  85.0825798  36.9942001  92.6652683  85.0959064  39.0926369
  93.6051911  84.4316296  39.5706573  92.0286128  85.9030754  39.8814727
  91.1545405  86.2485502  39.5116834  92.4600315  86.3825511  41.1344093
  92.9713676  85.6032186  41.6994539  93.4788556  87.5692396  40.8715140
  94.3199157  87.1454080  40.3228029  92.9621705  88.2930164  40.2412096
  93.9949326  88.2698862  42.1383569  93.3875684  89.1501361  42.3489983
  93.8203449  87.5163731  42.9063668  95.4697978  88.6733466  42.1758050
  95.8861758  89.3474369  41.2174619  96.2332941  88.4134174  43.2096867
  97.2033811  88.6943964  43.2005527  95.8477341  87.9334406  44.0103533
  91.3228735  86.8141175  42.0137823  90.8053923  87.9054935  41.8456851
  90.8150797  85.9030405  42.7797445  91.2045294  84.9806460  42.6470165
  89.7772678  86.0733302  43.7751339  88.8220073  86.0766235  43.2501905
  89.8223119  85.2116199  44.4411113  89.8919300  87.3451692  44.6026018
  90.9914023  87.6824550  45.0538192  88.7517984  87.9853737  44.8803841
  87.8795534  87.8147131  44.4006310  88.7852268  89.0726042  45.9683185
  89.8216522  89.1797595  46.2883802  88.2629915  90.4407602  45.5413309
  87.1769507  90.4040175  45.4560971  88.5434478  91.1848765  46.2868075
  88.8786734  90.8284047  44.1641695  89.9637971  90.8152867  44.0620155
  88.4413768  90.0973185  43.4841793  88.3791151  92.1895088  43.7891629
  88.1503862  93.0306890  44.6274261  88.3553460  92.5519674  42.4909003
  88.0195357  93.4685724  42.2317320  88.6734581  91.9052719  41.7833051
  87.9394150  88.4827351  47.0770857  86.9200449  87.8024070  46.7848388
  88.1988874  88.9002568  48.3357810  89.0049034  89.4996124  48.4416599
  87.4422516  88.5495673  49.5222767  86.8671343  87.6381184  49.3591816
  88.4302998  88.3075471  50.6767433  89.1357265  87.5271019  50.3914755
  88.9515905  89.2628051  50.7386972  87.8255030  87.9730734  52.0279934
  87.1684779  88.8040141  52.2848133  87.0353471  86.6567410  52.0930521
  87.6918709  85.8252339  51.8367876  86.6470430  86.5149254  53.1016199
  86.2058465  86.6950173  51.3869614  88.8709525  87.7241893  53.1205894
  89.4825820  88.6172097  53.2491323  88.3680029  87.4907349  54.0590146
  89.5068946  86.8873558  52.8318222  86.4878210  89.6789920  49.8545359
  86.8902725  90.8195799  49.8965482  85.1946150  89.3099155  50.0869167
  84.9876129  88.3438106  49.8774156  84.1050075  90.1816318  50.4253914
  84.4818171  91.1394368  50.7841718  83.2421738  90.4263601  49.2184751
  82.7278256  89.4983797  48.9686798  82.2125852  91.5252504  49.4769579
  82.7262271  92.4537230  49.7263805  81.6073077  91.6743625  48.5828074
  81.5686608  91.2327362  50.3063543  83.9827268  90.8516585  47.9496577
  84.6926420  90.0750331  47.6650959  83.2655393  91.0010255  47.1425448
  84.5185296  91.7824493  48.1357885  83.2816258  89.7773895  51.6491307
  82.5894369  88.7842377  51.6963640  83.5044186  90.5541726  52.6707438
  83.9995882  91.4226660  52.5271273  83.0280646  90.2243060  54.0637937
  82.7640214  89.1683459  54.1214881  84.0838971  90.5195536  55.1179077
  83.6894757  90.1501090  56.0645030  85.4607765  89.8925970  54.8581259
  85.8560697  90.2619506  53.9118592  86.1415077  90.1621284  55.6656263
  85.3638335  88.8078896  54.8121626  84.2248246  91.9500970  55.1690831
  84.8854122  92.1832742  55.8254769  81.7974012  91.0728946  54.4267703
  81.7943619  92.2717259  54.4055296  80.8609628  90.3820141  55.0340432
  80.7079935  89.4035959  54.8355551  79.9751445  91.0463280  56.0222187
  79.5258785  91.9359705  55.5808622  78.8300663  90.0721586  56.4598839
  79.2037582  89.2666184  57.0919904  78.0278971  90.5975999  56.9780886
  78.0816824  89.2914040  55.0623994  77.2030653  88.5746784  55.7575502
  80.7694404  91.4743879  57.2320905  81.7741936  90.8589662  57.6134094
  80.4621222  92.6723509  57.8197649  79.5390628  92.9456367  57.5141907
  81.2296267  93.6143545  58.6484936  81.7252344  93.0606738  59.4459331
  82.3205040  94.3854332  57.8190882  83.1439728  93.7297315  57.5361507
  81.8944440  94.8395222  56.9244508  82.7910396  95.3801321  58.6625716
  83.4662062  95.8907314  58.2097602  80.3534373  94.5831414  59.4350520
  79.2301747  94.9872331  59.1122578  80.8068329  94.9074026  60.6398379
  81.7004560  94.5424893  60.9371181  80.0564297  95.7877429  61.5776214
  80.6564241  95.9196066  62.4780201  79.9080336  96.7541250  61.0957671
  78.7228447  95.2235412  61.9590314  78.5049129  93.9899010  61.9343034
  77.8605256  96.0700712  62.5522562  78.2598847  96.9640605  62.8000361
  76.4803357  95.7724345  62.9925653  76.0577704  95.1869778  62.1760004
  76.4629857  94.9187780  64.2684468  76.8747766  95.4947134  65.0971970
  75.4373175  94.6318230  64.5003125  77.0645277  94.0228441  64.1149904
  75.5899286  97.0552934  63.1351038  76.1369265  98.1432517  63.4411738
  74.2705664  96.9208216  63.0318532  73.9264646  95.9864435  62.8626464
  73.2798288  98.0268178  63.1556731  72.2891677  97.6958128  62.8440232
  73.2121814  98.4606017  64.6407160  74.1838506  98.8475194  64.9477226
  72.4399182  99.1941402  64.8722994  72.9305937  97.2349196  65.5187341
  71.7334413  96.6156851  65.6298728  70.9045770  97.0068559  65.0398989
  71.5407826  95.5292368  66.4504316  70.5691841  95.0418669  66.5314720
  72.6354545  95.0475699  67.1969057  72.5090683  94.1767378  67.8401614
  73.9208075  95.7028963  67.1121301  74.8021568  95.3648272  67.6571374
  74.0002007  96.8155334  66.2856500  74.9267508  97.3867639  66.2281996
  73.7514452  99.2248282  62.2730298  74.0355037  98.9968623  61.1129487
  73.7706405 100.4513243  62.7682446  73.3922066 100.6062793  63.6917575
  74.1968176 101.6446929  61.9646629  73.6420346 101.6991482  61.0279934
  73.9025015 102.9165704  62.7865841  74.0167336 103.7821889  62.1340851
  72.8741377 102.8650082  63.1442281  74.8459005 103.0483298  63.9733191
  74.6680697 102.2339339  64.6756269  75.8787263 103.0098043  63.6270696
  74.5883390 104.4029745  64.6782971  74.3738440 105.1652484  63.9292782
  73.7357175 104.3044596  65.3501831  75.8361157 104.8145925  65.4880316
  76.2380819 103.9279678  65.9783583  76.5787919 105.2160393  64.7985595
  75.5062699 105.8390149  66.5112127  74.8184216 105.4670722  67.1504490
  76.3418748 106.0858643  67.0220258  75.1341815 106.6608270  66.0570387
  75.6320930 101.5041460  61.5159435  75.9835195 102.0327123  60.4815475
  76.4497230 100.7778530  62.2975154  76.1884985 100.6319564  63.2621787
  77.8596890 100.4368245  61.8782333  78.2868465 101.2352054  61.2714189
  78.6795481 100.2763510  63.0882024  78.3515725  99.3278596  63.5135203
  79.6978607 100.1731070  62.7133956  78.6411905 101.3630217  64.1716149
  77.6333895 101.3962315  64.5855412  79.3340608 101.0028184  64.9320644
  79.0442156 102.7258734  63.7409037  78.2330682 103.6539204  63.8345503
  80.2342563 102.8701670  63.3445850  78.0087296  99.3573735  60.8112874
  79.0550399  99.2405193  60.1480598  76.9163999  98.7099653  60.3503183
  76.0427160  99.0171243  60.7533431  76.8813551  97.6161564  59.3317605
  77.5051888  96.7927179  59.6794380  75.8531587  97.2712731  59.2223667
  77.3820172  98.0776381  58.0053484  76.8768233  99.0021578  57.3892936
  78.3022485  97.2267920  57.5603178  78.5698704  96.4915299  58.1989628
  79.0535150  97.3585723  56.2796154  78.4361747  97.8736034  55.5435903
  80.3751714  98.1819874  56.4909112  80.9741082  98.1238028  55.5820721
  80.1134144  99.2217669  56.6869773  81.1327136  97.6611945  57.5985400
  81.9341206  98.1779998  57.7092601  79.3874382  96.0830596  55.4797637
  79.2668305  95.0231065  55.9966719  79.9198049  96.2685004  54.2277911
  79.8695693  97.2102997  53.8664191  80.4751922  95.2703715  53.4103929
  80.6314881  94.3560989  53.9829104  79.5143173  94.9650651  52.2499075
  79.4580929  95.9574875  51.8026538  80.0540713  94.2954041  51.5803407
  78.0546270  94.4103039  52.4843266  77.4961777  95.1328207  53.0794776
  77.3623979  94.1913095  51.2012497  77.9200481  93.4685073  50.6056978
  76.3591287  93.8091516  51.3896827  77.2954852  95.1341250  50.6583666
  78.0748180  93.1329974  53.3405388  78.5227184  93.3517799  54.3098782
  77.0553002  92.7752393  53.4843928  78.6607671  92.3653609  52.8350719
  81.8217470  95.7985765  52.9383352  82.0008181  96.9720868  52.6132858
  82.8123719  94.8753009  52.9075699  82.6907726  93.8958725  53.1221228
  84.1754168  95.3845276  52.7344719  84.1241686  96.2837924  52.1206352
  84.8509429  95.7125882  53.9876896  85.1481311  94.7565989  54.4188079
  85.7405212  96.2740824  53.7022519  84.0226477  96.5425371  55.0605418
  83.7992100  97.5339641  54.6665254  83.0911880  96.0240934  55.2879205
  84.8374222  96.6742182  56.3088621  84.9741355  95.6833599  56.7419997
  85.8092144  97.0934722  56.0481988  84.2056845  97.5394419  57.3070027
  83.3228631  97.1651857  57.6242693  84.6123661  98.6990342  57.7969881
  85.7928248  99.2726079  57.6015795  86.4847736  98.8137730  57.0264471
  85.9939748 100.1653892  58.0288732  83.8351448  99.3555785  58.5619389
  82.9218033  98.9869469  58.7855863  84.1355192 100.2420027  58.9415785
  84.9065001  94.4085974  51.8584808  84.6068797  93.1941143  51.7500211
  85.8332350  94.9258726  51.0209470  86.1707995  95.8575560  51.2161791
  86.3077212  94.2414348  49.7594769  86.0258719  93.1907685  49.6904811
  85.6993700  95.0133377  48.5778899  86.0256522  96.0465792  48.6964320
  86.0677033  94.5219214  47.1851101  85.7413025  93.4888232  47.0656475
  85.5777321  95.1459507  46.4377036  87.1482080  94.5785925  47.0532121
  84.1920187  95.0597347  48.6587929  83.8472513  94.1286493  48.2089971
  83.9571041  95.0572687  49.7231747  83.5067095  96.2155420  47.9996739
  83.7407941  96.2184015  46.9351101  82.4288738  96.1241658  48.1339116
  83.8506490  97.1470215  48.4492865  87.8558838  94.1556546  49.7441131
  88.4778196  95.1499774  49.6671457  88.4330859  92.9788568  49.8999814
  87.8123141  92.1990060  49.7369649  89.8146213  92.6948348  50.3225978
  90.3649677  93.6356889  50.3260030  90.0201680  91.9945483  51.6226402
  89.5764743  90.9992110  51.5994022  91.5746963  91.8707753  51.8364511
  92.0190627  92.8657990  51.8602642  91.7728510  91.3622537  52.7799770
  92.0101984  91.2984417  51.0173838  89.2989504  92.7361687  52.8139765
  89.9323247  92.5806638  53.6873355  89.2993520  93.7935045  52.5491359
  87.8572856  92.2875281  53.1376509  87.8561476  91.2303334  53.4030525
  87.4734381  92.8719383  53.9738476  87.2231752  92.4431721  52.2648515
  90.4913230  91.8556851  49.2210967  90.2799550  90.6470048  49.0008388
  91.4025359  92.5986904  48.5113558  91.6371754  93.4912976  48.9215948
  92.1229506  92.1768927  47.2986953  91.7635908  91.1988144  46.9788164
  91.9012757  93.1605130  46.1800223  90.8246749  93.2024039  46.0148701
  92.2502143  94.1265235  46.5449408  92.6036461  92.8293765  44.8684125
  93.6701077  93.0256141  44.9790983  92.4504884  91.7742241  44.6419215
  92.0261812  93.7094634  43.6908556  90.9562245  93.5318631  43.5824600
  92.1997326  94.7660099  43.8950340  92.7083612  93.3496279  42.3977040
  92.2366453  92.5894021  41.9290462  93.8607675  93.7929482  41.8910782
  94.4217637  94.8367361  42.3957031  93.9869220  95.3144588  43.1721010
  95.2938650  95.1725813  42.0126275  94.4153904  93.2966849  40.7770988
  93.9559888  92.5483162  40.2781052  95.2903882  93.6731863  40.4413544
  93.6213773  92.2439000  47.6326957  94.1003579  93.1562005  48.3308651
  94.3899002  91.2386922  47.2604179  93.9363615  90.3774332  46.9909091
  95.9238119  91.2732918  47.2951699  96.3115623  91.2743642  48.3138690
  96.3709673  90.0229474  46.6163762  96.0055779  89.1632258  47.1780421
  95.8767001  90.0587538  45.6455426  97.8533378  89.8599960  46.3964910
  98.3929662  90.5549596  45.5917663  98.4774307  89.0185180  47.1393099
  99.4712020  88.8837348  47.0195108  97.9714992  88.4955364  47.8397558
  96.6191221  92.5402610  46.6618212  96.0685796  93.0758014  45.7065723
  97.7821526  92.9468440  47.2361290  98.0807717  92.3833779  48.0193479
  98.5998450  94.0592007  46.8478589  98.5228240  94.2762065  45.7824597
  98.0359803  95.2679702  47.6423958  98.1146527  95.0694152  48.7112674
  98.6071323  96.1632395  47.3966756  96.9897154  95.4211142  47.3778664
 100.0517369  93.8720226  47.1712169 100.3719564  92.8994076  47.8059614
 100.9416230  94.8029439  46.7188351 100.5925317  95.6266516  46.2500706
 102.3646953  94.6910259  46.9375253 102.8482416  93.8538245  46.4341607
 102.9649857  96.0024653  46.3984295 102.4971632  96.8498323  46.8996393
 104.0383024  96.0162544  46.5879063 102.7850438  96.0710046  45.3255724
 102.6849978  94.5909987  48.4956546 102.8258967  95.6207303  49.1692341
 102.9167906  93.3411251  48.9614541 102.6727417  92.6640710  48.2528377
 103.2542664  92.8579512  50.2873191 103.1876315  91.7708959  50.3316999
 104.6901789  93.2620301  50.5071934 104.7714895  94.3485050  50.4746239
 105.0245094  92.9021852  51.4802479 105.3140444  92.8279277  49.7258828
 102.1676284  93.3052583  51.2842420 102.5083470  93.8247957  52.3648140
 100.9133744  93.3306552  50.8898832 100.6466608  92.7176615  50.1327822
  99.8753656  94.2335582  51.4684037  99.8443752  94.2426388  52.5579248
 100.1486769  95.6304009  50.9838694 100.1736360  95.6391757  49.8941905
  99.3611360  96.2976335  51.3341269 101.1096787  95.9684808  51.3715249
  98.5401540  93.7074359  51.0137662  98.3881341  92.6886642  50.2840601
  97.5301186  94.4420970  51.4682458  97.7035904  95.1980776  52.1151618
  96.1149746  94.2399268  50.9613409  96.1501097  93.5876586  50.0887523
  95.1726565  93.6015647  52.0214463  95.2851297  94.2653606  52.8786650
  94.1300205  93.5927334  51.7037479  95.5980546  92.1842445  52.4146193
  96.6871162  92.1660138  52.3732256  95.1424322  91.7284938  53.7668110
  94.0533834  91.7460152  53.8088189  95.4961807  90.7133459  53.9469154
  95.5457120  92.3940078  54.5300651  95.1737484  91.1539758  51.3374509
  95.6433988  91.4070291  50.3869290  95.4890561  90.1565504  51.6437595
  94.0899380  91.1726977  51.2229803  95.3892415  95.5438927  50.6372382
  95.3182473  96.4136140  51.5088658  94.8405021  95.7237925  49.4313630
  95.2383106  95.2085952  48.6590810  93.8314436  96.7405367  49.1396863
  94.0976152  97.6393020  49.6959892  93.6942580  97.1111410  47.6287189
  94.6886394  97.5405186  47.5064905  93.5170128  96.3768892  46.8428700
  92.7071722  98.2342615  47.4020828  92.4718967  99.3523864  48.2356794
  91.7329737 100.2162980  47.5272809  91.3320955 101.0811852  48.0558315
  91.6227161  99.8467682  46.2731389  91.2725752 100.3938030  45.4996700
  92.0770727  98.5498304  46.1817353  91.9125409  97.9777905  45.2686084
  92.5155735  96.4038062  49.7424536  91.9555399  95.2922353  49.5743782
  92.0075443  97.4049036  50.4105085  92.5322976  98.2614819  50.5154226
  90.6954616  97.3135275  51.0481599  90.0661246  96.4850351  50.7231452
  90.9390983  97.2093372  52.5932112  91.4063418  98.1365803  52.9248801
  89.6457853  96.9862427  53.3695959  89.1781706  96.0588815  53.0387814
  89.8675161  96.9208949  54.4348029  88.9658679  97.8192513  53.1909672
  91.9752526  96.1627130  52.9254957  91.8152859  95.3880617  52.1755446
  92.9243461  96.6631535  52.7334529  92.0069808  95.5239779  54.3222415
  91.0583258  95.0229160  54.5148305  92.8177755  94.7971541  54.3716217
  92.1673838  96.2980087  55.0727394  89.7193603  98.4724541  50.7937521
  90.1247462  99.5848686  51.0306199  88.4796534  98.1315272  50.4028919
  88.2435312  97.1510485  50.3480532  87.4130086  99.1590674  50.0079086
  87.8258025 100.1619483  50.1171353  86.9496034  98.9737612  48.5516246
  86.7946672  97.9050994  48.4031121  85.9974589  99.4953696  48.4544364
  87.9428064  99.5061682  47.4823409  88.0875094 100.5655390  47.6942266
  88.8808872  98.9735029  47.6384632  87.4866658  99.3306060  46.0048370
  88.2744019  99.7261009  45.3636236  87.3677721  98.2634602  45.8173175
  86.2226275 100.0116481  45.6744513  86.3148979 100.9845155  45.9296268
  85.1548121  99.6374139  44.9806753  84.8710222  98.4058102  44.6281126
  85.4927282  97.6534223  44.8879089  84.0321949  98.2159192  44.0985753
  84.2144316 100.5268181  44.8276956  84.3234772 101.4468549  45.2298665
  83.3810773 100.2918262  44.3076974  86.2108276  98.9844296  50.9872734
  85.8778977  97.8462914  51.2588321  85.5129232 100.0675540  51.4031063
  85.7279127 101.0055147  51.0963352  84.3688799  99.8750399  52.3626861
  84.1026745  98.8321285  52.5346441  84.8320838 100.4965728  53.7066746
  85.1561706 101.5070717  53.4577570  83.8048428 100.5546028  54.8683679
  83.4806221  99.5443664  55.1181740  84.2687064 101.0131429  55.7416781
  82.9426332 101.1471165  54.5623896  85.9526198  99.8372469  54.2330616
  86.2070183 100.2502698  55.0614901  82.9852174 100.5221206  52.0069494
  82.9036231 101.7578220  51.8453958  81.9617835  99.7166449  51.8311995
  82.1554427  98.7270814  51.7732383  80.5770405 100.1619248  51.6819119
  80.5163260 101.1935390  51.3352347  79.8498422  99.2602921  50.6709564
  79.7496874  98.2915237  51.1604011  78.4509567  99.7387335  50.1748414
  78.5503832 100.7072972  49.6848417  78.0483225  99.0138446  49.4673655
  77.7750068  99.8299479  51.0250610  80.7043576  99.0647801  49.4443047
  81.6467672  98.5964398  49.7282478  80.1806047  98.4247842  48.7342430
  80.9043687 100.0315689  48.9823352  79.7148578 100.1842790  52.9687931
  79.5936493  99.1045833  53.6113511  79.1383087 101.3057367  53.3972142
  79.5998987 102.6409173  52.9311976  79.3541859 102.7754477  51.8778093
  80.6774785 102.7329645  53.0670214  78.8127991 103.5871647  53.8447402
  77.8283946 103.8226746  53.4402876  79.3553905 104.5120386  54.0404547
  78.7059869 102.7275998  55.1269139  77.8963351 103.1350861  55.7323212
  79.6157175 102.6759448  55.7250958  78.3345679 101.3489734  54.6336726
  78.6587712 100.5323698  55.2787687  76.7972901 101.2081082  54.3446347
  76.1668558 101.9261236  53.5729238  76.1990776 100.1646292  54.8268537
  76.7501182  99.5126705  55.3666717  74.7304249  99.9224205  54.7090732
  74.4125251 100.1163467  53.6846555  74.3795315  98.4963830  55.0615102
  74.6601657  98.4176376  56.1118163  73.3139273  98.2935614  54.9544996
  75.1895711  97.4622245  54.2301102  76.2524421  97.6084421  54.4225331
  74.8015287  96.0624279  54.6060073  73.7388146  95.9153004  54.4134171
  75.3792604  95.3531202  54.0133780  75.0042139  95.9005262  55.6646890
  75.1396387  97.5989257  52.7064057  75.5282339  98.5749382  52.4157292
  75.7464767  96.8164406  52.2508116  74.1085967  97.5028852  52.3660710
  73.8527162 100.7316158  55.6993991  72.7301152 101.0489390  55.3248768
  74.3184876 100.9404200  56.9079974  75.2289977 100.5137915  57.0031748
  73.6552644 101.4977997  58.1466514  74.3500715 101.4735665  58.9861483
  73.2345335 102.9383286  57.9058384  72.4827419 102.8335569  57.1235779
  72.7585714 103.2879701  58.8219776  74.2879452 103.9455708  57.4652673
  75.0131070 104.6529405  58.4434853  74.8963005 104.3069243  59.4704850
  75.8442852 105.7383204  58.1631383  76.2011776 106.3776502  58.9705954
  76.0684608 106.1174189  56.7916122  76.9675518 107.1031649  56.4611957
  77.4033392 107.4852462  57.2265080  75.4732416 105.3091512  55.7977881
  75.7493869 105.5052159  54.7617365  74.5274632 104.2508702  56.1098753
  74.0236153 103.7154540  55.3051599  72.5596740 100.6115896  58.7480118
  71.6975571 101.1185542  59.4882106  72.5943899  99.2634086  58.5228255
  73.2651916  99.0663045  57.7939397  71.8305495  98.1156089  59.1163217
  71.5741952  98.3305397  60.1537157  70.5078676  97.8893442  58.3108716
  69.9762261  97.0629604  58.7826200  69.9139431  98.7992399  58.3971475
  70.7449353  97.5602177  56.7900864  71.3236556  98.3775056  56.3597096
  71.3326965  96.6428533  56.7572456  69.4823475  97.3731129  56.0023620
  69.5154997  96.5225354  55.1634222  68.4667706  98.0702438  56.2403010
  72.6844184  96.8196125  59.1089659  73.6999716  96.6705129  58.4123432
  72.3315871  95.7832077  59.9069999  71.4354080  95.8621524  60.3660533
  73.1836392  94.5682159  60.2013011  74.2051060  94.8802462  60.4188832
  72.6393686  93.8050257  61.4066173  71.6331376  93.4675651  61.1581845
  73.2824224  92.9400124  61.5688942  72.5964245  94.5903188  62.5877720
  72.2478185  94.0628829  63.3101881  73.2737888  93.6151331  58.9735388
  72.2644872  92.9407939  58.7560097  74.4713883  93.5151692  58.2698602
  75.6608704  94.2944088  58.3988913  75.9646164  94.3003458  59.4456976
  75.4491728  95.3139720  58.0767515  76.6944225  93.5868102  57.4823689
  77.2897708  92.8772690  58.0570086  77.3532822  94.3192114  57.0158994
  75.8439452  92.8812540  56.4402154  76.3606128  91.9964096  56.0684575
  75.5103037  93.4872727  55.5978828  74.6461879  92.4643874  57.2882347
  73.7845306  92.4216833  56.6220356  74.7774348  91.1180989  58.0503190
  75.6256913  90.9925836  58.9124024  74.0190447  90.1047833  57.5963509
  73.4413208  90.2364202  56.7784230  73.9332295  88.8152748  58.3151449
  74.4168316  88.8781007  59.2899685  72.3954182  88.4745750  58.5319052
  71.8822577  88.6231072  57.5817979  72.3223357  87.4269411  58.8238336
  71.7348379  89.3619019  59.6205198  72.1617082  89.1662265  60.6041832
  71.8375300  90.4211039  59.3846228  70.2673305  88.9854494  59.6232518
  69.7429884  89.7159057  60.2393669  69.9097404  89.0539352  58.5958578
  69.9615791  87.5862727  60.1557880  69.4422316  86.9449088  59.5735252
  70.3049131  87.2030271  61.3415601  70.8966757  87.9049009  62.2435452
  71.1404439  88.8661153  62.0518580  71.1144946  87.4911604  63.1387956
  70.1077407  86.0222444  61.7147078  69.6762966  85.3619032  61.0839103
  70.3813290  85.7372653  62.6442427  74.6614688  87.6813262  57.6093539
  75.3743074  86.9830487  58.3280936  74.5510613  87.4908062  56.2533815
  74.3618668  88.3457781  55.7500646  74.9382687  86.2726571  55.4665382
  75.7949059  85.7962759  55.9433326  73.7745532  85.2407889  55.3887604
  72.8244200  85.7692218  55.3106259  73.9094969  84.6055968  54.5133055
  73.7744044  84.3551841  56.6810255  73.8459823  85.0517792  57.5163294
  72.8021243  83.8628869  56.7014477  74.9120647  83.2741356  56.8009130
  74.8588538  82.6093294  55.9387643  75.8781747  83.7787460  56.8108786
  74.7467382  82.4402447  58.1123085  74.6994752  83.1286765  58.9560671
  73.8146702  81.8786216  58.0496347  75.8776569  81.5005929  58.3042413
  76.7413816  82.0208366  58.3627727  75.7404868  80.9786349  59.1579651
  75.9213661  80.8623155  57.5227105  74.9816844  86.6261555  53.9442758
  74.2240801  87.5140643  53.5301359  75.9221184  86.0454976  53.1220725
  76.4589203  85.2672611  53.4774469  76.2433731  86.5592111  51.7898459
  75.4756375  87.1527066  51.2934142  77.5340045  87.4455994  52.0099646
  77.2769523  88.2382341  52.7126415  78.7466485  86.6282630  52.5669590
  79.0045976  85.8356767  51.8645561  79.6026423  87.2903912  52.6971956
  78.4785727  86.1885954  53.5276499  77.8637503  88.1824289  50.6683466
  78.1760855  87.4298241  49.9443758  76.9495402  88.6632663  50.3203310
  78.9763377  89.2422619  50.8210102  79.8910575  88.7620676  51.1685746
  79.1599238  89.7183983  49.8578438  78.6645127  89.9955090  51.5445321
  76.4125898  85.3507537  50.7810316  76.7385557  84.2261433  51.1770704
  76.0395732  85.6279648  49.5223169  75.6044703  86.5279336  49.3779527
  76.1583254  84.7142022  48.3676901  77.0573520  84.1106310  48.4923985
  74.9500089  83.7726833  48.2247067  75.0373030  83.1129117  47.3614683
  74.7794622  83.1765774  49.1211840  73.3997183  84.7629263  47.9617260
  72.5800756  83.7187482  47.8794089  76.3407837  85.5680836  47.0985307
  75.9374587  86.6803788  46.9557465  76.7456191  84.9377062  45.9893604
  76.9720116  83.9588139  46.0923929  76.9352581  85.5492526  44.7023340
  76.4524952  86.5229432  44.6188729  78.4314480  85.7423482  44.6086373
  78.6895495  86.5133164  45.3346476  78.9442356  84.8155275  44.8658380
  78.8533283  86.1826880  43.2431426  79.3108993  85.2366158  42.3184221
  79.3358219  84.1802102  42.5857901  79.7360396  85.6472392  41.0514733
  80.0566840  84.8770288  40.3499998  79.6689913  87.0030221  40.6352870
  80.1185450  87.3464278  39.3993182  80.4557779  86.5980488  38.9015204
  79.2265895  87.9343963  41.5797524  79.1827640  88.9830444  41.2856146
  78.8490386  87.5565305  42.8611644  78.5458529  88.3127273  43.5852810
  76.3794572  84.7396301  43.5539448  76.3884056  83.5671926  43.5608172
  75.8622935  85.4053440  42.5389824  75.9437043  86.4120213  42.5304700
  75.1168498  84.7785820  41.4974791  75.3812048  83.7262688  41.3933045
  73.6090391  84.8776151  41.8949516  73.5015322  84.4885199  42.9074467
  73.3249721  85.9298210  41.8785579  72.6878718  84.0777120  40.9324949
  72.8383056  84.3747979  39.8946074  72.9512247  83.0266449  41.0508380
  71.1751365  84.2574410  41.2897937  70.4846060  85.0937998  40.7062351
  70.5536058  83.4832200  42.1875790  69.5752642  83.6336463  42.3883799
  71.0658116  82.7521431  42.6600969  75.4194110  85.3999407  40.1200630
  74.9672983  86.4725751  39.7148883  76.3709602  84.6251017  39.4499655
  76.7703753  83.8303103  39.9283729  76.9593380  85.0387944  38.2195282
  77.5364987  85.9505555  38.3733997  77.9143333  83.9296941  37.6723351
  78.7341245  83.7939247  38.3777487  77.3548486  82.9985428  37.5827015
  78.4886433  84.3262961  36.2792326  77.7153528  84.0459263  35.5640295
  78.6678709  85.3996921  36.2176065  79.7992189  83.5635667  35.9490621
  80.5122058  84.0076965  34.9733308  80.0426827  82.5161781  36.6078788
  76.0025159  85.5649374  37.2141830  76.1121123  86.6730926  36.7380708
  74.9523390  84.7582618  36.9299509  74.6984619  84.0142953  37.5641116
  74.0660805  85.0278517  35.7713893  74.5566140  85.0565777  34.7984294
  72.9001546  83.9104725  35.7288958  72.1303604  84.2342596  35.0284116
  73.4653251  82.5311669  35.2775189  74.2349046  82.2064839  35.9778254
  72.6599827  81.7969196  35.2573945  73.8971955  82.6233983  34.2809834
  72.0804571  83.7336575  36.9973482  71.5831625  84.6719947  37.2429566
  71.3322740  82.9564244  36.8416870  72.7375119  83.4456283  37.8179693
  73.3215530  86.3575281  36.0120412  73.3113075  87.1911837  35.0982100
  72.7935845  86.6300803  37.2299236  72.8181364  85.8520852  37.8735230
  72.2011669  87.8610470  37.6722361  71.5267531  88.2848851  36.9281753
  71.3899664  87.4994794  38.9175736  72.0171806  87.1057197  39.7173579
  70.8122900  88.3445047  39.2921698  70.4824143  86.4580959  38.4553068
  69.9285145  86.1695972  39.1843907  73.1898521  89.0194955  38.0180116
  72.7696674  90.1469521  38.2031404  74.5370081  88.7526630  38.0138920
  74.7327540  87.7676435  38.1212203  75.6589411  89.6977810  38.0885678
  76.6013063  89.1589780  38.1872517  75.7067691  90.5399141  36.8030787
  74.6967285  90.8932084  36.5954725  76.3594995  91.3936589  36.9851858
  76.2325573  89.7390632  35.5881390  77.0367893  89.0072939  35.6644635
  75.2930542  89.2256239  35.3836493  76.5504183  90.7191072  34.3763303
  77.5976145  91.3739228  34.3679882  75.8909841  90.6054328  33.2267831
  76.1006702  91.2329390  32.4636520  75.1836025  89.8921318  33.1223116
  75.6692612  90.4595509  39.4157999  75.9306907  91.6805167  39.4789117
  75.5084364  89.8046976  40.5780535  75.6177022  88.8006296  40.5752626
  75.1113516  90.4529043  41.8211568  75.6383222  91.3964534  41.9629884
  73.6192012  90.7386446  41.7259781  73.2280649  91.2843011  42.5846809
  73.3356310  91.2543953  40.8085419  72.7478334  89.1525366  41.6999118
  71.5243362  89.6674174  41.6171429  75.5045221  89.5257736  43.0323510
  75.8201549  88.3302142  42.8973112  75.4684397  90.1824861  44.1992249
  75.5363618  91.1900902  44.1843932  75.4421446  89.5054772  45.5023575
  75.7110209  88.4569679  45.3741666  76.4536212  90.1623868  46.4949153
  76.2014118  91.1572843  46.8618876  76.4287841  89.4533644  47.3224239
  77.9249691  90.2279467  46.0110565  78.9203655  89.3036514  46.3281607
  78.5639179  88.4462586  46.8990571  80.2748046  89.3997357  45.9799359
  81.0320552  88.7395197  46.4027682  80.6474892  90.3989327  45.0427243
  81.6667063  90.4607439  44.6613114  79.6705184  91.3241374  44.6041636
  79.9236673  92.1645080  43.9577944  78.3654279  91.1395464  45.0178505
  77.5633894  91.7255803  44.5690761  74.0129629  89.4671749  46.0898891
  73.3566866  90.5388492  46.0240894  73.5890944  88.3504686  46.6704135
  74.0680214  87.4877973  46.4547137  72.4986886  88.3059887  47.5777352
  71.8020706  89.1300307  47.4235359  71.9592222  87.3602819  47.5256402
  73.1456440  88.4451280  48.9936596  74.0812228  87.7336509  49.3492249
  72.5585057  89.2995282  49.8678375  71.7737044  89.8013563  49.4775110
  72.9633927  89.6012253  51.2709634  73.6387450  88.8194712  51.6186112
  73.7782723  90.9799511  51.1811905  73.2261835  91.7173551  50.5984962
  73.9505499  91.4815851  52.5918732  74.5029944  90.7448673  53.1750995
  74.5020319  92.4216920  52.5789445  72.9713976  91.6415154  53.0432983
  75.1905546  90.7397201  50.6226513  75.1184580  90.3073316  49.6246812
  75.7269046  91.6871499  50.5696881  75.7288878  90.0541336  51.2770743
  71.6987902  89.6596998  52.0664419  70.8261313  90.5878948  51.9603028
  71.6257435  88.7309409  53.0803320  72.1519053  87.8692151  53.0542205
  70.7388349  88.9546373  54.1894664  69.7223998  89.1600739  53.8536768
  70.7290944  87.6624935  55.0240001  71.7727191  87.4760848  55.2773745
  70.1565573  87.8208288  55.9379099  70.1684208  86.4654682  54.2769229
  70.8387060  86.1989570  53.4597385  70.0396441  85.2737554  55.2443437
  69.3691001  85.5393680  56.0616072  69.6372410  84.4131559  54.7099833
  71.0213357  85.0242474  55.6469947  68.7785628  86.7678169  53.6037914
  68.8897182  87.5845217  52.8905332  68.4248068  85.8775766  53.0837622
  68.0570701  87.0510811  54.3701520  71.1956208  90.1527438  54.9880912
  72.3914160  90.1911358  55.3746682  70.2311952  90.9487864  55.4440051
  69.3508371  90.9046562  54.9509315  70.3894217  91.9653648  56.5073483
  71.2168200  91.7067711  57.1681361  70.6812206  93.2742345  55.8720163
  71.0855528  93.9652328  56.6117027  71.4022450  93.1438669  55.0650293
  69.4414750  93.8127487  55.3321893  69.6149005  94.6609077  54.9172799
  69.2182817  92.0451422  57.4900831  68.2370031  91.3292478  57.3447820
  69.3425800  92.8270444  58.5591686  70.2801745  93.1708145  58.7102914
  68.2866689  93.2175516  59.5240348  67.2935621  93.1289933  59.0835855
  68.3778446  92.2937746  60.6711286  68.3973307  91.2626312  60.3183358
  69.2826744  92.4986240  61.2433347  67.2532968  92.4869900  61.4892913
  67.2985770  91.8918468  62.2411917  68.3418508  94.6356670  60.0741774
  69.4680154  95.0818544  60.3601739  67.2076324  95.3386120  60.0725181
  66.4093610  94.9320242  59.6060971  67.1069941  96.7285913  60.5431533
  68.0323147  96.9961235  61.0533566  66.8768294  97.7203160  59.3908463
  67.2816319  98.6743391  59.7285951  67.4682784  97.3515106  58.5528304
  65.4338531  97.9103916  58.9479303  65.0429006  96.9185649  58.7209134
  64.8967985  98.3256155  59.8007278  65.2411901  98.8447955  57.7042891
  65.5807066  99.8556433  57.9301527  65.7942624  98.4591749  56.8478387
  63.7642927  98.8953400  57.3476600  63.2291578  99.6862931  57.6764808
  63.1850796  98.0354816  56.5997183  63.7648913  97.1470198  55.7861385
  64.7719846  97.1106070  55.7187794  63.1931645  96.5163108  55.2426000
  61.8678879  97.9715871  56.6978582  61.3820039  98.5831686  57.3381588
  61.3538273  97.3114996  56.1320623  66.0802468  96.8994574  61.6960839
  65.0005973  96.3750792  61.6059433  66.4657445  97.6156168  62.7966457
  67.4590757  97.7220549  62.9451833  65.5912756  98.0215844  63.8204075
  64.8811007  97.2317996  64.0653376  66.4256425  98.3982624  65.1099426
  67.0174619  99.2946789  64.9247734  65.4256394  98.6675172  66.2774813
  64.8337435  97.7713386  66.4635556  65.9802950  98.9295452  67.1784803
  64.7634586  99.4899882  66.0070054  67.4349317  97.3231965  65.5433920
  66.8907881  96.3942536  65.3728825  68.2284658  97.4200926  64.8024370
  68.0457941  97.3056087  66.9442199  67.2528488  97.2082610  67.6857462
  68.7302934  96.4619046  67.0321026  68.5905249  98.2341017  67.1153015
  64.5819119  99.0753652  63.3346041  64.9544351  99.9416006  62.5289797
  63.3222518  98.9454935  63.7463219  63.1239561  98.1512684  64.3379170
  62.2226374  99.8541876  63.4117755  62.6148706 100.7778006  62.9861097
  61.3122802  99.2031006  62.3966128  61.1570684  98.1654948  62.6922185
  60.3579087  99.7295910  62.4057201  61.8989616  99.2476431  61.0032945
  62.6002393 100.0810779  60.9621015  62.4500729  98.3078003  60.9705692
  60.9206893  99.3246150  59.7735585  61.3079958  99.8078993  58.6966281
  59.7716444  98.8160548  59.8717795  61.4506566 100.1368602  64.7420035
  61.8408833  99.7445111  65.8308829  60.3479555 100.9772169  64.6747873
  60.1939766 101.4731011  63.8084798  59.3740933 101.2156136  65.8296598
  59.4577776 100.4230419  66.5732499  59.6225824 102.5846005  66.5310100
  58.7600694 102.8456900  67.1442007  60.8763454 102.4709986  67.4277278
  61.7394205 102.2103685  66.8151314  61.0574707 103.4251894  67.9225146
  60.7175831 101.6972066  68.1788218  59.8046888 103.7456475  65.5726191
  58.9093963 103.8562862  64.9608083  59.9727715 104.6618179  66.1387283
  60.6629775 103.5545510  64.9284735  58.0107849 101.1502809  65.1620515
  57.8218200 101.3255358  63.9386628  56.9976125 100.8505415  65.9861414
  57.2732461 100.4540695  66.8732352  55.5872280 100.7181911  65.5679694
  55.5470570 100.1812608  64.6202399  54.7650233  99.9691925  66.5797494
  55.4362802  99.1739685  66.9039902  54.6446242 100.6933793  67.3854526
  53.4046416  99.3731340  66.2239673  53.4896841  99.1883248  65.1531199
  53.2506674  98.4277488  66.7441987  52.1688520 100.2858448  66.4746227
  52.2144991 101.5203080  66.5867424  51.0176232  99.6659669  66.6721594
  50.1798837 100.2045618  66.8401162  50.9813790  98.6567771  66.6541655
  54.9404878 101.9190090  64.9632699  55.0829612 102.9654399  65.5735196
  54.2109462 101.8100539  63.8610690  54.0546335 100.8582815  63.5614109
  53.7541299 102.9321262  62.9538896  54.1524675 103.8901155  63.2880795
  54.2765277 102.6504913  61.5495790  55.2934792 102.2648007  61.6213541
  53.6449881 101.9172979  61.0478965  54.2810246 103.9651561  60.7399914
  54.4967434 103.8807862  59.4975216  54.0992423 105.1076337  61.2545419
  52.2524634 103.1493059  63.0751038  51.6185136 103.5166470  62.0609548
  51.6713076 102.8852169  64.2356157  52.2526954 102.8125292  65.0582967
  50.2462821 102.5087265  64.3490106  50.0988612 101.7978499  65.1620424
  49.3069086 103.7484998  64.5884610  49.3346326 104.3008373  63.6491767
  47.8362251 103.5011621  64.9973707  47.8076893 102.9492371  65.9368727
  47.3276888 104.4570990  65.1225690  47.3351794 102.9225584  64.2213091
  49.8711822 104.5011854  65.5328787  49.3198456 105.2685962  65.7023159
  49.8539446 101.6507156  63.1815357  50.5019043 100.6086601  62.9623748
  48.7961275 101.9420376  62.4613590  48.3239481 102.7831644  62.7607778
  48.2207895 101.1764948  61.3111593  47.8987836 100.2065309  61.6900805
  47.0217716 101.8560436  60.6106383  46.4717326 101.1389564  60.0012597
  46.3481397 102.3028556  61.3418558  47.5568300 102.8735060  59.7766115
  46.8413211 103.3226886  59.3206709  49.2938493 100.9274032  60.2372217
  49.0524477 100.0949485  59.4219417  50.4726595 101.6173276  60.2930754
  50.6815443 102.1510055  61.1247330  51.4370956 101.6201894  59.2170601
  50.9240970 101.7607985  58.2656607  52.1512309 102.4298381  59.3673236
  52.1936695 100.2876196  59.1835880  52.8766872 100.0671129  58.1606415
  52.0004567  99.4623814  60.1692375  51.1625730  99.6360708  60.7057841
  52.8632336  98.3315396  60.5650413  52.2858375  97.5824520  61.1068722
  53.3185677  97.8734193  59.6870344  53.9493436  98.8549998  61.4623041
  53.7893001  99.1273663  62.6435241  55.0932282  99.0913361  60.7483839
  55.1232378  98.7658192  59.7927493  56.3805062  99.6570168  61.3655221
  56.1640465 100.3501187  62.1784514  57.2478043  98.4908369  61.9236982
  58.1666660  98.8967830  62.3467835  56.4687113  97.7325682  63.0189314
  55.5498841  97.3259116  62.5964547  57.0823074  96.9182753  63.4043223
  56.2228684  98.4171763  63.8307032  57.6383377  97.5759567  60.9396902
  58.1680146  96.8824093  61.3397336  57.1513943 100.6034041  60.4119684
  56.9087185 100.6264407  59.2137732  58.0108434 101.4391385  61.0624892
  58.0012947 101.4388653  62.0724437  58.8438579 102.4822103  60.3541975
  59.0058526 102.2120652  59.3107041  58.0755254 103.8103097  60.4035046
  57.1103004 103.6043606  59.9408753  57.8571248 104.4436460  61.7755994
  58.8219760 104.6503234  62.2386828  57.3021395 105.3749116  61.6623084
  57.2911308 103.7584576  62.4066845  58.7334789 104.8497813  59.6474353
  58.2216480 105.6599331  59.7047372  60.2929914 102.5952236  60.8334481
  60.5462644 102.3470650  61.9828401  61.1866216 103.0788785  59.9300755
  60.8890457 103.2052285  58.9732141  62.5359874 103.3065844  60.2429619
  62.9078977 102.4567259  60.8152576  63.2901722 103.3784596  58.9447989
  62.9352089 104.2301041  58.3644517  64.3544759 103.4964231  59.1483734
  63.1285347 102.4610497  58.3788204  62.7513729 104.5869870  61.1641233
  61.9552480 105.5256074  61.2039598  63.8212697 104.4469833  61.8953837
  64.2113837 103.5199003  61.9871849  64.4298732 105.5558225  62.6967927
  63.6209921 106.2351957  62.9656098  65.1549596 105.1424909  63.9607056
  65.7313196 104.3394078  63.5013952  65.8353969 105.8898321  64.3688554
  64.2763085 104.5604550  65.1064081  64.9433472 104.4242222  65.9576430
  63.0453412 105.4247559  65.5414821  62.3775697 105.5610396  64.6908312
  62.5107006 104.9180220  66.3449004  63.3895963 106.3977465  65.8920218
  63.8654011 103.1000357  64.9998406  64.7562156 102.4725308  64.9717953
  63.2577789 102.8290849  65.8632537  63.2872939 102.9503227  64.0879870
  65.3900756 106.4281824  61.8041245  65.5799979 107.6117415  62.1534328
  65.9009721 105.8187399  60.7218387  65.5353523 104.8786440  60.6704452
  66.8716445 106.2320081  59.7324068  66.6543107 107.2432100  59.3884069
  68.3147101 106.2161376  60.3725957  69.0227751 106.6325915  59.6561396
  68.3073309 106.8293444  61.2737188  68.7435101 104.7506935  60.7404997
  67.9992786 104.2944043  61.3932021  68.8485446 104.1519087  59.8357751
  70.0932471 104.8157071  61.4705637  69.9688518 105.3448453  62.4153586
  70.4486904 103.8038898  61.6654621  71.1201674 105.5356786  60.6481984
  70.9755714 105.3452883  59.6669019  72.1726638 106.2301567  61.0014980
  72.2872950 106.5938779  62.2515011  71.5718997 106.3370891  62.9166094
  73.0907434 107.1300623  62.5465886  73.0245736 106.6722104  60.1165307
  72.8759989 106.4787866  59.1364222  73.8282412 107.2055580  60.4161262
  66.7575887 105.3478703  58.5414649  66.5765362 104.1356698  58.6937800
  67.0586113 105.8510287  57.3749406  67.5097733 107.1909302  57.0524335
  68.5147624 107.2988378  57.4604203  66.8376183 107.8865494  57.5548484
  67.4748570 107.3391935  55.5576051  68.4752400 107.5574305  55.1838332
  66.7997583 108.1492972  55.2817878  66.9599284 105.9923153  55.0285864
  67.6151893 105.6918373  54.2110016  65.9302447 106.0303746  54.6730547
  67.0753797 105.0096267  56.1651392  66.2090266 104.3481964  56.1715194
  68.3605214 104.1686544  56.1387336  69.3185881 104.6196663  56.7996552
  68.3622111 103.0169416  55.4449030  67.4753667 102.7018601  55.0783925
  69.5463683 102.0897065  55.3458694  70.4402235 102.6593677  55.0916879
  69.7878757 101.3639068  56.7015976  70.6168834 100.6696237  56.5644241
  70.0644050 102.1181438  57.4383188  68.6397476 100.6491927  57.1604205
  68.8416136 100.2220173  57.9961066  69.3478885 101.2256655  54.1423691
  68.2284113 101.1964039  53.5875713  70.3871617 100.4565545  53.7255771
  71.2662494 100.6338251  54.1902053  70.3940546  99.6176134  52.5132420
  70.6498661 100.2954021  51.6988329  71.5648361  98.6697238  52.7438802
  71.3201166  97.9787768  53.5506048  71.7624966  98.1069156  51.8315877
  72.4504845  99.2445382  53.0146468  69.0312993  99.0545371  52.0736296
  68.6410627  99.2876299  50.9086488  68.2527778  98.2905147  52.9033132
  68.5884130  98.0684609  53.8296719  67.0190708  97.7577326  52.4969090
  67.0941555  97.3313169  51.4965935  66.6153337  96.6369265  53.4828233
  65.6633432  96.2109687  53.1660057  67.3812603  95.8614633  53.4721782
  66.4885892  97.1489436  54.7784669  66.2379720  96.4427333  55.3785150
  65.8581340  98.7849900  52.3989240  64.9237024  98.4139020  51.6425951
  65.9002995 100.0846855  52.7813724  66.6557292 100.2398487  53.4335609
  64.9455614 101.1886181  52.5382908  64.0488175 100.7319877  52.1194372
  64.5357588 102.0134068  53.8477572  63.5007728 102.3430414  53.7569541
  64.6878139 101.0896015  55.1391967  65.7227073 100.7599347  55.2309309
  64.4075318 101.6563987  56.0270492  64.0372568 100.2202966  55.0433585
  65.3298051 103.1477157  54.1176512  65.0133896 103.5772606  54.9157569
  65.3241747 102.1274245  51.4222193  64.4895222 102.6237378  50.6545225
  66.6279746 102.2782775  51.1422227  67.2865668 101.7943807  51.7356867
  67.1485191 103.1125133  50.0723413  66.4576054 103.9251294  49.8478588
  68.5346436 103.7380940  50.5388065  69.2493916 102.9370212  50.7272657
  68.9199196 104.3913410  49.7559075  68.3297078 104.5326502  51.7979283
  67.5934456 105.3032984  51.5696302  67.9572230 103.9029917  52.6059428
  69.5839671 105.1923983  52.2491235  70.5542474 104.6415439  52.7462166
  69.6850156 106.5193600  52.1684410  70.5323057 106.9776230  52.4720791
  68.9138130 107.0602546  51.8040499  67.3529644 102.2783104  48.7016314
  67.7334441 102.8975819  47.6709059  67.1098916 100.9590951  48.6653349
  66.9489297 100.5161983  49.5586619  67.0592161 100.0970194  47.4137613
  68.0545105  99.8408339  47.0506398  66.3284973  98.7988322  47.8039215
  65.3268788  99.0383235  48.1609990  66.2570964  98.1459625  46.9340000
  66.8835682  98.2920309  48.5933187  66.2900114 100.8084446  46.2403350
  65.2158929 101.4016659  46.4602827  66.7501780 100.5985557  45.0085520
  67.6933927 100.2497078  44.9150076  66.0403484 101.0245198  43.7925625
  65.6886570 102.0509030  43.8972051  67.0117369 100.9534004  42.5812792
  67.2897158  99.9017006  42.5123268  66.4450885 101.2377852  41.6946367
  68.2611076 101.7994949  42.6732458  68.8894448 101.3993303  43.4689603
  69.0392635 101.7987890  41.3631088  68.4116901 102.1992783  40.5669563
  69.9302799 102.4176744  41.4688036  69.3332376 100.7789076  41.1150734
  67.8725030 103.2638471  43.0546115  67.3614459 103.2656763  44.0173767
  68.7733959 103.8738462  43.1209014  67.2111556 103.6751349  42.2920101
  64.6594669 100.3208918  43.5167965  63.7812898 100.9005516  42.9326043
  64.4915250  99.0895470  43.9850286  65.3276419  98.5986592  44.2679371
  63.1794233  98.3838308  44.1081497  62.3462874  99.0846148  44.0544306
  63.0686055  97.3682240  42.8893798  63.8559799  96.6247309  43.0133108
  62.0957925  96.8815613  42.9593388  63.1951464  97.9737470  41.6439148
  63.1192288  97.3088206  40.9556494  63.0112064  97.6102173  45.4104190
  64.0246520  97.4053592  46.0500652  61.8760620  97.0545820  45.7181746
  61.1402114  97.2150147  45.0452075  61.5166991  96.4090891  47.0259479
  62.3356914  95.8192327  47.4375548  61.2305666  97.5534535  47.9612994
  62.1679034  98.0442631  48.2232248  60.5742180  98.2670182  47.4631711
  60.6308424  97.0980563  49.0853364  60.4530145  97.8350815  49.6742091
  60.4658428  95.3119748  46.8912952  59.7194810  95.3377643  45.8576506
  60.3800308  94.3877527  47.8164696  61.2437889  94.1505295  48.2831027
  59.2340382  93.4697292  47.9574047  58.3023618  94.0030258  47.7685317
  59.3535293  92.3362174  46.9602317  58.4807765  91.7091720  47.1424837
  59.2614899  92.8111016  45.9834443  60.5374146  91.5271105  46.9884405
  60.4800217  90.8522111  46.3081341  58.8693095  93.1505653  49.4570154
  59.8089505  93.1355867  50.2313006  57.6044788  92.9261758  49.7895837
  56.8811903  92.8056467  49.0950149  57.2105286  92.9129295  51.2348849
  58.0997539  92.7743381  51.8498402  56.5947113  94.2897564  51.5615632
  55.7337735  94.4576424  50.9144932  56.1429967  94.3394076  53.0472151
  57.0035395  94.1720536  53.6949494  55.7105587  95.3162831  53.2635765
  55.3975189  93.5647681  53.2269321  57.6321308  95.4118158  51.3836520
  57.9840471  95.4217632  50.3520717  57.1736296  96.3720665  51.6198613
  58.4747698  95.2377188  52.0527938  56.2377616  91.7327059  51.4409739
  55.2634158  91.5010640  50.7258233  56.7032681  90.7867394  52.2868002
  57.6624307  90.8907925  52.5855969  55.9140193  89.6699421  52.8432792
  55.7180603  88.9100281  52.0868203  56.7690556  89.0127041  54.0154111
  56.9954595  89.7859736  54.7495057  56.1672787  88.2334634  54.4831166
  57.9933046  88.4433484  53.5275151  58.4807843  88.0577641  54.2591489
  54.5887110  90.0970549  53.4827239  54.5015706  91.2439607  53.9642244
  53.5436925  89.3163922  53.3177173  53.6445647  88.3986237  52.9082969
  52.1789560  89.8050360  53.6172497  52.1099877  90.8619145  53.3596637
  51.0706030  89.0007379  52.7825671  50.1051190  89.4047063  53.0871149
  51.2474754  89.2357603  51.7330049  51.0704594  87.6313626  52.9532957
  50.3764055  87.2420326  52.4163495  51.8741824  89.7671991  55.1441834
  52.1713984  88.7065175  55.7885779  51.2258553  90.8876704  55.5554011
  50.9223990  91.5354993  54.8424275  51.1504101  91.3318356  57.0205336
  52.0920308  91.1000905  57.5182723  50.8919744  92.8584790  57.1338288
  50.9673491  93.2397898  58.1521706  51.5198961  93.4578239  56.4745867
  49.5485995  92.9337729  56.7011456  49.2559648  93.8478093  56.7235551
  50.2326569  90.4867608  57.9139673  50.3477916  90.3979808  59.1341636
  49.2587870  89.7643477  57.3079791  49.1760553  89.8973170  56.3101945
  48.2773838  88.9843718  57.9645081  48.1981714  89.2617712  59.0156380
  46.9115430  89.2478606  57.2780318  46.6999019  90.3170873  57.2858788
  46.9466289  88.8925001  56.2481833  45.8098929  88.5046609  58.0363900
  46.0295098  87.4387400  57.9757114  45.8525064  88.8251941  59.0773245
  44.4372860  88.7639862  57.4894662  44.5001638  88.8093459  56.4022275
  43.7864203  87.9397408  57.7811730  43.8628530  90.0823748  58.0235554
  43.6570495  89.9905571  59.0900051  44.5768234  90.8895909  57.8600089
  42.5966929  90.3848475  57.2978234  41.9348224  89.6371887  57.4495913
  42.2100270  91.2519255  57.6424465  42.7872475  90.4703905  56.3096582
  48.6305046  87.5102717  58.0877292  48.2333440  86.6312808  57.2888972
  49.4977351  87.2669710  59.0665499  49.9010415  88.0729048  59.5225258
  49.9874727  85.9165332  59.4570414  50.4695396  85.4082175  58.6219810
  51.0722719  86.1326081  60.6217115  51.9052547  86.6675149  60.1655167
  50.6140243  86.7593596  61.3867551  51.5930481  84.8208488  61.2709878
  50.7954327  84.4333317  61.9048181  52.0113418  83.7279505  60.2332125
  52.8092956  84.1145984  59.5992787  52.3641083  82.8415799  60.7604731
  51.1525410  83.4649587  59.6156391  52.7922733  85.0902502  62.1413043
  52.5180295  85.7874678  62.9329971  53.1376976  84.1560737  62.5841332
  53.5902668  85.5224666  61.5375706  48.7119162  85.0665550  59.8347739
  48.1553310  85.0838800  60.9790548  48.2187995  84.2067313  58.8965287
  48.7125714  84.1139397  58.0203561  47.0367375  83.3939438  59.1089716
  46.1769909  84.0199883  59.3477249  46.7374742  82.6235922  57.8308124
  47.6345432  82.0372967  57.6317543  45.8743122  81.9599605  57.8822355
  46.5125703  83.5759316  56.5443595  45.6659817  84.6661720  56.7020000
  45.1693771  84.8909969  57.6458948  45.4597115  85.4956613  55.5827644
  44.8671160  86.4006541  55.7166272  45.9831867  85.1910125  54.3433271
  45.7466873  85.8685666  53.5229075  46.8079553  84.0391454  54.1082590
  47.2428061  83.7405631  53.1543966  47.0347844  83.2769045  55.2410959
  47.6485648  82.3782555  55.1794227  47.2581293  82.3771837  60.2214255
  46.2850187  82.0018927  60.8428210  48.4494474  82.0638570  60.6520815
  49.2459313  82.4243066  60.1463257  48.6977702  81.1554518  61.8054616
  47.9355445  80.3766853  61.8306425  50.1120083  80.4719533  61.6814235
  50.8800111  81.1899102  61.3936583  50.4030830  79.9822274  62.6106943
  49.9677352  79.4960309  60.6564650  50.8024351  79.0389850  60.5300335
  48.6048036  81.8205874  63.1615847  49.3013469  81.4087574  64.0697110
  47.9615979  82.9766969  63.2882788  47.4700147  83.3073300  62.4702770
  47.8621229  83.7606921  64.5231416  47.7127556  83.0899151  65.3692189
  49.1215123  84.5645939  64.7600510  49.9776910  83.8911352  64.7989174
  49.2552819  85.2747843  63.9440636  49.0204268  85.2529113  65.9595705
  49.8216426  85.7612606  66.1052896  46.7130420  84.7867740  64.3856970
  46.1296244  84.9665675  63.3117286  46.3816216  85.3753365  65.4929299
  46.7772648  84.8919624  66.2866020  45.3686273  86.3909401  65.7384536
  45.0613746  86.8155324  64.7827255  44.1092866  85.8237597  66.4590905
  44.3285836  85.4813371  67.4704040  43.2894423  86.5414442  66.4888272
  43.7384023  84.7160124  65.6553525  42.9591055  84.2970521  66.0278692
  45.8914718  87.7519717  66.3233831  45.2264739  88.5008584  66.9833396
  47.1682540  87.9887539  66.1757164  47.7540460  87.1900586  65.9781490
  47.8280830  89.3298627  66.3605017  47.0975823  90.0915459  66.0879094
  48.3150433  89.6041783  67.8252412  47.4733130  89.4835924  68.5071865
  49.4277794  88.6278796  68.2115124  50.2700978  88.7482090  67.5302487
  49.7537737  88.8327265  69.2312499  49.0533878  87.6061272  68.1486354
  48.8396915  90.9037766  67.9720660  49.1259623  91.0326766  68.8792783
  48.9785937  89.4104354  65.3640806  49.2660063  88.4235716  64.6615765
  49.4833446  90.6158011  65.1369745  48.9191332  91.3216672  65.5881040
  50.5971611  91.0431867  64.3362553  50.3487451  91.0386783  63.2749503
  50.8030680  92.4925629  64.7843501  51.0614400  92.5128676  65.8430907
  51.6101674  92.9412706  64.2052541  49.8844039  93.0569243  64.6241884
  51.8833103  90.1430286  64.4785419  52.0341700  89.5028315  65.4975371
  52.7541725  90.1273908  63.4272187  52.7750403  90.9227286  62.2400421
  53.1788818  91.9069226  62.4774755  51.7573753  91.0291182  61.8643585
  53.6770895  90.1302422  61.2756653  54.2425390  90.8382526  60.6697880
  53.0437948  89.5235517  60.6283897  54.5780312  89.2729236  62.0918992
  55.5968523  89.6492036  62.1841820  54.5999247  88.2631781  61.6819793
  53.8948004  89.2647493  63.4749429  53.5389939  88.2412845  63.5933482
  54.8352400  89.6096441  64.6201262  55.2591148  88.7134837  65.3095359
  55.0948905  90.9249309  64.9353201  54.8187531  91.5453447  64.1877010
  55.8922929  91.4675202  66.0213235  56.7668589  90.8239622  66.1165422
  56.3620370  92.9081486  65.8749947  56.8512293  93.2488716  66.7875176
  57.0689935  92.9513989  65.0464767  55.2738002  93.9107499  65.5675776
  54.3193749  93.8200572  64.5043616  53.5294156  94.9230507  64.6099589
  52.7324594  95.0967809  63.8869252  53.9302224  95.6509353  65.6938130
  53.4807336  96.4831550  66.0480305  55.0633899  95.0643102  66.2400002
  55.5899975  95.5544574  67.0588661  55.2077479  91.1182516  67.2940857
  55.9467228  90.8552206  68.2894956  53.9057468  91.0789178  67.3556876
  53.3197782  91.2091644  66.5434217  53.2662260  90.7661426  68.6245702
  53.8163942  91.2119384  69.4532319  51.8016437  91.3593504  68.6136156
  51.3828472  91.3316874  67.6076615  51.1554131  90.8012603  69.2911268
  51.9004867  92.8064738  69.0829297  52.6587934  92.6479210  69.8496973
  52.2916162  93.4788852  68.3193985  50.6447683  93.4318220  69.7237947
  49.6164498  92.7156077  69.8783621  50.5748045  94.6665721  69.8996249
  53.1305263  89.2295853  68.7859312  52.8708776  88.7981194  69.9192382
  53.2185621  88.3813088  67.7333294  53.2350760  88.7519330  66.7939337
  53.2374387  86.8947572  67.9102981  52.5889519  86.5863705  68.7303357
  52.7250571  86.2342607  66.5946361  53.3698469  86.5557814  65.7767297
  52.7360358  84.7460732  66.6800246  52.0910577  84.4237598  67.4974700
  52.3717875  84.3251558  65.7428741  53.7533021  84.3995752  66.8622577
  51.3874434  86.5822724  66.2054596  51.1636193  86.1293548  65.3891454
  54.5857608  86.3850446  68.2569760  54.7278342  85.5129833  69.1197444
  55.6445297  87.0113857  67.7243417  55.3982095  87.6583884  66.9889416
  57.0364966  86.8497756  68.0531097  57.2358517  85.9415842  68.6219198
  57.7431176  86.7333131  66.6607099  57.1022555  86.1554028  65.9948161
  57.8766399  87.7363745  66.2555684  59.0001145  86.0994145  66.7710754
  59.4073222  86.0430426  65.9035479  57.5660495  87.9819507  68.8517907
  58.4308408  88.7350097  68.4768183  56.9259783  88.0713821  69.9980088
  56.0989081  87.5187265  70.1730117  57.3169280  89.0283645  70.9753449
  57.4949953  90.0004635  70.5155462  56.1909303  89.1691701  71.9902005
  55.2850167  89.5410771  71.5115514  55.9956520  88.1884692  72.4240118
  56.4784977  90.0816468  73.1188719  56.5862138  91.4931583  72.9546017
  56.3531740  91.9078481  71.9738751  56.9811015  92.3536342  74.0142786
  57.1443925  93.4145651  73.8249050  57.1630222  91.8293067  75.3219507
  57.3883347  92.4711732  76.1736207  57.0481152  90.4795149  75.4956533
  57.2832317  90.0630878  76.4751475  56.6369835  89.6279659  74.4463903
  56.4289035  88.5770195  74.6471741  58.6322502  88.6156659  71.5634277
  58.7933781  87.5056440  71.9348981  59.4998462  89.5940797  71.7555772
  59.2151198  90.5552912  71.6326842  60.9016173  89.3217372  72.1525010
  60.9863787  88.4508960  72.8025397  61.5591525  89.1975927  71.2920738
  61.3209601  90.5416289  72.9145686  60.5262839  90.9966055  73.6883380
  62.5890022  90.9989011  72.7171348  63.0996653  90.3191728  72.1718899
  63.3481067  92.1584365  73.3044192  62.6791529  92.7072426  73.9673007
  64.5921671  91.7286821  74.1059401  65.2625653  91.1902930  73.4360128
  65.0901072  92.6259505  74.4734520  64.2183326  90.8183042  75.3036203
  63.4993075  90.0984860  74.9125123  65.1075163  90.2914101  75.6497911
  63.5946703  91.5775361  76.4653290  64.0765176  92.7261011  76.7660858
  62.6948665  91.1023913  77.1255361  63.6200321  93.2500434  72.2545044
  64.5521540  94.0116259  72.5292165  62.9729921  93.2347405  71.0850968
  62.2867554  92.5017972  70.9756769  63.1802635  94.1660996  69.9697181
  63.2147442  95.2025131  70.3055117  64.5755161  93.7935042  69.3438614
  64.8621910  94.5502710  68.6136417  65.3279282  93.7454804  70.1310526
  64.4699084  92.3945406  68.6343060  63.4187910  92.3407098  68.3508360
  65.0917470  92.1981580  67.7608933  64.7597997  91.3537756  69.7078680
  63.7959894  90.5881644  70.0603310  65.8573421  91.3562015  70.3663031
  62.1133806  94.0942055  68.8997259  61.2649413  93.2236425  68.9350081
  61.9617631  95.1829906  68.0798142  62.3441003  96.0551812  68.4162681
  61.1745012  95.1957089  66.7859653  60.8053005  94.1811045  66.6364059
  60.0018974  96.1428287  66.7661330  60.4185816  97.1446364  66.8703197
  59.1250720  96.0863530  65.5295952  58.7076290  95.0849041  65.4249891
  58.3147153  96.8090895  65.6248548  59.7219225  96.3244252  64.6491449
  59.0225072  95.9135139  67.8742794  59.5233614  96.0387866  68.8342554
  58.2071991  96.6324766  67.7938743  58.6226352  94.9020224  67.8029475
  62.1113257  95.4789432  65.5598237  62.7368837  96.5300633  65.4678582
  62.2850056  94.5061616  64.7052915  61.8573215  93.6107675  64.8935867
  63.2060336  94.6045893  63.6019831  63.3189789  95.6380511  63.2744176
  64.5466849  94.1000190  64.0770966  65.1756677  93.9411821  63.2011681
  64.9910819  94.8697086  64.7081190  64.4363069  92.8132716  64.8564220
  64.1695307  93.2172909  65.8329975  63.6197080  92.1945254  64.4843756
  65.6615728  91.9905227  64.9808468  65.5901163  90.7496910  64.9789283
  66.7843310  92.4997208  65.2359395  62.7116087  93.9521096  62.2667433
  62.1729703  92.8287040  62.3451881  62.9266154  94.5807069  61.1089560
  63.2681653  95.5258635  61.2095642  62.5850150  94.1028010  59.7612398
  61.8787772  93.2819295  59.8857277  61.9685681  95.1374346  58.8344251
  62.6750838  95.9543323  58.6874117  61.6287978  94.4788648  57.4406630
  60.9219263  93.6621205  57.5868219  61.1874181  95.2272974  56.7825345
  62.5420986  94.0917715  56.9888423  60.7163822  95.6571284  59.4398125
  60.9412559  96.1180989  60.4016025  60.2724316  96.3995334  58.7766064
  60.0148958  94.8358113  59.5862914  63.8470920  93.4244030  59.1498414
  64.8381135  94.1205576  58.8784299  63.9631291  92.1023685  59.0913171
  63.3640278  91.5457342  59.6840525  64.9481065  91.4177736  58.2692475
  65.9467383  91.8407866  58.3783054  64.9684259  89.9280392  58.8049596
  63.9189532  89.6335797  58.8048383  65.5345323  89.2536930  58.1624016
  65.4760313  89.7143599  60.2078220  66.7775170  89.3608077  60.6973083
  66.6960916  89.2399211  61.9578076  67.5758282  88.8461704  62.4668488
  65.5242442  89.6263454  62.4272870  65.2340192  89.6861768  63.3928384
  64.7142204  89.9541618  61.3146811  63.6976808  90.3162447  61.4684487
  64.5818107  91.5362157  56.7985511  63.4206323  91.5489149  56.4217907
  65.5911597  91.3060534  55.9218636  66.3787527  90.7868530  56.2827343
  65.5856850  91.6511220  54.5385604  64.5775743  91.5542535  54.1355364
  66.0334499  93.0450918  54.3583807  67.0964216  93.0374185  54.5994857
  65.8993614  93.3441885  53.3188320  65.3574941  94.0377986  55.2280075
  64.3006350  94.5352092  55.0058123  66.1417736  94.3249310  56.2476818
  65.8361925  94.9891169  56.9445154  67.0446955  93.8794360  56.3274763
  66.5846970  90.8432696  53.7378359  67.5084314  90.2591467  54.2983930
  66.4276095  90.8221995  52.4146158  65.5533326  91.1994594  52.0778457
  67.3717331  90.2250065  51.4206715  68.3272068  90.0420240  51.9122877
  66.8609071  88.9076848  50.8412189  66.9705143  88.1283583  51.5953645
  65.8019818  89.0789212  50.6476850  67.5846463  88.4447356  49.4844560
  67.3687735  89.2333113  48.7635897  69.0894069  88.1929650  49.5271652
  69.3060289  87.4041350  50.2475268  69.4353854  87.8875432  48.5396850
  69.6029705  89.1071581  49.8248294  66.9692463  87.0697034  49.0757861
  65.8968755  87.1837167  48.9172894  67.4370248  86.7209449  48.1551059
  67.1434866  86.3428836  49.8691791  67.6285789  91.2550822  50.3433246
  66.7330305  91.5589888  49.5858453  68.8433040  91.8275709  50.3791791
  69.3942908  91.5149549  51.1658075  69.4331330  92.7700150  49.4640448
  68.7197162  93.5302610  49.1459857  70.5688988  93.4552059  50.2336735
  71.3142651  92.6625751  50.2989790  70.9359242  94.2453030  49.5785866
  70.3076641  94.0358418  51.6465470  69.9275146  93.2533108  52.3032300
  71.6703993  94.5975916  52.2286173  72.0509529  95.3805418  51.5726701
  71.4990280  95.0091135  53.2232943  72.3998514  93.7900445  52.2908088
  69.2698723  95.1236846  51.7190603  68.3139016  94.7388165  51.3639603
  69.1653691  95.4586482  52.7510389  69.5777611  95.9624698  51.0947664
  70.0080613  92.0620908  48.2315016  70.6618144  90.9712229  48.3532231
  69.9045943  92.6918316  47.0342017  69.4011079  93.5669882  47.0077133
  70.3845282  92.1242868  45.7639933  71.1575552  91.3578883  45.8202237
  69.2301824  91.6326108  44.8292652  68.4663425  92.4101395  44.8193651
  69.6828627  91.3416618  43.3904479  70.4464224  90.5638474  43.3994985
  68.8295047  91.0055265  42.8014708  70.0943255  92.2488697  42.9479871
  68.3240017  90.5657735  45.3276072  67.8509155  90.9457830  46.2330811
  67.5654567  90.4072253  44.5610751  69.0470841  89.1928544  45.6463783
  69.8055042  89.3505259  46.4132149  68.3139553  88.4700354  46.0043646
  69.5200476  88.8119693  44.7412088  71.2335676  93.2377550  45.2202814
  70.6749756  94.2694756  44.9160881  72.5185768  93.0902338  45.2091914
  72.8395129  92.1364132  45.2947820  73.5460594  94.1861785  45.1610811
  72.9953569  95.1154821  45.0154081  74.4008042  94.2918307  46.4335649
  74.7623475  93.2804120  46.6190884  75.6113274  95.2840966  46.4206802
  75.2504972  96.2958622  46.2356596  76.1194596  95.2506806  47.3844155
  76.3081821  94.9977041  45.6329797  73.4376657  94.7820140  47.5228053
  73.2580255  95.8395936  47.3295298  72.5088322  94.2265776  47.3929653
  73.9511670  94.6009638  48.9837157  74.8797949  95.1565321  49.1144597
  73.2026201  94.9760842  49.6816136  74.1306039  93.5435156  49.1778944
  74.4233933  93.9897689  43.9590772  75.0165360  92.9681792  43.7615090
  74.4825404  95.0355922  43.1880589  73.8500976  95.7994601  43.3794258
  75.3754332  95.1409736  42.0097435  75.0574547  94.4340981  41.2433781
  75.3303404  96.5543003  41.4209922  74.3341324  96.9208081  41.1733215
  75.7576400  97.1710323  42.2116608  76.2079002  96.6246743  40.2009470
  76.1934991  95.6948369  39.4080132  76.8009253  97.6652747  39.9796758
  76.8348076  94.7870272  42.2307620  77.5080410  95.5009989  42.9414041
  77.4197276  93.8683739  41.4654355  76.8106428  93.3280391  40.8678124
  78.8050159  93.5179218  41.5160398  79.1009391  93.3048184  42.5432280
  79.0592748  92.2532931  40.6544213  80.0208603  91.8576198  40.9813694
  78.2692776  91.5495566  40.9166416  79.0808187  92.4627814  39.0743771
  78.1133650  92.9138860  38.8538348  79.8752457  93.0996582  38.6853068
  79.1585876  91.0804822  38.3636690  79.3688412  90.0055458  38.9929527
  79.1414481  91.1286533  37.0326898  79.1886104  90.2726025  36.4987851
  79.0813659  92.0210097  36.5634440  79.8277865  94.5959240  41.1460105
  80.9776257  94.4775448  41.4781373  79.4039876  95.5523569  40.3380250
  78.4511988  95.4875658  40.0092472  80.2772625  96.5844845  39.7506974
  81.3270713  96.2966227  39.8067007  79.8998468  96.7181790  38.3294754
  80.3902997  95.8247189  37.9431022  78.8428502  96.6952663  38.0642712
  80.5084938  97.9027883  37.5915976  81.9046810  98.0862392  37.3557480
  81.9902831  99.0402348  36.3999223  82.9664064  99.2822425  35.9795481
  80.7398805  99.5494576  36.1313118  80.5183807 100.3247535  35.5230735
  79.8093125  98.8081054  36.8482394  78.7452308  99.0183893  36.7404796
  80.3556617  97.9237280  40.5039587  81.3719124  98.5437929  40.5070956
  79.2480857  98.4546248  41.0345433  78.4053329  97.9354159  40.8338219
  79.1386865  99.6686413  41.8436254  80.0812136 100.2043764  41.9564519
  78.1276693 100.5989329  41.2423504  78.0242701 101.4623173  41.8995993
  78.5423486 101.0672170  39.8483905  78.6455022 100.2043615  39.1904093
  77.7824884 101.7390763  39.4492456  79.4953160 101.5927674  39.9096322
  76.8671220  99.9515561  41.2397390  76.2082638 100.5355807  40.8570883
  78.6996365  99.5463482  43.3631413  78.5522010 100.5403661  44.0471999
  78.3704619  98.3450520  43.8239510  78.5958306  97.6059009  43.1735942
  77.6502228  98.0008183  45.0311497  77.2592308  96.9839762  44.9957017
  78.6824894  98.0969236  46.1936704  79.4546904  98.8585474  46.0853472
  78.0735566  98.3196854  47.0698428  79.3942970  96.7985946  46.4816164
  79.0674898  96.0704660  47.6244641  78.4709186  96.5452422  48.4034315
  79.4918287  94.7559567  47.7782424  79.1537349  94.1692712  48.6324048
  80.3910135  94.1613196  46.7945923  80.6991192  93.1175125  46.8549041
  80.8620440  94.9745379  45.7473080  81.6773614  94.6340267  45.1090215
  80.2761853  96.2298332  45.5269712  80.4965883  96.7812553  44.6129383
  76.3204276  98.7937026  45.3561931  76.0112382  98.9239481  46.5137885
  75.5509124  99.1822286  44.3676614  75.9218655  99.1150794  43.4306533
  74.2082179  99.6713663  44.5363698  74.1660235 100.4496621  45.2983243
  73.7570231 100.2708017  43.1975320  74.4619054 101.0741213  42.9832479
  73.8800335  99.4747006  42.4632354  72.3457312 100.8071842  43.1269366
  71.9739759 101.0586341  42.1336230  71.7533054  99.9908539  43.5401382
  72.2312260 102.0476965  44.0507266  72.1469876 101.9133630  45.3312325
  72.3852205 103.1701171  43.5002753  73.2926248  98.4967492  44.9071151
  73.4017310  97.3487939  44.3618697  72.3318820  98.8436938  45.7606651
  72.3494815  99.7688769  46.1654192  71.2520351  97.9087745  46.1827002
  71.6620551  96.8992259  46.2108869  70.7007009  98.2454274  47.5519435
  70.2605283  99.2424336  47.5338877  69.6092461  97.2033853  47.9368847
  70.0488049  96.2061196  47.9556010  69.2095924  97.4422837  48.9224327
  68.8043306  97.2313755  47.2024263  71.7997575  98.2141253  48.6741600
  72.5785829  98.9402032  48.4410424  71.3470169  98.4632227  49.6338871
  72.2372785  97.2172007  48.7272423  70.1637705  98.0090957  45.0822990
  69.2945633  98.8775643  45.1892675  70.1426688  97.0471208  44.2309847
  70.8873378  96.3677210  44.2940988  69.1974636  96.9265469  43.1493812
  69.0044579  97.9123251  42.7261917  69.7211350  96.0323596  42.0631964
  69.7401482  95.0201034  42.4670220  68.9480302  96.1032919  41.2980967
  71.0961862  96.3635113  41.4382598  71.8515944  96.4272996  42.2214521
  71.4799644  95.2363591  40.4393863  70.7252092  95.1722713  39.6555903
  72.4487212  95.4602922  39.9927711  71.5355001  94.2848827  40.9682613
  70.9554599  97.6630715  40.6570809  70.6461200  98.4614185  41.3316552
  71.9129276  97.9210809  40.2045459  70.2064578  97.5382502  39.8750870
  67.7817800  96.4534657  43.4913214  66.8994741  97.0838468  42.9349914
  67.6157244  95.5137231  44.3952812  68.4094325  94.9435424  44.6502725
  66.3176661  95.2316743  45.0358061  65.7114320  96.1369646  45.0678813
  65.5274183  94.1153627  44.1998356  65.5262495  94.5204298  43.1878976
  66.0458311  93.1565576  44.2062405  64.1023717  93.8331175  44.5489143
  62.9731439  94.2367426  43.8759342  61.9562456  93.7538642  44.5133794
  60.9643982  94.0243973  44.1512338  62.3425383  92.9695030  45.5553533
  61.7791904  92.4484326  46.2120303  63.6920857  93.0132556  45.5566389
  64.2552009  92.4416760  46.2944052  66.4236970  94.7391623  46.5020423
  67.2688647  93.8729702  46.7574023  65.5006584  95.1420211  47.3710840
  64.9598689  95.9412451  47.0729448  65.4016382  94.7130555  48.7960179
  66.1788122  93.9490253  48.8149282  65.8182192  95.8545163  49.7164615
  65.0456368  96.6234212  49.7151686  65.9507433  95.4750494  50.7296459
  66.7565776  96.2824436  49.3636710  64.0879485  93.9627082  49.2028634
  63.1010004  94.6653298  49.4367722  64.0651670  92.6521610  49.2296587
  64.7980037  92.1434838  48.7560584  62.9664371  91.8965941  49.8122713
  62.0082600  92.2886629  49.4712759  63.0782922  90.4766384  49.3844450
  63.0412217  90.4260948  48.2962491  63.9827653  89.9830527  49.7399748
  61.9447122  89.6850222  49.8807969  60.6017548  89.6916566  49.4267666
  59.9540266  88.7595740  50.1695313  58.8847685  88.5938976  50.0378594
  60.8668949  88.1593942  51.0153691  60.6792345  87.3973250  51.6510844
  62.1010556  88.7761430  50.8530815  62.9467293  88.4740372  51.4708754
  62.9343552  92.0780030  51.3252239  64.0453491  92.0551237  51.9437504
  61.7551119  92.2308151  51.9332985  60.9222645  92.2263372  51.3619454
  61.6028429  92.4182846  53.3972375  62.5838037  92.5297981  53.8591680
  60.7753185  93.6749421  53.6947026  59.7851556  93.5461814  53.2575557
  60.6838956  93.7786031  54.7759039  61.4340362  94.9419273  53.1108512
  62.5021440  94.8419998  53.3038826  61.2686481  95.0638345  52.0403899
  60.9313632  96.1686969  53.8169767  60.3578767  96.1792471  54.9289861
  61.0345357  97.2921790  53.1625254  60.7133407  98.1510472  53.5859409
  61.4351426  97.2980393  52.2353895  60.8692676  91.0905924  53.9040694
  59.7731935  90.7830912  53.4255146  61.4183577  90.2804654  54.7845717
  62.4179527  90.1453918  54.8361894  60.5601670  89.4744066  55.6637200
  59.8054507  88.9193213  55.1065999  61.4896420  88.4830021  56.3419111
  62.3009657  88.9616107  56.8903516  60.8713757  87.9115060  57.0341821
  62.1341672  87.4768409  55.4021409  61.4534493  86.3246496  55.0149530
  60.5818742  85.9526882  55.5535635  61.9250074  85.6407247  53.8936691
  61.2729266  84.8799185  53.4646409  63.1624059  85.8926365  53.3253255
  63.5550064  85.2889091  52.5071091  63.9162469  86.9612216  53.8329460
  64.9104463  87.1532248  53.4294582  63.3975705  87.7863233  54.8590040
  63.9729314  88.6413538  55.2139442  59.7372326  90.2769874  56.6740963
  59.8213436  91.4706925  56.8193115  58.8203682  89.5377151  57.3368678
  58.6256055  88.5975300  57.0234688  57.9234373  90.1410249  58.3880434
  57.4765139  91.0473614  57.9794937  56.8121744  89.2115398  58.8340054
  57.3085649  88.3016892  59.1714482  56.3106740  89.6855191  59.6777714
  55.7623789  88.8546839  57.7403316  56.2863481  88.3450421  56.9317388
  54.6361557  87.9597745  58.2616111  54.1113958  88.4689665  59.0699732
  53.9370952  87.7464243  57.4529722  55.0565059  87.0254854  58.6337805
  55.1387977  90.1600606  57.1800744  55.9224083  90.7796475  56.7439939
  54.4036190  89.9126226  56.4143147  54.6516123  90.7063805  57.9877154
  58.6779150  90.7567938  59.5869238  59.8626155  90.5672748  59.7926156
  58.0827323  91.5969318  60.4083486  57.1469887  91.8886306  60.1646374
  58.6505388  92.0795292  61.6485718  59.6246950  92.5375327  61.4772482
  57.7054832  93.1400387  62.2321809  56.7954785  92.5901115  62.4721200
  58.1910827  93.4581305  63.1547376  57.3470040  94.3857222  61.3810737
  57.0662986  95.1455280  62.1104573  58.2357913  94.7120407  60.8410038
  56.2081445  94.2215623  60.3879476  55.6229686  93.1787168  60.2500331
  55.9297972  95.2511464  59.6488804  55.1819225  95.1959073  58.9723204
  56.4623250  96.1029313  59.7536567  58.7563075  90.9742474  62.6753741
  57.8266210  90.2894732  63.1099099  60.0239051  90.7736652  63.0129434
  60.6845921  91.2612960  62.4248888  60.5232196  89.7767105  63.9150744
  61.6047063  89.8934489  63.9847737  59.9264730  89.8655927  65.3315770
  58.8865868  89.5678757  65.1970389  60.4240350  89.1568574  65.9935636
  59.9585924  91.2562665  65.9871903  60.5901608  92.1845294  65.5124951
  59.3521426  91.4315835  67.1339320  59.3656689  92.3399978  67.5751804
  58.8735280  90.6576197  67.5721202  60.5309699  88.3725523  63.3084364
  60.6197409  87.4225870  64.0526687  60.5440542  88.3598939  61.9797591
  60.3575513  89.2428846  61.5262799  60.6746610  87.1539515  61.1372996
  60.5202433  86.2809545  61.7714373  59.6866176  87.0964832  59.9820241
  58.6807556  87.0264202  60.3960678  59.7790598  88.0181025  59.4074178
  59.9521658  85.8690491  59.0458261  60.8603741  86.1268876  58.5010529
  60.0891871  84.9106242  59.5465715  58.7505394  85.7668166  58.0405622
  58.1626207  84.6751587  58.0506437  58.4754230  86.6493470  57.2025114
  62.1602312  87.1692415  60.7552085  62.6006345  87.9167179  59.8893546
  63.0052730  86.3531884  61.3466995  62.6476493  85.6142447  61.9350589
  64.4344545  86.4235478  61.1253992  64.6829458  87.4776543  61.0020673
  65.3352851  85.8285448  62.2426339  65.2031741  84.7488116  62.3120752
  66.3208088  86.0478041  61.8318195  65.2177550  86.4334200  63.6051840
  64.0195320  86.7007482  64.2721639  63.0640441  86.5436620  63.7716979
  64.0508578  87.1811702  65.6136826  63.1214191  87.5158549  66.0743686
  65.2554440  87.3441708  66.2835817  65.2598698  87.6547131  67.6434927
  64.3774091  87.7318403  68.0135121  66.4550812  87.0577692  65.5909854
  67.4052711  87.2071043  66.1037607  66.4378233  86.5949654  64.2835796
  67.3731752  86.3548741  63.7780372  64.8364586  85.6000624  59.9119300
  64.6168650  84.3560320  59.9029272  65.6000766  86.1361624  58.9797415
  65.6600106  87.1442736  58.9649452  66.3456849  85.3750865  57.9562491
  65.8291179  84.5514046  57.4634958  66.6082816  86.4636250  56.9334002
  67.1332328  87.2915997  57.4098288  67.2200478  86.0633133  56.1249492
  65.6605640  86.8194193  56.5292455  67.6115608  84.7628607  58.5614201
  68.4281020  85.4076791  59.1748064  67.7607246  83.3967748  58.4868927
  67.0117785  82.8510054  58.0852523  68.9088281  82.6844849  59.0667292
  69.4572703  83.3537109  59.7296370  68.4397488  81.4492542  59.8851758
  67.6211017  80.8761046  59.4499566  69.3633540  80.8749526  59.8128483
  68.1310440  81.7413581  61.3682056  69.0825239  82.0657945  61.7895462
  67.0594957  82.7559487  61.7028327  66.1075610  82.4319450  61.2821896
  66.9667563  82.8436159  62.7853366  67.3311738  83.7241936  61.2823648
  67.4132705  80.4874865  61.8437036  68.0682136  79.6248200  61.7214109
  67.1491067  80.5962406  62.8956025  66.5073848  80.3415635  61.2553359
  70.0004522  82.2518094  58.0673460  71.1947238  82.3724243  58.4528914
  69.5923718  81.7703547  56.8722921  68.6446865  82.0295249  56.6381498
  70.4042177  81.0437795  55.8447641  71.4651080  81.2118832  56.0301072
  70.1310762  79.5418460  55.8997580  70.6355528  79.1429477  55.0197110
  70.6486618  79.2056833  56.7982011  68.8348322  79.0949051  55.9250787
  68.8277587  78.1355298  55.9589742  69.9743344  81.3931649  54.4183829
  68.8760930  81.9239591  54.2194048  70.8323410  81.0845256  53.4641206
  71.4652498  80.3213745  53.6568026  70.9245986  81.7624689  52.1380519
  69.9450303  82.0800046  51.7806778  71.7866670  82.9854839  52.3323799
  71.3234467  83.5020086  53.1730513  72.8008544  82.6907227  52.6018977
  71.8324730  83.9245634  51.1169645  72.1514599  83.3321544  50.2594099
  70.4991343  84.5858335  50.8077807  70.1797001  85.1788330  51.6647593
  70.6074400  85.2340125  49.9381632  69.7528125  83.8195020  50.5984004
  72.9169853  84.9216818  51.4132653  73.8646415  84.3997989  51.5462518
  73.0025740  85.6234689  50.5836445  72.6715053  85.4660607  52.3251261
  71.5804922  80.8004283  51.1036765  72.8053167  80.4080500  51.3182673
  70.9539121  80.4132076  49.9542825  69.9704427  80.6274994  49.8708178
  71.5933128  79.5977393  48.8818473  72.6746287  79.5375247  48.7584400
  71.0149325  78.1269677  49.0059368  69.9668256  78.2209721  49.2900747
  71.1237197  77.2924229  47.7279113  72.1716468  77.1975836  47.4433848
  70.7043412  76.3017627  47.9034523  70.5727711  77.7826279  46.9252555
  71.3924355  77.2628981  50.2490656  71.0553450  77.7640386  51.1564411
  70.9120759  76.2873716  50.1735514  72.4739829  77.1327973  50.2868794
  71.3992197  80.2343558  47.5230772  70.2959290  80.7678288  47.2891516
  72.3524018  80.0440509  46.6277438  73.2294481  79.6497184  46.9365980
  72.2635255  80.5627345  45.2368918  71.1995629  80.6417744  45.0136535
  72.9102318  81.8678188  44.9369720  72.4751825  82.6755755  45.5254960
  73.9858105  81.8315150  45.1099246  72.6530158  82.1061478  43.5179064
  73.0479147  82.9413603  43.2569948  72.7240514  79.4184137  44.2975501
  73.9060923  79.0305945  44.3667869  71.8611101  78.8837470  43.3969432
  70.9819206  79.3437249  43.2084077  72.1015660  77.5415067  42.7908162
  73.0767946  77.4963036  42.3060637  72.0689710  76.4964911  43.9378868
  72.4607109  75.5418238  43.5868178  72.6656959  76.8457237  44.7805350
  70.4188061  76.1493061  44.6004852  70.8166186  75.2588757  45.5047956
  71.1548350  77.2217223  41.6167905  70.3475533  78.0933791  41.2447224
  71.2223861  75.9948502  41.0313543  72.0914685  75.4973280  41.1627570
  70.2160583  75.4310974  40.0618466  69.2434913  75.9021855  40.2042847
  70.7036780  75.7161476  38.5872764  69.9051216  75.4180945  37.9078861
  70.8778270  76.7881289  38.4943879  72.0166601  74.9400887  38.2225439
  72.7938624  75.2754870  38.9092500  71.8228936  73.8796529  38.3838898
  72.4957556  75.1671077  36.7339123  73.5050461  74.7559803  36.7137666
  71.8343197  74.5342286  36.1422485  72.5093646  76.6069167  36.1354761
  71.4720281  76.9283114  36.0419933  73.0252580  77.2491571  36.8492551
  73.1692924  76.6997791  34.8288190  72.6911449  76.1050674  34.1671599
  73.1404748  77.6557909  34.5043024  74.1306427  76.4024176  34.9153111
  69.8979561  73.9960555  40.4178406  70.8408825  73.2110589  40.6859880
  68.6366761  73.6331361  40.5218944  67.9583478  74.3515380  40.3124456
  68.1435854  72.3273620  41.0595278  68.9636073  71.6991513  41.4073991
  67.2369335  72.6596757  42.2567842  66.4059068  73.2751349  41.9122500
  66.8562539  71.7023044  42.6126259  67.9669048  73.3798696  43.4047443
  68.4633455  74.2673225  43.0122207  66.9563626  73.7965205  44.4999760
  66.4598243  72.9094917  44.8933311  67.4836561  74.3051008  45.3070749
  66.2127425  74.4688860  44.0721278  69.0001964  72.5177933  44.1251769
  69.7613070  72.1929618  43.4157443  69.4688688  73.0989781  44.9193253
  68.5093361  71.6449557  44.5556529  67.4668892  71.3627281  39.9835386
  66.6126093  71.7780394  39.2097218  67.9978052  70.1256768  40.0059299
  68.8366129  69.8709488  40.5075420  67.3180649  69.1119663  39.2647545
  67.9247991  68.2173994  39.4051932  66.3655010  68.9888754  39.7800893
  67.0614980  69.2996715  37.8113550  68.0104604  69.7296904  37.0917418
  65.8803634  68.8676255  37.3184036  65.2597952  68.2894796  37.8668030
  65.4896227  69.1852925  35.8827054  66.2602142  68.8656473  35.1811964
  64.2243336  68.4266699  35.5856795  64.0030497  68.6490981  34.5418125
  64.4984630  67.3761630  35.6825739  62.9790955  68.7137574  36.4468170
  63.2798659  68.4727079  37.4663919  62.8183621  69.7883749  36.3604212
  61.6426126  67.9533851  36.0999676  61.8200690  66.8817393  36.1904305
  60.8765003  68.2558178  36.8139044  61.1660076  68.2773000  34.6647928
  60.5021528  69.1410999  34.7001067  62.0344210  68.5120395  34.0492810
  60.4310004  67.1029314  34.0694274  59.6260290  66.8855255  34.6393885
  60.1285961  67.3342016  33.1339245  61.0460996  66.3025257  34.0362202
  65.2829100  70.6267246  35.4831050  65.3202357  70.9284833  34.3321752
  64.9362849  71.4991572  36.4544537  64.8886763  71.1514328  37.4015126
  64.6170182  72.9020468  36.2161546  63.9794932  72.9918871  35.3366150
  63.8977363  73.4777624  37.3860247  63.1499166  72.7411699  37.6797875
  64.6599307  73.5502480  38.1618505  63.2255053  74.8420040  37.2020269
  62.5377032  75.3036613  38.1991957  63.4348140  75.4192542  36.0663077
  65.9141957  73.7811013  35.9584225  66.7718130  73.7151497  36.8197702
  66.0541474  74.5556846  34.8643602  65.3024831  74.2465146  33.7150997
  64.2706576  74.5527816  33.8872538  65.3398590  73.1682148  33.5602725
  65.9538455  75.0118024  32.5905298  65.5622280  76.0275659  32.5361312
  65.7925700  74.5092181  31.6368524  67.4269908  75.0041814  32.9655844
  67.9966320  75.8189363  32.5186142  67.8972061  74.0530539  32.7158774
  67.3745415  75.1807006  34.5085747  68.1260850  74.6006565  35.0441392
  67.5526943  76.6607940  34.8286610  68.6762524  77.1897003  34.6778523
  66.5297517  77.3388390  35.3088509  65.6028051  77.0175154  35.0688084
  66.6573288  78.5787567  36.0758933  67.0507707  79.3919307  35.4659336
  65.2433795  78.9532234  36.5392325  64.9205172  78.0970414  37.1315259
  65.2400478  79.8474927  37.1624268  64.2483209  79.1552454  35.3846874
  64.1220108  80.2704382  34.9125244  63.4607406  78.2021126  34.9490212
  62.8241268  78.3861708  34.1868235  63.4942415  77.2881628  35.3775934
  67.6767564  78.4819267  37.2518343  67.7937932  77.4343650  37.9517385
  68.3522302  79.5482244  37.4524967  68.3025231  80.2740620  36.7519338
  69.1967685  79.7816749  38.6469455  69.4769472  78.8836709  39.1975706
  70.4976123  80.6038459  38.3323028  70.1917404  81.3548575  37.6039319
  71.1955252  81.2744594  39.4785192  71.5021269  80.5239815  40.2071329
  72.0747642  81.8029924  39.1101569  70.5174847  81.9843425  39.9522572
  71.4183783  79.8311185  37.5774236  72.2033166  80.3538950  37.3980444
  68.3198784  80.5798851  39.6581439  67.7632457  81.6072722  39.3488143
  68.2987831  80.1285950  40.9005392  69.0626037  79.4987379  41.1004328
  67.3487107  80.4463070  41.9888073  66.6701281  81.2412132  41.6793739
  66.5402240  79.2264516  42.3161162  67.1754473  78.3461392  42.4143029
  66.1135107  79.4761255  43.2875475  65.4467334  78.9421232  41.3542661
  64.4058111  79.8515470  41.1133343  64.3750030  80.7945185  41.6591870
  63.3744890  79.5416372  40.1436315  62.6499407  80.3042840  39.8581469
  63.4083811  78.3292908  39.4686571  62.3291736  77.8753731  38.7628079
  61.5810472  78.4761609  38.7937985  64.5155680  77.5171994  39.6630659
  64.5618487  76.6277092  39.0347620  65.5136312  77.7690083  40.5701977
  66.3419856  77.0687124  40.6775039  68.0406839  80.8749453  43.3028412
  69.0494025  80.2135680  43.6757726  67.5043410  81.8929076  44.0463276
  66.9816191  82.5767000  43.5178495  67.7853778  82.1710899  45.4467743
  68.7797665  81.8045837  45.7016535  67.7337317  83.6749748  45.7206500
  66.8291659  83.9977239  45.2051959  67.6795275  83.9709254  46.7683023
  68.9210274  84.4789691  45.0885212  70.2277391  84.4171702  45.6389315
  70.4511941  83.7222798  46.4484345  71.2233729  85.2468414  45.1417633
  72.2232770  85.2084156  45.5739853  70.9422471  86.1502172  44.0663618
  71.7105673  86.8260629  43.6908400  69.6400801  86.1588251  43.4864378
  69.4321091  86.7549321  42.5978970  68.6377949  85.4028719  44.0606087
  67.6081514  85.5147466  43.7208761  66.9216769  81.2948304  46.3707835
  65.7344441  81.1099363  45.9814116  67.4461030  80.7296119  47.4807035
  68.4402713  80.7366390  47.6586904  66.5432382  80.0844930  48.4984793
  65.4884015  80.3044997  48.3341142  66.7873739  78.5472847  48.3319874
  67.8292232  78.3014966  48.5375080  65.8720624  77.8175100  49.3539432
  64.8299502  78.0624605  49.1487554  66.0155862  76.7405296  49.2666807
  66.1277007  78.1369202  50.3642527  66.4607342  78.1357224  46.8506759
  65.4906094  78.5673893  46.6044601  67.2275990  78.5818339  46.2174283
  66.4211219  76.6377778  46.6169948  65.6541194  76.1909961  47.2496030
  66.1896277  76.4387583  45.5706197  67.3911090  76.2054402  46.8625737
  66.9556556  80.5719466  49.9054558  68.1529698  80.5558108  50.1565802
  66.0754051  80.9014159  50.8060123  65.1281340  80.6383928  50.5745048
  66.3346418  81.4706515  52.1332557  67.4240766  81.4950433  52.1584744
  65.8119821  82.9068730  52.1959587  64.7238943  82.8441769  52.2112309
  66.2884711  83.7080527  53.3915002  67.3765175  83.7715808  53.3766596
  65.8658086  84.7118556  53.3486453  65.9661704  83.2175866  54.3100136
  66.4833009  83.7655526  51.0408975  66.2346506  83.3306818  50.0728259
  66.1111258  84.7890860  51.0852202  67.5655378  83.7670727  51.1707508
  65.4827124  80.7175805  53.1357698  64.2775493  80.6574561  52.9773372
  66.1529923  80.2340643  54.1638641  67.1589371  80.1721781  54.0979525
  65.5023959  79.7769401  55.4114934  64.5307843  79.3848654  55.1109147
  66.1222756  78.9623325  55.7860103  65.3035721  80.7917405  56.5153572
  66.0651370  81.7042335  56.6952254  64.3091663  80.6063898  57.3789822
  63.7929971  79.7393646  57.4229805  63.8898135  81.7097303  58.2482855
  64.7266491  82.3313685  58.5666741  62.8079436  82.6267981  57.5914223
  62.6226278  83.4299400  58.3046695  63.1537860  83.2117734  56.2629654
  63.3387981  82.4091799  55.5490229  62.3265843  83.8276858  55.9101362
  64.0489663  83.8263712  56.3579519  61.5663748  81.9524539  57.4819345
  60.9202920  82.5353804  57.0765037  63.3770964  81.1501218  59.5670294
  63.4908098  79.9162188  59.7527517  62.9277154  82.0013319  60.5030679
  62.9688576  82.9881086  60.2916954  62.3529537  81.5955005  61.7602969
  61.7528530  80.6967255  61.6182339  63.4404430  81.2958222  62.7632345
  64.0443513  82.1890738  62.9229106  62.9902406  80.9887191  63.7072185
  64.0731697  80.4929583  62.3848618  61.5314914  82.6456676  62.3723268
  61.6704244  83.8392425  62.1470389  60.7147244  82.2521074  63.3462118
  60.3399695  81.3144403  63.3252730  60.2477139  83.1733528  64.4134649
  60.8102611  84.1053297  64.4687714  58.8085537  83.4922246  63.9532871
  58.4329054  82.5878598  63.4746308  58.2343055  83.6888567  64.8586461
  58.6667742  84.6666792  62.9986537  59.0172678  85.5625472  63.5111726
  59.2980238  84.4746305  62.1310459  56.9707036  84.9231452  62.4514611
  56.7082129  86.6653974  62.2528036  57.4037384  87.0557631  61.5098649
  55.6853103  86.8437635  61.9212068  56.8739950  87.1692395  63.2050435
  60.3660402  82.6000861  65.8267529  60.1950271  81.3892095  65.9747717
  60.4388646  83.4491225  66.8400045  60.4814252  84.4347451  66.6235882
  60.5894521  83.0391987  68.2333099  60.6347431  81.9528263  68.3097488
  61.8626377  83.6344613  68.8831943  61.6995207  84.7013775  69.0354506
  62.1999627  82.9479792  70.2726734  62.3636756  81.8810504  70.1211417
  63.1004247  83.3973394  70.6914145  61.3679328  83.0931095  70.9617053
  63.1081351  83.5163521  67.9886164  62.9358455  84.0482912  67.0529567
  63.9664288  83.9514466  68.5005971  63.3060781  82.4654926  67.7773965
  59.3231255  83.3603754  69.0605621  59.1819465  84.3677969  69.7703540
  58.3565081  82.4265210  68.9815065  58.4400215  81.7462250  68.2396695
  57.1967619  82.4199280  69.7577920  56.7663538  83.4207346  69.7929225
  56.1562955  81.4569293  69.1496806  56.6224532  80.4721367  69.1183788
  55.3114079  81.4366911  69.8380522  55.6664592  81.8315104  67.7552964
  54.7894169  80.9066364  67.1779440  54.5259331  79.9915099  67.7082451
  54.2424335  81.1654586  65.8950545  53.4353304  80.5365246  65.5193838
  54.6910002  82.2747934  65.1325585  54.3246338  82.4734664  63.8197925
  53.7415537  81.7881221  63.4852473  55.5928365  83.1599434  65.7234855
  55.9655138  83.9991960  65.1362315  56.0280314  82.9827675  67.0698748
  56.6383399  83.7473980  67.5504617  57.5010893  82.1252292  71.2712025
  58.1311531  81.0882863  71.6623584  56.9345169  82.9492623  72.2401743
  56.3634066  84.2782259  71.9818052  55.5217711  84.1942082  71.2942800
  57.1214615  84.9311739  71.5492421  55.9187220  84.7456445  73.4396894
  54.8588480  84.5435903  73.5944156  56.1074777  85.8114203  73.5685094
  56.7822639  83.9251139  74.3798059  56.2455377  83.7013088  75.3017252
  57.6901185  84.4809106  74.6143051  57.1303375  82.6544384  73.6731656
  58.1911000  82.4526852  73.8220841  56.3094763  81.4619637  74.1731857
  56.4625012  81.0369697  75.2826461  55.4082543  80.9299211  73.3540816
  55.3657329  81.2797505  72.4075560  54.4792819  79.8723421  73.7438288
  54.1555981  79.9996790  74.7768406  53.2057037  79.9574354  72.7987724
  53.5932789  79.8752022  71.7833304  52.6122177  79.0737573  73.0332662
  52.3059461  81.2358649  72.9122773  52.9809315  82.0702013  72.7215463
  51.5119765  81.2334833  72.1654802  51.6818450  81.3869598  74.3336091
  52.4389256  81.7992452  75.3124675  50.5031205  81.0164283  74.4341079
  55.1367233  78.4546861  73.5988933  54.4889433  77.4332523  73.9630019
  56.3452325  78.3473568  73.0113083  56.6849509  79.2391451  72.6805451
  57.1488598  77.1760151  72.7655265  56.7968069  76.3207906  73.3423705
  57.0161561  76.8486392  71.2731489  57.1764302  77.7747173  70.7210703
  57.8035753  76.1371177  71.0245361  55.6693961  76.2631837  70.8970685
  54.8902923  76.9940247  71.1137932  55.6998243  76.0726330  69.8242853
  55.3668251  74.9651267  71.6346211  54.1656730  74.7774575  71.9906769
  56.2512844  74.1439537  71.8373936  58.6512403  77.3757933  73.1720268
  59.2542604  78.3647825  72.6998445  59.2020639  76.5001181  73.9844744
  58.6013472  75.8307749  74.4440595  60.6733644  76.5074326  74.3409676
  61.0365982  77.5108458  74.5630536  60.8773357  75.6270335  75.5799608
  60.5266575  74.6165614  75.3700301  61.9366437  75.5977660  75.8351278
  60.3138870  76.0401263  76.4166085  61.4729852  76.0456791  73.0760011
  62.3492773  76.7527780  72.5570933  61.0866482  74.9520747  72.4839780
  60.5695539  74.2479761  72.9908881  61.5773738  74.6254781  71.1740513
  62.6662505  74.6537368  71.1334518  61.1128040  73.1950187  70.8747436
  61.4368211  72.6038634  71.7312759  60.0240624  73.2451016  70.8594610
  61.6167772  72.5317737  69.5702342  61.5078724  73.1454577  68.6760124
  62.6727942  72.4495994  69.8274783  61.0379246  71.1144884  69.2993502
  60.4191190  70.5228745  70.1838985  61.0693864  70.7486319  68.1286837
  61.2835072  75.6784234  70.0709794  60.2737295  76.3769868  70.2458684
  62.2071008  75.9738986  69.1265630  63.6282162  75.6169695  69.0868818
  63.6750007  74.5335448  68.9768712  64.0490722  75.9022590  70.0510339
  64.2944501  76.3614516  67.9105822  64.3925419  75.7171125  67.0369093
  65.2752969  76.7466351  68.1892838  63.3059489  77.5116338  67.6522024
  63.2934765  77.7271283  66.5837898  63.5061957  78.4293933  68.2051205
  61.9766423  76.9355507  68.0748620  61.4084727  77.7930918  68.4352852
  61.1461187  76.1797146  66.9972714  61.6487684  75.6093910  66.0439341
  59.8442687  76.2257034  67.2268050  59.4523114  76.8378599  67.9280420
  58.9356337  75.2846800  66.5275916  59.4797365  74.3857244  66.2378846
  57.8036284  74.8894433  67.4379311  57.4216396  75.8004855  67.8985674
  57.0263585  74.4430625  66.8176927  58.2155330  73.8989829  68.5311702
  59.0074107  73.2591589  68.1417401  58.5905184  74.4602661  69.3870027
  57.0138381  73.0227556  68.9740214  56.2621813  73.6656457  69.4320644
  56.5901370  72.5394476  68.0936861  57.4585322  71.9431683  69.9914236
  57.9459688  71.1527917  69.4206250  58.1853616  72.4134681  70.6537199
  56.3153222  71.3404523  70.8295633  55.6419331  70.9042358  70.2160797
  56.6906822  70.6493428  71.4632608  55.8637951  72.0726024  71.3588823
  58.4442073  75.8783655  65.2144706  57.6545992  75.1379505  64.5358702
  58.8733515  77.0162377  64.7156418  59.5594617  77.5354572  65.2445684
  58.2698554  77.6589919  63.5298064  57.8554820  76.9023052  62.8636089
  57.1293496  78.6092589  63.9693017  56.8362785  79.2089244  63.1075536
  56.2849680  77.9997833  64.2912635  57.5752091  79.5747927  65.1632384
  58.5831407  79.9556347  64.9985141  56.8604697  80.3939731  65.0845418
  57.4990184  79.0035730  66.5481026  56.7454410  78.1152958  66.9080592
  58.4182270  79.4650065  67.3816581  58.4416446  79.1347661  68.3358563
  59.0918365  80.1451454  67.0595359  59.3044544  78.3061151  62.6051760
  60.0870764  79.1440693  63.0749936  59.1657979  77.9357597  61.3523842
  58.4293069  77.2947919  61.0938486  60.0815825  78.4422293  60.2727259
  60.3265918  79.4877386  60.4597553  60.9974894  77.8513983  60.2612114
  59.3792620  78.3242650  58.8717461  58.3203095  77.6874275  58.7697090
  60.0805069  78.7844301  57.8188203  60.7964860  79.4674842  58.0210837
  59.7731504  78.4930735  56.4114663  59.5665209  77.4272979  56.3138668
  58.6099432  79.2455036  55.9125164  58.4298587  78.9749686  54.8720936
  57.7357574  78.9885528  56.5107436  58.8710626  80.7560188  56.0106004
  59.2197451  80.9941623  57.0154929  59.6359084  81.0345466  55.2856623
  57.6311126  81.5059450  55.7298002  57.3055409  81.2418664  54.7236370
  56.8794688  81.1840095  56.4505558  57.7747718  83.0465694  55.8168604
  57.9265241  83.4038714  56.7492798  57.6236429  83.9154542  54.8209270
  57.4136783  83.5535785  53.6028951  57.3580163  82.5715449  53.3735224
  57.3056775  84.2535338  52.8828270  57.7876583  85.1703558  55.0437004
  58.0296892  85.4880331  55.9713869  57.6737573  85.8330290  54.2900497
  61.0196487  78.6611529  55.5166471  61.8215396  79.5550315  55.8089845
  61.2002723  77.7317471  54.5650874  60.7701176  76.8306930  54.7172972
  61.9949387  77.9275087  53.3431374  62.8810124  78.4476971  53.7069733
  62.4376981  76.5598613  52.6097753  61.5620069  76.0854059  52.1668787
  63.4364813  76.8675913  51.5345677  64.3127127  77.3416779  51.9767907
  63.7349139  75.9433155  51.0398426  62.9889028  77.5417998  50.8043517
  63.2217902  75.5464337  53.5561711  64.2827931  75.7959718  53.5663817
  62.8254196  75.6054738  54.5698299  63.0343164  74.1012707  53.0095346
  63.4308993  74.0413288  51.9960117  63.5670437  73.3981310  53.6497655
  61.9735249  73.8508315  52.9994578  61.2163119  78.7771947  52.2827073
  60.0984320  78.3922605  52.0973259  61.7598011  79.8674815  51.7675731
  62.5416785  80.2580911  52.2737265  61.2563015  80.6014845  50.5588611
  60.4254719  80.1821866  49.9914013  60.8858138  82.0631781  50.9826733
  61.8046554  82.6461853  51.0453780  59.9008349  82.7412260  49.9453111
  58.9815123  82.1589980  49.8824018  59.6671643  83.7539231  50.2738581
  60.3746620  82.7782856  48.9643849  60.4147022  82.3638120  52.3811733
  61.1880748  82.0793599  53.0946745  60.2093872  83.4302163  52.4745928
  59.5051893  81.7997517  52.5878687  62.3026596  80.5712025  49.3859167
  63.4884723  80.5257244  49.6786312  61.8426464  80.8224942  48.1731234
  60.9518335  81.2959038  48.1237779  62.5232783  80.5125214  46.9364104
  63.5968584  80.4371743  47.1091755  62.0310232  79.1911068  46.2999370
  60.9529528  79.2288345  46.1436039  62.7239739  79.0206798  44.9751091
  63.8021346  78.9823997  45.1306892  62.3917740  78.0939143  44.5072956
  62.4806696  79.8621029  44.3263319  62.2217190  77.8444127  47.0679083
  61.6966090  77.8920673  48.0218949  61.8183041  77.0255710  46.4722117
  63.2835102  77.6744867  47.2463051  62.1887588  81.6598367  45.9780715
  61.0111660  82.0300202  45.8479234  63.2293385  82.3898641  45.4232494
  64.1463730  82.0506783  45.6764294  63.1406084  83.5640969  44.5955361
  62.1156793  83.6943105  44.2481688  63.5696893  84.8651362  45.4209616
  64.6590709  84.9016568  45.4245921  63.1808710  85.6935406  44.8287905
  63.1249828  85.1047936  46.8428204  62.1297062  85.9810657  47.1491869
  61.6842176  86.6167094  46.3839439  61.6741419  86.0589825  48.4874508
  60.8707243  86.7457485  48.7538590  62.2530520  85.2584731  49.4603829
  61.8287183  85.2688039  50.4643421  63.3387890  84.4633469  49.1813890
  63.8776931  83.9306640  49.9649268  63.7458294  84.3482354  47.8544386
  64.5538254  83.6663194  47.5894238  63.9780711  83.5146410  43.3254006
  64.8705338  82.6820637  43.1851456  63.7140018  84.3531731  42.3143292
  62.9122214  84.9523483  42.4493724  64.4636623  84.4208367  40.9547187
  65.4897716  84.0657207  41.0500676  63.7106131  83.4983948  39.9635296
  63.8864408  82.4532111  40.2180387  62.6410401  83.7054363  39.9988499
  64.2482365  83.7810877  38.5238461  63.8862940  84.7638722  38.2217978
  65.3380035  83.7734990  38.5025773  63.7477533  82.7729321  37.5554945
  63.0816718  81.7997518  37.8337506  64.0693165  82.8913569  36.2695249
  63.7335557  82.2104425  35.6034006  64.6476392  83.6616030  35.9656083
  64.4915805  85.9418285  40.5920995  63.6492691  86.7169022  41.0943754
  65.4469998  86.3767007  39.8038804  66.1156477  85.6978782  39.4689039
  65.6861433  87.7679619  39.5201207  64.9178659  88.4223459  39.9319831
  67.0214842  88.0715577  40.2258278  67.1546953  87.7448586  41.2571482
  67.7360580  87.5537267  39.5860346  67.2493147  89.5358459  40.1376111
  66.7289010  90.4841005  41.0402172  66.1298443  90.1720817  41.8957141
  66.9933019  91.8589009  40.8243701  66.4826255  92.6414742  41.3855213
  67.7765145  92.1978928  39.6705367  68.0472435  93.5560790  39.4569083
  67.6652501  94.1249786  40.1292431  68.4494844  91.2380317  38.9048389
  69.1355864  91.5028675  38.1003350  68.2132773  89.8997747  39.2057431
  68.7885497  89.1193952  38.7075767  65.6166564  88.1375362  38.0422718
  66.1034728  87.3867180  37.1580796  64.9602573  89.2251794  37.7236758
  64.5814645  89.7758297  38.4809073  64.6999043  89.6705439  36.3296601
  65.6242991  89.7153899  35.7538283  63.7274449  88.6091641  35.6490421
  64.3340502  87.7260906  35.4482676  62.9708898  88.3675613  36.3956026
  63.1127730  89.0154641  34.4894471  62.5517719  88.3093858  34.1603103
  64.0715768  91.1316507  36.3721387  63.6072619  91.6525570  37.3490846
  64.1041740  91.7671459  35.1998874  64.6412573  91.3166241  34.4727898
  63.6383189  93.1463558  34.9715957  64.2881667  93.6366042  34.2467139
  62.2323925  93.1561536  34.4400614  61.5462750  92.8999905  35.2473547
  62.0787750  94.1953912  34.1493951  61.9678879  92.2460291  33.2379899
  60.7720247  92.1261068  32.8964216  62.9825031  91.7261510  32.6178683
  63.8710097  94.1441813  36.1247242  62.8894760  94.8094841  36.5459910
  65.0377761  94.1440044  36.7681510  65.7009954  93.4389251  36.4798756
  65.4468375  95.1164178  37.8959094  66.5138478  94.9962285  38.0833733
  65.2498578  96.1345845  37.5602981  64.6886185  94.8663860  39.1839755
  64.6084979  95.7586907  40.0389087  64.0863990  93.6541660  39.3150457
  64.2654963  93.0094098  38.5585320  63.1822209  93.2291678  40.3938639
  63.2777974  93.9243851  41.2279126  61.6842719  93.1968168  39.9385222
  61.6015334  92.5349058  39.0764738  61.0845199  92.8015196  40.7583623
  61.1818887  94.5768884  39.5653204  62.0077342  95.1004240  39.0836663
  60.3713330  94.4413444  38.8492691  60.6724771  95.4127633  40.7713647
  59.7229193  95.0187033  41.1335191  61.4032476  95.3985657  41.5799884
  60.4801143  96.8211005  40.2971064  60.3534712  97.4439847  41.1825878
  61.3922161  97.1122434  39.7761407  59.3177793  97.0020406  39.3959744
  58.4724532  96.7327236  39.8786666  59.2535532  97.9714467  39.1198825
  59.4351371  96.4252714  38.5752043  63.5857876  91.8237705  40.9417309
  63.9471100  90.8919167  40.1446897  63.4188812  91.5951681  42.2618646
  63.5595745  92.3901429  42.8687582  63.2006107  90.2839052  42.8750869
  63.6395178  89.5135218  42.2410765  63.8319457  90.1978551  44.2484232
  64.6776276  90.8768833  44.1396022  63.2033746  90.5306646  45.0743991
  64.3802328  88.6913879  44.5551722  63.5041433  88.0578753  44.4165004
  65.5482273  88.1270636  43.7507022  66.4248735  88.7598309  43.8892508
  65.7719883  87.1169541  44.0937919  65.2830790  88.1008456  42.6937682
  64.6346136  88.5760127  46.0245897  63.7076785  88.7548918  46.5694687
  65.0023152  87.5755928  46.2527493  65.3794880  89.3133558  46.3238994
  61.7152374  89.8739474  42.8955729  60.9015173  90.6625543  43.3757267
  61.3079562  88.6193448  42.6274493  62.0442630  87.9444744  42.4774439
  59.9089936  88.1559472  42.5552402  59.2937881  88.8234909  43.1585700
  59.3521532  88.1328652  41.1289250  60.0821502  87.6010179  40.5187267
  58.4250036  87.5609436  41.1663328  59.0703580  89.5495645  40.4955130
  58.4332989  90.1219978  41.1697360  60.0339498  90.0491157  40.3953062
  58.4149370  89.4962828  39.1458518  58.2746957  88.4235238  38.5664541
  57.9615029  90.5641193  38.5773699  57.5245600  90.5022069  37.6688827
  58.0461008  91.4557990  39.0441160  59.9913250  86.7197106  43.1222331
  60.7164969  85.9208105  42.4953031  59.3582960  86.4197229  44.2258815
  59.0599235  87.2213754  44.7629350  59.0859659  85.0567805  44.7762246
  60.0098002  84.5491677  45.0536387  58.1320825  85.0674308  46.0121057
  57.3057200  85.7043751  45.6966263  57.5815133  83.7626846  46.5730877
  58.4073315  83.1253630  46.8892287  56.9400862  83.9762010  47.4281206
  57.0025807  83.2514959  45.8039170  58.8421852  85.7226187  46.9616309
  58.3243646  85.7765196  47.7682019  58.4769319  84.0238913  43.8114742
  57.6647367  84.3836698  42.9890057  58.8251389  82.7603961  44.0956499
  59.3918569  82.6110492  44.9182224  58.4514325  81.5766069  43.2704956
  57.7726725  81.8992744  42.4810213  59.6735603  80.8166567  42.6081140
  60.3186935  80.5254422  43.4370268  59.3504564  79.5696026  41.7413551
  58.7056905  79.8601330  40.9119156  60.2766462  79.1482203  41.3505740
  58.8418842  78.8237595  42.3522348  60.3319184  81.9410716  41.7450985
  60.6413578  82.7620504  42.3918930  61.2027126  81.5393056  41.2270241
  59.6114999  82.3071878  41.0136226  57.7015804  80.5767339  44.1331275
  56.7163427  80.0451509  43.6143152  58.2151762  80.2725106  45.2762922
  59.1227034  80.6577887  45.4955058  57.6326794  79.2867819  46.2029017
  56.5712341  79.5175493  46.2933423  57.7832882  77.8801055  45.5354846
  58.8406905  77.6309794  45.4463972  57.2844614  77.1305813  46.1498830
  57.3298104  77.8971598  44.5444415  58.1871432  79.3705759  47.6074595
  59.1995926  80.0142370  47.9013296  57.4710795  78.8384681  48.5898540
  56.5527315  78.5843468  48.2549530  57.7130553  78.8002452  49.9958710
  58.7936651  78.7605157  50.1329961  57.1655746  79.9677822  50.7950383
  57.6347767  79.9741796  51.7788613  57.4026025  80.8953760  50.2739935
  55.6375618  79.8451856  50.9557363  55.4187467  79.9610772  49.8942327
  55.1399282  78.9519514  51.3333507  55.1157644  81.1076554  51.7398986
  55.6357913  81.2949154  52.8514753  54.0589068  81.6771655  51.4559002
  57.3467197  77.3639247  50.5208647  56.6070758  76.6745532  49.8178691
  57.8351566  76.9616087  51.6881304  58.5969445  77.4965640  52.0800507
  57.4312917  75.7499078  52.3624679  56.3944809  75.4897971  52.1492425
  58.3396334  74.6381383  51.8129690  58.1526084  74.5531505  50.7425027
  59.3738420  74.9404151  51.9777150  58.0909207  73.2833458  52.4836233
  58.6034753  73.2583128  53.4452688  57.0203887  73.1500628  52.6395049
  58.6062132  72.1873082  51.6184730  58.0989563  72.2266413  50.6545008
  59.6773918  72.3245075  51.4706485  58.3481316  70.8070182  52.2831185
  58.8716162  70.0238320  51.7347721  58.6934551  70.8189806  53.3169018
  56.8745590  70.5382498  52.2522596  56.5544513  70.5266965  51.2943988
  56.6865496  69.6432520  52.6808985  56.3893351  71.2636235  52.7606786
  57.4734962  75.9657203  53.8517582  58.5623610  76.1083044  54.4437297
  56.2815424  75.9257058  54.4700954  55.4268551  75.8474675  53.9376597
  56.1900898  75.9718642  55.8936419  56.6016669  76.9006549  56.2886752
  54.6850041  75.9016233  56.2597474  54.2097641  76.5812752  55.5524147
  54.4036206  74.8757239  56.0221477  54.2494219  76.2227847  57.6056139
  54.7962234  75.5161362  58.2299189  54.5277513  77.2402805  57.8800845
  52.7745904  76.0349750  57.8118311  52.1546730  75.1748223  57.1800276
  52.1209568  76.8044438  58.5619443  56.9067074  74.7947741  56.5628018
  56.6110309  73.6931501  56.1515282  57.6810859  74.9676266  57.6509750
  57.9217524  75.9064795  57.9351126  58.1821184  73.8563258  58.4460032
  57.6721547  72.9124450  58.2533240  59.6797175  73.6853309  58.1111903
  60.1776215  73.1650337  58.9294089  59.8312244  72.8469639  56.7872690
  59.3339318  73.3668912  55.9684425  60.8886592  72.7267685  56.5517164
  59.3761245  71.8659620  56.9237276  60.4154200  74.9751736  57.9733365
  60.3543314  75.5307119  58.9091503  61.4606459  74.7745308  57.7380816
  59.9697769  75.5643804  57.1718764  58.0756012  74.0275128  59.9676106
  58.0371341  75.1372530  60.5169465  58.0761863  72.9348632  60.7413461
  58.0102899  72.0657628  60.2310311  58.0421625  72.8858917  62.1829540
  57.5562038  73.7689711  62.5978203  57.2713622  71.7094329  62.5614241
  56.3806949  71.6645684  61.9346881  57.8836261  70.8249380  62.3856351
  56.8471476  71.7591487  64.0678305  57.7260373  71.7536341  64.7125190
  56.2554256  72.6522372  64.2687284  56.0023800  70.5146198  64.3472132
  55.3590283  70.2581601  63.5055328  56.6159352  69.6530657  64.6106026
  55.1339041  70.9134034  65.5533771  55.7790038  71.3416720  66.3205360
  54.4100072  71.6610620  65.2292180  54.4202933  69.7454284  66.1067368
  55.0909038  69.0526920  66.4075650  53.8596593  70.0359103  66.8950323
  53.8221504  69.3486937  65.3961555  59.4309172  72.9335385  62.8380045
  59.8187973  72.1051702  63.7027727  60.2099530  73.9393866  62.5151148
  59.8297668  74.5328744  61.7916992  61.5439063  74.2832249  63.0821798
  61.4030785  74.4691425  64.1469339  62.1853085  73.4122412  62.9476806
  62.2143656  75.4925121  62.4537517  62.0434338  75.6853502  61.2849033
  63.0916369  76.2453021  63.1129091  62.9744054  76.1695952  64.1132213
  64.0324264  77.2381762  62.5988613  63.4253817  77.9752518  62.0732043
  64.6433587  77.8942981  63.8138773  65.2615537  77.1710845  64.3457579
  65.2592134  78.7374871  63.5010584  63.8509508  78.2486307  64.4731476
  65.0641049  76.7213277  61.5358744  65.7935997  75.7184323  61.7758077
  65.1427371  77.3405680  60.3183841  64.5398484  78.1241438  60.1119055
  65.9827302  76.8015526  59.2354386  66.1304051  75.7289642  59.3613174
  65.2810291  77.0506630  57.8645373  65.3802850  78.1112956  57.6336561
  65.8914626  76.1926168  56.6789384  65.7921472  75.1317901  56.9089036
  65.3565696  76.4153484  55.7556938  66.9458729  76.4400647  56.5560971
  63.7587386  76.7186216  57.8760705  63.2563304  77.3403296  58.6171287
  63.3359690  76.9152536  56.8908287  63.6174682  75.6676673  58.1283374
  67.4108795  77.3163155  59.2678516  67.7796265  78.3143372  58.6692830
  68.2161300  76.7032999  60.1627061  67.8920794  75.8703333  60.6330858
  69.5758990  77.1785264  60.4465350  69.5661424  78.2106147  60.7969602
  70.1619542  76.2905991  61.5526025  70.1313577  75.3470489  61.0077391
  71.1896237  76.5085462  61.8432819  69.2461556  76.1790885  62.8675297
  69.0405318  77.2592040  63.7957098  69.2816934  78.2902175  63.5369597
  68.5089026  76.9543710  65.0768536  68.2407917  77.7552937  65.7658682
  68.0803119  75.6391069  65.3270244  67.8504168  75.3082195  66.6062412
  68.0113595  76.0322612  67.2157169  68.1401965  74.6138996  64.3666235
  67.6531090  73.6483038  64.5025310  68.8739148  74.8782018  63.1800221
  69.1454841  74.0596485  62.5134482  70.5333990  77.0628111  59.2239681
  71.4175129  77.9488993  59.2004881  70.4933588  76.0167289  58.3332040
  69.7194101  75.3700700  58.3873794  71.5863527  75.7245815  57.3789318
  72.0495166  76.6524583  57.0433383  72.6785206  74.8432569  58.0757620
  72.9405836  75.2822126  59.0384354  72.2899796  73.8365685  58.2297562
  73.8613963  74.7820727  57.2334820  74.5305901  74.2421133  57.6603583
  71.0189565  75.1112917  56.1459435  70.0721193  74.3234926  56.2500587
  71.6435764  75.4060404  54.9977548  72.5168906  75.9109423  55.0477125
  71.0946947  75.0522109  53.6284632  70.6517358  74.0569103  53.6640075
  70.0343965  76.0382844  53.1838591  70.5617373  76.9907184  53.1301897
  69.7717606  75.7117806  52.1776197  68.7627550  76.2069587  54.0119790
  68.5334271  75.1852773  54.3147608  69.1099352  76.7723897  54.8767655
  67.2438217  76.9944628  53.3461825  68.1310819  78.3549273  52.5819871
  68.8372723  77.9632126  51.8498986  67.4228129  79.0174514  52.0844757
  68.6727046  78.9114178  53.3468822  72.1594394  75.0041742  52.5351410
  73.1135511  75.7089565  52.6666044  72.0140337  74.2267426  51.4425503
  71.1348800  73.7465701  51.3136221  73.0586888  73.9399165  50.5650313
  73.3869204  74.7781931  49.9504945  74.3505246  73.2639915  51.2447508
  74.8285095  73.9961310  51.8955975  73.9553008  72.0376677  52.0630240
  73.4776350  71.3048345  51.4127227  74.8455398  71.5979776  52.5127437
  73.2600791  72.3331806  52.8487978  75.5725125  72.9688435  50.3377391
  75.9344065  73.8994672  49.9006185  76.3654314  72.5146528  50.9319528
  75.2781585  72.2845840  49.5419719  72.4630297  73.1236449  49.4341096
  71.5666440  72.3410660  49.6975276  72.9091725  73.2598190  48.1826348
  73.3724754  74.1469077  48.0465344  72.7048701  72.3796138  46.9963918
  71.7061268  71.9439685  47.0251020  72.8537353  73.2152614  45.6612700
  72.0880236  73.9907181  45.6825247  73.8400955  73.6786621  45.6825644
  72.7035316  72.3717599  44.3562535  72.4109016  71.4663760  44.8879944
  71.9379127  72.6253896  43.6230421  74.0093665  72.1396151  43.6552764
  74.4680158  70.9548616  43.5479585  74.7711573  73.1399947  43.4803350
  73.6419291  71.1522778  47.0847187  74.8477613  71.3350339  47.0048258
  73.0664635  69.9718303  47.1980201  72.0607408  70.0289121  47.1247884
  73.6762439  68.6507711  47.3895151  74.7465439  68.7216566  47.5832475
  72.9898961  68.0339963  48.6289280  73.3150796  68.6974961  49.4302538
  71.9012013  67.9812829  48.6208579  73.4991967  66.6179299  48.9923052
  74.8783353  66.4989984  49.2558354  75.4799590  67.4037154  49.1684522
  75.4784139  65.2969930  49.6138057  76.5461258  65.2263854  49.8214270
  74.6880560  64.1814090  49.7025505  75.0829424  63.2381812  50.0800237
  73.3151518  64.2707204  49.2868830  72.7036031  63.3684601  49.2809916
  72.7772938  65.4585179  48.9046697  71.7574358  65.4969842  48.5219036
  73.4304009  67.7569857  46.1574140  72.2991913  67.3108710  45.9408836
  74.3617672  67.7875773  45.2174959  75.1855851  68.3255793  45.4454811
  74.2217779  67.2729094  43.8447286  74.8658213  67.8068172  43.1459800
  74.6591512  65.7844321  43.8841118  73.8186853  65.1369805  44.1341573
  74.9725001  65.5921833  42.8579768  75.8539500  65.4486285  44.8445683
  76.9956777  65.7352879  44.6434082  75.5862575  64.8854424  46.0281156
  76.3418166  64.6619065  46.6599874  74.6298157  64.6863527  46.2844029
  72.8736216  67.4953996  43.1059420  72.1638246  66.5463726  42.7527494
  72.5068119  68.7609635  42.8939165  73.2238884  69.4535496  43.0558578
  71.1896075  69.2169439  42.4586184  71.3645813  70.2659619  42.2197781
  71.0329573  68.6562723  41.5370939  69.9433377  69.1074386  43.3222122
  68.8332201  69.3716017  42.8177970  70.0541829  68.7863757  44.5671724
  70.9524054  68.4363643  44.8684824  68.9632959  68.8524274  45.5549151
  68.0647844  69.2344777  45.0703392  68.6514835  67.4787686  46.1488851
  69.5847335  67.0372723  46.4984916  67.9764249  67.6164094  46.9935453
  67.9954697  66.5413798  45.1142595  67.1472981  67.0650906  44.6733139
  68.7310462  66.3252075  44.3394700  67.5014071  65.1927630  45.7593151
  68.3770192  64.5573924  45.8923812  67.0779972  65.4357796  46.7338747
  66.4481703  64.4462064  44.9127110  66.3170330  63.4532500  45.3427590
  65.5110957  64.9985557  44.9827145  66.8522195  64.3163334  43.4508601
  67.7202912  63.8041701  43.3857444  66.1310737  63.8223389  42.9448777
  66.9733692  65.2363243  43.0520636  69.2751178  69.8135737  46.6998653
  70.3489316  69.8239890  47.2410737  68.3148053  70.6943070  47.0755760
  67.5078345  70.8691643  46.4939210  68.4578453  71.4573186  48.2999447
  69.4178440  71.9726863  48.2699798  67.3107998  72.5334990  48.5174016
  67.4879445  73.1600721  47.6432591  66.3619580  72.0095901  48.4019949
  67.2600515  73.4097225  49.7707212  67.4714500  72.7852002  50.6386978
  68.2987153  74.5643834  49.6981694  68.0876688  75.1896494  48.8306438
  68.2361556  75.1675047  50.6039463  69.3015297  74.1466404  49.6089811
  65.8766354  73.9618784  50.0650300  65.1798633  73.1370672  50.2143441
  65.9132272  74.5736153  50.9664402  65.5422584  74.5719046  49.2258882
  68.4958076  70.4958113  49.4749266  67.5766182  69.7335461  49.6792148
  69.5095359  70.6081669  50.3063262  70.3570576  70.9708297  49.8936739
  69.5616863  70.1293667  51.6615898  68.7426405  69.4449292  51.8825164
  70.9049922  69.3573840  51.7979460  70.9903458  68.5953028  51.0233194
  71.6103177  70.1629256  51.5936948  71.2221527  68.7338542  53.1669215
  70.5673761  69.1509613  53.9320294  70.9958440  67.2668687  53.0670015
  71.6506469  66.8489484  52.3023612  71.2140881  66.7988313  54.0269032
  69.9567497  67.0764729  52.7984259  72.7130455  68.9199412  53.3463764
  72.9523473  69.9831076  53.3237628  73.0195406  68.4993511  54.3041165
  73.2427500  68.4116050  52.5407050  69.2927968  71.3907824  52.6260559
  69.8007651  72.5012503  52.4011975  68.5082989  71.1259713  53.7152552
  68.0338291  70.2387434  53.6269123  68.2445286  71.9424631  54.9116211
  68.9900368  72.7376026  54.9032583  66.8465596  72.5789126  54.8424787
  66.0888802  71.7954952  54.8591885  66.7046627  73.2391970  55.6980428
  66.7536994  73.1538681  53.9211197  68.3499224  71.1840864  56.2448588
  67.9077488  70.0482849  56.3812681  68.8961613  71.7333615  57.3351289
  69.7162205  72.2734603  57.0987069  68.6039686  71.4984291  58.7506529
  68.0597457  70.5645950  58.8916300  69.9018381  71.4042771  59.4671117
  69.6817084  70.9726535  60.4435047  70.5178357  70.7109371  58.8944630
  70.6118724  72.6469299  59.6404159  71.4325402  72.4836093  60.1109801
  67.5934154  72.4018774  59.4018775  67.4613245  73.5570094  59.1591780
  66.8014155  71.8139204  60.3741947  67.2695559  70.9957333  60.7368431
  65.5189119  72.1881497  60.9521244  65.3788246  73.2628659  61.0681403
  64.3400155  71.5958105  60.0993854  64.4598198  70.5129018  60.0668875
  62.9745480  71.9375049  60.6766214  62.8538168  73.0203141  60.7090074
  62.1955495  71.5041843  60.0493294  62.8945601  71.5331823  61.6856925
  64.4393287  71.9912995  58.6482936  64.4876510  73.0802278  58.6473561
  65.3898355  71.5856502  58.3017610  63.3212426  71.5314863  57.7180370
  62.3704209  71.9371505  58.0636879  63.5206313  71.8857053  56.7066655
  63.2726040  70.4425721  57.7180947  65.4090425  71.5591194  62.3931642
  64.8872408  70.5003719  62.6467913  65.8218144  72.3737769  63.3417877
  66.3323303  73.2186116  63.1279488  65.7462424  71.9346813  64.7641596
  66.2380041  72.7004596  65.3640374  64.2753571  71.7033545  65.3386006
  63.7729776  71.0420851  64.6326000  64.3964935  71.1906098  66.2928117
  63.3872779  72.9617002  65.5595590  63.6269225  73.9506041  64.9832939
  62.4048415  72.8941560  66.3729411  61.8216980  73.7048297  66.5241084
  62.2158043  72.0303928  66.8610792  66.6765812  70.7491838  65.0389091
  67.8908134  70.9536167  65.1000749  66.0619404  69.5685211  65.2316791
  65.0655713  69.4930663  65.3788335  66.8921597  68.3200245  65.3247497
  67.9135805  68.5770216  65.6053761  66.3244384  67.3778996  66.3703147
  66.2042085  67.9675093  67.2791625  65.3445340  67.0710595  66.0046148
  67.1285610  66.1923649  66.6617808  66.6879824  65.6634786  67.3309367
  67.0216660  67.6013091  63.9423007  67.8927692  66.7121776  63.8122140
  66.0886501  67.9079766  62.9968704  65.3773243  68.5574326  63.3007157
  65.9625943  67.3199658  61.6864304  66.1803809  66.2532639  61.6333733
  64.4915612  67.5612910  61.1646519  64.2268745  68.6148892  61.2539392
  64.4429437  67.1596648  59.7409066  64.7070809  66.1059933  59.6508649
  63.4363497  67.3158052  59.3529791  65.1495485  67.7610038  59.1688910
  63.6397447  66.8518996  62.0540373  62.7263858  66.9653747  61.7810917
  67.0567402  67.8441071  60.7185034  67.2408687  69.0476243  60.5248466
  67.5554734  66.9519628  59.8881993  67.3810363  65.9801046  60.1007142
  68.4045677  67.2844012  58.6614506  68.4072078  68.3551521  58.4575272
  69.8874413  66.8136783  58.8965054  69.9003434  65.8127078  59.3277720
  70.6002920  66.7946274  57.5428633  70.5882007  67.7954202  57.1111591
  71.6320943  66.4708895  57.6795316  70.0891534  66.1039805  56.8721577
  70.6383568  67.6943429  59.8491185  70.1352442  67.6967015  60.8160591
  71.6540036  67.3174222  59.9695010  70.6726368  68.7102079  59.4554892
  67.6500148  66.5042377  57.4752753  67.4990706  65.2835927  57.5091371
  67.0874457  67.3024552  56.5165460  67.2495504  68.2949907  56.6097911
  66.1996020  66.8215385  55.3827529  66.2530706  65.7395245  55.2623958
  64.7349870  67.2098285  55.7605883  64.6486000  66.9005011  56.8021991
  64.7359537  68.2983719  55.7042641  63.5316870  66.6512030  54.9536188
  63.5999849  67.0101937  53.9267002  63.5784610  65.5622321  54.9611472
  62.2073507  67.1083502  55.5659527  62.3208574  68.1142388  55.9701845
  61.4329276  67.1108354  54.7989050  61.7815025  66.1858288  56.6790805
  62.3943960  65.3908210  56.7905415  60.7276080  66.2721343  57.4448179
  59.7478058  67.1494881  57.2581526  59.7960510  67.7991349  56.4863162
  58.9591048  67.1628775  57.8889229  60.5831432  65.5319350  58.4923789
  61.2992615  64.8630203  58.7369759  59.7546703  65.6251730  59.0625000
  66.6472361  67.4223648  54.0719648  67.4005416  68.3823222  53.9389882
  66.3022898  66.6735033  53.0444452  65.6265419  65.9817239  53.3358304
  66.7612131  66.6536828  51.6516328  67.4406526  67.4930924  51.5038064
  67.4948338  65.3495625  51.2616291  68.3298019  65.3605033  51.9622060
  66.7975924  64.5594983  51.5404717  68.0251506  65.0879908  49.8317304
  67.2299627  65.1634601  49.0900557  69.0680525  66.1880375  49.5779155
  69.8638512  66.1129165  50.3189688  69.4890916  66.0669382  48.5798364
  68.5918965  67.1655256  49.6546796  68.6156238  63.6827002  49.7107813
  67.8465556  62.9441725  49.9370784  68.9802131  63.5273812  48.6953741
  69.4416142  63.5733739  50.4135520  65.5265215  66.8830620  50.7476423
  64.4366321  66.4187984  51.1832539  65.6173264  67.6372447  49.6220616
  66.5115971  68.0345793  49.3720524  64.4386690  67.9419365  48.7539766
  63.5948407  67.2850111  48.9649317  64.0371419  69.3681543  49.0831526
  64.9011812  69.9761407  48.8150337  63.1889052  69.6475886  48.4582437
  63.6782123  69.6073453  50.5854359  62.3439022  69.3186240  51.0481849
  61.6529129  68.8712770  50.3336824  61.9177019  69.5917679  52.3664959
  60.9164578  69.3130364  52.6950089  62.8176083  70.1751703  53.2737671
  62.3284984  70.4325154  54.5405244  61.4100993  70.1743056  54.6476245
  64.1192275  70.5062722  52.8114642  64.7836728  71.0595117  53.4751953
  64.5586093  70.1342805  51.5225876  65.6058233  70.2584348  51.2468546
  64.7526748  67.7791885  47.2689650  65.5888077  68.5471811  46.7869380
  63.9977601  66.9408380  46.5269689  63.6705374  66.0268457  46.8056134
  63.7396612  67.3825943  45.1522379  64.6755360  67.5478899  44.6184637
  62.9266061  66.2593276  44.4063033  63.3815291  65.2975678  44.6432894
  61.9025003  66.2779607  44.7790768  62.9206234  66.4603908  42.8894516
  62.6108549  67.4718872  42.6267365  63.9698111  66.3228129  42.6279623
  62.0360597  65.4134105  42.0925668  62.0882019  65.5184870  40.8404661
  61.4453745  64.5161383  42.6795613  63.0412141  68.7264995  44.9835744
  62.0051744  68.9673631  45.6068372  63.6095635  69.6326855  44.1299704
  64.5734393  69.5476486  43.8404684  62.8294210  70.7756495  43.6302744
  62.0708750  71.0250313  44.3722419  63.6863199  72.0274799  43.3624033
  63.9501084  72.4810520  44.3178023  64.5914521  71.6836064  42.8618169
  63.1183216  73.1148657  42.5166439  63.3595072  73.4413198  41.2396336
  64.0306240  72.7827297  40.6883070  62.6844345  74.5701276  40.9007946
  62.8632872  75.0521423  40.0314425  61.7996558  74.9727662  41.8663875
  60.8509354  75.9966979  41.8994718  60.7244925  76.6240837  41.0171465
  60.1082894  76.1516914  43.0931769  59.3184503  76.8980110  43.1783895
  60.3926872  75.3207438  44.2076225  59.8097462  75.3944441  45.1256897
  61.4639240  74.3511463  44.1598569  61.7864424  73.9291285  45.1116886
  62.1106310  74.0719196  42.9364397  62.1215820  70.4074314  42.3357257
  62.7154384  69.7482564  41.4903921  60.8701837  70.8841691  42.0966741
  60.5249321  71.5777624  42.7446161  59.9873786  70.4500890  41.0049161
  60.5848496  69.9134147  40.2679573  58.9203223  69.4463664  41.6220755
  58.4244317  69.0349255  40.7429230  59.3675255  68.2496261  42.5924790
  59.8631121  68.6603429  43.4721411  58.4884522  67.6843983  42.9020702
  60.0552826  67.5898999  42.0634685  58.0573535  70.2084336  42.4558905
  57.3976237  69.6307524  42.8465841  59.2380333  71.5943115  40.2731254
  59.1973557  72.7573577  40.6870855  58.5183133  71.1858306  39.1914141
  58.4864891  70.1942465  39.0020794  57.8722319  72.1027925  38.2314762
  58.4075375  73.0517716  38.2628739  57.9656146  71.5361063  36.8154238
  57.2120385  71.9695126  36.1578660  59.3806775  71.9352302  36.3144744
  60.1348513  71.5017743  36.9713134  59.5259044  71.5633316  35.3002260
  59.4757026  73.0210671  36.3198472  57.8726910  70.1101993  36.7391260
  57.9395130  69.8337890  35.8222113  56.4249948  72.4817728  38.5143782
  55.7524828  73.3627468  37.9201045  55.9001670  71.9711878  39.5920598
  56.3144018  71.1043296  39.9036137  54.7612932  72.5064368  40.3431949
  53.9363364  72.7414844  39.6706638  54.2928034  71.4648898  41.3383879
  54.9761128  71.5759337  42.1803243  53.2991257  71.8047159  41.6303173
  54.2277759  70.0037216  40.9288673  55.1677079  69.7639533  40.4317357
  54.1717901  69.4683962  41.8767025  53.0973368  69.5982671  40.0667983
  52.9219736  68.3886822  39.8182059  52.3203088  70.4564771  39.6407125
  55.0700379  73.8291679  41.0919546  54.1163838  74.3997510  41.6425152
  56.3338833  74.2422951  41.1762558  57.0177307  73.7199325  40.6474936
  56.8145324  75.2718840  42.1160377  57.8884073  75.4158801  41.9970543
  56.0945733  76.6282129  41.8313402  55.0170032  76.4641487  41.8263655
  56.3498888  77.3378893  42.6182796  56.5507866  77.2162430  40.4146906
  57.6334900  77.3421069  40.4111696  56.2641218  76.5181615  39.6281746
  55.8598161  78.6084880  40.1580591  54.8024745  78.4064543  39.9868571
  55.9747370  79.1885833  41.0736912  56.4424294  79.4264840  38.9409883
  55.9422492  80.3943918  38.9082033  57.5093494  79.5748925  39.1075889
  56.2306194  78.6982809  37.6127347  55.2420286  78.5610454  37.4579622
  56.6155900  79.2514101  36.8604411  56.6943795  77.8015508  37.6427490
  56.7367196  74.7709046  43.6267577  56.1807577  75.4431406  44.4838990
  57.3250960  73.5657010  43.8188371  57.8185860  73.1379668  43.0483759
  57.2872929  72.8523156  45.1050490  57.1025171  73.5617463  45.9116871
  56.1782789  71.8053909  45.1132133  55.3214632  72.2626633  44.6183719
  56.5405826  70.9704239  44.5134915  55.7588526  71.2978942  46.4907465
  55.1245547  70.4131811  46.4355220  56.7003938  71.0396020  46.9753954
  55.0784877  72.3391817  47.2684468  53.9325991  72.7568787  46.9002328
  55.6407818  72.7093535  48.3617547  58.6255940  72.0900262  45.4242575
  59.1551306  71.3770487  44.6159407  59.1450026  72.2663851  46.6294867
  58.8917783  73.0906392  47.1553972  60.1975500  71.3409875  47.2066516
  60.8906311  70.9929714  46.4407387  60.9904135  72.1659096  48.2550046
  60.2667546  72.3588248  49.0469646  61.7417810  71.4623754  48.6135941
  61.6960612  73.5278938  47.8394201  61.1281307  74.0268092  47.0541563
  61.7428756  74.4250326  49.0860269  62.3110750  73.9269518  49.8716246
  62.2225760  75.3712131  48.8355659  60.7282308  74.6142387  49.4364513
  63.1440182  73.1312589  47.3542168  63.0698323  72.4499646  46.5066120
  63.6850729  74.0281191  47.0525503  63.6788983  72.6412858  48.1678068
  59.6742423  70.0571565  47.7716790  59.1996936  70.0514120  48.9238853
  59.6853554  68.9055068  47.1213017  59.9326971  69.0073349  46.1473651
  59.3606815  67.5468507  47.6272291  58.4172714  67.5376196  48.1731148
  59.2266858  66.6357476  46.4025637  58.8326007  67.2132869  45.5663554
  60.2077994  66.2401304  46.1398791  58.2776781  65.4783785  46.7142754
  58.6856580  64.8909931  47.5368516  57.3053703  65.8786162  47.0015546
  58.1146589  64.5698734  45.4584350  57.4816865  63.7203755  45.7149467
  57.6432588  65.1462919  44.6624306  59.4358168  64.0533039  44.9614132
  59.6294724  64.2565326  43.9912097  60.2805687  63.2761096  45.6261156
  60.0324478  62.6682274  46.7022003  59.1210307  62.7545056  47.1287855
  60.7462677  62.0978488  47.1325828  61.4982927  63.2237407  45.2178194
  61.7819094  63.7654755  44.4139631  62.1656962  62.6411059  45.7028018
  60.4549438  66.9732410  48.6206957  61.6316712  66.9172117  48.2099730
  60.1187230  66.5634264  49.8149694  59.1901882  66.8214643  50.1171927
  60.9808950  65.8074091  50.7575676  61.8579574  66.3744068  51.0696161
  60.0338151  65.6208924  52.0011886  59.1123221  65.1388866  51.6746593
  60.6944078  64.7776529  53.0440569  61.6158003  65.2592749  53.3714340
  60.0240023  64.6603515  53.8954651  60.9257458  63.7976518  52.6267065
  59.7620261  66.8057432  52.5556554  59.1844842  66.6800897  53.3121320
  61.5057062  64.4649627  50.1997317  60.7752023  63.5951472  49.6919856
  62.8228122  64.3888887  50.1534552  63.3646931  65.1151550  50.5995511
  63.5537538  63.2930766  49.4433867  62.8724861  62.8611072  48.7103274
  64.8387792  63.7421602  48.7175122  64.5229242  64.4784226  47.9784233
  65.4549356  64.2285132  49.4737610  65.6613304  62.6290694  48.0188080
  66.5980560  63.0909775  47.7068993  65.8681319  61.8464080  48.7487213
  64.9147840  61.9763878  46.7160597  65.5246584  61.4061919  45.8161720
  63.6832418  62.1351156  46.7135594  63.9108200  62.2170714  50.5248008
  63.8782457  61.0232675  50.2607077  64.4249921  62.6371048  51.7451721
  64.2221905  63.5864000  52.0241157  65.1671638  61.7839141  52.6751118
  64.6447431  60.8430418  52.8481294  66.5330565  61.4777833  52.0411655
  66.4454587  61.1991846  50.9910186  67.2274796  62.3122988  52.1384307
  67.3188699  60.0707902  52.8705302  68.4197511  60.0666477  52.1242450
  65.4376300  62.5470685  53.9882699  65.7213787  63.7652867  53.9932930
  65.4914192  61.8134925  55.0770555  65.4769015  60.8039528  55.0502551
  65.3963309  62.4717160  56.3739525  65.8065194  63.4797061  56.3123042
  63.9177687  62.5663443  56.8114140  63.2678161  63.0350152  56.0724902
  63.6386705  61.5191408  56.9279003  63.7231877  63.2799304  58.1603225
  63.5491963  64.5032018  58.0867364  63.5999083  62.6377578  59.3045889
  63.4741041  63.1579862  60.1611141  63.6318071  61.6283739  59.3196723
  66.3198566  61.8362581  57.4786839  66.3378676  60.6158298  57.6001764
  67.0253068  62.6473015  58.1315925  67.0860347  63.6001791  57.8022967
  67.7888951  62.2738077  59.3401740  67.6330605  61.2156601  59.5502655
  69.2543297  62.5153080  59.1639237  69.6921762  61.8985279  58.3790849
  69.2978965  63.5635564  58.8683273  70.1580910  62.3683692  60.3923379
  70.5787227  63.4025319  61.2405339  71.4877225  62.8341114  62.0584901
  71.9882401  63.4671664  62.7911717  71.6075203  61.5365339  61.8014546
  72.2026796  60.8760750  62.2807032  70.7783397  61.2316341  60.7619255
  70.7222118  60.2079690  60.3917086  67.1875563  63.1536944  60.4578591
  66.8775277  64.3336515  60.2464625  67.2673369  62.6889656  61.6918604
  67.7303253  61.8006434  61.8207978  66.5830631  63.2937508  62.8470544
  66.3587854  64.3462417  62.6736713  65.2594685  62.5331765  63.0311550
  64.6536162  62.7251304  62.1456066  65.5078470  61.4728859  63.0779735
  64.4867548  62.9208820  64.2598323  64.0723401  64.2832597  64.4596161
  64.3343812  65.0534347  63.7341753  63.3329722  64.6143423  65.5869973
  63.0727476  65.6601223  65.7504885  63.0893932  63.6504767  66.6098445
  62.3725041  64.0183148  67.6770198  62.0854204  64.9335821  67.6387023
  63.4219014  62.2910080  66.4080967  63.1354724  61.5143990  67.1172774
  64.1576615  61.9476334  65.2291608  64.4754670  60.9178901  65.0656719
  67.4430063  63.3939015  64.1018263  67.2622810  64.2519990  64.9632078
  68.4711073  62.5555493  64.2683642  68.8660361  62.1085538  63.4533025
  69.0913733  62.2990722  65.5698317  68.3917399  62.4096916  66.3983096
  69.5452672  60.8154928  65.4982685  68.7670111  60.1231429  65.1772260
  70.3313534  60.8527762  64.7440944  70.1409896  60.3067936  66.7929056
  69.4363159  60.4566501  67.8119060  71.2352827  59.6251388  66.8114080
  71.6086511  59.2989679  67.6913559  71.7139184  59.4205797  65.9458652
  70.3755271  63.1963470  65.8277462  71.5466789  62.8257701  65.6510763
  70.0901866  64.3480377  66.4501893  69.1166374  64.4082661  66.7122461
  70.9399184  65.4526292  66.7488756  71.9884397  65.1585701  66.7961149
  70.7538945  66.4957721  65.5447153  69.7291494  66.7965672  65.3267265
  71.3357124  67.3715173  65.8322188  71.3729645  65.8900067  64.2661824
  72.5502073  65.5156780  64.1323823  70.5229678  65.6554030  63.3058123
  70.8464221  65.2592253  62.4348816  69.5450299  65.8709389  63.4372752
  70.5538362  66.0439824  68.0797719  69.4474704  65.8258297  68.5222355
  71.4096002  66.7815008  68.7593796  72.3782951  66.5451824  68.5984970
  71.0962893  67.7287903  69.8239626  70.2267817  67.3571376  70.3661157
  72.2659104  68.0026774  70.8357340  73.1218165  68.4521738  70.3322678
  71.7230407  68.9662784  71.8605089  70.8673358  68.5172697  72.3647518
  72.4977568  69.1931391  72.5929363  71.4110193  69.8860213  71.3657213
  72.7189891  66.6631285  71.4483663  71.8330836  66.0720201  71.6804508
  73.3255487  66.1344036  70.7130875  73.5406336  66.8793943  72.7299619
  72.9345388  67.4076909  73.4659318  73.8436313  65.9139416  73.1351690
  74.4270032  67.4700769  72.4985686  70.5178605  68.9036255  69.0966928
  69.3985509  69.3379862  69.2903337  71.2974701  69.4952547  68.2259680
  72.2486951  69.1682657  68.1345976  70.8905575  70.6568960  67.4520173
  69.8876439  70.5063637  67.0525134  70.8812333  71.8804487  68.3247158
  70.3655842  71.6084079  69.2456931  71.9213681  72.1180013  68.5478493
  70.2090428  73.0887501  67.7084719  70.5779185  73.1492929  66.6845744
  69.1419270  72.8668547  67.6971422  70.4775078  74.6768810  68.5321817
  70.2788588  74.1396897  70.2276970  71.0243387  73.3785389  70.4579323
  70.4101934  74.9902244  70.8966086  69.2808802  73.7226570  70.3626918
  71.7871174  70.8607842  66.1999730  72.9037616  71.3008011  66.2893473
  71.3009519  70.5260571  64.9868440  70.3582893  70.1760335  65.0815541
  71.9264548  70.4123373  63.7467279  72.8820536  69.9436618  63.9818309
  71.1413494  69.4830674  62.8170187  70.1856521  69.9428328  62.5653079
  71.7134177  69.3127271  61.9049758  70.9652639  68.5311523  63.3179684
  72.3027818  71.8156985  63.1488037  71.8025638  72.2490255  62.0859962
  73.2369203  72.5518404  63.7599823  73.7405829  72.1687640  64.5471772
  73.3385801  73.9873187  63.5044547  72.3634770  74.3965917  63.2403173
  73.8343496  74.6854722  64.7596190  73.4256468  74.1644115  65.6253886
  74.9057558  74.4958705  64.6945035  73.5927604  76.1770453  64.9065930
  73.9120386  76.6883081  63.9984231  72.1216197  76.4292659  65.1350746
  71.8016900  75.9186635  66.0433857  71.9481540  77.5001885  65.2405984
  71.5515487  76.0512711  64.2864055  74.3032417  76.7192928  66.1964728
  75.3756836  76.5381997  66.1245488  74.1215038  77.7900359  66.2891112
  73.9067337  76.2068182  67.0729717  74.0256110  74.4182944  62.1991385
  73.5585626  75.2994073  61.4656539  75.1497186  73.7242669  61.9106181
  75.4000504  72.9446773  62.5019500  75.9334702  73.9663149  60.7414358
  75.5174992  74.8030507  60.1802402  77.3600666  74.3055638  61.1316048
  77.7872533  73.3701879  61.4931052  77.8632589  74.6025407  60.2114406
  77.5425054  75.3601013  62.1563881  76.7761466  76.5692519  62.1152282
  76.2286000  76.8004196  61.2015249  76.7175496  77.4498307  63.2135239
  75.9226898  78.1948292  63.2492602  77.4819096  77.1613695  64.3895961
  77.4358048  78.0513832  65.3994219  76.8745024  78.8064509  65.2086028
  78.4918258  76.1320006  64.3116285  79.2583179  76.0229790  65.0788994
  78.4698115  75.2603735  63.2141630  79.1967698  74.4510359  63.1463076
  76.0675974  72.6657736  59.9129636  76.5275858  71.6638964  60.4789158
  75.7750893  72.7783441  58.5768031  75.2620693  73.6218722  58.3638007
  75.9925057  71.8067323  57.5008330  76.3820092  70.8780014  57.9177802
  74.6738650  71.5018881  56.7678946  74.4448857  72.4497819  56.2808986
  74.8647330  70.7416461  56.0104636  73.4379491  71.0556308  57.6678186
  73.1602044  71.8298163  58.3830777  72.2887687  70.8367381  56.6818890
  72.5656113  70.0623080  55.9665464  71.3968135  70.5260193  57.2259208
  72.0839650  71.7657120  56.1497581  73.7049786  69.8080001  58.5569411
  74.5323691  70.0152099  59.2356079  72.8108720  69.5752880  59.1353180
  73.9591243  68.9577862  57.9239757  77.1119086  72.2599417  56.5593589
  77.2291574  73.4417506  56.1766628  77.9016330  71.3316037  56.0689858
  78.0065303  70.4578577  56.5646308  78.7119164  71.5458614  54.8305737
  78.2638096  72.3406155  54.2341967  80.1737509  71.9524850  55.1839604
  80.4976034  71.1855958  55.8875937  80.7142079  71.8346509  54.2447472
  80.4625757  73.3291375  55.7659278  79.8758141  73.4527514  56.6761647
  81.5237834  73.3897563  56.0073108  80.0926983  74.4635415  54.7477548
  80.8073057  74.5116799  53.9260992  79.0878880  74.3290861  54.3472832
  80.1523454  75.7868452  55.5649401  79.7933221  76.5969625  54.9301860
  79.4958260  75.6847798  56.4290374  81.5321390  76.0926081  56.0248886
  82.1405568  76.1876493  55.2243297  81.5286319  76.9556931  56.5494569
  81.8648454  75.3422579  56.6134293  78.6555340  70.2916822  54.0295178
  78.4060314  69.2296458  54.5455461  78.9327679  70.3481606  52.6990786
  78.9983847  71.2596512  52.2689871  78.9466645  69.1636303  51.8279093
  79.2399607  68.2355452  52.3185563  77.5587339  68.9609003  51.1761040
  77.5992262  67.9432679  50.7876650  76.2390907  69.1468593  52.0316845
  76.1976629  70.1644625  52.4201005  75.3684190  68.9630554  51.4022037
  76.2416305  68.4412322  52.8624579  77.4292793  69.7879995  49.9816910
  76.5637623  69.6507641  49.5897125  80.1123642  69.0962724  50.7864789
  80.7661469  70.1362746  50.5014726  80.3214072  67.9116884  50.2218694
  79.7576043  67.1331302  50.5318255  81.3747216  67.6569242  49.3046384
  81.3934405  68.4635516  48.5717666  82.7204603  67.5688161  49.9532664
  82.8873451  68.4409634  50.5854119  82.7840050  66.6645254  50.5585105
  83.7656709  67.5243209  48.8763723  83.5786213  66.5919396  48.3436637
  83.5325279  68.3670645  48.2255807  85.2981392  67.5925777  49.3042694
  85.3975545  68.3828540  50.0483654  85.5572043  66.6347564  49.7554491
  86.2391378  67.8748231  48.1327319  85.8720879  68.7437802  47.5865740
  87.2349760  68.0854403  48.5226623  86.3019161  66.7237109  47.2317665
  85.3793238  66.5286478  46.8700020  86.9273419  66.9294017  46.4658462
  86.6424153  65.9185124  47.7375478  81.0040328  66.4081462  48.5084039
  80.9024814  65.3436350  49.1107994  80.7844670  66.5308053  47.1609899
  80.9751704  67.3521969  46.6050696  80.2181347  65.3422320  46.4852256
  80.0380005  65.6619256  45.4588500  81.0188446  64.6028039  46.4996857
  78.9430920  64.7057529  47.0391169  77.9944360  65.3386412  47.4862556
  78.9893004  63.3772077  47.1580343  79.5953764  62.8988258  46.5069414
  78.0166884  62.5632472  47.9505551  77.0019161  62.9577139  47.8982808
  78.0377677  61.1908877  47.3015357  79.0887529  60.9325786  47.4311730
  77.4296320  60.5843548  47.9726459  77.6083364  60.9135473  45.8073640
  77.8213523  59.7995116  45.2472447  77.0853099  61.7991252  45.1227415
  78.0396266  62.6072948  49.5332188  77.3968060  61.7715565  50.1870301
  78.8896886  63.4637433  50.1619036  79.6261619  63.7923175  49.5538367
  79.0649583  63.6122463  51.6055200  78.2410307  63.0992323  52.1015635
  80.3933571  63.0362901  52.1340463  80.3130753  62.5320299  53.0970498
  80.6208029  62.3043246  51.3590657  81.6130085  63.9728950  52.2272867
  81.9270441  64.6938847  53.4267618  81.2706212  64.7126276  54.2967374
  83.1542488  65.4037942  53.4491704  83.3238663  66.0670163  54.2973845
  84.1359802  65.2835916  52.4380242  85.1145956  65.7617654  52.4799947
  83.7902079  64.4964906  51.3379025  84.5736876  64.3262938  50.5994631
  82.4972007  63.9265965  51.1494826  82.2335674  63.4781696  50.1916149
  78.5941858  64.9548325  52.2342771  78.5087332  65.9981389  51.6080297
  78.1858914  64.8188297  53.5598158  78.3647286  63.9190522  53.9823287
  77.5212919  65.8667125  54.3843024  77.7064090  66.8705504  54.0020192
  75.9487612  65.6251931  54.5039452  75.7873617  64.5845981  54.7853926
  75.2862890  66.5561937  55.5594686  75.4468795  67.5970258  55.2784350
  74.2162617  66.3531435  55.6032074  75.7308625  66.3717062  56.5374348
  75.1692288  65.7302097  53.2617226  74.7655261  66.7401349  53.1897789
  75.8340199  65.5442773  52.4181697  74.0314406  64.7287171  53.2382964
  73.3659262  64.9143265  54.0813501  73.4747178  64.8322354  52.3069303
  74.4344203  63.7184684  53.3097433  78.1603662  65.8063444  55.7768880
  78.1417400  64.7775905  56.3848367  78.7705703  66.9578374  56.1292001
  78.9019186  67.7181282  55.4774295  79.3431084  67.0992722  57.5181098
  79.4549128  66.1324102  58.0088000  80.7235447  67.7264578  57.3570631
  81.2371872  67.1074058  56.6215054  80.6041076  68.7353733  56.9621906
  81.5598572  67.7782459  58.6636776  80.9109479  67.9118290  59.5292254
  82.3002633  66.4428105  58.7824040  82.9497662  66.3087241  57.9173806
  82.9015589  66.4397265  59.6915437  81.5771543  65.6282102  58.8229039
  82.5408559  68.8983519  58.7487795  82.0133844  69.8498657  58.6817368
  83.0729624  68.8446230  59.6985569  83.2542158  68.8203755  57.9283306
  78.4380195  67.9131961  58.4042486  77.8623585  68.8659532  57.9734559
  78.2471952  67.4802164  59.6273883  78.8050361  66.6766929  59.8789092
  77.2732486  67.9823216  60.6010127  76.7860920  68.8873458  60.2380955
  76.1651743  66.8950724  60.8931524  76.6298280  65.9951023  61.2959552
  75.1492725  67.4699200  61.9375601  74.6838412  68.3697098  61.5352505
  74.3805310  66.7255809  62.1451570  75.6754660  67.7150818  62.8601205
  75.4504567  66.5137060  59.5747540  76.1774602  66.1089359  58.8706737
  74.6864813  65.7635196  59.7788659  74.9832601  67.3996446  59.1447062
  77.9127437  68.4374851  61.8888081  78.2697513  67.6164479  62.6797377
  78.0346611  69.8006030  62.1329120  77.7687444  70.3806494  61.3500111
  78.4895476  70.4549575  63.3560884  79.2788596  69.8811736  63.8417404
  78.8464279  71.4650990  63.1552158  77.2562140  70.5322141  64.3111899
  76.4539038  71.4193902  64.1605815  77.0169032  69.4356359  65.0582506
  77.4645896  68.5903508  64.7339526  76.0633465  69.3363633  66.1849079
  75.0841410  69.7385588  65.9251107  75.9135167  67.8369029  66.4894757
  76.0070731  67.2960643  65.5477538  76.7310836  67.5545751  67.1527820
  74.5661803  67.4825144  67.1543240  74.2141279  66.2481898  67.1374187
  73.8664084  68.3560159  67.6797186  76.4403301  70.2082190  67.3889694
  77.4738461  69.8932353  68.0427414  75.7633593  71.3630401  67.6586504
  74.9043654  71.4747724  67.1392809  76.1830417  72.4320786  68.5156086
  76.9934450  72.9751833  68.0294164  75.0188283  73.4418746  68.8298351
  74.7196000  73.7896815  67.8411026  74.2027121  72.8745066  69.2772142
  75.3460129  74.6370362  69.7092240  75.6182532  74.2413020  70.6876822
  76.4523229  75.5128134  69.1988265  76.1805919  75.9093171  68.2205393
  76.6129018  76.3378249  69.8928519  77.3682850  74.9284009  69.1117876
  74.1551271  75.5520654  69.9659020  73.3649052  74.9898763  70.4634884
  74.4644681  76.3824646  70.6006040  73.7828256  75.9394058  69.0175044
  76.8061908  72.0532914  69.8547842  77.7684217  72.6756354  70.3229003
  76.2511540  71.0126135  70.5313947  75.4348599  70.5887895  70.1140980
  76.6955160  70.5255924  71.9026419  77.5795534  71.0607356  72.2493389
  75.5207922  70.8091203  72.8916114  74.9651547  71.6758904  72.5337346
  74.8637123  69.9396548  72.9110012  76.0200375  71.0735554  74.2428236
  76.9262572  70.4825924  74.3755998  76.2672805  72.1338160  74.2959309
  74.8110939  70.6566698  75.6021361  74.9263648  68.8668234  75.5303270
  75.9533884  68.5601205  75.7284555  74.2661811  68.4293626  76.2792503
  74.6296215  68.5225648  74.5396047  77.1372460  69.0823381  71.8991075
  77.1400610  68.4727449  72.9277028  77.4811505  68.5831973  70.7254751
  77.4871432  69.1955710  69.9223176  77.7746640  67.1346039  70.5133734
  78.3493300  66.7491867  71.3555799  76.4757403  66.3294433  70.3973667
  75.6792377  66.9073750  70.8660647  76.2545349  66.1994398  69.3379955
  76.5740899  64.9565690  71.0704286  75.7086394  64.3629379  70.7759827
  77.4846140  64.4659008  70.7264917  76.6089052  65.0846205  72.5861650
  77.5460168  65.5745070  72.8506114  75.7724936  65.7191989  72.8791244
  76.5135752  63.7655389  73.3504221  75.5810896  63.3968480  73.2294382
  77.3527375  63.0954280  74.0667182  78.5619979  63.5219674  74.1916959
  78.8436828  64.3748362  73.7297777  79.2225687  63.0014575  74.7509948
  77.0447684  61.9801489  74.6906395  76.1083910  61.6080831  74.6208947
  77.7459514  61.5004874  75.2368684  78.6703333  66.8471342  69.2947300
  78.7549163  65.7622667  68.7307085  79.5045891  67.8576411  68.9533456
  79.2104886  68.7495820  69.3248904  80.6630893  67.8310704  68.0016959
  81.0479361  68.8381330  67.8410191  81.8219046  66.9373726  68.6181579
  81.4284767  66.1307370  69.2367473  82.4685976  66.5202416  67.8462189
  82.5672153  67.8309296  69.4259491  83.2946689  67.3590046  69.8378931
  80.2278622  67.4199179  66.5311831  79.2591426  67.9851564  66.0305318
  81.0526004  66.6830395  65.8692691  81.7806886  66.2272030  66.4004941
  81.0314627  66.4985287  64.4474650  80.4274024  67.3087649  64.0391422
  82.4364713  66.6174001  63.8962415  82.9805466  65.6798323  64.0104694
  82.2946497  66.9449334  62.4140038  81.7510411  67.8826755  62.2989808
  83.2838254  67.0417409  61.9664993  81.7475421  66.1448826  61.9153120
  83.3237266  67.7990080  64.4676465  83.4365754  67.6809588  65.5453439
  84.3059282  67.7776503  63.9954986  82.8399854  68.7525348  64.2557929
  80.4285598  65.1260673  64.1476951  80.7768929  64.0992170  64.7725323
  79.4399255  65.0821043  63.2845194  78.9675516  65.9496306  63.0739002
  78.9628839  63.8709919  62.6540450  79.4485816  62.9794140  63.0506377
  77.4882435  63.8037423  62.9809570  77.4757151  63.4818978  64.0222823
  77.1558131  64.8398664  62.9174209  76.5707581  62.9364970  62.1806869
  76.7543525  63.1035498  61.1193258  76.8109384  61.4982685  62.5070229
  76.6270827  61.3303337  63.5681986  76.1377874  60.8744152  61.9189961
  77.8434020  61.2394063  62.2722686  75.1180437  63.2980416  62.4991838
  74.9398055  64.3435822  62.2478364  74.4492950  62.6654668  61.9154668
  74.9289798  63.1429238  63.5613948  79.2244191  63.8849127  61.1362467
  79.1055153  64.8910503  60.4487744  79.6854047  62.7360588  60.5289611
  79.8408723  61.9258523  61.1116227  79.9255549  62.6103246  59.0729378
  79.9592637  63.6044681  58.6272456  81.2579034  61.8920394  58.7768503
  82.1092841  62.4960653  59.0905426  81.1960240  61.0004725  59.4008530
  81.4358033  61.4821686  57.3249817  80.5490631  60.9074033  57.0577038
  81.6154741  62.6182404  56.3415647  82.5023434  63.1932242  56.6079391
  81.7336159  62.2139682  55.3362253  80.7400607  63.2669889  56.3711826
  82.7697849  60.7183750  57.2554010  82.7235508  59.8453113  57.9063400
  82.9520395  60.3970946  56.2298946  83.5800618  61.3709004  57.5806099
  78.7706971  61.7530313  58.5401323  78.5128011  60.6299043  59.0733503
  77.9926199  62.2170496  57.5576513  78.2070237  63.1505996  57.2373159
  76.9018759  61.5122637  56.9297831  76.6099692  60.5765540  57.4065819
  75.7923004  62.5622112  57.1801617  76.1391264  63.0800221  58.0744115
  75.7993040  63.2516959  56.3359687  74.3634121  62.0477651  57.4086709
  74.2008016  61.2504040  56.6834992  74.0746227  61.5180395  58.8281192
  74.2365809  62.3150232  59.5538501  73.0403820  61.1788621  58.8864773
  74.7425245  60.6853361  59.0486017  73.3162824  63.0752576  57.1167660
  73.3922209  63.3863349  56.0748621  72.3290035  62.6501257  57.2974438
  73.4634890  63.9391166  57.7649765  77.1237978  61.2125670  55.4350458
  77.8775940  61.8880170  54.7206947  76.4257319  60.2099643  54.8869968
  75.8615557  59.6417772  55.5026005  76.3771044  59.9336833  53.4441319
  76.7653069  60.7437445  52.8267189  77.1874285  58.6924355  53.1749986
  76.8047924  57.8699741  53.7793553  77.1138425  58.4316945  52.1192053
  78.2307514  58.8763199  53.4314417  74.9503964  59.6356629  53.0249766
  74.2347857  59.0519077  53.7734880  74.5421140  59.9460462  51.7713532
  75.0890834  60.6773496  51.3399380  73.3594326  59.4565380  51.0648211
  72.6008430  59.0623587  51.7410339  72.7976757  60.6756731  50.3657218
  72.6290771  61.4324906  51.1318164  73.5119643  61.0530113  49.6339378
  71.4845340  60.3559860  49.6727139  70.3558535  59.9532375  50.4195251
  70.3887562  59.8799071  51.5065575  69.1359997  59.6343593  49.7094381
  68.2162171  59.4470007  50.2635126  69.1155055  59.6688038  48.3091312
  67.9540647  59.2273263  47.6402673  67.2640715  58.9347179  48.2401751
  70.2433389  60.0271664  47.6551271  70.1672803  59.9807988  46.5687729
  71.4284099  60.4288957  48.2501148  72.2568544  60.7778012  47.6336372
  73.7157428  58.2720890  50.2101127  74.6273141  58.4421144  49.3679256
  72.9846539  57.1739988  50.3978229  72.2668859  57.2974926  51.0975784
  73.1411891  55.8767162  49.8056646  73.9079752  55.9447983  49.0339762
  73.5551490  54.7710646  50.8228199  72.7434829  54.6835427  51.5450645
  73.6438876  53.8404955  50.2622249  74.9168205  55.0591507  51.5892323
  75.7591423  54.9296488  50.9096559  74.9159873  56.0782520  51.9759284
  75.0464594  54.0524253  52.7762028  75.9225586  54.3503643  53.3522076
  74.1528127  54.1667234  53.3897423  75.1902849  52.5788894  52.3481488
  74.4894879  52.3808796  51.5371147  76.2086928  52.4154757  51.9956715
  74.9142763  51.6886555  53.4501143  73.9704972  51.8396174  53.7765976
  75.0153752  50.7317171  53.1432788  75.5638158  51.8716818  54.2015788
  71.8130327  55.5251978  49.0928999  70.9561044  54.8117613  49.6848958
  71.6733672  55.9711718  47.8076829  72.6737483  56.7951901  47.0410217
  73.5238552  56.1446468  46.8355662  72.9867730  57.6033787  47.7020405
  72.0208573  57.2999693  45.7917430  72.7199967  57.2655378  44.9562086
  71.6725175  58.3233236  45.9314094  70.8202581  56.3283002  45.5704498
  71.1177131  55.4805607  44.9532325  69.9550015  56.8171637  45.1227408
  70.4791602  55.8524577  46.9706251  69.6980122  56.4783572  47.4020831
  69.9812731  54.4074562  46.8778350  68.8232187  54.2140423  46.8985022
  70.8913400  53.3961259  46.8185953  71.8674018  53.6401455  46.7299544
  70.5207882  51.9895642  46.7361068  69.8255245  51.8365334  45.9107043
  71.7048628  51.1674789  46.5070520  72.3332057  51.2533319  47.3935697
  71.3660694  50.1369213  46.4008919  72.5084189  51.5676387  45.2741324
  71.7973358  51.5476559  44.4482617  72.8233943  52.5950039  45.4569255
  74.0166728  50.5277954  44.8195911  74.5393989  51.3312599  43.2597910
  74.7749988  52.3781820  43.4509602  75.4225468  50.8262127  42.8685392
  73.7323085  51.2684260  42.5298881  69.7203796  51.4711430  47.8947812
  68.5315286  51.0730120  47.7142930  70.2834439  51.6150393  49.1177687
  71.2932180  51.6150997  49.1391146  69.5786421  51.5672412  50.3620837
  69.0167597  50.6409250  50.4817739  70.6405743  51.6281798  51.4308641
  71.5982018  51.3433628  50.9950566  70.7034168  52.6482924  51.8097058
  70.3118085  50.7078939  52.5439000  69.3323783  51.1286864  52.7713883
  70.1973747  49.6690380  52.2344125  71.2096182  50.7748128  53.8082515
  71.0631906  49.8787019  54.7021611  71.9004066  51.7418498  54.0837054
  68.4336712  52.5327596  50.5251473  67.5129798  52.2252081  51.2491760
  68.4175622  53.6369852  49.7489623  69.2107668  53.7487634  49.1337945
  67.3498501  54.6818344  49.7250427  67.5449259  55.3815063  48.9123289
  66.3809288  54.2071043  49.5703740  67.3220483  55.4563497  51.0581301
  66.2179749  55.7674575  51.5198561  68.4741599  55.8194564  51.6517146
  69.3639244  55.6109848  51.2216471  68.4725842  56.4553231  53.0080132
  67.7544277  57.2750604  52.9884903  68.1011100  55.4978945  54.1725021
  68.3924644  56.0738585  55.0508400  67.0288596  55.3046451  54.2046558
  68.8302099  54.1768235  54.1984772  68.2474524  53.1491454  54.6125165
  70.0808094  54.1368708  53.9034153  70.5724242  53.2547414  53.9196099
  70.5657850  54.9878018  53.6568062  69.9064636  57.0774010  53.1732406
  70.8845527  56.6465300  52.6287998  69.9315917  58.1597576  53.9702775
  69.0867093  58.7119667  54.0068588  71.1255045  58.6258970  54.7654479
  71.8948012  58.9320410  54.0565349  70.8465941  59.7938567  55.7212226
  70.0106227  59.5810913  56.3875423  71.7543851  59.9279786  56.3094630
  70.5487894  61.1425092  55.0620164  71.3905537  61.5268173  54.0349945
  72.3006507  60.9839956  53.7797143  71.0247213  62.6841579  53.2996175
  71.6183610  62.9238246  52.4174313  69.9569625  63.5009428  53.6633739
  69.7251227  64.4107466  53.1096526  69.2091607  63.1493931  54.7159285
  68.4190497  63.8345969  55.0230451  69.4163317  61.9164575  55.4378176
  68.7219941  61.6225109  56.2249585  71.7603736  57.4981520  55.6302713
  71.1265746  56.4424442  55.9038327  72.9923380  57.6147267  56.0840292
  73.4030138  58.5111774  55.8653493  73.8101984  56.6293286  56.8668247
  73.1515099  55.9813014  57.4450025  74.6446136  55.7666529  55.9352825
  73.9560139  55.2381506  55.2760291  75.2708042  56.4355319  55.3448705
  75.5270506  54.7557144  56.6653566  76.3978765  54.5162972  56.0550759
  75.8482972  55.2762093  57.5675677  74.7691632  53.3994048  57.0714117
  74.1021667  53.3036627  58.1202244  74.8397344  52.4701203  56.2300176
  74.6862712  57.5872244  57.7239496  75.4242242  58.5001498  57.2578029
  74.7787853  57.1287430  58.9814845  74.0818611  56.5568970  59.4368835
  75.8989541  57.7038678  59.8245924  76.1373665  58.7243975  59.5249627
  75.4156115  57.7208850  61.2723671  75.2263119  56.6842331  61.5509664
  76.2371376  58.1134069  61.8716345  74.1626631  58.5507736  61.5232737
  74.1643981  59.5480705  61.0833911  73.4114107  57.9365667  61.0268173
  73.8407159  58.6499070  62.9845552  73.0006003  59.4916032  63.3574765
  74.2281007  57.8421719  63.8389298  77.2329181  57.0081722  59.5429653
  77.4029003  55.8933036  59.9880979  78.1664075  57.7286414  58.8362047
  77.9958247  58.6502942  58.4599642  79.4751140  57.1284393  58.6246064
  79.4524829  56.0544356  58.4399366  80.1937172  57.8385359  57.4511528
  80.2788147  58.8881175  57.7326438  81.6027459  57.2821192  57.0915535
  81.5183873  56.2326314  56.8094906  82.0162133  57.8497538  56.2579251
  82.2614467  57.3738909  57.9551451  79.2996049  57.8796089  56.1691352
  78.4746521  58.5706835  56.3422528  79.9034559  58.2371253  55.3350815
  78.7331505  56.4705058  55.8322184  78.1287651  56.1125032  56.6656764
  78.1156479  56.5313266  54.9360652  79.5575695  55.7789441  55.6585073
  80.3477827  57.2689037  59.8961673  81.0376957  56.3185769  60.2104029
  80.3259923  58.4288883  60.5907320  79.7567357  59.2060644  60.2873451
  81.2017397  58.6253082  61.6879556  81.1614084  57.6695677  62.2104808
  82.6581328  58.8873061  61.2511020  82.7162643  59.8452710  60.7343583
  83.3031442  58.9091664  62.1294998  82.9853343  58.0928357  60.5803895
  80.7446629  59.7595189  62.7062586  80.1442828  60.7481958  62.3463160
  81.2041866  59.7115541  63.9412316  81.8413603  58.9589482  64.1596196
  80.7406840  60.5743453  65.0398662  80.6638306  61.5962175  64.6684232
  79.3533772  60.1455940  65.6102765  78.6235652  60.3112735  64.8177968
  79.4188933  59.0791679  65.8260149  78.9091126  60.9064019  66.8904883
  78.0912353  60.3335923  67.3276001  79.7608681  60.8996382  67.5706125
  78.4697057  62.2988948  66.6659462  78.8185264  62.8858634  67.5155878
  78.9614345  62.6475087  65.7577773  77.0411064  62.4920353  66.5236128
  76.5002558  61.6598476  66.3364134  76.4146765  63.6735291  66.5239257
  77.0028847  64.7840020  66.6462410  78.0069805  64.8112053  66.7518421
  76.4664797  65.6397472  66.6378960  75.0696550  63.6601671  66.4934694
  74.5768076  62.7788478  66.4716112  74.5589203  64.5315155  66.4926010
  81.7774543  60.6909296  66.1044720  82.1473076  59.7644291  66.8226247
  82.3066729  61.8821484  66.2122841  82.3800366  62.5101558  65.4246777
  82.8822915  62.3187821  67.5250283  83.2261349  61.4371454  68.0659420
  84.0697492  63.2915600  67.3616969  84.8215313  62.7594056  66.7788293
  83.7040968  64.1444517  66.7898804  84.6884849  63.7803941  68.6593076
  84.2635722  63.3781317  69.7606150  85.6286558  64.6016637  68.6057916
  81.7290023  62.9620756  68.3204644  81.0504318  63.7986473  67.7323327
  81.4190847  62.5118172  69.5055485  81.9889409  61.7902146  69.9234634
  80.2711454  63.0304182  70.2750591  79.4314861  63.3295483  69.6476895
  79.8376654  61.8054388  71.1367909  80.8080641  61.3883647  71.4060022
  79.3004933  62.0881699  72.0421137  79.0602978  60.7032153  70.5070353
  77.6643268  60.6481229  70.7096278  77.1963244  61.4639121  71.2605920
  76.8808856  59.5862030  70.2263670  75.8037278  59.5266425  70.3822019
  77.5529881  58.5603257  69.5064963  77.0050551  57.6798265  69.1709511
  78.9705790  58.6866500  69.2185657  79.4224581  58.0215064  68.4827061
  79.7575936  59.6482782  69.8726913  80.8436701  59.5558829  69.8718119
  80.5517283  64.2129254  71.2034189  79.6577198  64.6463648  71.8729711
  81.8387459  64.5978400  71.4786470  82.5387780  64.1030889  70.9445349
  82.2710978  65.4421497  72.5380241  82.0627070  65.0012152  73.5128314
  83.7993787  65.6035592  72.3859566  84.1235381  64.5629079  72.3779052
  84.0138555  66.0578714  71.4186407  84.5835630  66.3497000  73.4591122
  84.8265016  67.5656733  73.4753821  85.1203943  65.5951842  74.3853650
  85.6551933  66.0187005  75.1301627  84.9970633  64.5933478  74.3505200
  81.4976007  66.7196080  72.7114151  81.3642428  67.5112758  71.7657980
  81.0636964  67.0631149  73.9358820  81.0650844  66.2481724  75.1755404
  82.1062645  66.0739645  75.4470101  80.5879861  65.2972587  74.9383921
  80.2823118  67.0534432  76.2731450  80.9245983  67.7258425  76.8418685
  79.7353192  66.4071718  76.9596097  79.3357359  67.8175477  75.3843946
  78.9007911  68.6794949  75.8903285  78.5395112  67.2065085  74.9592395
  80.3226736  68.3075959  74.2285287  79.7185072  68.5578602  73.3564914
  81.2794330  69.4940547  74.5546529  81.5708643  69.7985694  75.7372888
  81.7935289  70.1975296  73.5024921  81.8694951  69.7275762  72.6117215
  82.3207592  71.5683691  73.6160899  82.5952318  71.8144729  74.6418564
  83.5958846  71.6153684  72.7375841  83.7094747  72.6988750  72.7027978
  84.4901911  71.1706385  73.1740829  83.4402974  71.0995420  71.3226581
  82.4492139  71.4677531  70.6629437  84.1964610  70.1502090  70.9727018
  84.1289523  69.7730721  70.0381911  84.8649438  69.7728494  71.6290791
  81.1246997  72.5153472  73.1776028  79.9975602  72.1870232  73.3690550
  81.4346076  73.7296159  72.6683214  82.3467654  74.1257969  72.8446960
  80.4549994  74.5465199  72.0428865  79.5849005  73.9753083  71.7192441
  80.0087089  75.5542475  73.1307430  80.8681753  76.1372142  73.4617515
  79.2610058  76.2215794  72.7021311  79.3877718  74.9497452  74.3773552
  80.0861302  74.4964283  75.4212481  81.1717960  74.5883490  75.3899388
  79.2135193  73.9847025  76.3555435  79.5704760  73.7127618  77.2603803
  77.9062311  74.1045121  76.0306801  76.6971909  73.9687586  76.6510436
  76.7413197  73.5716180  77.6651593  75.4732488  74.3349517  75.9805235
  74.5118637  74.1697931  76.4668993  75.4977658  74.8980375  74.7177316
  74.6156957  75.1982174  74.1520959  76.7899788  75.0990119  74.1128126
  76.7247578  75.6357792  73.1663836  78.0064091  74.7486099  74.7075685
  80.9656863  75.1031095  70.7366231  81.6995715  76.1140529  70.7410994
  80.4863992  74.6010511  69.5962328  79.8261784  73.8538566  69.7571928
  80.8752775  74.8911387  68.2327740  81.9565234  74.9750398  68.1233800
  80.3936919  73.7091831  67.4067792  80.4254545  72.7996027  68.0065740
  79.3727674  73.8846788  67.0676414  81.3263544  73.5503818  66.1776023
  81.3922213  74.5523822  65.7536240  82.2911846  73.2715220  66.6012081
  80.8813663  72.3556336  64.8440733  81.2388026  70.8669947  65.8105951
  80.6046739  70.8476832  66.6969397  81.0414131  69.9831942  65.2039364
  82.2858200  70.8726150  66.1136203  80.4223772  76.2197213  67.7268079
  79.2159738  76.5013597  67.5534889  81.3887771  76.9936530  67.1457797
  82.3468973  76.7120964  67.2968789  81.1356756  78.2655909  66.4363491
  80.1330896  78.6312711  66.6581562  82.1692591  79.3312474  66.9061601
  81.8912586  80.3090392  66.5127923  82.1858531  79.3697011  67.9953553
  83.4253893  78.9858516  66.4377205  84.0654880  79.6408591  66.7255374
  81.1145761  78.0361950  64.8879143  80.4530492  78.8360447  64.2403098
  81.8759633  77.0432383  64.3374794  82.4211602  76.4507440  64.9472417
  81.9905042  76.8433245  62.8893116  80.9928471  76.9985551  62.4786014
  82.9527822  78.0605326  62.3933604  83.9577791  77.9142354  62.7891865
  82.9902599  78.0740142  61.3040882  82.5551178  79.0089825  62.7544768
  82.5195762  75.4978380  62.3407279  83.2893922  74.8751532  63.0213188
  82.1964431  75.0555859  61.1514281  81.5254361  75.6008640  60.6293929
  82.7143146  73.8187831  60.5440616  83.7100473  73.5160655  60.8680639
  81.7168997  72.6567425  60.8457271  81.1838290  72.9969562  61.7335274
  80.6872881  72.1955429  59.7654327  81.2196621  71.8547299  58.8774431
  80.0842770  71.3790268  60.1626474  80.0384147  73.0305800  59.5012775
  82.4832165  71.4310409  61.3106618  83.0406020  71.6721080  62.2158193
  81.7832842  70.6221576  61.5201902  83.1766338  71.1177631  60.5301937
  82.9442335  73.8472160  59.0159769  82.2957099  74.6264638  58.2522885
  83.8942379  72.9765243  58.5717907  84.3801684  72.4727520  59.2999283
  84.4289511  72.9203663  57.2184939  83.5998135  72.8641012  56.5131825
  85.2926835  74.1692523  56.8725803  84.7223871  74.9891779  57.3091388
  86.1997982  74.0077882  57.4549653  85.6844744  74.5355101  55.3680910
  86.3762676  75.3737039  55.2846986  86.1255401  73.6534785  54.9037846
  84.3683449  74.8851168  54.6555666  83.7323827  73.9276243  54.1622641
  83.9947546  76.0683720  54.6690722  85.0899800  71.6118853  56.7180349
  85.5220163  70.7251400  57.4226677  85.1278201  71.4121552  55.4016584
  84.8443342  72.1452953  54.7674339  85.6446690  70.1473150  54.8274863
  85.8146281  69.4345760  55.6344659  84.5182783  69.6126413  53.8908315
  84.2247177  70.4297108  53.2318019  84.9574239  68.3810581  53.0305857
  85.2507081  67.5633674  53.6889678  84.1260395  68.0608617  52.4025929
  85.8017911  68.6600210  52.4002501  83.3175988  69.1071880  54.7743170
  83.6440240  68.1917081  55.2677174  83.1243348  69.8743606  55.5241134
  82.0662971  68.8381679  54.0035489  82.2586714  68.0707101  53.2538153
  81.2870438  68.4938878  54.6835009  81.7389834  69.7533628  53.5102093
  86.9224150  70.3878141  53.9490978  86.8870687  70.9329785  52.8197421
  88.1230755  70.1460953  54.5111693  88.1808690  69.8977830  55.4884616
  89.3572573  70.3765020  53.7864665  89.3935176  71.3818495  53.3668706
  90.5318927  70.2211433  54.8219835  90.4546248  69.1722800  55.1083655
  91.5063864  70.4026139  54.3686286  90.3699782  71.1328370  56.1081045
  89.4105700  70.9346069  56.5859554  91.4840846  70.8107780  57.0676527
  92.4438662  71.0092106  56.5906385  91.3869946  71.4304226  57.9591205
  91.4293175  69.7591498  57.3490408  90.2800433  72.6130285  55.7598720
  89.4178995  72.7833822  55.1150564  90.1699819  73.1959149  56.6743288
  91.1878019  72.9204763  55.2406908  89.5863543  69.5460720  52.5210754
  90.1124174  69.9935513  51.3982038  89.2409250  68.2835776  52.4825691
  88.9014114  68.0839233  53.4126056  89.2084392  67.2543011  51.5261886
  88.7524182  67.5952789  50.5967381  90.6881572  66.8290739  51.2316151
  90.8179496  66.0857364  50.4450387  91.0764779  67.7890147  50.8912905
  91.4388415  66.3920654  52.4647196  91.4302621  65.1890426  52.7545184
  92.1841611  67.2152413  53.0059803  88.4533037  65.9501423  52.0057197
  87.6265766  65.9813445  52.9431533  88.5961390  64.8248884  51.2890889
  89.2367762  64.8954118  50.5114580  87.8302469  63.5947312  51.4439200
  86.7607030  63.7921046  51.5161600  88.0947043  62.7409321  50.1636453
  89.1687688  62.9263237  50.1743505  87.9111143  61.6680668  50.2215666
  87.5013414  63.2858712  48.8808020  86.8676816  64.3518275  48.9442958
  87.3724587  62.5892020  47.8496152  88.0862724  62.8498240  52.7422625
  87.1487719  62.1971155  53.2431363  89.1788726  63.1676598  53.4370050
  89.7101998  63.9464791  53.0747464  89.6671287  62.4938216  54.6633186
  89.0334123  61.6488329  54.9325710  91.0170072  61.9946590  54.3751703
  91.4815753  62.8129402  53.8249962  91.6863561  61.6658454  55.1701256
  90.7495970  60.8434694  53.4341739  89.9642880  59.9297203  53.7340114
  91.4596446  60.7054025  52.4376485  89.7252462  63.4635824  55.8847008
  90.0270097  62.9985427  57.0200487  89.5591800  64.7982973  55.6319177
  89.2516883  65.1174185  54.7243330  89.9061622  65.7916003  56.6280334
  89.9200565  65.3098090  57.6056751  91.3015545  66.4535682  56.3769561
  91.1606289  66.6906304  55.3224227  91.6314802  67.3461343  56.9085337
  92.3940628  65.3781078  56.4970999  92.9435794  65.0601096  57.5148973
  92.9213866  65.0280924  55.3797612  93.6478238  64.3265334  55.3654906
  92.6071872  65.4560239  54.5205440  88.7985475  66.8302811  56.6735309
  88.5829996  67.5372470  55.6782710  88.2868363  67.0748626  57.8888949
  88.7154626  66.5429566  58.6328404  87.2400831  68.0209096  58.2335711
  86.9991779  68.6615224  57.3852320  85.9718367  67.2181270  58.6243091
  86.0098101  66.9775285  59.6867448  85.0620548  67.7795644  58.4117417
  85.8495453  65.8868382  57.8777704  85.6392278  65.8208678  56.4666040
  85.3680484  66.7287008  55.9277155  85.7791012  64.5931486  55.7650094
  85.8437603  64.6139128  54.6771267  85.8339314  63.3779000  56.4426777
  85.8369752  62.4248567  55.9137172  85.8866791  63.4025753  57.8583651
  85.9052496  62.4534777  58.3940600  85.9158459  64.6487292  58.5931193
  85.9876960  64.6386001  59.6807015  87.6691463  68.8849577  59.4654492
  87.9893376  68.2836277  60.4629008  87.5683341  70.2309365  59.3781624
  87.1805873  70.5205076  58.4916521  87.8618339  71.2437954  60.3582092
  88.5686566  70.9235363  61.1236732  88.5463250  72.3714185  59.4757830
  89.4272819  71.8298422  59.1312411  87.9497917  72.6779201  58.6165363
  88.9834803  73.6086218  60.2594381  88.0975390  74.1037675  60.6569801
  89.9240899  73.2183833  61.4268239  90.8105358  72.7235653  61.0300020
  90.2217463  74.1154770  61.9697089  89.4027586  72.5411367  62.1033231
  89.5254743  74.6698864  59.3410652  88.7540115  74.9637691  58.6293226
  89.8283816  75.5378241  59.9267551  90.3872651  74.2780507  58.8008057
  86.6927940  71.8999097  61.0723770  85.7426816  72.3814407  60.4660477
  86.8124099  72.0134025  62.3823710  87.6012607  71.5754329  62.8362393
  85.8269408  72.7662031  63.2343194  85.1506256  73.3264117  62.5886700
  85.2540992  72.0561517  63.8307913  86.5337161  73.7300085  64.1610820
  87.7602103  73.6321955  64.4042479  85.6787381  74.5162886  64.7978160
  84.6890990  74.4744642  64.6004217  86.1405341  75.4543713  65.8043001
  86.9559769  74.9898570  66.3587176  86.6885722  76.7077658  65.0742424
  85.8815015  77.1890411  64.5218738  87.0945652  77.4064505  65.8057543
  87.4754449  76.4101439  64.3811683  85.0606432  75.9552562  66.8099919
  83.8485987  75.7847601  66.5230264  85.4533290  76.3859364  68.0153390
  86.4150898  76.6649120  68.1468233  84.5649943  76.4010807  69.1713879
  83.5313988  76.5962603  68.8855831  84.6464502  74.9788148  69.8062782
  83.9113326  74.9651126  70.6109605  84.3424401  74.2819404  69.0252251
  85.9999239  74.5671137  70.3516121  86.0368030  73.4877064  70.4986517
  86.6494608  74.8424956  69.5207295  86.4808569  75.2811987  71.6421891
  85.8130878  75.0833229  72.6982216  87.5650593  75.9447197  71.6894865
  84.7919498  77.4565207  70.2702147  85.6082063  78.3468536  70.0803996
  83.9565297  77.5321074  71.3304264  83.2868362  76.7760630  71.3330654
  83.7357592  78.6581913  72.2399391  83.6723404  79.5745672  71.6531407
  82.4171205  78.5077889  73.0798649  81.5976349  78.1643066  72.4485468
  82.6434486  77.7466856  73.8265892  81.9632085  79.8256429  73.8237264
  81.6400036  80.8065419  73.1964292  81.9007027  79.7256054  75.1534814
  81.6187334  80.5239176  75.7041998  82.1356672  78.8520652  75.6027252
  84.9612523  79.1435127  73.0652383  84.9533028  80.2556082  73.6253966
  85.9725811  78.2947640  73.1607509  85.8304260  77.3912270  72.7323677
  87.1980598  78.5097074  73.9441244  87.0405192  79.4172464  74.5269221
  87.4434888  77.3422138  74.9108127  87.6120001  76.4279356  74.3417790
  88.3196365  77.5550237  75.5233300  86.5732996  77.2137383  75.5545238
  88.4121957  78.8035671  73.0098844  89.4666624  78.9406899  73.5838019
  88.1863619  78.9660684  71.6794208  87.3158094  78.5774861  71.3458919
  89.1568502  79.5130422  70.6686166  88.5735841  79.7794496  69.7871820
  89.9683329  80.7141231  71.0913061  90.8512059  80.4401981  71.6688869
  90.2753134  81.2353982  70.1845893  89.2130017  81.6948662  71.9097917
  88.0590977  82.3213432  71.4065678  87.7368907  82.1099789  70.3869563
  87.3165195  83.2210217  72.2126479  86.4143326  83.6825947  71.8112630
  87.7294732  83.5143079  73.4995921  87.2305559  84.2933875  74.0759743
  88.7838516  82.8108682  74.0547045  88.9857957  82.9032186  75.1218456
  89.5909912  81.9831637  73.2559442  90.5086265  81.5592050  73.6637484
  90.0898479  78.4157755  70.1199863  91.2167037  78.7616658  69.7296212
  89.6733284  77.1443692  70.0538981  88.8314235  76.8847962  70.5477779
  90.4535612  76.0804942  69.3950683  91.4810098  76.3932857  69.2090303
  90.4714180  74.8954416  70.3452474  89.4330753  74.5872421  70.4675451
  91.0287379  74.1028353  69.8459781  91.0784565  75.1227241  71.7264816
  92.2692934  74.9001528  71.9195682  90.3021628  75.5369351  72.6360828
  90.6609085  75.7011454  73.5658334  89.3276195  75.7013003  72.4278754
  89.9222836  75.7326492  67.9649466  88.7402155  75.5722518  67.7406663
  90.8086920  75.6694263  66.9560022  91.6072836  76.2788431  67.0607013
  90.7283426  74.8221125  65.7499648  89.7397325  74.8830821  65.2949571
  91.7949163  75.3468251  64.7112675  92.7464273  75.0945847  65.1793495
  91.5896680  74.6432269  63.9044697  91.8668723  76.7763546  64.1398676
  91.9584545  77.5360997  64.9160769  93.1629298  76.7428632  63.2961767
  93.0719135  75.9836195  62.5194116  93.3216623  77.7172991  62.8342466
  94.0097989  76.5040360  63.9395077  90.7355314  77.2281673  63.1793349
  89.7770710  77.1753265  63.6957272  90.9186601  78.2536046  62.8583311
  90.7148367  76.5734714  62.3081036  91.0210919  73.3655101  66.0812895
  92.1411973  73.1334876  66.5910174  90.2907546  72.4172785  65.4631809
  89.4637916  72.8508810  65.0781868  90.4118998  70.9646608  65.3826354
  91.4614910  70.6747697  65.4318363  89.6654904  70.3070199  66.5535971
  89.6951247  69.2190266  66.4945071  90.1279513  70.6324914  67.4854223
  88.2035324  70.6970500  66.6358248  87.3213224  69.7754093  65.9554538
  87.7745382  68.8910456  65.5075741  85.9118683  69.9838616  65.8555940
  85.2598789  69.3275674  65.2791494  85.3720949  71.0874731  66.5385540
  84.2947184  71.2507580  66.5121378  86.2171355  71.9923657  67.2630717
  85.7675383  72.8399843  67.7802807  87.6278480  71.7942682  67.3120375
  88.2566231  72.4883157  67.8697471  90.0319840  70.3687722  64.0945349
  89.0735731  70.7071746  63.4379731  90.7261506  69.2470681  63.7209233
  91.3852877  68.8440593  64.3714780  90.4835790  68.5554499  62.4731139
  89.5705949  68.8934158  61.9828707  91.6674667  68.6855460  61.4661377
  92.5182692  68.1630790  61.9034734  91.3775116  68.1144823  60.0812138
  90.5270594  68.6368025  59.6430201  92.2516175  68.2454360  59.4433341
  91.1464291  67.0526816  60.1665469  92.2886757  70.0017627  61.1722145
  92.6939241  70.4260922  62.0908115  93.0923199  69.8711009  60.4475193
  91.5364542  70.6756958  60.7622416  90.4020844  67.0864011  62.8226754
  91.3153871  66.5517953  63.4155471  89.2888736  66.4795891  62.4331901
  88.6319781  67.0685838  61.9415878  88.9060611  65.1350442  62.7247491
  89.6741492  64.6675375  63.3408476  87.5351390  65.0794355  63.5005765
  87.2834172  64.0705293  63.8274458  87.5146013  65.7538793  64.3566162
  86.1751273  65.6106444  62.4049072  85.2061453  65.4612147  63.3035968
  88.9008992  64.3912643  61.3755454  89.0342815  64.9923612  60.2964612
  88.9691723  63.0357544  61.4162128  88.9637242  62.5198863  62.2845156
  89.1401465  62.2970878  60.1775844  88.7903355  62.8709801  59.3194591
  90.6670161  62.0306803  60.0097825  91.0906694  62.9901816  59.7131780
  91.0202304  61.7710590  61.0077486  91.0945537  60.9771034  59.0408720
  91.0454119  60.1267579  59.7210179  90.3431287  60.8609137  58.2598711
  92.4478903  61.0013474  58.4025874  93.3082453  60.1666145  58.6225968
  92.7279517  62.0390448  57.7374928  93.6262432  62.1162408  57.2822846
  92.0520960  62.7860292  57.6644540  88.2988778  61.0035747  60.1865650
  88.2341963  60.3742151  61.2380192  87.7509865  60.5615030  59.0663504
  87.7165155  61.1486519  58.2452735  87.1049160  59.2846229  59.0154395
  86.5830645  59.1026487  59.9549370  86.0851804  59.2278422  57.8687158
  85.6232289  58.2410123  57.8981574  85.3306869  59.9878378  58.0718076
  86.6829771  59.4642521  56.4976547  87.1341002  60.4565105  56.4941828
  87.4561896  58.7135920  56.3340878  85.6620469  59.3760757  55.4036367
  84.9906179  58.5238026  55.5081003  85.0758598  60.2875248  55.2863990
  86.5478033  59.1786697  54.1737568  87.3793216  59.8767714  54.2703580
  86.9247513  58.1569261  54.2190273  85.8764233  59.3944170  52.8906593
  85.5274363  60.3412624  52.8483327  86.5325685  59.2434605  52.1378076
  85.1061491  58.7473505  52.8007614  88.3084406  58.2859501  58.9112508
  89.1949251  58.5163676  58.1619586  88.2537022  57.2294438  59.6618134
  87.4568736  57.0767346  60.2633477  89.3743194  56.3196762  59.7634699
  89.8731210  56.2147548  58.7999931  90.3520016  56.8702409  60.7497259
  90.3581620  57.8923767  60.3711766  89.9652496  56.8630766  61.7687802
  91.7700170  56.3182334  60.7418379  92.1922845  55.6648654  59.7519720
  92.4047300  56.3668737  61.8219557  88.8033369  54.8978139  60.0893666
  88.4413048  54.6866375  61.2428770  88.8008299  54.0142848  59.0594200
  88.9369993  54.3990245  58.1355517  88.2636472  52.6475655  59.1745163
  87.8414968  52.4712892  60.1638670  87.1646981  52.5014283  58.1475325
  86.3649415  53.2020326  58.3876208  87.5704658  52.7372848  57.1637519
  86.6470880  51.1743934  58.1416037  85.9519100  51.1050258  57.4831847
  89.3412904  51.5791137  59.3440150  89.1496413  50.3885767  59.1118832
  90.5545323  51.9914290  59.6729212  90.5927648  52.9946620  59.7831995
  91.7589844  51.2486164  59.8306023  91.9876918  50.6364318  58.9582364
  92.8707046  52.2760730  60.0096669  92.6604514  52.8908600  60.8848416
  93.8221869  51.7623991  60.1472195  92.9255494  52.9106960  59.1251642
  91.6433845  50.2778481  61.0177045  92.0252318  49.0769686  60.8649070
  91.0655417  50.6959757  62.1324834  90.9714807  51.7015273  62.1216252
  90.7467851  49.9805931  63.3739502  91.7206448  49.7204682  63.7887170
  90.0661651  51.0889773  64.3176715  89.0861512  51.3530711  63.9202711
  89.9533215  50.6891813  65.3254065  90.6967053  51.9775582  64.3483666
  89.9964898  48.6474377  63.2665121  89.4260347  48.2635928  62.2509374
  90.0290869  47.9545855  64.4277232  90.5138571  48.3443123  65.2234683
  89.4219070  46.5593453  64.5617919  89.0525370  46.2385339  63.5877564
  90.4613085  45.5314303  65.0582575  89.9931849  44.5517067  65.1536625
  91.5709000  45.4550580  64.0791537  92.0398416  46.4343709  63.9835520
  92.3097843  44.7309237  64.4223424  91.1804520  45.1436215  63.1103100
  90.9601451  45.9527367  66.3116166  91.6077398  45.3185335  66.6278563
  88.1647660  46.3066157  65.4624479  87.7119193  45.2224637  65.7762731
  87.5160084  47.3770285  65.8006728  88.0234004  48.2338357  65.6317522
  86.1641910  47.4654004  66.4634798  85.6252656  46.5179520  66.4631341
  86.3610659  47.9044003  67.8844071  85.3548714  48.0383258  68.2815682
  87.1449411  47.0055530  68.7992706  88.1514644  46.8715231  68.4029797
  87.2021764  47.4557170  69.7903183  86.6504261  46.0366824  68.8688778
  87.0127545  49.2086008  67.9079860  87.1376978  49.4874683  68.8180533
  85.2801477  48.4373116  65.6224269  85.7261589  49.5366543  65.2363278
  84.0186335  48.1193087  65.3964573  83.7388519  47.1721486  65.6079029
  83.0241504  49.0226460  64.7724428  83.2996457  49.2478549  63.7421601
  81.6650304  48.3238115  64.7729184  81.5049129  48.2626955  65.8493600
  80.8838781  48.9374354  64.3241792  81.6169978  46.8754563  64.1517235
  81.4123820  46.8491490  62.9388104  81.6132907  45.8388213  64.8442435
  82.9482637  50.3947756  65.4394927  82.9326959  51.4111700  64.7306083
  82.9307102  50.4199783  66.7373859  82.7417271  49.4984577  67.1050604
  82.9831561  51.5442985  67.6747324  82.1050371  52.1798398  67.5603055
  83.0084383  50.9980345  69.1035335  82.0247494  50.5570989  69.2648751
  83.7628510  50.2112951  69.1019115  83.3277019  52.0455070  70.2859590
  83.3129498  51.5715685  71.2674199  84.3526881  52.3101610  70.0262266
  82.4710602  53.3045649  70.3175812  82.8670819  54.2575544  71.0932634
  81.5250956  53.4472794  69.5069015  84.1003211  52.5048965  67.3326845
  83.8530028  53.7268312  67.1639177  85.3614310  52.0688888  67.3528098
  85.5416096  51.1230936  67.6579433  86.4714241  52.8821440  66.9816475
  86.4415554  53.8077269  67.5565416  87.8542108  52.1614507  67.2546954
  87.8301570  51.7394067  68.2593842  87.9739894  51.3589685  66.5268387
  89.0439118  53.1464961  67.1371623  89.3633751  53.0330867  66.1012171
  88.6592934  54.1548793  67.2899078  90.2065487  52.9151142  68.0441705
  90.6891538  53.8938522  68.6814390  90.6264923  51.7647007  68.0362137
  86.4451104  53.2582153  65.5352288  86.6708758  54.4530934  65.2099638
  86.1362360  52.2621327  64.6412702  85.9459003  51.3163993  64.9403689
  86.0632740  52.5709971  63.1843074  87.0469901  52.8478423  62.8051523
  85.5696100  51.3092952  62.4139781  84.8443679  50.8573797  63.0906579
  85.0509308  51.7189073  61.5472083  86.6071443  50.2057167  61.9368337
  87.5050261  50.6818105  61.5428238  86.8761002  49.5590518  62.7720518
  85.9484677  49.3700784  60.8365670  85.4259792  50.0355713  60.1493815
  86.7204383  48.8230516  60.2953437  84.9805368  48.4027450  61.3849079
  83.9942011  48.5354995  61.2128106  85.3782660  47.2800087  62.0220701
  86.5604726  46.8500884  62.2542194  87.3590071  47.3829939  61.9404450
  86.6897124  45.9797888  62.7501783  84.4058171  46.5792682  62.5635706
  83.4511399  46.8985777  62.4815153  84.6182615  45.7251126  63.0589333
  85.0799631  53.7161043  62.9208972  85.4076919  54.4837596  62.0267718
  84.0255721  53.8977832  63.7085815  83.7479898  53.0208026  64.1256574
  83.1005472  54.9661377  63.7169244  83.1593337  55.5273312  62.7843445
  81.6774770  54.4031824  63.8626145  81.0226032  55.1036417  63.3443518
  81.6765576  53.4485231  63.3365681  81.1724010  54.1968735  65.2973841
  80.2302008  53.6575802  65.3949664  81.9780920  53.5998641  65.7246355
  81.0680751  55.5115813  66.0806878  80.2796810  56.3684232  65.8124309
  81.7520226  55.5956719  67.1722617  81.7161112  56.4414093  67.7232065
  82.3198212  54.8153295  67.4702077  83.3549403  56.3214067  64.4348263
  82.6479338  57.2730824  64.1699769  84.3750253  56.5056313  65.2638915
  84.7327489  55.6981633  65.7539206  84.8845926  57.8051027  65.6244885
  84.1213764  58.4746776  66.0210608  85.8766859  57.4866825  66.7343716
  85.7882868  56.6361997  67.4103626  86.7749793  57.3755945  66.1270591
  86.0782402  58.6484937  67.5587354  85.0761670  59.4646692  68.0483291
  85.6890801  60.4087885  68.7641240  85.1233295  61.1301561  69.3537460
  87.0309689  60.2549225  68.5879235  87.7423657  60.8053749  69.0472890
  87.2644830  59.2820615  67.7298050  88.2666943  59.1412647  67.3250210
  85.4244180  58.6836797  64.4562146  85.9277901  58.1256455  63.4441112
  85.3812789  60.0034753  64.6357465  84.8284677  60.3938634  65.3854773
  86.1114804  60.8948063  63.8015134  86.3465669  60.4344541  62.8418732
  85.2102269  62.1479440  63.5473757  84.7931684  62.5610091  64.4658194
  85.9238380  62.8542771  63.1231672  84.0846952  61.8975627  62.5448567
  83.5110312  61.0212347  62.8466178  83.1696792  63.1168768  62.5116184
  83.7425724  63.9935744  62.2094700  82.3630318  62.9471162  61.7984550
  82.7484161  63.2827913  63.5031375  84.6085147  61.8265583  61.1177703
  85.3291070  61.0129540  61.0347389  83.7786982  61.6474519  60.4340842
  85.0934520  62.7683403  60.8609019  87.3456390  61.2179129  64.6336147
  87.3271321  62.0777835  65.5440888  88.5042213  60.6526406  64.2986769
  88.5066086  60.1358077  63.4309343  89.7831986  60.7339751  65.0827935
  89.5445318  60.5602408  66.1320570  90.8744457  59.7036167  64.6410715
  91.1485449  59.9298580  63.6106426  91.7425056  59.8407339  65.2858746
  90.4029709  58.2799753  64.7324963  89.4051539  58.4087990  64.3131319
  90.9704536  57.5862507  64.1121644  90.2717692  57.6908623  66.1217911
  90.4614949  58.2999741  67.1860058  90.1264374  56.4147081  66.2945746
  90.0406317  56.0412647  67.2290685  90.0996638  55.7996131  65.4939231
  90.4730205  62.1318329  64.9480590  90.6300431  62.6473967  63.8236072
  90.8585802  62.8723099  66.0092425  90.2962882  62.8048124  66.8455266
  91.7952923  63.9967060  65.8890682  91.3830616  64.7109314  65.1762940
  92.0485138  64.7089988  67.1928074  92.5649101  65.6477789  66.9924924
  91.0945959  64.9159706  67.6778884  92.9210625  63.8279796  68.1239244
  93.0865357  62.8031103  67.7917161  93.8635415  64.3748685  68.0966313
  92.3719304  63.8186010  69.5715984  91.2245066  63.5147964  69.8454055
  93.1849198  63.9601189  70.4898913  93.0398852  63.7496132  65.0254812
  93.7204136  62.7500803  65.2625890  93.3121689  64.6863457  64.0795030
  92.4982734  65.2028762  63.7780569  94.5273048  64.8045157  63.3010773
  95.4556729  64.4285741  63.7310772  94.3577698  64.2043267  61.9004139
  95.3363927  64.1546815  61.4229918  93.7192376  62.7267281  61.9705206
  92.7403302  62.7756357  62.4474372  93.6117768  62.3285471  60.9615585
  94.3730127  62.0749549  62.5500648  93.7133701  65.0988378  60.9302712
  94.3102701  66.0038770  60.8175040  93.6337287  64.5944127  59.9673007
  92.7171312  65.3631132  61.2849082  95.2822596  66.1164408  63.2876370
  96.5292119  66.0247008  63.0812136  94.5933994  67.2367387  63.4327758
  93.5883529  67.3129201  63.3681442  95.3651553  68.4499976  63.7079645
  96.3556688  68.1688323  64.0656350  95.4617916  69.0271379  62.7883614
  94.6719724  69.3237449  64.7802187  93.4633487  69.5864887  64.6745610
  95.3628042  69.7756065  65.8666820  96.3632766  69.6379030  65.8805377
  94.7391491  70.5173110  66.9904199  93.7001039  70.7640420  66.7722268
  94.7779083  69.6102095  68.2198753  95.7975229  69.4259893  68.5583251
  94.2575331  70.2253975  68.9539416  94.0435129  68.2742190  68.0607346
  94.5105387  67.6856449  67.2710713  94.1264299  67.5138164  69.3762048
  93.6591633  68.1016002  70.1663130  93.6078255  66.5600864  69.2784841
  95.1717804  67.3343063  69.6274394  92.5452267  68.4888894  67.8722905
  92.3731855  69.0890043  66.9787786  92.0504307  67.5239391  67.7620677
  92.1398261  69.0073529  68.7411662  95.5555146  71.7615447  67.3207405
  96.7846009  71.6688840  67.3697500  94.9452163  72.8856465  67.6452771
  93.9524935  72.8195705  67.8191585  95.5493265  74.1620452  67.6887648
  96.4247255  74.1196437  68.3368219  95.9971809  74.6419201  66.2797692
  96.5883130  73.8693525  65.7880363  95.0796301  74.8105379  65.7160594
  96.7870478  75.9015398  66.1946960  98.1295330  75.7764627  66.3152864
  98.4948327  74.7694990  66.5169796  99.0211779  76.8237456  66.1991752
 100.0950763  76.6990342  66.3380638  98.4955030  78.0884197  65.8891392
  99.1349765  78.9423356  65.6655295  97.0813279  78.2355832  65.8724802
  96.6377827  79.2282062  65.7945869  96.2561425  77.1024117  65.9563532
  95.1784952  77.2021658  65.8266409  94.6729811  75.2317979  68.3182376
  93.5629156  75.6200071  67.9159476  95.2219129  75.8276245  69.3595515
  96.0866159  75.4590836  69.7290995  94.5653935  76.9276130  70.0851406
  93.4813814  76.8612143  69.9923602  94.9422452  76.8163120  71.5859630
  95.2432890  75.8713685  72.0382391  95.8244729  77.4319723  71.4106439
  94.1027665  77.5447923  72.6200331  94.3510330  77.6907581  74.0095289
  93.2312301  78.1538095  74.5325307  93.2563324  78.4701795  75.5753053
  92.2046065  78.1457114  73.6158430  91.2235749  78.3424202  73.7536206
  92.7547646  77.8190346  72.4657186  92.1494361  77.7940472  71.5595982
  94.8643894  78.3323673  69.5050202  95.8838472  79.0277452  69.7772048
  93.9544295  78.7593064  68.5944353  93.1982833  78.1072360  68.4422955
  94.0049047  79.9352211  67.7901748  94.9263836  80.0184481  67.2139379
  92.8624196  79.7670830  66.8420490  93.1475238  78.8337524  66.3565505
  91.9137227  79.6309396  67.3612206  92.7118225  80.8753203  65.7777410
  92.5429528  81.8122740  66.3084968  93.9562752  81.0252227  64.8369282
  94.1255059  80.0887455  64.3054489  93.7741540  81.8231611  64.1170483
  94.8358988  81.2681644  65.4330338  91.4096826  80.6749667  65.0180362
  90.5716532  80.7230477  65.7133738  91.3028653  81.4571644  64.2664658
  91.4199272  79.7008854  64.5289968  93.9762203  81.2126839  68.6300574
  94.5289611  82.2409464  68.2293846  93.2419947  81.2192790  69.7553446
  92.7592730  80.3887676  70.0673222  93.1211464  82.4489664  70.5702007
  92.6410804  82.2010632  71.5168685  94.1178149  82.8464328  70.7619605
  92.2815432  83.5248863  69.8475889  92.4717127  84.7426945  69.9852797
  91.2845989  83.0722714  69.0678608  91.2919572  82.0893147  68.8358237
  90.2639129  83.9025887  68.4865019  89.9244476  84.6660928  69.1864476
  90.8825091  84.5923106  67.2753457  91.7069001  85.1769692  67.6835773
  91.2802136  83.7783714  66.6691822  89.9966597  85.4963746  66.4014829
  90.6419678  86.0191761  65.6955389  89.2469087  84.9255773  65.8536115
  89.3007244  86.5149894  67.3066568  89.9172005  87.1445620  68.2043080
  88.0599635  86.6630256  67.1422253  89.0314395  83.0541217  68.1455998
  89.0572658  81.8539512  67.8209606  87.8824159  83.6869117  68.1421902
  87.9295397  84.6781853  68.3299538  86.5571325  83.0725479  67.9661274
  86.5798167  82.0461529  68.3323213  85.4492098  83.8711619  68.7671717
  85.7360035  84.1352579  69.7850626  85.3346955  84.7792807  68.1753045
  84.1028632  83.2469245  68.8530705  83.0910615  83.5558875  67.8250296
  83.2680025  84.2302481  66.9871574  81.8354179  82.9225876  67.9697233
  81.1182180  83.1506218  67.1812276  81.4896695  82.0926886  68.9778268
  80.4913389  81.6581939  69.0293071  82.4369579  81.7924831  69.9674446
  82.1538094  81.2284466  70.8561459  83.7842139  82.2339346  69.8015050
  84.5796653  81.7949031  70.4036746  86.1752236  82.9691044  66.4757576
  85.4815845  83.8745816  65.9327698  86.6387010  81.8918909  65.8691394
  87.3092972  81.2911751  66.3268956  86.2292701  81.5600941  64.4505421
  86.7589240  82.2356922  63.7788777  86.6232668  80.1408803  64.1168676
  86.1201598  79.4823586  64.8249155  86.2371614  79.7220261  62.6423871
  86.7402901  80.3798536  61.9337083  86.5463233  78.6921370  62.4639276
  85.1582435  79.8048498  62.5113218  88.1372666  79.9892386  64.2010838
  88.4710846  80.2266031  65.2111956  88.4141786  78.9631278  63.9591830
  88.6109950  80.6693697  63.4931969  84.7063911  81.7557598  64.2183257
  83.9681937  81.1781296  65.0095141  84.2290343  82.3670982  63.1378750
  84.9190058  82.6435736  62.4540622  82.8122954  82.6034330  62.8322058
  82.1835809  82.2567361  63.6523391  82.5796298  84.1108130  62.6380765
  83.5149535  84.6212482  62.8676953  82.3549125  84.2248711  61.5776082
  81.4728809  84.7509938  63.4365647  80.6829454  84.1574162  64.1459310
  81.4040504  86.0819879  63.3639964  80.6861412  86.5760549  63.8744902
  82.0701920  86.5889873  62.7989233  82.3609211  81.9809146  61.5453495
  81.1561001  81.8933050  61.2973154  83.3594247  81.6318998  60.7056142
  84.3223302  81.7452877  60.9885551  83.0779769  81.3626593  59.2953250
  82.4612016  80.4732676  59.1662132  82.4889653  82.5016890  58.4324382
  81.5073384  82.7886396  58.8094890  83.4306898  83.6939429  58.5117764
  84.4124646  83.4078734  58.1344390  83.0344640  84.5112991  57.9092531
  83.5208042  84.0180658  59.5485625  82.0795995  82.2332319  57.0020902
  81.3082408  81.4633391  56.9827806  81.6896418  83.1487581  56.5572931
  82.9453463  81.8937634  56.4334565  84.3680970  80.6312241  58.6940083
  85.4958128  81.1461311  58.9605829  84.1980508  79.7284395  57.7493719
  83.2690570  79.3991617  57.5288135  85.3626403  79.2068567  56.9231173
  86.3045102  79.6827234  57.1961216  85.4581928  77.7454351  57.2313731
  84.4239293  77.4022123  57.2557936  86.0077941  77.1875485  56.4732168
  86.0628015  77.3807533  58.5550798  87.3128149  77.9043645  58.8152103
  87.7138442  78.6196242  58.0971025  88.0728025  77.5469717  59.9630811
  89.0718936  77.9616901  60.0969698  87.5505668  76.6768496  60.9087880
  88.0834836  76.3945295  61.8167500  86.2413596  76.1404909  60.6467615
  85.7996559  75.4515637  61.3667457  85.5320185  76.4923394  59.4823922
  84.5467309  76.0656641  59.2946255  84.9688731  79.4137174  55.4271133
  83.7893220  79.2740298  55.1010451  85.9419438  79.4616740  54.5262233
  86.8739657  79.2519781  54.8540376  85.7806419  79.8965257  53.1716582
  84.8843662  79.4497411  52.7413413  85.6412061  81.4151610  53.1204118
  84.7330227  81.6946410  53.6544466  86.5049530  81.8561047  53.6180161
  85.5384068  82.1883304  51.5471148  85.4346728  83.4310653  52.0094431
  86.9149360  79.3525900  52.3766532  88.0340429  79.8003259  52.5677298
  86.7104641  78.3265138  51.5435428  85.8333116  77.8286898  51.5971531
  87.6799093  77.9059386  50.5510080  88.6461065  77.8135594  51.0470204
  87.3485982  76.5650421  49.8630905  86.3388430  76.4356788  49.4735282
  88.0570920  76.5855357  49.0350105  87.6511934  75.3715244  50.6408852
  88.6516995  74.4159450  50.3278845  88.4362157  73.4360326  51.1838001
  89.0881339  72.5660024  51.1053849  87.4246632  73.7014458  52.0156934
  87.1180778  73.1173427  52.7804999  86.8600593  74.9029648  51.6673825
  85.9756127  75.2623917  52.1933747  87.7820126  78.9526715  49.3916227
  86.7557614  79.2982304  48.7775164  89.0538363  79.3594043  49.2065366
  89.8408019  78.9184759  49.6608125  89.3087831  80.4709849  48.3235074
  89.1278576  80.1247656  47.3059134  88.5927908  81.2540572  48.5730112
  90.7007686  81.0352602  48.4084056  91.2848471  80.9315493  49.4850199
  91.2286879  81.5400392  47.2996156  90.7325827  81.3848506  46.4336505
  92.5983058  82.0647559  47.2327713  93.0078249  82.1638046  48.2380486
  93.4965891  81.1073090  46.4275511  93.5189823  80.1217135  46.8925234
  93.1373104  81.0167855  45.4024539  94.8171092  81.6630094  46.4231120
  95.4045686  81.0880234  45.9272468  92.6764101  83.5623226  46.8463691
  91.9164549  84.0173458  45.9751520  93.6266334  84.3381454  47.4712848
  94.0827406  83.9258597  48.2725875  93.9773969  85.7047830  47.1034973
  93.1270394  86.2262866  46.6641508  94.3949016  86.4420828  48.3954608
  95.2540523  85.8549346  48.7198315  94.6999630  87.4772030  48.2419561
  93.3225037  86.3865563  49.4503890  93.1569199  85.3378554  49.6971871
  93.6820521  87.1494843  50.7069936  93.8473437  88.1984316  50.4610525
  92.8674249  87.0696017  51.4267867  94.5907151  86.7306858  51.1394745
  91.8637337  86.7618971  49.1151781  91.4879478  86.1002660  48.3347112
  91.2468172  86.6572055  50.0076773  91.8245604  87.7937208  48.7660301
  95.0797070  85.8501778  46.0579459  95.0888743  86.8751924  45.4102160
  95.8515226  84.7879307  45.8941116  95.6757282  84.0323966  46.5409221
  96.9962868  84.6483138  44.9288282  97.5508346  85.5863273  44.9022492
  97.9972974  83.4768386  45.3269546  97.4245706  82.5611111  45.4736735
  99.0580821  83.2510990  44.2150038  99.6315553  84.1663191  44.0680285
  99.7299787  82.4455622  44.5112569  98.5581702  82.9827799  43.2843081
  98.7701034  83.7339457  46.6187370  98.0688794  83.8526359  47.4447514
  99.4304013  82.8907811  46.8216646  99.3634197  84.6422007  46.5131455
  96.3597266  84.4719925  43.5680983  95.4096076  83.6457968  43.4278676
  96.8704992  85.1424063  42.4991471  97.5646951  85.8494161  42.6949236
  96.5185721  84.8713236  41.0732613  95.4821387  85.1058486  40.8305615
  97.4620767  85.8672446  40.2804370  97.1113367  86.8706053  40.5219907
  98.4622110  85.7242212  40.6895528  97.5020826  85.6995627  38.8107138
  98.1126300  86.5369760  38.4729688  98.0537089  84.7695910  38.6730069
  95.9649745  85.6388717  37.8217380  95.7191875  87.4472243  37.9541119
  96.5734756  87.9635486  37.5162763  94.8116428  87.7310376  37.4212767
  95.6258198  87.7258586  39.0037531  96.8120031  83.4488473  40.5931971
  97.8112519  82.7996063  40.9528607  95.9501796  82.9018426  39.7137450
  95.1698268  83.4525659  39.3853358  95.9773931  81.4606462  39.3871986
  96.4211004  80.9005597  40.2103184  94.5658991  80.9499010  39.1579953
  94.6356296  79.8661892  39.2518334  93.9799275  81.3488140  39.9860084
  93.8569046  81.3186341  37.7801482  92.7891118  81.4143512  37.9770178
  94.2327372  82.2501597  37.3569321  94.0695210  80.1869664  36.7497747
  94.9850702  79.4254166  36.7519245  93.1875366  80.1488157  35.8084836
  93.2494001  79.4405908  35.0910633  92.4395675  80.8273612  35.7936647
  96.9437216  81.1101435  38.3193635  96.9552072  81.8061313  37.3177578
  97.7950206  80.1371475  38.6124642  97.6889755  79.5982295  39.4600614
  99.0242299  79.9697169  37.8317463  98.9048206  80.4438856  36.8575776
 100.2058604  80.6027444  38.5365259  99.8610957  81.5105348  39.0316553
 100.5452298  79.8873974  39.2856635 101.3896397  80.9594032  37.6272805
 101.3491997  81.1686545  36.4164855 102.4693667  81.0523354  38.2070376
 103.3016956  81.2839528  37.6838915 102.5189587  80.8966263  39.2037302
  99.2539654  78.5151038  37.3891535  99.1073491  77.5417128  38.0970396
  99.6629004  78.3072298  36.1008882  99.5493846  79.0960075  35.4803696
 100.1096964  77.0344830  35.5311953  99.4893379  76.2574044  35.9777414
 100.0368757  76.8972289  33.9584949  99.1359079  77.2809904  33.4798683
 100.9030130  77.4538701  33.6006448 100.2099092  75.3755001  33.6050221
  99.9895789  74.7857083  34.4947980  99.2689291  74.9550579  32.4667165
  99.4889825  75.5441346  31.5763997  99.4137434  73.8973289  32.2468551
  98.2351675  75.1248411  32.7677334 101.5995778  75.1127297  32.9836690
 102.3755839  75.3992293  33.6934802 101.6977870  74.0533296  32.7467560
 101.7073186  75.6999540  32.0717158 101.5437754  76.6030656  35.9815921
 101.7622490  75.4144253  36.3476214 102.4683066  77.5331617  36.0907912
 102.2530550  78.4894324  35.8472498 103.7995693  77.2286953  36.5537273
 104.2232202  76.4733607  35.8918445 104.3952205  78.1395279  36.4930398
 103.8333732  76.7099909  37.9816068 102.9942812  77.0463433  38.8077550
 104.8045447  75.8762499  38.2837426 105.3612168  75.6057172  37.4856026
 105.1360147  75.2890374  39.6026153 104.2681910  74.7860603  40.0292242
 106.2407199  74.2729925  39.4171743 106.9616419  74.7801394  38.7759468
 106.6625295  74.1557080  40.4153832 105.9122992  72.8590103  38.8186946
 106.7953504  72.2201755  38.8332407 105.1456816  72.4331112  39.4660019
 105.3700986  72.9562075  37.3724145 106.0662128  73.5819098  36.5586856
 104.3127257  72.3767086  37.0475753 105.5856802  76.3624004  40.6610810
 106.6477195  76.9880150  40.4863989 104.8292690  76.6052516  41.6811787
 103.8993659  76.2227364  41.5859859 105.1285866  77.4217062  42.8649743
 105.3827313  78.4140486  42.4924608 103.9416822  77.5456290  43.8067864
 103.0494106  77.4928393  43.1829556 103.8540635  76.4643937  44.9342221
 104.7458380  76.5168852  45.5587880 102.9710565  76.6477893  45.5464017
 103.7841689  75.4741588  44.4840553 104.0730473  78.7676583  44.4840644
 103.3366427  78.8785128  45.0898861 106.3704581  76.8538583  43.5878669
 106.8786540  75.7685042  43.2880630 106.9526937  77.5959434  44.5332835
 106.5805469  78.5259308  44.6626260 108.0693087  77.1946291  45.3334508
 108.3789031  76.1869706  45.0561876 109.2428029  78.1388962  45.1226520
 108.9448900  79.1567804  45.3741651 110.0756410  77.8371823  45.7578287
 109.6328392  78.0871936  43.7952928 110.3737322  78.6815876  43.6561050
 107.8142457  77.1211594  46.8317285 108.5390710  76.3850073  47.5616855
 106.6790390  77.6091306  47.2814927 106.1764475  78.2742172  46.7112640
 106.2440254  77.4151220  48.6761503 107.1450565  77.5753172  49.2682480
 105.1750175  78.3722578  49.1542573 105.5674093  79.3827742  49.0403040
 103.8087866  78.2439551  48.3614922 103.4155224  77.2337695  48.4753690
 103.0892938  78.9602516  48.7581641 103.9805236  78.4494713  47.3049080
 104.7670322  78.1682855  50.4477013 104.0915078  78.8112916  50.6753202
 105.9068663  75.9296394  49.0337498 105.2102498  75.3355856  48.2141814
 106.1644797  75.3751481  50.2760097 106.9466211  75.9280146  51.3991141
 106.4906268  76.8597104  51.7339460 107.9671991  76.1217024  51.0689557
 106.8760611  74.8380239  52.4452397 106.0121089  74.9778287  53.0949629
 107.7840073  74.8187252  53.0480353 106.7457557  73.5484061  51.6022732
 106.4390173  72.6149546  52.0741616 107.7001610  73.4026790  51.0963347
 105.6954276  73.9907401  50.6060742 105.8534471  73.4430051  49.6770346
 104.2644647  73.7327407  51.1166185 103.8968420  72.8212564  51.8524825
 103.3504461  74.5931411  50.5982680 103.6459410  75.1487665  49.8082917
 101.9475184  74.7812520  51.1202422 101.5495883  74.0480545  51.8217921
 101.8163853  76.1745296  51.7417555 100.7486646  76.3531491  51.8689087
 102.5352986  76.3763161  53.0911938 103.6032024  76.1983095  52.9647240
 102.3763120  77.3969916  53.4391074 102.1352035  75.6764622  53.8248348
 102.1311462  77.2184799  50.7793448 102.0400656  78.0776041  51.1979259
 100.9459627  74.6169190  49.9027868 101.2873734  74.9207394  48.7617606
  99.7061734  74.1227568  50.1697685  99.5057862  74.0477665  51.1568453
  98.6783739  73.6606087  49.2070020  98.6921297  74.2597553  48.2965442
  99.0087694  72.1982298  48.8401209 100.0673253  72.2475875  48.5849297
  98.8885848  71.6787454  49.7908005  98.2489742  71.4325990  47.7362519
  97.8310582  72.1035814  46.9857655  98.9944408  70.7874687  47.2712912
  97.1247117  70.5590075  48.2903293  96.7816473  70.5626118  49.4719552
  96.4353766  69.8232743  47.4180450  95.6839699  69.2319866  47.7434192
  96.6677089  69.8605525  46.4358366  97.3227643  73.8031147  49.8357339
  97.0496390  73.5279725  50.9922413  96.3622728  74.2211107  48.9500203
  96.5379266  74.2627969  47.9562863  95.0562629  74.6169715  49.4333693
  94.3588345  74.6099355  48.5957277  94.7300174  73.8962426  50.1831780
  95.0700594  76.0166401  50.0594128  96.1302182  76.5926748  50.4355476
  93.8871194  76.6082121  50.1884259  93.1515098  76.0590701  49.7672122
  93.5314865  77.9485062  50.7727015  94.1956033  78.1681749  51.6086403
  93.6717770  79.0538563  49.7369072  94.6570840  78.9639429  49.2795397
  92.9042682  78.9035399  48.9776740  93.5284628  80.3585386  50.3080072
  93.6241016  81.0212405  49.6200543  92.1003848  77.7943845  51.3349508
  91.1223893  77.6401319  50.5836812  92.0406106  77.8044280  52.7005906
  92.8347118  77.3849861  53.1627282  90.7823269  78.1142155  53.5426617
  90.0428674  78.5316466  52.8592509  90.1184435  76.9717212  54.3532119
  90.7320783  76.7667542  55.2304463  88.7113463  77.3515029  54.7957953
  88.0969495  77.5561810  53.9190260  88.2735307  76.5291975  55.3616855
  88.7551860  78.2412973  55.4238445  90.0499196  75.6887458  53.5509876
  91.0577388  75.3764501  53.2773567  89.5787965  74.9096307  54.1502558
  89.4638438  75.8555897  52.6472293  90.9785765  79.4173395  54.3662908
  91.7011890  79.4024709  55.3322101  90.4495132  80.5653090  53.8617771
  90.2392645  80.5888753  52.8741843  90.3348411  81.8431023  54.6456060
  91.2645440  82.0334810  55.1818036  90.0731265  82.9709147  53.7468750
  89.0396100  82.8958098  53.4087890  90.2014420  83.8888927  54.3204179
  91.0433286  82.9939815  52.4852673  91.3947180  81.9731037  52.3354850
  90.3948055  83.5030188  51.1986283  90.0435572  84.5240773  51.3475007
  91.1262823  83.4851309  50.3907159  89.5513285  82.8634590  50.9386084
  92.2015037  83.9200195  52.8410187  92.7180044  83.5353723  53.7204349
  92.8979574  83.9696994  52.0040089  91.8175637  84.9178390  53.0532575
  89.3489677  81.5888201  55.7295120  88.2855308  81.1090170  55.4284420
  89.5797210  81.9889696  56.9778910  90.5340098  82.2958075  57.1015150
  88.7245111  81.9130521  58.1476695  87.7310716  81.5646234  57.8652256
  89.2934146  80.9712233  59.1162799  88.6355342  80.6637079  59.9291310
  89.4551842  80.1299026  58.4424029  90.6585698  81.2950310  59.7526430
  90.7655571  82.0246638  60.9367122  89.9065878  82.5634806  61.3366471
  91.9918804  82.0607612  61.6129438  92.0665605  82.6976485  62.4943621
  93.0999016  81.3142098  61.1924406  94.0154354  81.2383879  61.7790826
  92.9963626  80.6374538  59.9428798  93.8776797  80.1393411  59.5388204
  91.7807525  80.6052482  59.2314334  91.7128180  80.0546448  58.2931793
  88.4185591  83.2835310  58.7495716  89.3372611  84.0980599  58.8884398
  87.1147327  83.5899261  58.9930557  86.4005100  82.8806076  58.9102755
  86.7115468  84.9315757  59.3756215  87.5313010  85.6334573  59.2224400
  85.8474785  85.2500469  58.7924736  86.3543991  84.9221798  60.7826507
  85.8604589  83.9275966  61.2682599  86.6807965  86.0555758  61.3951400
  87.0823847  86.8445666  60.9090127  86.5938151  86.1111110  62.8518088
  85.8932245  85.3738430  63.2438647  87.9236637  85.9255821  63.5391884
  87.7090962  85.7097427  64.5858375  88.8061533  84.8009918  62.9520958
  89.0215401  85.0163848  61.9055233  89.7405634  84.7428409  63.5103030
  88.2796888  83.8494104  63.0257747  88.6928936  87.0816805  63.5855665
  89.5217477  86.8967842  64.0332434  85.8959955  87.3833273  63.4087418
  85.7381508  88.4046447  62.6936077  85.4689990  87.3132059  64.7085537
  85.4562151  86.4489269  65.2310074  84.8397949  88.5053019  65.3117538
  84.0857697  89.0221188  64.7180825  84.1869693  88.0126086  66.6144364
  84.9431449  87.4275064  67.1378417  83.6547905  89.1293105  67.5540303
  82.8981862  89.7145890  67.0314407  83.2141905  88.6776407  68.4428309
  84.4780438  89.7803906  67.8480546  83.0764477  87.0059187  66.3458826
  83.4867342  86.1427649  65.8217332  82.6415362  86.6829832  67.2917496
  82.3050247  87.4703888  65.7316555  85.6846218  89.7501171  65.5048643
  85.2155304  90.8758374  65.3757016  87.0177054  89.6466416  65.8275389
  87.4579350  88.7440226  65.9351312  87.8030595  90.8552443  66.1651888
  87.1721670  91.6464477  66.5702456  88.8376230  90.4228884  67.2684435
  89.2368771  89.4747129  66.9083622  89.6524807  91.1362634  67.3917444
  88.1997502  90.1977486  68.5907613  87.3604577  91.0263814  68.9604163
  88.5285896  89.2508123  69.4351133  88.0396779  89.1711276  70.3152925
  89.2693782  88.6051823  69.2016716  88.3913134  91.4595104  64.9131226
  89.3681442  92.2272078  64.9713567  88.0073451  91.1294784  63.6460427
  87.2808128  90.4293598  63.6003917  88.5264426  91.6710379  62.3934390
  87.7087471  91.6179003  61.6746556  88.7703022  92.7152513  62.5890156
  89.7185911  90.9954709  61.8201456  90.0053202  91.3482589  60.6883983
  90.3309078  90.0788034  62.5374133  90.1361193  89.9788741  63.5234006
  91.3771567  89.3091718  61.9796494  92.0252491  89.9331744  61.3642666
  92.2282202  88.6945857  63.1372542  92.7368136  89.4856750  63.6882622
  91.5860785  88.1342207  63.8167726  93.2609153  87.7572004  62.5266131
  93.5220829  88.1612632  61.5485407  94.1372885  87.7799221  63.1743443
  92.7084583  86.0481448  62.3347948  92.9915263  85.2774676  63.9025247
  92.4187288  85.7958220  64.6714920  92.6775412  84.2346497  63.8573064
  94.0529079  85.3265788  64.1457499  90.7767180  88.2957454  60.9928011
  89.7168146  87.7338291  61.2083974  91.5423034  88.0565713  59.9168347
  92.4276046  88.5383705  59.8519452  91.2307955  87.0542315  58.9177337
  90.4547081  86.3555215  59.2301308  90.8557222  87.6601909  57.5967832
  91.7124369  88.2726309  57.3156115  90.4883320  86.6902753  56.4049367
  89.6313534  86.0777916  56.6852083  90.2407705  87.2777709  55.5208197
  91.3390477  86.0451652  56.1853578  89.7225485  88.7065178  57.7485412
  88.9973173  88.2373141  58.4133632  90.1886728  89.5501495  58.2575729
  89.0014297  89.2090148  56.4685418  88.5346362  88.3659506  55.9591831
  88.2367184  89.9355621  56.7432143  89.7259927  89.6787842  55.8033914
  92.5448900  86.3634845  58.6915207  93.5296231  87.0110992  58.3003789
  92.5653629  85.0749452  58.9409226  91.7268961  84.7009149  59.3618431
  93.7063310  84.1303128  58.6590282  94.5519027  84.7651995  58.3944027
  93.9108131  83.6295033  59.6053243  93.5136442  83.0631243  57.5561237
  92.6014469  83.1697915  56.7848441  94.4600089  82.1642528  57.4129286
  95.1772180  82.2163569  58.1221504  94.5911675  81.1653496  56.3790626
  93.6508682  80.9985236  55.8536052  95.6322686  81.7207464  55.3692032
  95.3478580  82.7154421  55.0259973  96.5121737  81.7952359  56.0082010
  95.9517026  80.8395363  54.1649562  96.1363792  79.8127668  54.4807723
  94.7427430  80.8761600  53.2414431  94.5577103  81.9026151  52.9248176
  94.9345389  80.2554722  52.3661935  93.8688073  80.4966628  53.7708944
  97.0109594  81.4093557  53.3821218  97.9069792  81.5030310  53.9956957
  97.2210220  80.7637319  52.5293939  96.7105508  82.3947107  53.0258506
  95.0313289  79.8154971  56.8603443  95.9762861  79.7522722  57.6917700
  94.3815519  78.7588640  56.4343195  93.5027576  78.9456085  55.9728582
  94.7826024  77.3556984  56.6306503  95.6170509  77.3398802  57.3317528
  93.6064936  76.5544329  57.2427440  92.7407318  76.5243531  56.5811921
  94.1946449  75.0787154  57.4172686  95.0602168  75.1079229  58.0791093
  93.4306949  74.4310727  57.8474310  94.4947351  74.6892289  56.4444645
  93.1444254  77.0417554  58.6337878  92.8153823  78.0786440  58.5652700
  92.3183007  76.4211263  58.9808284  93.9730713  76.9698693  59.3382587
  95.2593024  76.7375922  55.2844676  94.4884040  76.9245461  54.3620930
  96.4183176  76.1391224  55.1760949  97.0715464  76.3790415  55.9080992
  96.8766922  75.2469949  54.0946092  96.0126675  75.0736853  53.4531075
  98.0249943  75.8668206  53.2303480  98.1167921  75.2597849  52.3296921
  97.7836749  77.3245766  52.8394026  97.6922287  77.9323476  53.7395979
  98.6213955  77.6845701  52.2421354  96.8650578  77.3978837  52.2572778
  99.1753328  75.8368195  54.0529023  99.9205874  76.2073068  53.5744307
  97.3310450  73.8747576  54.6377660  97.5894222  73.6994051  55.8012723
  97.4331991  72.8824542  53.7229680  96.7737906  72.8685153  52.9580593
  98.3492965  71.7426973  53.8742591  98.2308660  71.2254956  54.8264019
  97.9308068  70.7637488  52.7145414  96.8487345  70.6514452  52.7824146
  98.1856201  71.2659397  51.7812812  98.5297316  69.5084390  52.7438199
  98.2146306  68.9861959  52.0024877  99.8460405  72.0798798  53.9321661
 100.2102469  73.1076552  53.4066393 100.7102734  71.1916368  54.4335998
 100.3394658  70.3939915  54.9299495 102.1779902  71.4165653  54.4589114
 102.4949050  72.1209038  53.6897745 102.5076742  72.0438203  55.8939367
 102.0210197  73.0160960  55.9710507 102.1002447  71.3731443  56.6504384
 104.0299796  72.2100128  56.1183189 104.4712803  71.2135337  56.0987253
 104.7215866  73.0997684  55.0623721 104.2811045  74.0966140  55.0816898
 105.7861587  73.1691231  55.2859272 104.5863261  72.6624507  54.0731511
 104.3305389  72.8566682  57.4540247 103.9309861  72.2366615  58.2565511
 105.4091437  72.9565541  57.5754153 103.8681614  73.8429668  57.4930266
 102.9163317  70.1523751  54.0533737 102.5687829  69.0912820  54.5644973
 103.9514441  70.2675725  53.1468712 104.1811307  71.1685939  52.7525315
 104.7567806  69.1120500  52.7519155 104.1587910  68.4446227  52.1313929
 105.9797448  69.5480926  51.9584664 105.6676371  69.9683675  51.0024031
 106.5349823  70.2987854  52.5208467 106.7904158  68.4444246  51.7355678
 107.5646991  68.7119856  51.2350718 105.2610416  68.3614972  54.0576251
 105.9621215  68.8735132  54.8653673 105.0093093  67.0566681  53.9613032
 104.2909472  66.7340237  53.3288827 105.6290319  66.0752833  54.8777336
 105.3761730  66.3154022  55.9104507 105.1259063  64.7062506  54.5701057
 104.0392788  64.7023189  54.6556894 105.4104732  64.4467606  53.5504064
 105.7298654  63.6601036  55.5612514 106.7854634  63.6029941  55.2956350
 105.6279674  64.1116494  56.5480758 105.1249526  62.2341886  55.5813029
 105.4333729  61.3719083  56.4138049 104.2901989  61.9303420  54.7192389
 107.2106328  66.2261952  54.8668107 107.8588247  66.1740725  55.9066402
 107.7576163  66.4792858  53.6614625 107.1544648  66.3791078  52.8575521
 109.2313424  66.7228492  53.4260853 109.8015233  65.9920605  53.9996189
 109.6283829  66.5999885  51.9344231 109.5198211  67.5871874  51.4852553
 110.6752200  66.2983704  51.8989444 108.8496943  65.6729192  51.2210239
 109.1439486  65.6435496  50.3077049 109.6482284  68.0717950  54.0902090
 110.8358590  68.3142943  54.1246860 108.8111338  68.9291871  54.6414489
 107.8287447  68.6950785  54.6557332 109.2746608  70.2496672  55.3641246
 110.3607967  70.2856235  55.4484757 108.7934489  71.4845870  54.4994222
 107.8362878  71.4833679  53.9779432 108.8036229  72.2868562  55.2372303
 109.8449960  71.8294032  53.4716550 109.6578611  72.0295630  52.1212608
 108.6508587  71.8442076  51.7475105 110.8510271  72.4440130  51.5003452
 110.9789377  72.5461180  50.5036943 111.8373013  72.6354183  52.4669868
 113.2227795  73.0510525  52.3989325 113.5441441  73.4439950  51.4343499
 114.0440586  72.9415267  53.4973431 115.1127533  73.1530448  53.4619657
 113.4592502  72.5310675  54.7359538 114.0776782  72.4636730  55.6309980
 112.1189523  72.2106092  54.8474395 111.8536983  71.7589219  55.8033264
 111.2060176  72.2577718  53.7102205 108.5931466  70.4069282  56.7199986
 109.1938222  71.0347798  57.5871804 107.4809369  69.7152472  56.9996196
 107.1229876  69.1456483  56.2462745 106.7497836  69.7318108  58.2615457
 106.4150862  70.7454158  58.4821849 105.5084375  68.8073385  58.1786077
 105.0250137  69.2146143  57.2906173 105.8043998  67.7754615  57.9895672
 104.5169607  68.8505850  59.3732308 103.4535309  69.7933635  59.3443884
 103.2583276  70.3535556  58.4299596 102.6642392  70.0039904  60.4716097
 101.8393518  70.7159751  60.4988210 102.9016449  69.1327589  61.5951079
 102.1671743  69.2994827  62.7442646 101.5337401  70.0182886  62.6836112
 103.9298845  68.1696976  61.6490553 104.1017809  67.5136648  62.5023858
 104.7644622  68.0818139  60.5095336 105.6182645  67.4042292  60.5102660
 107.5902672  69.2790344  59.4584913 107.7556851  70.0165710  60.4165684
 108.2093190  68.0948232  59.3998331 107.8893977  67.4569540  58.6850796
 109.0590724  67.5471470  60.5182033 108.5454358  67.7231454  61.4633494
 109.3358210  66.0113731  60.3771544 109.9337320  65.7855379  59.4942047
 109.9180352  65.7985941  61.2737321 108.0937164  65.1083053  60.3728247
 107.3801080  65.0585021  61.3617881 107.8033019  64.5231257  59.2147697
 106.9984010  63.9168261  59.1466883 108.3889325  64.6876019  58.4084911
 110.2507555  68.4737284  60.8658357 110.4699723  68.7954663  62.0021097
 110.9168105  69.0476420  59.8888634 110.8108810  68.6588870  58.9627167
 111.9434365  70.0942797  60.0977456 112.6196256  69.8178212  60.9067192
 112.7587691  70.2391067  58.8045805 113.0951343  69.2561809  58.4747099
 112.0760414  70.6562402  58.0643221 113.9677485  71.1654293  58.9625849
 114.3059692  71.0612299  59.9935311 115.1245977  70.8861927  58.0202209
 114.7872397  70.9906593  56.9890201 115.9296459  71.5955146  58.2122120
 115.4887646  69.8716120  58.1818030 113.7527207  72.5895391  58.7048712
 112.9985212  72.9737623  59.3916426 114.6871226  73.1311034  58.8521886
 113.4120986  72.7261931  57.6785178 111.2571518  71.3984248  60.6679638
 111.9467778  71.9992000  61.5023630 110.1156996  71.7977882  60.1115101
 109.7258075  71.3569611  59.2906843 109.5051040  73.1037573  60.5854327
 110.2793834  73.8394735  60.8029465 108.6137319  73.6480285  59.4665195
 107.9939428  72.8356601  59.0870222 107.9747890  74.4368796  59.8634652
 109.4895911  74.2222365  58.3039668 110.3072597  73.5346520  58.0877572
 108.6076225  74.3935870  57.0348446 107.7899476  75.0814442  57.2501563
 109.2136440  74.7935196  56.2218915 108.2001505  73.4260811  56.7415880
 110.0907443  75.5815388  58.6877651 110.7169764  75.4657148  59.5723653
 110.6948176  75.9583226  57.8623981 109.2879087  76.2871555  58.9014449
 108.8387341  73.0126492  62.0065251 108.9080460  73.9483627  62.7233584
 108.3233613  71.8195659  62.3887933 108.1406928  71.1284100  61.6753264
 107.9793826  71.4751462  63.8339102 107.1256090  72.0638566  64.1694541
 107.6104345  69.9511317  63.9377662 106.7648535  69.6866129  63.3028474
 108.5216117  69.5142185  63.5291552 107.3715854  69.4027194  65.3741193
 108.1779645  69.7487309  66.0207487 106.0440964  69.8840728  65.9216062
 105.2371381  69.5380362  65.2757147 105.8997396  69.4876308  66.9266414
 106.0386373  70.9734826  65.9570574 107.1530471  67.8539705  65.3239523
 108.0355008  67.3755690  64.8990912 106.9864640  67.4771451  66.3330875
 106.2847415  67.6289098  64.7046850 109.1449028  71.7792956  64.7860714
 108.8381948  72.2784559  65.8636809 110.3619599  71.3544227  64.4811453
 110.4040557  70.7737422  63.6558348 111.6267258  71.5828241  65.2554961
 111.4976948  71.2839495  66.2957481 112.7608394  70.7294686  64.6319213
 112.4527496  69.6901003  64.7454705 112.8384130  70.9711559  63.5718885
 114.1021202  70.9311814  65.2928781 115.0824079  70.9498131  64.5236429
 114.2506656  71.0413511  66.5279319 111.9508184  73.0800745  65.2657482
 112.3702306  73.6772414  66.2736570 111.8646489  73.8142408  64.0546959
 111.7436444  73.2955187  63.1965673 112.0525133  75.3147603  63.9664178
 113.0253400  75.6126443  64.3575349 111.9777485  75.7079996  62.4942357
 112.7383965  75.1027921  62.0010443 110.9892995  75.3868172  62.1657385
 112.1809638  77.1689884  62.1328795 111.9331635  77.2492018  61.0744553
 111.4488942  77.7235498  62.7199382 113.8160726  77.8683027  62.4125020
 114.4344769  77.7972168  60.7713860 113.7975059  78.3917305  60.1164658
 115.4496241  78.1934632  60.7476051 114.4408824  76.7622459  60.4294862
 111.0243590  76.1038788  64.8641153 111.4624468  77.0854445  65.4629363
 109.7438274  75.7018105  65.0170234 109.3129396  75.0778543  64.3498550
 108.8939124  76.2554862  66.1276209 108.6625211  77.3066784  65.9557132
 107.5556090  75.4484581  66.1613198 107.3024279  75.2541342  65.1190929
 107.7912954  74.5077366  66.6589091 106.3633622  76.1120425  66.8615005
 106.5002745  76.1461518  67.9423300 106.3343151  77.1278231  66.4672315
 105.0358563  75.4365592  66.5613231 104.1271132  76.0708939  66.0838565
 104.8482354  74.1016130  66.7344798 103.9505860  73.6893979  66.5237533
 105.6073042  73.5278088  67.0731014 109.6756995  76.2221640  67.4914734
 109.7214732  77.2105970  68.2379819 110.2582430  75.0791657  67.9099804
 110.0147607  74.1941505  67.4885973 111.0654876  75.0672807  69.1476689
 110.5310256  75.5443332  69.9691739 111.3338054  73.5980990  69.5225351
 111.9752340  73.4224858  68.6589214 111.9104870  73.4592527  70.4370077
 110.2144696  72.5925405  69.5025694 109.1270541  72.7651535  70.1011262
 110.4535836  71.3814101  69.0905902 109.7078638  70.7004341  69.0740592
 111.3837489  71.1281578  68.7893318 112.2631062  75.9538417  69.1660884
 112.4118202  76.8169833  70.0495910 113.0000293  75.8993508  68.0386288
 112.7171989  75.3095401  67.2690642 114.2709694  76.5928016  67.9428625
 114.9300969  76.3382885  68.7728463 114.9304528  76.1345694  66.6343171
 114.1290492  76.1896512  65.8975555 115.6707315  76.9063635  66.4235536
 115.6100124  74.7264463  66.5612280 116.4006549  74.6473898  67.3073750
 114.8735352  73.9404572  66.7283342 116.2049902  74.5739552  65.1782483
 115.4475755  74.8055000  64.4293766 117.0461277  75.2582432  65.0671758
 116.6810003  73.2045235  64.9572926 115.9534539  72.6446548  64.5361957
 117.8966865  72.6407428  65.1570612 118.8800133  73.3123895  65.5628137
 118.7716968  74.2993709  65.7478412 119.7730003  72.8613662  65.7015648
 117.9238154  71.3698310  64.9772942 117.0804382  70.8825673  64.7101068
 118.7884043  70.8633219  65.1039167 114.0478764  78.1171981  68.0575175
 114.8609231  78.8484026  68.4191277 112.8527160  78.6078789  67.7300301
 112.2942859  77.9206685  67.2442348 112.3473938  79.9445547  67.8321294
 113.1701229  80.6558550  67.7595489 111.3570783  80.2300581  66.7113685
 110.6803194  79.3756059  66.7085209 110.7898735  81.1415088  66.9001449
 112.0650747  80.3364256  65.3263786 112.6882381  79.4541808  65.1800490
 111.0294239  80.4264426  64.1916612 110.4061452  81.3087583  64.3370623
 111.5445503  80.4999526  63.2338816 110.4029892  79.5344653  64.1991867
 113.0522972  81.4977856  65.1987638 113.8386128  81.3906960  65.9459847
 113.4949808  81.4912466  64.2027268 112.5278019  82.4401863  65.3565119
 111.8241719  80.1885125  69.2338428 112.2795067  81.0709319  69.9059546
 110.9862279  79.3793128  69.8036803 110.6113479  78.6800875  69.1786617
 110.4349688  79.4611997  71.1809406 109.9002926  80.3996761  71.3275097
 109.4528490  78.3005462  71.3844728 108.6755013  78.4511462  70.6353737
 109.9447531  77.3437064  71.2095789 108.8045392  78.2690217  72.7567324
 109.3132689  78.6464412  73.8069437 107.6426234  77.7374309  72.8219696
 107.1622008  77.6883081  73.7090327 107.2113491  77.3694426  71.9860941
 111.4829023  79.5444224  72.2473854 111.4325955  80.4355801  73.1006415
 112.5472720  78.7812793  72.0132749 112.4754708  78.1966385  71.1928245
 113.7395300  78.6871405  72.8169588 113.4896135  78.4098052  73.8410321
 114.6772449  77.5822313  72.2125222 114.5587237  77.5473090  71.1295483
 115.7161994  77.8035396  72.4568503 114.3026893  76.2729506  72.7919063
 114.4290735  76.3278524  73.8731619 113.2553225  76.0817764  72.5582886
 115.1374145  75.1736139  72.2525087 114.5640706  74.2494532  72.1796887
 115.5347843  75.4323434  71.2710528 116.2563755  74.9861765  73.2039049
 116.9699085  75.8045936  73.1081730 115.8773631  74.9528850  74.2253453
 116.9269705  73.7090366  72.8860526 117.2786223  73.7398397  71.9397482
 117.6947231  73.5635493  73.5259662 116.2660754  72.9504955  72.9751157
 114.5096719  79.9963575  72.9161463 115.2620371  80.1450543  73.8835225
 114.3847553  80.9298475  71.9222361 113.7442811  80.6377689  71.1979556
 115.2173301  82.1513075  71.6833647 115.8183533  82.4470368  72.5432569
 116.1432280  81.9349613  70.4937331 115.5709518  81.4346112  69.7125487
 116.7209792  83.2451465  69.9441773 117.2938149  83.7458745  70.7247102
 117.3729574  83.0286225  69.0979254 115.9073418  83.8933869  69.6187850
 117.2714598  80.9595227  70.8287291 116.8473740  79.9966996  71.1137292
 117.9115669  80.8300016  69.9560397 117.8610934  81.3553179  71.6556385
 114.4334665  83.4753983  71.6590667 114.9197048  84.4026893  72.3257463
 113.3125327  83.5596770  70.9238126 112.9140206  82.7194446  70.5297353
 112.6862739  84.8667726  70.5801122 113.3443728  85.6974361  70.3251549
 111.6111342  84.6667181  69.4217700 110.9928547  83.8041702  69.6704505
 110.7029579  85.9280197  69.2566178 111.3205228  86.7909406  69.0074558
 109.9818856  85.7550977  68.4577102 110.1722203  86.1188816  70.1893495
 112.2478728  84.1548387  68.1671380 112.7678915  83.2338135  68.4305654
 111.4388543  83.9287687  67.4725295 113.2431229  85.1363712  67.4984765
 114.0527260  85.3625632  68.1923639 113.6540474  84.6804644  66.5977050
 112.7236889  86.0575199  67.2343299 112.0909788  85.4987973  71.8459489
 111.5020172  84.7820176  72.6054817 112.2577258  86.7842195  72.0952181
 112.9035125  87.2465473  71.4712695 111.6552780  87.5590873  73.1535080
 111.8502879  87.0908570  74.1183036 112.2712598  89.0299483  73.1671215
 112.3086967  89.4350338  72.1558829 111.6726812  89.6861841  73.7989113
 113.6819008  88.9355884  73.7276042 113.6610147  88.2901497  74.6057122
 114.3255644  88.4931236  72.9673252 114.2210000  90.2974344  74.1149834
 113.4613830  90.8750024  74.6417626 115.1026381  90.1951578  74.7477181
 114.6071097  91.0258671  72.8079861 115.2817230  90.3793094  72.2467725
 113.6973699  91.1896754  72.2303708 115.2732396  92.3334506  73.0662925
 116.1164762  92.1818415  73.6011444 115.5066077  92.7719134  72.1868668
 114.6481347  92.9328698  73.5859459 110.1173076  87.6455483  72.9948210
 109.5697330  87.7170924  71.8634822 109.3473935  87.7266718  74.0971550
 109.6842138  87.3599904  74.9759020 107.9603008  88.1817679  74.0222121
 107.8179407  88.8005608  73.1362505 107.0047828  86.9632717  73.9344428
 107.3647796  86.2827730  73.1628062 106.9937478  86.4489277  74.8953946
 105.7212496  87.3808626  73.6195295 105.1402364  86.6183721  73.5682305
 107.5868848  89.1516935  75.1243980 107.9375267  88.8860911  76.2499150
 106.8499266  90.1929102  74.7005413 106.6994383  90.3257620  73.7106913
 106.2636422  91.1654825  75.6301234 107.0425666  91.6678295  76.2037291
 105.4834257  92.2422959  74.7921537 104.8800505  91.6924499  74.0698609
 104.5763693  93.1869883  75.6057616 105.1791475  93.7375563  76.3280041
 104.0855273  93.8895572  74.9322845 103.8222623  92.6026652  76.1330100
 106.4312463  93.1723724  74.0298560 107.0433059  92.5859729  73.3445672
 105.8497404  93.9005723  73.4644575 107.0763821  93.6936072  74.7371148
 105.3090341  90.5102250  76.6258121 104.5789747  89.6340542  76.1827840
 105.4167630  90.8914594  77.9635400 106.0807741  91.6363641  78.1194427
 104.7095592  90.3567189  79.1010589 104.8859967  90.9962370  79.9659205
 103.6424608  90.3313548  78.8802488 105.1898578  88.9237803  79.4284748
 104.7818427  88.3803285  80.4515069 106.1567992  88.3497239  78.6842124
 106.2419287  88.7755818  77.7723477 106.9098742  87.1120589  78.9499574
 107.5431754  86.8758670  78.0948304 107.7816524  87.2726947  80.1632747
 107.1570346  87.6554940  80.9703784 108.1579275  86.2857820  80.4325709
 108.9357400  88.2035110  79.9404568 109.6478597  87.8450815  79.1971434
 108.6337195  89.2210535  79.6924790 109.5924051  88.1890025  81.3252028
 108.8193665  88.4495909  82.0481163 109.9307772  87.1690440  81.5076541
 110.7718194  89.1507557  81.4718242 111.3754586  89.0616819  80.5686155
 110.3609653  90.1583346  81.5357208 111.6477679  88.8773093  82.7007693
 112.0289195  87.9438664  82.6415437 112.4024717  89.5477840  82.7321682
 111.0887096  88.9602169  83.5378352 106.0366550  85.8729248  78.9452602
 106.4517235  84.8904136  79.5914381 104.9397948  85.8934714  78.3041108
 104.5726239  86.8078114  78.0821487 104.0760083  84.6849385  78.0180586
 103.8934850  84.1009551  78.9201384 102.7187709  85.1596965  77.4247075
 102.8046125  85.5105381  76.3962904 101.8619125  83.8517899  77.4591595
 101.7752321  83.5005752  78.4873790 100.8682671  84.0571877  77.0609369
 102.3442071  83.0847726  76.8532094 102.0690999  86.3301002  78.2077840
 101.9733327  86.0260336  79.2501242 102.7344473  87.1908553  78.1406062
 100.7321456  86.6954308  77.6741927 100.0660657  85.8352500  77.7414725
 100.3205524  87.5194827  78.2569696 100.8271802  87.0000697  76.6319531
 104.8165097  83.6144885  77.1749813 105.7913266  83.8742080  76.4477070
 104.5717577  82.3343319  77.5012887 104.1624792  82.2519955  78.4209686
 104.8976962  81.0923467  76.7643350 105.9188422  81.1016937  76.3831886
 104.7581518  79.9093680  77.8098376 105.4064579  80.1648011  78.6480216
 103.7193336  79.9147245  78.1398801 105.1207410  78.5170483  77.2911894
 105.1983578  77.9840118  78.2387908 104.4521883  77.9740274  76.6231589
 106.4698898  78.6195264  76.6674612 106.6269877  78.0382727  75.5568743
 107.5078321  79.0352288  77.2692971 104.0207385  80.8541583  75.4398341
 102.7917702  80.6525848  75.5178217 104.6295630  80.9358084  74.2824008
 105.6100512  81.1733163  74.2341069 103.9281658  80.6112290  73.0307841
 103.1339673  81.3290070  72.8254972 104.9685766  80.6795261  71.8796752
 105.1581942  81.7411461  71.7212223 105.9105843  80.1684204  72.0784021
 104.4503509  80.1355358  70.5760197 104.5946044  78.8284267  70.1765129
 103.9289596  78.7137111  69.0675285 103.8915134  77.7403721  68.5783374
 103.3879070  79.8893874  68.7262527 102.8483376  80.0542492  67.8885264
 103.6721939  80.8350397  69.6773273 103.2833469  81.8478735  69.5721277
 103.3567142  79.0763062  73.0702946 102.2488673  78.7999170  72.5549642
 104.1079343  78.1450105  73.7154383 105.0588705  78.3315924  74.0000555
 103.6257182  76.7635531  73.7689273 103.2189769  76.5455276  72.7814428
 104.6288581  75.6823817  74.1300310 104.0764146  74.7552844  73.9770737
 105.3982680  75.7768911  73.3637566 105.2323642  75.6639650  75.4000606
 105.8348494  74.9187539  75.4572601 102.3485023  76.6694756  74.5798588
 101.3466316  76.1576499  73.9891647 102.2986358  77.2915311  75.7829803
 103.1434170  77.7088787  76.1466628 101.1046782  77.3690033  76.5769188
 100.7868396  76.3695908  76.8739923 101.3665275  78.1786132  77.8172235
 102.2705728  77.8566430  78.3340760 101.4679871  79.2240355  77.5258505
 100.2566029  78.1191932  78.8188734  99.4690303  79.2620018  79.0738262
  99.7789042  80.2072686  78.6282383  98.3211761  79.2077310  79.8711214
  97.6841626  80.0876977  79.9604131  97.9842658  78.0149894  80.5618180
  97.1482610  77.9700707  81.2597995  98.7522743  76.8870685  80.3281161
  98.4622942  75.9382473  80.7795027  99.8774157  76.9569958  79.5307529
 100.5257514  76.0871168  79.4255338  99.9542827  78.0053605  75.8091196
  98.8192258  77.6367041  76.0352792 100.1729025  78.9661778  74.9504575
 101.1367631  79.2663396  74.9192338  99.1912626  79.7212993  74.1904425
  98.3213243  79.9770656  74.7953310  99.8905061  81.0316022  73.7500179
  99.6508382  81.6990046  74.5778057 100.9729630  80.9547230  73.6476630
  99.3742388  81.7145812  72.4696782 100.1665665  81.8455544  71.3470559
 101.1349318  81.3452612  71.3557241  99.5468234  82.5911897  70.4519602
  99.9252460  82.8076625  69.5408974  98.3027556  83.0380162  70.9509828
  97.2621612  83.8887854  70.4781382  97.4350990  84.3645483  69.5128192
  96.1216767  84.0683167  71.2334299  95.3035019  84.6818171  70.8561936
  95.9928474  83.4547373  72.5206425  95.1293881  83.5851437  73.1729704
  97.0284780  82.6456960  72.9649541  96.8607887  82.2167498  73.9528742
  98.2107783  82.4214700  72.2167912  98.4999718  78.9381356  73.0361875
  97.2832922  79.0134627  72.9405346  99.2834407  78.1528394  72.2461581
 100.2778558  78.3087628  72.3293797  98.8136340  77.2367207  71.2223704
  97.8989463  77.6212239  70.7711466  99.8918053  77.0765474  70.1051502
 100.7456899  76.6139354  70.6000950  99.4597731  76.3727856  69.3936957
 100.3545281  78.3403009  69.3593125 101.1571993  78.8407615  69.9009386
 100.6932305  78.0966856  68.3523197  99.0898654  79.3045826  69.2748920
  98.1829303  78.7144239  69.1434377  99.0110345  79.8920801  70.1896225
  99.2211995  80.2089121  68.1529613 100.1725162  80.3004756  67.8262931
  98.2938327  81.0329846  67.6553014  97.0645532  81.0899960  68.0803881
  96.7647916  80.4855117  68.8319477  96.4164608  81.7384378  67.6565967
  98.5710759  81.7047225  66.5249641  99.4654424  81.5789646  66.0728651
  97.8838285  82.3323102  66.1326336  98.3547174  75.9093950  71.7657184
  97.8331952  75.1415756  70.9691395  98.5252883  75.4757427  73.0063817
  99.1190835  76.0344601  73.6024868  98.0747889  74.1660378  73.5012770
  98.2742002  73.4074561  72.7443833  98.8063300  73.7687507  74.8033725
  99.8015444  74.2128173  74.7821029  98.2454919  74.1754140  75.6449101
  98.9196267  72.3610959  74.9466789  99.3784076  72.1586976  75.7653088
  96.5736317  74.0674893  73.5964430  95.8971617  74.9646827  74.0583653
  96.0218346  72.9417531  73.2100249  96.6346335  72.1665644  73.0010770
  94.5548502  72.7762254  72.9549809  94.1468056  73.6232861  72.4035402
  94.3889524  71.5170302  72.1078142  95.1064646  71.5691738  71.2889391
  94.6625005  70.7025699  72.7785793  93.1013794  71.1556654  71.5138478
  92.2766189  70.1360352  71.9360567  92.5898590  69.5009215  72.7646767
  91.0094149  69.9061306  71.2917089  90.3512728  69.1172730  71.6559250
  90.6272516  70.6819607  70.2150916  89.6385881  70.5296006  69.7821588
  91.4756140  71.6406390  69.6847077  91.3056998  72.1603378  68.7417641
  92.6168843  71.9282079  70.4484729  93.2083496  72.8175697  70.2309777
  93.8338432  72.7672439  74.3139766  94.1831203  71.9494800  75.1465057
  92.8543610  73.6472809  74.4763940  92.7752729  74.3561406  73.7612979
  92.0533255  73.7804846  75.6558909  91.7841927  72.7987910  76.0456911
  92.8822678  74.5585078  76.7671152  93.8148657  74.0830250  77.0708858
  93.0807275  75.5871322  76.4660411  92.0453578  74.6265351  77.9520932
  92.1316979  75.6892653  78.8877479  91.2847348  75.4151083  79.9098000
  91.2113796  76.0521409  80.7912235  90.6516603  74.3076104  79.5906900
  89.9103169  73.9055824  80.1464627  91.1086679  73.8041474  78.4677429
  90.7195389  72.8556777  78.0974930  90.6783330  74.3300240  75.3725180
  90.4731751  75.5428349  75.3739400  89.8193936  73.4252654  74.8653129
  90.2118455  72.5250379  74.6293656  88.4307759  73.6779482  74.5337993
  88.2574060  74.6430372  74.0577264  87.8873055  72.5637919  73.6059687
  86.9761577  72.9616657  73.1591953  88.8435519  72.0795042  72.4849833
  89.7547946  71.6810406  72.9310361  88.3543969  71.2997841  71.9011486
  89.0944528  72.9168577  71.8338394  87.4214602  71.3801778  74.2432847
  87.1092416  70.7609808  73.5794210  87.5674437  73.8574561  75.7851923
  88.0553789  73.8414515  76.9625691  86.2617648  73.9885631  75.5092347
  85.9698291  74.3018923  74.5945229  85.2712945  73.9021069  76.5486961
  85.5210038  74.5754725  77.3686492  83.8851537  74.3127187  75.9725453
  83.6545282  73.6451071  75.1423611  83.1419201  74.1834756  76.7593110
  83.8614114  75.7990374  75.4701442  84.8936919  75.8609844  75.1256732
  83.1879753  75.9861935  74.6337498  83.6245771  76.8440838  76.5573528
  84.4518518  76.8977176  77.4253833  82.5056413  77.4916645  76.6744295
  85.2151077  72.5806888  77.3771665  84.6213494  72.6260618  78.4543992
  85.7408384  71.4283047  76.8756287  86.1859229  71.4930396  75.9713011
  85.6973990  70.1159766  77.5393087  85.5217988  70.1772912  78.6133219
  84.4901447  69.4486143  76.8848734  83.7137748  70.2126888  76.9241067
  84.8004818  69.2994709  75.8506843  83.9377967  68.1260442  77.4508698
  83.0117503  67.9032710  76.9208594  84.6715997  67.3475469  77.2421182
  83.6622128  68.1785946  78.9656347  83.1240448  67.2744601  79.2502661
  84.6175100  68.2122718  79.4894406  82.8878275  69.3128804  79.3535178
  82.4812542  69.7696164  78.5496585  82.6923408  69.8056072  80.4772301
  83.0101395  69.2402256  81.6389101  83.4502920  68.3312591  81.6509863
  82.8097761  69.7225899  82.5033630  82.1160488  70.8952253  80.5331042
  81.8225537  71.3520753  79.6814889  81.9406787  71.3248807  81.4301774
  86.9742961  69.2826282  77.3456253  87.0867421  68.2214242  77.9672874
  87.9713731  69.7721541  76.5945494  87.9845241  70.7191786  76.2437346
  89.1270219  68.8869392  76.2807797  89.2572641  68.0969492  77.0204094
  88.7762672  68.2262030  74.8953632  87.7063392  68.0210246  74.9307908
  88.9740480  68.9929460  74.1463052  89.5118170  66.9750161  74.5338610
  90.5778459  67.2017218  74.5508222  89.2875764  66.2280748  75.2953707
  89.1210260  66.4189889  73.1295203  88.1107991  66.0474603  73.3012969
  89.0764288  67.3258472  72.5264295  89.9096508  65.3905531  72.4155666
  90.9515393  65.7053618  72.3567088  89.8463719  64.4441792  72.9526621
  89.3675217  65.2185240  71.0461576  89.4264617  66.0952356  70.5481592
  89.9046467  64.5167668  70.5571448  88.4022167  64.9264026  71.1004749
  90.4779632  69.6401985  76.1459909  90.5419789  70.6718608  75.4294681
  91.4620317  68.9745553  76.7407130  91.3291722  68.0347647  77.0860263
  92.7760940  69.5750534  76.8692907  92.6926626  70.5243541  76.3401722
  93.0613128  69.8641011  78.3599009  92.7881778  68.9626881  78.9084919
  94.4899403  70.2362782  78.6825673  94.7636660  71.1379290  78.1346624
  94.5854535  70.4190693  79.7528774  95.1526369  69.4206694  78.3932300
  92.4283690  71.0298636  78.8550058  92.6497210  71.1449776  79.7820184
  93.8958880  68.6510776  76.3864736  93.9618527  67.4656095  76.8195624
  94.6374384  69.0960874  75.3669662  94.6149501  70.0783941  75.1331559
  95.4271464  68.2075553  74.5324688  95.7842466  67.3941328  75.1640719
  94.6702087  67.6017305  73.3271806  94.5309911  68.4661640  72.6779714
  95.4157066  66.9367860  72.8910822  93.3253204  66.8442114  73.4741026
  92.6749180  67.5065193  74.0454394  92.9311582  66.7312472  72.4641648
  93.3812252  65.5215338  74.1316493  92.3078047  65.0593449  74.4853496
  94.4783997  64.8964311  74.3260709  96.6854890  68.8789226  73.9863830
  96.6926523  70.0668170  73.6716218  97.7859923  68.1566464  73.8425514
  97.9442986  66.8525970  74.4241512  96.9850736  66.3360779  74.3895709
  98.2566814  66.9686312  75.4619624  99.0019540  66.1745696  73.5742289
  98.5398180  65.6888217  72.7148231  99.5401107  65.4327428  74.1642982
  99.9285241  67.3021287  73.1434084 100.3706291  67.1373906  72.1608080
 100.7189117  67.4911076  73.8698201  98.9473299  68.5267087  73.0886596
  99.4045231  69.3805498  73.5886877  98.6277186  68.9050640  71.5885909
  98.0411069  68.0662510  70.8926911  98.9841418  70.1420612  71.2168876
  99.3428270  70.7803871  71.9125774  98.8281540  70.6327540  69.8267763
  97.7676866  70.5683964  69.5831243  99.2605846  72.0995688  69.7463335
 100.3225039  72.1791185  69.9789259  99.0803060  72.4773795  68.7399246
  98.6871839  72.6877626  70.4628104  99.6178427  69.8325889  68.7711132
 100.7399490  69.4317769  69.0293713  99.0942626  69.5408507  67.5557258
  98.1807325  69.9469737  67.4121074  99.6463262  68.6276462  66.4899916
 100.7133914  68.8065351  66.3578179  99.4404647  67.1751861  66.8312665
  99.8655486  66.9847628  67.8167323  97.9276617  66.8098862  66.8398240
  97.5019597  66.9996193  65.8544922  97.8093836  65.7554180  67.0892360
  97.4106029  67.4184120  67.5817451 100.0985539  66.2787128  65.9246413
  99.9311680  65.3723081  66.1929933  99.0360835  69.0000280  65.0710013
  98.1369346  69.7990526  65.0575080  99.5007708  68.3943695  63.9708160
 100.2234898  67.6979576  64.0838955  99.0264296  68.6811722  62.6316754
  99.6761522  68.1030993  61.9745669  98.0175652  68.2699019  62.5977835
  98.9895722  70.1289296  62.1460973  98.5004596  70.2889070  61.0401308
  99.5679075  71.1196545  62.7889382 100.1552290  70.7993124  63.5455978
  99.5412653  72.5940500  62.4804479  99.4293807  72.6932192  61.4007505
  98.4105326  73.4144940  63.1764962  98.4119045  72.9055205  64.1403652
  98.5494558  74.4845035  63.3310277  97.0126644  73.2358278  62.5903505
  96.4899808  73.9780451  61.5334624  97.2105510  74.6462984  61.0619584
  95.1731654  73.9250018  61.0632405  94.8431646  74.4905740  60.1918461
  94.2666931  73.1095254  61.7535789  93.2299924  73.0194530  61.4291742
  94.7146327  72.3999662  62.8832873  94.0061568  71.7904776  63.4442558
  96.0557525  72.4703001  63.2901741  96.3870044  71.9227894  64.1725595
 100.7465561  73.2224312  63.0067910 101.1912029  72.8417045  64.0653492
 101.1659215  74.2278724  62.2094468 100.7639460  74.3874831  61.2967369
 102.3589546  74.9759415  62.5785400 102.4853898  74.8292349  63.6511958
 103.6540396  74.5055360  61.8309227 103.5540591  74.6395690  60.7538250
 104.8097989  75.3940618  62.3566064 104.9106988  75.2602082  63.4336408
 105.7404913  75.1079221  61.8666712 104.5922754  76.4398956  62.1397788
 104.0371894  73.0150104  62.1128211 104.3254522  72.9568886  63.1624054
 103.1370331  72.4221804  61.9504308 105.1630992  72.4731067  61.2478763
 106.0637833  73.0651857  61.4100816 105.3588582  71.4344234  61.5141740
 104.8753647  72.5304797  60.1981063 102.1091013  76.4497780  62.4756598
 101.5422667  76.9263221  61.4816164 102.5643996  77.2516361  63.4347557
 103.2645725  76.9085467  64.0767424 102.1057841  78.6653761  63.5768749
 101.0470620  78.7753683  63.3421227 102.3191208  79.0316095  65.0247843
 102.0157529  78.2946310  65.7683769 103.4064549  79.1064980  65.0107791
 101.7164511  80.3988434  65.3836513 101.0623928  81.0552265  64.5328559
 101.6959275  80.7331450  66.5473430 102.9730167  79.5988323  62.6717621
 104.1288516  79.9025974  62.9911137 102.3397545  80.0842564  61.5568861
 101.4017050  79.7780110  61.3415346 102.9739349  81.0318065  60.6652652
 103.9066533  80.5676564  60.3447962 102.3069249  81.1344501  59.8093088
 103.2816674  82.4408911  61.2374008 104.2142463  83.0873090  60.8143294
 102.4837568  82.8228923  62.2599676 101.6236359  82.3527923  62.5034783
 102.8373463  84.0163340  62.9826663 103.0606217  84.8370520  62.3009998
 101.6310390  84.4135870  63.8523460 101.3843051  83.5476541  64.4666602
 101.9627903  85.2304439  64.4932718 100.4100694  84.8455385  63.0793905
 100.4492908  85.0721633  61.8638829  99.3127025  84.9731482  63.7136780
 104.1319551  83.8627324  63.8356502 104.7461110  84.9333700  64.0016674
 104.5763416  82.7571255  64.4062641 103.9512995  81.9642282  64.3791431
 105.8770942  82.6202237  65.1698200 106.0726499  83.5627182  65.6812505
 105.8646551  81.4710196  66.2283044 105.0019465  81.7233996  66.8448574
 105.6922348  80.5130260  65.7377746 107.1140966  81.3746000  67.1127709
 107.9648477  81.2853455  66.4372289 107.3358816  82.5410911  68.0514887
 106.4856941  82.6307012  68.7276913 108.2441210  82.3744602  68.6306571
 107.4377684  83.4593240  67.4730703 107.0753859  80.0676081  67.8962139
 107.0538802  79.2276750  67.2018442 107.9617512  79.9947652  68.5264137
 106.1828054  80.0444515  68.5214041 107.0589064  82.4455515  64.2735552
 108.0560579  83.1166104  64.4705267 106.9285762  81.5934402  63.2746431
 106.0440610  81.1285482  63.1276475 108.0905264  81.1883396  62.4285403
 109.0583931  81.0461255  62.9092776 107.7585809  79.9308188  61.5316106
 106.6818343  79.9616567  61.3649786 108.4700158  79.8379104  60.2045027
 109.5468680  79.8065600  60.3703551 108.1562346  78.9318742  59.6861008
 108.2216941  80.7080750  59.5968439 107.8205095  78.6985530  62.4496558
 108.8464326  78.5849386  62.7999046 107.1636303  78.8741231  63.3015856
 107.3945213  77.4504714  61.7401825 108.0512694  77.2739785  60.8883422
 107.4533183  76.6045313  62.4250384 106.3684672  77.5631641  61.3900210
 108.6630556  82.3226785  61.5623761 109.8307631  82.2538130  61.2236802
 107.8240920  83.3291900  61.3070318 106.8375015  83.3042178  61.5217759
 108.3533410  84.5036773  60.6260620 108.8318914  84.2881269  59.6707470
 107.0426413  85.3165083  60.3569005 107.3674935  86.1290120  59.7069713
 106.4183032  84.6259216  59.7899861 106.2553867  85.8767885  61.5000411
 105.2771607  86.0646734  61.0574647 106.1436275  85.2172406  62.3606255
 106.8867902  87.2290151  61.9595616 107.6810109  87.1877750  62.9357187
 106.4160394  88.2674573  61.3925304 109.4019615  85.2666909  61.4359937
 110.1635929  85.9359980  60.8078857 109.5441778  85.0576049  62.7345358
 108.8134221  84.5861515  63.2481768 110.6746536  85.5975643  63.4796328
 110.7279405  86.6750912  63.3240844 110.5390301  85.3313301  64.9511146
 111.3299922  85.8413977  65.5009412 109.5685617  85.6755705  65.3085912
 110.6456304  83.9684921  65.1498431 110.5616746  83.7741330  66.0862062
 112.1211040  85.1525604  63.0227874 113.1466725  85.8706020  63.1633133
 112.2090725  83.9664786  62.2888477 111.3986758  83.3640338  62.3092631
 113.4537382  83.4288352  61.7683559 114.1951581  83.3645755  62.5647644
 113.2217196  82.0283178  61.2030776 112.8302786  81.3039229  61.9173081
 112.5154547  82.1454996  60.3811540 114.4960810  81.4105216  60.6034486
 115.4241767  80.8305903  61.4664365 115.2705901  80.8196376  62.5455060
 116.5777369  80.2517957  60.9161224 117.3413986  79.8205712  61.5633990
 116.7475293  80.2299664  59.5013493 117.6081984  79.7417061  59.0442383
 115.7952587  80.8434564  58.7044022 116.0133563  80.9127755  57.6386965
 114.6125870  81.3553282  59.2021438 113.8325877  81.6893499  58.5179431
 114.1721796  84.4155252  60.9502276 115.4029820  84.4001891  60.9500337
 113.4473254  85.2014835  60.1827161 112.4653022  85.1505730  60.4132326
 113.8447626  85.9879227  59.0213138 114.4897892  85.3911542  58.3764051
 112.6230163  86.4207382  58.2214391 112.0655307  87.1424561  58.8184587
 112.9680063  86.8980123  57.3042197 111.6849174  85.1998779  57.8594217
 111.4734455  84.5892753  58.7372286 110.3611115  85.8242060  57.3311640
 110.5717276  86.4346202  56.4530215 109.6658212  85.0290690  57.0620370
 109.9171539  86.4468877  58.1078683 112.2732096  84.2791420  56.7971183
 113.2190122  83.8706171  57.1530176 111.5781516  83.4636928  56.5970228
 112.4438466  84.8436131  55.8804098 114.7584758  87.1754538  59.3840423
 115.1290140  87.9426181  58.4457228 114.9151976  87.4607670  60.6989266
 114.2577255  87.0075940  61.3173633 115.8444723  88.4562230  61.2722825
 116.6524117  88.6401583  60.5641153 115.1384321  89.7935127  61.5723967
 114.5642367  90.0399784  60.6792822 114.4569295  89.6159208  62.4043314
 116.0667351  90.9527498  61.9151106 117.2249440  90.8999062  61.4967775
 115.5966083  91.8992022  62.6211436 116.6679439  88.0085530  62.5329974
 116.2827606  88.3416824  63.6241842 117.7827844  87.2679677  62.3995689
 117.9777173  87.0143490  61.4415616 118.6976467  86.8630938  63.4000988
 118.7178981  87.5901452  64.2119395 118.3616105  85.4716093  63.9661859
 118.4197080  84.7751146  63.1297529 119.2942040  84.9751122  65.1251544
 119.2362797  85.6709035  65.9621848 118.9729179  83.9862894  65.4524240
 120.3225238  84.9225702  64.7675277 116.8634300  85.3422618  64.5199100
 116.8184867  85.9455216  65.4266396 116.2167044  85.7807882  63.7599494
 116.3766862  83.8700676  64.8411662 117.0226957  83.4310239  65.6014374
 115.3509242  83.8980651  65.2087634 116.4209156  83.2662897  63.9347470
 120.0302749  86.7684413  62.7594126 120.1577644  86.1606395  61.7052928
 121.0338954  87.3601780  63.3557788 120.7845674  87.8809998  64.1844400
 122.4632005  87.3579497  62.9245617 122.6172934  88.0177563  62.0707411
 123.2952010  87.8632826  64.0822585 123.3588051  87.0526641  64.8081726
 124.2895282  88.0790375  63.6912811 122.7722939  89.0249913  64.7140693
 123.3506046  89.2849613  65.4348828 122.9845184  86.0004773  62.5003373
 122.8014678  84.9950333  63.1888545 123.7712716  85.9146194  61.3893414
 123.9528280  86.7403451  60.8367896 124.1887594  84.6647122  60.8822615
 123.3306049  83.9998310  60.7842663 124.8489397  84.8399583  59.4742641
 125.6091288  85.6169089  59.5552551 125.3225853  83.8954291  59.2066367
 123.8202627  85.2337979  58.3749897 123.3032508  86.1361211  58.7015054
 124.3683703  85.4420747  57.4561313 122.7699738  84.0951108  58.1113084
 123.2872145  83.2137535  57.7321376 122.2698651  83.8475025  59.0476208
 121.7624612  84.5017977  57.1362074 121.0052376  85.0982264  57.4378440
 121.7362256  84.0245872  55.9074264 122.5491158  83.0951697  55.4014910
 123.2701237  82.6896741  55.9809915 122.4396661  82.8014437  54.4413632
 120.9581608  84.5314935  55.0454925 120.3581319  85.3021955  55.3025605
 120.9416958  84.1624333  54.1054807 125.0474373  83.7975352  61.7952403
 124.6773528  82.6497840  62.0282227 126.0260745  84.4088620  62.5261690
 126.6202922  85.7184494  62.3389066 126.0785622  86.4445311  62.9450702
 126.5453991  85.9957302  61.2874289 128.1248518  85.5323753  62.8101155
 128.5987248  86.4387659  63.1869437 128.7756139  85.0623992  62.0727332
 127.7957695  84.5635549  63.9423684 127.3818072  85.0990844  64.7967351
 128.7005730  84.0378389  64.2474141 126.7950555  83.5919189  63.4207622
 127.1830543  82.7796306  62.8061542 126.0916872  83.0185747  64.6242436
 126.5522214  81.9609552  65.0853793 124.9760523  83.6289934  65.1265204
 124.9387672  84.6025938  64.8604163 123.9037188  83.0964230  66.0592598
 124.3878933  82.4607395  66.8005968 123.1158343  84.1827780  66.7879043
 122.6978012  84.8621666  66.0450862 122.3059822  83.7081562  67.3419565
 124.0301468  84.9928150  67.7849488 124.3026820  84.3974283  68.6563500
 124.9343173  85.3572460  67.2973344 123.1878036  86.1641937  68.2207466
 122.9811115  86.7948629  67.3560884 122.2489559  85.7935932  68.6322313
 123.9339317  86.9949700  69.3006516 123.9522390  86.4230657  70.2283858
 124.9551078  87.1690897  68.9615634 123.2462798  88.3284032  69.5415290
 122.3001568  88.1672792  69.8561557 123.7520455  88.8455161  70.2464370
 123.2295905  88.8586766  68.6820928 122.9131335  82.1342276  65.3135503
 122.8086029  81.0102598  65.7510063 122.2310625  82.5151153  64.1531897
 122.3559341  83.4833829  63.8944148 121.3446472  81.6810776  63.3268254
 120.4246663  81.3964074  63.8374105 120.9828652  82.6109523  62.1309358
 120.4194027  83.4534654  62.5319107 121.9185690  82.9709295  61.7031803
 120.1597512  81.9185869  61.0450645 120.7153274  81.0088071  60.8176076
 119.2219746  81.6579297  61.5357119 119.8023521  82.7936305  59.5108388
 118.3678089  83.7630372  60.1128907 118.6795385  84.3966864  60.9431993
 117.9848645  84.3862468  59.3047670 117.5847828  83.0834365  60.4492155
 121.9476270  80.3430631  62.8419896 121.1808695  79.3795569  62.8127921
 123.2691048  80.2403145  62.5321313 123.8256556  81.0823946  62.4967524
 123.8661373  79.0008792  62.0691311 123.1946339  78.5326906  61.3494215
 125.2458262  79.2293517  61.3863801 125.4550371  78.3206730  60.8219042
 125.1045464  80.0609130  60.6959846 126.4684051  79.5455720  62.3536275
 126.2003218  80.3210788  63.0711381 126.6898312  78.6201946  62.8853692
 127.7239589  79.9891486  61.6007142 127.7041252  80.1114290  60.3798465
 128.7452643  80.2627805  62.3575378 129.6139901  80.5631754  61.9389930
 128.6650458  80.1736474  63.3603946 123.8836462  77.9660510  63.1942058
 123.9277278  76.7634661  62.9661787 124.0955985  78.4579970  64.4313632
 124.3761471  79.4198901  64.5584596 124.0661875  77.5750095  65.6148585
 124.4142400  76.5778125  65.3454949 124.9840216  78.1356194  66.7127133
 125.9702324  78.2547670  66.2640582 124.5870088  79.1145312  66.9814373
 125.0949145  77.2833670  67.9479402 125.3167712  76.2488031  67.6861047
 125.9974926  77.7634923  68.3260032 124.0151607  77.3145950  69.0226562
 124.1821076  76.7109106  70.0897972 123.0479526  78.1344028  68.8798069
 122.6297089  77.3241556  66.0981903 122.2773792  76.2794649  66.6150675
 121.6505949  78.1690222  65.8046648 121.9434999  79.0776020  65.4748334
 120.1909410  77.9201673  65.9891305 120.0399197  77.6347611  67.0302045
 119.2144168  79.0996187  65.6457928 119.5390376  79.5193332  64.6936581
 117.7019142  78.6710339  65.5419806 117.3764203  78.2516210  66.4939509
 117.0924926  79.5423204  65.3020520 117.5889087  77.9222173  64.7580131
 119.3057619  80.1601510  66.6683446 120.3253330  80.5439115  66.7044643
 118.6219872  80.9701706  66.4145334 119.0375191  79.7506490  67.6422310
 119.7769220  76.6895005  65.1591398 119.1162531  75.8578637  65.7629649
 120.1481827  76.6194073  63.8981527 120.5436463  77.4473218  63.4759377
 119.8724765  75.4682331  63.0404220 119.2299552  74.6942540  63.4602099
 119.2237463  75.9915948  61.7092996 118.8961509  75.1246832  61.1355010
 118.0196359  76.9312121  61.9561526 118.3465693  77.7986464  62.5295402
 117.6131211  77.2605934  60.9999339 117.2496918  76.3973152  62.5131461
 120.2423182  76.6590730  60.7362667 121.0096595  75.9357388  60.4604460
 119.7219650  76.9957102  59.8396020 120.7085966  77.5131766  61.2273799
 121.0694106  74.4965514  62.7785563 121.2480292  73.9451652  61.6359883
 121.7998498  74.2159265  63.8829001 121.6547724  74.7353744  64.7368473
 122.9228327  73.2746583  63.8239636 123.5229333  73.6197981  62.9820271
 123.7827042  73.3711871  65.1216759 123.1983404  73.0203644  65.9722888
 124.6741427  72.7532025  65.0142848 124.0773958  74.4075479  65.2866373
 122.5041930  71.7966463  63.4995528 121.3920227  71.4034455  63.8565855
 123.4610094  71.0220408  62.9914991 124.2989215  71.3752341  62.5518889
 123.1841194  69.6239392  62.8963268 123.8989450  69.1456112  62.2267555
 123.2982119  68.9697044  64.2873383 124.2311222  69.3790954  64.6748647
 122.4828702  69.2187998  64.9665064 123.4214738  67.4966954  64.2166271
 123.8345993  66.9425938  63.2092227 122.9445850  66.7560055  65.2139183
 123.0241585  65.7499181  65.1744736 122.5052314  67.2032919  66.0057542
 121.8346924  69.2357365  62.1507167 121.0244819  68.6379597  62.7976787
 121.5755206  69.5590837  60.8861861 122.3349947  69.9300297  60.3332869
 120.2396039  69.5153371  60.2894703 119.6924345  68.6512791  60.6664432
 119.4296962  70.8294175  60.6592973 119.6501550  71.1293285  61.6837730
 119.7711218  71.6043153  59.9729577 117.9017753  70.6327365  60.4966557
 117.7387317  70.2312947  59.4964747 117.2679149  69.7012056  61.5284954
 117.4301562  70.1022543  62.5289636 116.1975195  69.6222713  61.3384329
 117.7232075  68.7135569  61.4552898 117.2328373  71.9938824  60.6911134
 117.6059812  72.6929273  59.9426487 116.1534955  71.8877258  60.5822402
 117.4614992  72.3726790  61.6872689 120.2907207  69.2820885  58.7770907
 121.2012532  69.5712420  58.0925501 119.2930484  68.6088737  58.1841784
 118.5165190  68.4506659  58.8103347 119.1869077  68.1206452  56.8136978
 119.8518442  68.6427556  56.1256866 119.6283133  66.6501142  56.9029475
 118.9738521  66.2254913  57.6641802 119.3664606  66.2379925  55.9284277
 121.1108651  66.2957861  57.2357322 121.4314460  67.0051126  57.9987425
 121.2527425  65.2793015  57.6027907 121.9231144  66.4791048  56.0701206
 121.7379381  65.7095464  55.1034875 122.9217076  67.3749291  56.0215469
 123.4694087  67.4708483  55.1783835 123.1207836  67.9489356  56.8283843
 117.7259574  68.2197043  56.3007324 116.8104480  68.2257457  57.0699679
 117.5667381  68.1910588  54.9895152 118.3675450  68.5594258  54.4964500
 116.3339872  67.9294278  54.2238727 115.7651028  67.1526710  54.7348704
 115.4371476  69.1863775  54.0789823 114.4618970  68.8341561  53.7429382
 115.3231227  69.7302176  55.0167117 116.0459440  70.1305381  53.0031735
 117.0062270  71.1022993  53.3521346 117.3165966  71.1570166  54.3955790
 117.5749724  72.0057442  52.3822321 118.3658092  72.6922990  52.6844267
 117.0903355  72.0272352  51.0576071 117.4790577  72.9688427  50.2099514
 118.0961453  73.5926311  50.5994262 116.2065568  70.9859321  50.6732622
 115.9701281  70.8449298  49.6185962 115.6179840  70.1109547  51.6731059
 114.8239439  69.4190449  51.3922834 116.6869667  67.1667271  52.9392501
 117.8685138  67.0782646  52.5982257 115.7014138  66.5123969  52.2787621
 114.9342417  66.4177565  52.9288310 115.6942129  65.6773862  51.0612390
 116.2944433  64.7740167  51.1696188 114.2185120  65.2691905  50.8744394
 113.8265310  64.8809927  51.8145206 113.7667212  66.2389710  50.6658463
 113.8853976  64.3031111  49.7496708 112.7162296  64.0246244  49.4097466
 114.8659554  63.8709474  49.0830488 116.6281771  66.1350324  49.8593522
 116.6197218  67.2915876  49.4428074 117.3594299  65.1854050  49.2474315
 117.4957166  64.3437605  49.7888738 118.1690951  65.3764807  48.0544310
 117.8055525  66.2522045  47.5168030 119.6224768  65.5818552  48.3802789
 119.6041698  66.3057592  49.1949734 120.0293043  64.6378424  48.7428134
 120.5197873  66.1246695  47.2216347 121.6279596  65.5889216  47.0072669
 120.1234184  67.1240278  46.5761638 117.8814408  64.3656635  46.9008368
 118.5699520  64.4004206  45.8450995 116.9395694  63.4112176  47.0652861
 116.5594195  63.2702836  47.9903390 116.4306960  62.5534500  45.9516656
 115.3445176  62.5310976  46.0400747 116.7088135  63.0460973  45.0199743
 116.9544051  61.1280097  45.9324444 118.1835213  60.9567232  46.0154829
 116.0546936  60.1489218  45.8561358 115.0852985  60.4119813  45.9618341
 116.3976679  58.6795354  45.8214018 115.4882384  58.0789511  45.8397226
 117.1818606  58.3571814  44.5112050 118.0086896  59.0674129  44.5161129
 117.5671714  57.3506730  44.6742279 116.5333596  58.4110490  43.2852173
 117.1519420  58.1875519  42.5859286 117.0657173  58.2554941  47.1263278
 117.7643145  57.2446359  47.1766248 116.7722529  58.9524451  48.2027343
 116.2460153  59.8127271  48.1471622 117.2189224  58.4780095  49.5539246
 116.3491913  58.5322253  50.2086975 117.5206651  57.4371617  49.4369349
 118.3699943  59.2619122  50.1888696 118.8031164  59.0629841  51.3517036
 118.9082333  60.1551492  49.3228283 118.6896276  60.0220228  48.3457980
 119.8447784  61.1972580  49.6798959 120.5945361  60.8159779  50.3731404
 120.5621814  61.6937928  48.3980222 119.8264892  61.7893851  47.5994495
 121.0066901  62.6682485  48.6003789 121.6538727  60.7158081  47.9695215
 122.5922333  61.1430424  48.3231473 121.4516949  59.7893416  48.5070026
 121.7908304  60.3617159  46.2119987 120.7525126  58.8629803  46.1688504
 119.7461669  59.1076246  46.5087275 120.7080950  58.4803469  45.1491841
 121.1818339  58.1039597  46.8228168 119.2502268  62.3848649  50.4692895
 118.0942439  62.7124170  50.3350692 120.0806592  63.0118543  51.3084172
 120.9014576  62.4988516  51.5968919 119.7840934  64.3317097  51.9871775
 118.9235738  64.8104320  51.5198123 119.4649998  64.0897486  53.4754678
 120.3503809  63.6424610  53.9272790 119.2790283  65.0634946  53.9286052
 118.2085787  63.1422742  53.7198350 117.3888662  63.5022317  53.0980610
 118.4820834  62.1333009  53.4111764 117.7598860  63.1248582  55.2102680
 118.6783139  63.1151796  55.7972055 117.2347470  64.0659257  55.3737317
 116.8342989  61.9190892  55.6583868 116.1405495  62.2556445  56.4288042
 116.2724460  61.5493069  54.8006680 117.6943717  60.8157729  56.2067161
 118.2147587  61.1580940  57.0017717 117.1094527  60.0441573  56.4940817
 118.3369993  60.5034778  55.4928529 120.8616459  65.3935928  51.7404248
 121.9290492  65.1017541  51.2576037 120.6236487  66.6212047  52.1770841
 119.7252680  66.6816093  52.6346459 121.3910190  67.8785272  51.9595963
 122.4550808  67.6421557  51.9592390 121.0391706  68.5690944  50.6263523
 121.8240356  69.2975231  50.4226915 121.0471568  67.8012853  49.8527209
 119.6626498  69.2814403  50.6325803 118.9098321  68.5675224  50.9667770
 119.7113285  70.1130930  51.3354930 119.2787153  69.8179328  49.2183087
 119.3449722  69.0275330  48.4706609 118.2707085  70.2326863  49.2194577
 120.2507514  70.9115186  48.8527695 121.2210443  70.7711835  49.0955391
 119.9261931  71.9774367  48.1349245 118.7648705  72.1387753  47.5001169
 118.0610598  71.4160816  47.5497586 118.5942794  72.9829453  46.9725041
 120.8075667  72.9375529  48.2035007 121.6370706  72.8181292  48.7672039
 120.6560072  73.7954897  47.6925478 121.2209487  68.8043788  53.2442896
 120.1933987  68.8443775  53.9018344 122.2256091  69.6005765  53.5690613
 123.0343321  69.5764311  52.9645089 122.3121689  70.3480123  54.7928138
 121.8242302  69.7758799  55.5819143 123.7442804  70.6379255  55.2169765
 123.7432367  70.7616504  56.2999309 124.3438412  69.7670952  54.9518697
 124.3478163  71.9012876  54.5538040 124.2994593  71.6031825  53.5064761
 123.7489936  72.7997043  54.7033295 125.7981795  72.1876621  54.9345691
 126.2443388  73.2996656  54.7082000 126.5986049  71.2668480  55.3227168
 121.4467604  71.5933270  54.7501375 121.2568130  72.2275272  53.7296630
 120.6856029  71.8263474  55.8273389 120.8770176  71.2523178  56.6360105
 119.5283433  72.7338701  55.8742195 119.1586901  72.9204625  54.8659343
 118.4078288  72.2124497  56.7024636 118.7602452  72.0293301  57.7175349
 117.6007582  72.9447213  56.7251700 118.0403747  71.2807375  56.2723602
 120.1192172  74.0405994  56.3074082 119.9769409  74.5192261  57.4559164
 121.0108404  74.5818877  55.4911239 121.3051327  74.1012813  54.6529659
 121.7098925  75.7513988  55.8745868 122.0509560  75.6501181  56.9048863
 122.9078111  76.0620184  54.9953659 123.5834969  75.2109697  55.0806013
 122.5796422  76.3210270  53.4778571 121.9043233  77.1722824  53.3917856
 123.5019787  76.5335026  52.9372568 122.1050474  75.4369102  53.0521839
 123.6738678  77.2063016  55.3958856 124.4073013  77.3288415  54.7887122
 120.8104886  76.9694012  56.0452444 119.7708152  76.9935768  55.4033787
 121.2599071  78.0020749  56.7884733 122.0639604  77.7681625  57.3531701
 120.7041882  79.3161191  56.9099114 119.8235467  79.3090156  57.5521879
 121.7824327  80.1550061  57.5738718 122.6676064  80.1791414  56.9382737
 121.4141343  81.1701916  57.7217063 122.0404120  79.7185308  58.5387735
 120.2547008  79.8838358  55.5801848 119.1093763  80.3528590  55.6203730
 121.1188792  79.8645893  54.5186486 122.0830951  79.6052485  54.6707321
 120.7357684  80.3837604  53.1940670 120.5487338  81.4552604  53.2648133
 121.8297694  80.1504127  52.1769413 122.1067025  79.0969307  52.2167296
 121.3649174  80.3672821  51.2151823 123.0996154  81.0252684  52.3460996
 124.2439414  80.5653535  52.0601269 122.9438667  82.2347669  52.7433622
 119.3296871  79.8489978  52.7448004 118.3984413  80.6358317  52.5864445
 119.2267118  78.5379994  52.5710296 120.0677321  78.0751626  52.8849824
 118.1103592  77.7008369  52.0620170 117.9495092  77.9990863  51.0260277
 118.2938082  76.2169722  52.1092833 118.7143466  76.0140226  53.0941986
 117.3530716  75.6777128  51.9983151 119.2987073  75.7448986  51.0058974
 119.7432851  76.4668245  50.0981658 119.5731891  74.5665914  51.0290662
 116.8168055  77.8744735  52.8662993 115.6787068  78.0104226  52.3933838
 117.0058323  77.9953295  54.1876031 117.9564927  77.8773234  54.5076324
 115.9328883  78.2598433  55.2148916 115.0793766  77.6035848  55.0447690
 116.4724111  77.9977489  56.5892011 117.4328347  78.4714455  56.7924181
 115.7097089  78.4319710  57.2356039 116.5747759  76.5277639  56.8562712
 117.1952497  76.0102035  56.1246673 117.2522273  76.4751370  58.2275666
 116.6320770  76.9921300  58.9598443 117.3809097  75.4359231  58.5301819
 118.2268809  76.9598235  58.1707361 115.2895055  75.7672876  57.0710679
 114.6620138  75.8554274  56.1841716 115.5145955  74.7164631  57.2532862
 114.7620507  76.1797901  57.9311447 115.3888606  79.7114746  55.1686361
 114.1389911  79.8940841  55.0803933 116.3031677  80.6655377  55.0492875
 117.2726810  80.4653505  55.2494586 115.9217840  82.0760005  54.7289205
 115.2314100  82.4982248  55.4591325 117.1410924  83.0368532  54.5490567
 118.0151528  82.4104941  54.3707505 116.9923427  84.0479541  53.3997775
 116.1186965  84.6750209  53.5776261 117.8834520  84.6735204  53.3478961
 116.8693039  83.5129443  52.4581166 117.4831519  83.7333887  55.8460492
 117.8378949  82.9366069  56.4998051 118.3140626  84.3918064  55.5927252
 116.3845721  84.5459367  56.5729008 115.5534715  83.8880474  56.8269743
 116.7958150  84.9795788  57.4844561 116.0296375  85.3432459  55.9198929
 115.0010612  82.0797365  53.4591026 114.0747752  82.9150317  53.3754522
 115.2320455  81.2402959  52.4886204 116.0333717  80.6413391  52.6272799
 114.5777528  81.2170020  51.2106562 114.3499611  82.2303952  50.8801346
 115.5234615  80.5533533  50.1657206 116.5011276  81.0328715  50.2139963
 115.6269944  79.4939335  50.4002644 114.9432250  80.7108956  48.7443550
 114.0320571  80.1223144  48.6373687 114.7251610  81.7582907  48.5357554
 116.0701748  80.1678841  47.6887753 116.8902225  80.8824565  47.6180149
 116.4566542  79.2036030  48.0187675 115.3997946  80.0076859  46.2923907
 116.2278820  79.7499444  45.6321322 114.7483150  79.1420518  46.4121866
 114.6425163  81.1081711  45.7136265 115.2461183  81.9102526  45.6021385
 114.2812073  80.8308080  44.8121690 113.8748905  81.3468733  46.3250763
 113.2522933  80.6424935  51.3285671 112.2619466  81.3799001  51.0597032
 113.1445205  79.4005838  51.8701346 113.9953820  78.9298397  52.1431440
 111.8788085  78.6358140  51.9019066 111.4232932  78.8969516  50.9467040
 112.0578891  77.0595804  51.9644995 112.7819191  76.7923273  51.1947881
 112.5150307  76.5457760  53.2682090 111.7912292  76.8122580  54.0384036
 112.6095731  75.4610032  53.2189119 113.4828250  76.9835738  53.5127679
 110.7237513  76.3699755  51.8339381 110.2683120  76.6362849  50.8801265
 110.8662964  75.2902781  51.8790379 110.0706131  76.6840337  52.6481118
 110.9908304  79.1998115  52.9995945 109.7975073  79.3994047  52.7875653
 111.5536164  79.7612900  54.1520762 112.5179594  79.5472871  54.3626581
 110.7268674  80.3811656  55.2082595 109.8312529  79.7598984  55.2073287
 111.3022157  80.4046566  56.6204576 112.2001847  81.0204359  56.5697933
 110.3753965  80.9413801  57.7206939 109.4773520  80.3257857  57.7722750
 110.8926065  80.9096333  58.6796447 110.0973501  81.9702817  57.4923226
 111.5631122  78.9711705  57.0751032 112.2734050  78.4979941  56.3970985
 111.9747727  78.9787724  58.0843492 110.6277384  78.4115818  57.0689997
 110.0999812  81.7071339  54.8458660 109.0683690  82.0929414  55.3479445
 110.6939847  82.4312670  53.8895020 111.6904761  82.3174714  53.7705281
 110.0254179  83.4838637  53.1394750 109.5055892  84.1678432  53.8103321
 111.1339831  84.3074369  52.3268463 111.9815320  84.4608660  52.9948430
 111.4442667  83.6918381  51.4825346 110.6282215  85.6841396  51.8064533
 111.2884627  85.9860006  50.9933959 109.6199686  85.5367929  51.4193949
 110.6071434  86.8290784  52.9312088 111.7909267  87.2419323  53.2089007
 109.5792775  87.2947018  53.5001558 108.8746750  83.0775680  52.2771846
 107.7501899  83.5236113  52.5216854 109.0840477  82.1541880  51.3311183
 110.0602685  81.9788885  51.1404291 108.0802559  81.4554985  50.5198403
 107.6539050  82.1403093  49.7867931 108.7193577  80.2841891  49.7790541
 109.2299330  79.6431263  50.4976990 107.9402543  79.7137296  49.2734120
 109.7189100  80.7927925  48.7554440 110.4117169  81.5203330  49.1782965
 110.2527456  79.8679665  48.5367761 109.1391616  81.3322224  47.5096992
 107.9598156  81.7212347  47.4326961 109.7932017  81.5581176  46.5493925
 106.9241329  80.9989936  51.3498210 105.7767731  81.3383581  51.0257188
 107.1486818  80.2747180  52.4119864 108.0963129  79.9536367  52.5498329
 106.1313716  79.8493771  53.3611050 105.4275839  79.1282616  52.9454434
 106.9529024  79.1553155  54.4666381 107.4766194  78.3602956  53.9358245
 107.6797992  79.8428648  54.8990696 106.0835831  78.5358097  55.6035134
 105.3340542  79.2432854  55.9581757 105.4008893  77.3476698  54.9965010
 106.1498244  76.6394858  54.6420007 104.7727972  76.8665553  55.7462542
 104.7828313  77.6716299  54.1591513 107.0709903  78.2644263  56.7702435
 107.5304160  79.2018877  57.0836020 106.5308035  77.8267041  57.6097069
 107.8460440  77.5738653  56.4378039 105.2615666  81.0420306  53.8677705
 104.0488933  80.9512838  53.9318686 105.9040059  82.0927586  54.4291479
 106.9129544  82.0594528  54.3973186 105.2673626  83.1948326  55.1578338
 104.2870858  82.9376632  55.5591074 106.1312542  83.6983885  56.2838319
 105.6105134  84.5370284  56.7460141 106.4249251  82.6524425  57.3285516
 106.9461081  81.8136330  56.8671770 107.0514778  83.0838098  58.1092263
 105.4898700  82.3023891  57.7658562 107.3955104  84.3011749  55.8987141
 107.8663759  84.5870214  56.6849569 104.8307167  84.3907257  54.2749164
 104.0677797  85.2866707  54.7126956 105.0607499  84.3491451  52.9708498
 105.6442724  83.5632942  52.7217729 104.7947510  85.3985140  51.9273732
 104.3699982  86.2913124  52.3862797 106.1283080  85.7834465  51.2357817
 106.8675229  85.9457713  52.0201995 106.4325688  84.9370408  50.6200523
 106.0251716  87.0492861  50.3558511 105.3922460  86.8413731  49.4931355
 105.5899200  87.8617022  50.9377773 107.4270307  87.4572582  49.8758866
 107.3646043  88.4416238  49.4119618 108.0916076  87.5042346  50.7385744
 107.9888007  86.5099771  48.8986768 107.3213065  85.8449879  48.5348908
 109.1707631  86.5493113  48.3726961 110.1954138  87.2108292  48.8348821
 110.1011215  87.7562999  49.6796724 111.0783698  87.1745246  48.3458317
 109.4675794  85.7683358  47.3894864 108.7748564  85.1263290  47.0316285
 110.3912436  85.8026931  46.9823468 103.5797912  84.9814320  51.0602000
 103.7307175  84.4968339  49.9270386 102.4408765  85.0793494  51.7060262
 102.5832049  85.2640183  52.6887466 101.1399944  84.9128572  51.2490141
 101.0377962  84.0100481  50.6468593 100.0203081  84.9369824  52.3497292
 100.0020013  85.9393155  52.7776235  98.6692307  84.5972888  51.8242284
  98.6866328  83.5948435  51.3965589  97.9433887  84.6325986  52.6366367
  98.3871897  85.3153921  51.0542415 100.3984005  84.0535322  53.5808144
 101.2928503  84.5186748  53.9951848  99.5696727  84.1756368  54.2782384
 100.6577571  82.5631780  53.3535358 101.4867146  82.4402659  52.6565265
 100.9080842  82.0885870  54.3023239  99.7635371  82.0972282  52.9395778
 100.8525850  86.0123186  50.1991076 100.3656560  85.6252445  49.1149329
 101.0479806  87.3163112  50.4786820 101.3154254  87.5295335  51.4290024
 100.7772369  88.4610611  49.5396322  99.9858977  88.1668915  48.8501790
 100.3377003  89.7488331  50.2763925 101.1426049  90.3331433  50.7222730
  99.8006129  90.3632634  49.5538189  99.3801928  89.4426115  51.3682143
  98.2215723  88.6388042  51.2304090  97.6186781  88.5427188  52.4363547
  96.7346359  87.9271178  52.6024985  98.3418893  89.3426339  53.3005089
  98.1336733  89.4682936  54.2807923  99.3831047  89.9406897  52.6331830
 100.0158244  90.6643676  53.1470480 101.9672851  88.7154184  48.6293369
 103.0690571  88.9941789  49.2049870 101.8254770  88.6458825  47.4260401
  92.6733998  57.1440651  72.2823636 109.9718139  91.8143118  58.6104935
  73.8578985 123.9129493  79.6384521  79.9416831  32.2330753  83.5588586
  59.0791565  96.8686164  81.8046526  74.0462444  77.7221098 100.4755514
  96.6080195  55.0172408  53.4486891  74.5014972 106.2595774  46.3318328
 103.5127752 118.4608321  72.2823633  51.3175670  78.0146622  46.4067337
 113.8709987  68.0229110  45.0730730  77.4470373 129.5500688 100.2311892
  92.9368927 116.7674467  57.4019968  55.2877744 103.1340885  51.9690979
  88.7691221  92.4601918  28.3302032  97.2097641  70.7034664  39.8195954
  50.5198701  86.6911266  76.0646093  89.3494351 121.3258670 107.9357046
  96.0328729  58.3423007  65.7774338  83.9168312  79.8631819 109.0353648
  82.5570469  37.6332167  80.8457598  60.8782962  52.9624083  54.2948205
  78.7827464  62.2949788 150.4142043  77.8754526  62.0639041 150.6133192
  79.2798496  61.4987407 150.6016025  80.1313951  60.0255343 150.8569699
  81.0773056  59.8961551 150.9258117  79.7528196  59.2870005 151.3339127
  81.1109681  43.7121803 141.3347978  80.4597660  44.2975884 140.9481992
  81.9054044  44.2427998 141.3943016  87.3776405  40.2046739 142.5952815
  86.6005847  39.8657899 142.1507977  88.0567886  40.2099362 141.9207780
  78.7827466  39.3011910 137.1387350  77.8754527  39.0701164 137.3378499
  79.2798498  38.5049529 137.3261331  81.6895545  48.0109417 140.0584036
  81.0157243  48.3141114 140.6668994  82.0761367  48.8138498 139.7089493
  79.6591787  40.9433249 138.9999419  79.2211217  40.2269108 138.5405056
  80.4002228  41.1709364 138.4384510  79.8886760  48.1789090 142.2731115
  80.0638515  47.7077133 143.0876738  79.2019548  48.8054856 142.5012376
  83.7803015  39.8017630 138.5931476  83.1632185  39.0764459 138.4964529
  83.3119503  40.5626991 138.2498550  84.6040700  43.1256802 142.7124116
  84.8800544  43.0113397 143.6217990  83.7345199  42.7274287 142.6736289
  81.5736929  46.3011338 143.6171978  82.1024696  45.7903793 143.0042140
  81.8365149  45.9853868 144.4817511  84.6677113  46.2728136 144.2326961
  84.8413990  45.7074559 143.4800813  85.1606004  47.0729031 144.0506451
  85.6552285  45.5894901 141.3323859  86.3503190  46.2101594 141.5511174
  85.9975435  44.7390252 141.6076237  87.5543708  43.0394606 142.8611190
  88.0795033  43.3781879 142.1360510  87.4666061  42.1041622 142.6774325
  79.7467154  45.6956653 140.2398953  79.1741121  46.3146840 139.7869425
  80.3199947  46.2456014 140.7738875  82.9664414  45.9793803 141.3707535
  83.8995087  45.9139364 141.5740411  82.8787626  46.8150070 140.9122068
  85.5952430  45.2959673 138.3311483  85.5166062  44.9619537 139.2247241
  86.4162097  45.7881441 138.3302955  80.1313952  37.0317465 137.5815005
  81.0773057  36.9023673 137.6503423  79.7528197  36.2932127 138.0584434
  83.1656382  42.6127668 137.9521461  83.8692232  42.8177671 138.5679117
  82.4419031  43.1804430 138.2170545  85.0743079  43.0510198 140.0019921
  85.9088683  42.6191396 139.8197396  84.9127422  42.8792211 140.9296816
  84.7288972  39.5542311 141.3676260  84.6737775  39.3886582 140.4264704
  84.1035027  40.2618344 141.5238450  93.7027355  53.5679849 150.0975098
  94.3405764  53.4486596 149.3938438  93.5848197  54.5160693 150.1563050
  90.5117061  53.5207277 150.0336623  90.1735572  53.4048342 149.1457157
  91.3806829  53.1198442 150.0137629  86.3703876  55.3742753 146.0233513
  85.8068742  55.2832690 145.2549801  86.2556272  54.5542658 146.5036006
  83.9168308  56.8693945 148.8617734  84.7089600  56.5284770 148.4464033
  84.1564959  56.9788920 149.7819887  91.9503435  59.0413721 141.3347978
  91.2991415  59.6267801 140.9481992  92.7447798  59.5719916 141.3943016
  85.8759062  56.1302858 141.7335113  86.6489938  55.5831845 141.5947989
  86.2284461  56.9947107 141.9449574  88.6400312  54.8356089 151.5303372
  89.2363884  54.6112111 150.8160335  88.6975283  54.0940834 152.1328820
  88.2125340  52.2895524 139.3653563  88.4650861  51.7677046 138.6037026
  87.2749899  52.1261670 139.4680246  93.2568623  51.2931303 147.1728306
  94.0431712  50.8750726 146.8218723  93.5207327  52.1977395 147.3409954
  93.4278700  56.7304153 141.8716963  92.7924533  56.8038779 142.5837867
  93.0976107  57.3197752 141.1936042  87.9321629  54.1923630 141.5677938
  87.8157887  53.5168534 142.2359022  88.0423889  53.7056004 140.7510091
  90.2753170  53.6533777 145.2724627  89.9111377  53.1264398 145.9837548
  91.1320286  53.2632246 145.0991112  89.9158657  48.6823677 140.2685975
  90.0833059  49.5503913 140.6356446  89.7255826  48.8450959 139.3447265
  86.1246471  53.5954453 147.9688510  85.1996968  53.4630667 148.1766202
  86.3730885  54.3748672 148.4658453  89.8947878  51.1381335 141.2532642
  89.7747503  51.5838385 142.0918122  89.2000466  51.4866652 140.6946180
  83.4855283  53.2387726 148.8032299  83.6147664  53.4922205 149.7171711
  82.8052734  53.8315434 148.4836954  87.6554770  63.9084976 144.9022773
  87.5778800  64.8592801 144.9811254  87.0516413  63.5630849 145.5597700
  95.5932944  51.6102808 142.0812976  96.5050800  51.8430194 141.9060674
  95.0842591  52.1939852 141.5188055  89.7530488  56.3303034 146.7376643
  90.2168834  56.6090737 145.9481265  89.4887286  55.4286479 146.5549733
  86.6454569  55.8774516 149.6756406  87.2155926  56.3061784 149.0373891
  87.2362681  55.5957100 150.3740592  88.6899374  52.4526187 143.5466208
  89.3923417  52.9047230 144.0140134  88.3580003  51.8110005 144.1746101
  84.3839453  51.0754319 145.8066818  83.5870617  51.1873013 146.3250314
  84.1565046  51.4140971 144.9407709  89.9293139  59.2667129 143.6228313
  89.7938814  60.1118665 144.0513161  90.4702951  59.4686407 142.8594247
  83.3822536  56.7842567 144.1956238  83.8947057  57.5785818 144.3461803
  84.0345249  56.0868858 144.1289840  85.1917421  59.9008324 146.2778991
  85.3684049  60.8226288 146.0899975  85.9874254  59.5866743 146.7073371
  81.3471453  55.1131222 144.9715809  82.1846675  55.5228230 144.7549516
  81.5249721  54.1730664 144.9416003  93.2435885  52.7806302 140.6599642
  92.7282508  53.5510907 140.8988029  92.9713193  52.1071438 141.2832703
  90.8282996  47.6256003 145.7184880  89.9724592  47.2362853 145.5390519
  91.2409948  47.7047964 144.8584666  98.2170159  55.5338657 142.5952815
  97.4399602  55.1949816 142.1507977  98.8961640  55.5391280 141.9207780
  93.0322188  50.6533394 142.4859423  92.7272324  50.9679543 143.3369566
  93.9852630  50.7314814 142.5286756  91.4768620  56.8123618 144.1352377
  90.9489982  56.0776377 143.8225614  90.9756123  57.5898294 143.8892345
  86.2087348  47.4743284 146.4958988  86.7831100  47.2518465 145.7632181
  86.7958330  47.5431978 147.2487590  95.2666925  53.3617011 147.3023365
  95.7798807  53.9947003 147.8045075  95.9168149  52.7618206 146.9366725
  86.5356935  49.5047745 140.5154874  85.6994247  49.8422431 140.8364148
  86.3961704  49.3696725 139.5782011  88.5110015  44.3484533 145.2234058
  87.8574428  44.0333550 144.5990673  88.4690489  43.7260273 145.9493881
  89.6221220  54.6303828 137.1387350  88.7148282  54.3993081 137.3378499
  90.1192252  53.8341447 137.3261331  92.5289299  63.3401335 140.0584036
  91.8550998  63.6433032 140.6668994  92.9155121  64.1430415 139.7089493
  91.7447756  50.8366466 149.5481705  90.8270317  51.0581413 149.3903394
  92.1607899  50.9112777 148.6893413  92.5282803  52.2357882 144.6784386
  93.2754622  52.7479279 144.3691508  92.7974393  51.9141935 145.5388779
  90.8009454  54.7316423 141.6611340  89.8920673  54.4475456 141.7583810
  90.8304537  55.1515501 140.8014647  96.0328721  58.3423012 145.4302508
  95.5791048  57.5013922 145.4867698  95.4022688  58.9784411 145.7677288
  94.9761641  49.2714998 146.6603175  94.2384397  48.7592384 146.9913418
  95.2288414  48.8315380 145.8486452  94.4761660  60.1799509 146.3652326
  94.7684635  60.7404566 145.6464691  94.9860281  60.4728070 147.1205485
  81.3697624  52.4521937 145.6426542  81.1722024  51.8591298 144.9177609
  80.8144288  52.1474147 146.3602481  89.3494348  52.3445043 147.7621135
  89.4042957  51.3918880 147.6863612  88.5385550  52.5004482 148.2462434
  90.4985541  56.2725166 138.9999419  90.0604971  55.5561025 138.5405056
  91.2395982  56.5001281 138.4384510  87.2886708  50.9622103 145.5211514
  86.4754573  51.2616274 145.9276706  87.7845702  50.5677792 146.2385996
  89.4395286  60.9579860 147.4545779  89.3971464  61.1840706 146.5254311
  90.3557984  60.7243235 147.6031580  98.6158656  54.5482363 145.0575737
  98.4776555  54.7383959 144.1296926  98.2594875  55.3101746 145.5143788
  87.5561086  57.8342889 147.2507742  88.3501685  57.3393209 147.0490317
  86.8452779  57.3060752 146.8875447  83.8643850  51.9785971 143.3267494
  82.9341438  51.9170426 143.5437456  83.9601322  51.4561924 142.5304136
  83.7829399  48.5040784 145.9145736  84.0436216  49.4186117 145.8054896
  84.6046571  48.0365226 146.0642349  90.7280514  63.5081007 142.2731115
  90.9032270  63.0369051 143.0876738  90.0413302  64.1346774 142.5012376
  91.6837577  57.7853514 148.3194416  91.3487410  57.7454284 149.2152066
  91.1841523  57.1198230 147.8464827  94.6196769  55.1309548 138.5931476
  94.0025940  54.4056376 138.4964529  94.1513258  55.8918908 138.2498550
  86.4095315  49.3494972 137.7152780  85.5324781  49.2283773 137.3515027
  86.8853068  48.5581051 137.4631669  77.9297455  54.1372132 147.8094288
  78.6168495  53.8233862 147.2215303  77.7745584  55.0413497 147.5361539
  89.5959241  61.7021263 144.9615301  88.8126763  62.2442943 145.0553525
  90.2951986  62.2195242 145.3609542  92.9055891  47.5115892 147.6049506
  93.4024591  46.7585855 147.2850577  92.1342873  47.5480209 147.0392716
  93.9885672  56.2687579 145.1787930  93.0541951  56.3889042 145.0092634
  94.1662340  55.3660046 144.9147940  89.4890860  49.6533275 147.3321191
  89.1188647  49.1004316 148.0202096  89.9849952  49.0491409 146.7796191
  97.3758223  52.1104899 145.7137964  97.8418675  52.9432890 145.6398267
  97.8265724  51.6449880 146.4183222  95.4434454  58.4548720 142.7124116
  95.7194298  58.3405315 143.6217990  94.5738953  58.0566205 142.6736289
  92.0788518  62.7035071 146.3556930  92.2610913  61.8856727 146.8184682
  92.9021504  62.9202763 145.9181820  92.4130684  61.6303256 143.6171978
  92.9418450  61.1195711 143.0042140  92.6758903  61.3145786 144.4817511
  82.9147777  59.6467125 151.3607312  83.5001213  58.9010813 151.4935216
  82.7172615  59.9571082 152.2443975  85.7686432  62.6818373 146.3769754
  85.0996807  63.1664500 145.8933794  85.6299301  62.9287593 147.2913132
  81.1374009  50.9436828 143.1565686  81.4327450  50.0347506 143.1032740
  80.2362045  50.9224567 142.8346688  82.8661850  48.6250925 143.2805011
  82.5374557  47.7448304 143.0980117  83.2201221  48.5698594 144.1681400
  92.1141429  60.2605828 147.7899997  91.9666392  59.3322535 147.9707567
  92.9394923  60.2825919 147.3057072  85.9803674  48.9123895 143.6480489
  86.3199746  49.4409816 142.9259097  86.4275794  49.2504301 144.4239055
  87.9671821  47.4098517 141.8473782  88.6880183  47.7879769 141.3437499
  87.3437125  48.1287393 141.9508760  92.1102944  48.1143666 142.7832114
  92.3266558  48.9968304 142.4820942  91.6297011  47.7229879 142.0537756
  95.5070867  61.6020054 144.2326961  95.6807745  61.0366477 143.4800813
  95.9999759  62.4020949 144.0506451  88.1135444  46.9446307 144.6771318
  88.2351355  46.0162953 144.8762206  87.8237486  46.9584993 143.7649634
 101.3610259  54.3656477 145.8517261 101.8041405  53.6163802 145.4536384
 100.4836769  54.3566613 145.4690993  96.4946040  60.9186819 141.3323859
  97.1896944  61.5393511 141.5511174  96.8369190  60.0682170 141.6076237
  98.3937463  58.3686524 142.8611190  98.9188787  58.7073797 142.1360510
  98.3059815  57.4333539 142.6774325  82.5570463  60.6270048 147.2231071
  83.3828483  60.3273820 146.8429715  82.2064515  59.8577671 147.6720860
  87.5251996  59.9796516 149.2928745  86.9032005  59.3167221 148.9930973
  88.1956863  60.0057648 148.6102393  80.7579068  58.5456375 148.1820005
  79.9210976  58.1178549 148.0004006  80.7302713  58.7388818 149.1190796
  87.0865503  58.5300440 142.7687205  87.2353623  59.2135904 142.1153878
  87.8931946  58.5105530 143.2836661  84.8418136  54.5565617 143.7748274
  84.5964178  53.6527947 143.9728484  85.0114050  54.5582768 142.8327752
  84.1113783  50.2893975 141.2734436  83.4183028  50.3638330 140.6174472
  83.8665535  49.5254319 141.7955953  90.5860908  61.0248570 140.2398953
  90.0134875  61.6438757 139.7869425  91.1593702  61.5747932 140.7738875
  93.8058168  61.3085720 141.3707535  94.7388841  61.2431282 141.5740411
  93.7181381  62.1441987 140.9122068  96.4346185  60.6251591 138.3311483
  96.3559816  60.2911454 139.2247241  97.2555852  61.1173359 138.3302955
  90.9707707  52.3609383 137.5815005  91.9166811  52.2315591 137.6503423
  90.5921952  51.6224045 138.0584434  89.1550624  50.2859359 137.5169891
  88.2482079  49.9892472 137.5932604  89.4326605  49.9889177 136.6504177
  90.7712690  44.8296249 143.6714132  89.9613418  44.4843334 144.0469378
  91.4597107  44.5203793 144.2601743  92.7003238  43.9074296 145.2938429
  93.2534277  44.3269749 145.9528452  92.9373324  42.9810044 145.3361385
  87.9249409  47.1446295 137.6581870  88.7868573  47.4701193 137.9177687
  88.1099753  46.3577791 137.1454936  96.0782045  46.0174821 144.8017093
  95.4980714  46.6759625 144.4195145  95.8117978  45.1952166 144.3904510
  81.8553567  55.1586888 147.8128073  81.8324255  55.2574575 146.8609957
  82.1654203  56.0052039 148.1345240  94.8606923  48.1774911 143.8573441
  93.9732778  48.4624562 143.6393636  95.2760912  48.0168675 143.0100718
  82.8691174  62.7582663 148.9444886  82.7345641  61.9983063 148.3782884
  82.4523236  63.4823562 148.4773675  94.0050137  57.9419586 137.9521461
  94.7085987  58.1469589 138.5679117  93.2812785  58.5096348 138.2170545
  94.8347947  53.6929447 144.0723731  94.7783148  54.1497999 143.2331364
  95.3876289  52.9320132 143.8946574  95.9136834  58.3802115 140.0019921
  96.7482438  57.9483314 139.8197396  95.7521177  58.2084129 140.9296816
  95.5682726  54.8834229 141.3676260  95.5131530  54.7178500 140.4264704
  94.9428781  55.5910262 141.5238450  88.8778852  44.3842338 140.9461579
  88.8657521  45.3284178 141.1029850  89.7702273  44.2012483 140.6521040
  99.0519095  67.6187442 139.3653563  99.3044615  67.0968963 138.6037026
  98.1143654  67.4553587 139.4680246 100.7552411  64.0115595 140.2685975
 100.9226814  64.8795831 140.6356446 100.5649580  64.1742876 139.3447265
  97.3750689  64.8339663 140.5154874  96.5388002  65.1714349 140.8364148
  97.2355459  64.6988642 139.5782011  99.3503770  59.6776450 145.2234058
  98.6968182  59.3625468 144.5990673  99.3084244  59.0552191 145.9493881
 100.4614975  69.9595746 137.1387350  99.5542036  69.7284999 137.3378499
 100.9586007  69.1633365 137.3261331  94.7037604  67.3077888 143.3267494
  93.7735192  67.2462344 143.5437456  94.7995076  66.7853841 142.5304136
  97.2489069  64.6786890 137.7152780  96.3718536  64.5575691 137.3515027
  97.7246823  63.8872968 137.4631669  91.9767763  66.2728745 143.1565686
  92.2721204  65.3639424 143.1032740  91.0755799  66.2516485 142.8346688
  93.7055605  63.9542843 143.2805011  93.3768311  63.0740222 143.0980117
  94.0594976  63.8990512 144.1681400  98.8065575  62.7390434 141.8473782
  99.5273938  63.1171687 141.3437499  98.1830879  63.4579311 141.9508760
  98.9529198  62.2738225 144.6771318  99.0745109  61.3454871 144.8762206
  98.6631241  62.2876911 143.7649634  94.9507538  65.6185893 141.2734436
  94.2576783  65.6930248 140.6174472  94.7059290  64.8546236 141.7955953
 101.8101461  67.6901301 137.5815005 102.7560566  67.5607509 137.6503423
 101.4315706  66.9515963 138.0584434  99.9944378  65.6151277 137.5169891
  99.0875834  65.3184390 137.5932604 100.2720359  65.3181095 136.6504177
 101.6106444  60.1588167 143.6714132 100.8007172  59.8135252 144.0469378
 102.2990861  59.8495711 144.2601743  98.7643163  62.4738212 137.6581870
  99.6262327  62.7993111 137.9177687  98.9493507  61.6869708 137.1454936
  99.7172606  59.7134255 140.9461579  99.7051276  60.6576095 141.1029850
 100.6096028  59.5304401 140.6521040  81.1109682  20.7183926 128.0593285
  80.4597662  21.3038006 127.6727299  81.9054045  21.2490121 128.1188322
  87.3776406  17.2108862 129.3198122  86.6005849  16.8720021 128.8753284
  88.0567887  17.2161485 128.6453087  78.7827467  16.3074033 123.8632657
  77.8754529  16.0763286 124.0623806  79.2798499  15.5111652 124.0506638
  81.6895546  25.0171540 126.7829343  81.0157245  25.3203237 127.3914301
  82.0761368  25.8200620 126.4334800  79.6591788  17.9495371 125.7244725
  79.2211218  17.2331230 125.2650363  80.4002229  18.1771486 125.1629817
  79.8886761  25.1851212 128.9976422  80.0638517  24.7139256 129.8122045
  79.2019549  25.8116979 129.2257683  83.7803016  16.8079753 125.3176783
  83.1632186  16.0826581 125.2209835  83.3119504  17.5689113 124.9743857
  84.6040701  20.1318925 129.4369423  84.8800545  20.0175519 130.3463297
  83.7345200  19.7336410 129.3981596  81.5736931  23.3073461 130.3417285
  82.1024697  22.7965915 129.7287447  81.8365150  22.9915991 131.2062818
  84.6677114  23.2790259 130.9572268  84.8413992  22.7136682 130.2046120
  85.1606005  24.0791154 130.7751758  85.6552287  22.5957023 128.0569166
  86.3503191  23.2163716 128.2756481  85.9975437  21.7452375 128.3321544
  87.5543710  20.0456729 129.5856497  88.0795034  20.3844002 128.8605817
  87.4666062  19.1103744 129.4019631  79.7467155  22.7018775 126.9644259
  79.1741122  23.3208962 126.5114731  80.3199949  23.2518137 127.4984181
  82.9664415  22.9855925 128.0952842  83.8995088  22.9201487 128.2985717
  82.8787628  23.8212192 127.6367374  85.5952431  22.3021796 125.0556789
  85.5166063  21.9681659 125.9492547  86.4162098  22.7943564 125.0548262
  80.1313954  14.0379588 124.3060312  81.0773058  13.9085796 124.3748730
  79.7528198  13.2994250 124.7829740  83.1656383  19.6189791 124.6766768
  83.8692233  19.8239794 125.2924423  82.4419032  20.1866553 124.9415851
  85.0743081  20.0572320 126.7265228  85.9088685  19.6253519 126.5442703
  84.9127424  19.8854334 127.6542122  84.7288973  16.5604434 128.0921567
  84.6737777  16.3948705 127.1510011  84.1035028  17.2680466 128.2483757
  93.7027356  30.5741971 136.8220404  94.3405766  30.4548719 136.1183745
  93.5848199  31.5222815 136.8808357  90.5117062  30.5269399 136.7581929
  90.1735574  30.4110464 135.8702464  91.3806830  30.1260565 136.7382935
  86.3703878  32.3804876 132.7478820  85.8068743  32.2894813 131.9795108
  86.2556273  31.5604780 133.2281313  83.9168310  33.8756067 135.5863041
  84.7089602  33.5346892 135.1709340  84.1564960  33.9851043 136.5065194
  91.9503436  36.0475844 128.0593285  91.2991416  36.6329924 127.6727299
  92.7447799  36.5782038 128.1188322  85.8759064  33.1364981 128.4580419
  86.6489940  32.5893968 128.3193295  86.2284462  34.0009230 128.6694881
  88.6400313  31.8418212 138.2548678  89.2363885  31.6174234 137.5405641
  88.6975285  31.1002957 138.8574126  88.2125341  29.2957647 126.0898869
  88.4650862  28.7739168 125.3282332  87.2749901  29.1323792 126.1925553
  93.2568624  28.2993425 133.8973612  94.0431713  27.8812848 133.5464030
  93.5207329  29.2039517 134.0655261  93.4278702  33.7366276 128.5962269
  92.7924535  33.8100902 129.3083174  93.0976108  34.3259874 127.9181349
  87.9321630  31.1985753 128.2923244  87.8157888  30.5230656 128.9604329
  88.0423890  30.7118127 127.4755397  90.2753171  30.6595900 131.9969933
  89.9111378  30.1326521 132.7082855  91.1320287  30.2694369 131.8236419
  89.9158658  25.6885800 126.9931282  90.0833060  26.5566036 127.3601753
  89.7255827  25.8513081 126.0692571  92.6733991  34.1502779 138.6597112
  92.3734714  35.0527817 138.5512920  92.3285051  33.8834962 139.5118265
  86.1246473  30.6016575 134.6933817  85.1996969  30.4692789 134.9011509
  86.3730886  31.3810795 135.1903759  89.8947879  28.1443457 127.9777949
  89.7747504  28.5900508 128.8163429  89.2000467  28.4928775 127.4191487
  83.4855284  30.2449849 135.5277606  83.6147665  30.4984328 136.4417018
  82.8052735  30.8377557 135.2082261  87.6554771  40.9147099 131.6268080
  87.5778801  41.8654924 131.7056561  87.0516415  40.5692971 132.2843006
  95.5932945  28.6164930 128.8058283  96.5050801  28.8492317 128.6305980
  95.0842592  29.2001974 128.2433361  94.2002527  33.5990749 136.1971864
  93.5711390  33.7636463 135.4947932  93.8128190  34.0132358 136.9682828
  98.0791759  34.5345187 133.5516228  97.3942797  34.9144088 133.0013261
  98.1635609  35.1440513 134.2848176  89.7530489  33.3365157 133.4621949
  90.2168835  33.6152860 132.6726572  89.4887287  32.4348601 133.2795040
  86.6454570  32.8836638 136.4001713  87.2155927  33.3123907 135.7619197
  87.2362682  32.6019223 137.0985898  88.6899375  29.4588309 130.2711515
  89.3923419  29.9109353 130.7385441  88.3580004  28.8172128 130.8991408
  84.3839455  28.0816441 132.5312125  83.5870618  28.1935135 133.0495620
  84.1565047  28.4203093 131.6653015  90.2145122  34.6061144 140.4794639
  90.2789555  35.0681552 141.3152811  89.5056046  33.9758509 140.6076949
  89.9293140  36.2729252 130.3473620  89.7938815  37.1180788 130.7758468
  90.4702952  36.4748529 129.5839554  83.3822537  33.7904690 130.9201545
  83.8947058  34.5847940 131.0707110  84.0345250  33.0930980 130.8535146
  85.1917422  36.9070446 133.0024298  85.3684050  37.8288411 132.8145282
  85.9874256  36.5928865 133.4318678  86.3148738  38.4248620 139.0034640
  86.8656163  38.2965683 138.2311634  85.4760213  38.7243509 138.6529533
  81.3471454  32.1193344 131.6961115  82.1846676  32.5290353 131.4794823
  81.5249722  31.1792786 131.6661309  93.2435886  29.7868425 127.3844948
  92.7282510  30.5573029 127.6233336  92.9713195  29.1133561 128.0078010
  90.8282997  24.6318126 132.4430187  89.9724594  24.2424976 132.2635825
  91.2409949  24.7110086 131.5829972  98.2170160  32.5400779 129.3198122
  97.4399603  32.2011939 128.8753284  98.8961641  32.5453403 128.6453087
  93.0322189  27.6595517 129.2104730  92.7272325  27.9741666 130.0614873
  93.9852632  27.7376937 129.2532063  91.4768621  33.8185740 130.8597683
  90.9489983  33.0838500 130.5470921  90.9756124  34.5960417 130.6137652
  96.4561467  32.0134761 135.9764730  95.7985142  32.7034022 136.0644858
  97.2601867  32.4031193 136.3198716  86.2087349  24.4805407 133.2204295
  86.7831101  24.2580588 132.4877488  86.7958331  24.5494101 133.9732896
  95.2666926  30.3679133 134.0268672  95.7798808  31.0009125 134.5290381
  95.9168150  29.7680329 133.6612032  86.5356936  26.5109868 127.2400180
  85.6994248  26.8484554 127.5609455  86.3961706  26.3758847 126.3027317
  88.5110017  21.3546655 131.9479364  87.8574429  21.0395673 131.3235979
  88.4690491  20.7322396 132.6739187  89.6221221  31.6365950 123.8632657
  88.7148283  31.4055204 124.0623806  90.1192253  30.8403570 124.0506638
  92.5289300  40.3463458 126.7829343  91.8550999  40.6495154 127.3914301
  92.9155122  41.1492538 126.4334800  91.7447757  27.8428589 136.2727012
  90.8270318  28.0643536 136.1148700  92.1607901  27.9174899 135.4138719
  92.5282805  29.2420005 131.4029692  93.2754624  29.7541402 131.0936814
  92.7974394  28.9204057 132.2634086  90.8009455  31.7378545 128.3856647
  89.8920674  31.4537578 128.4829116  90.8304539  32.1577624 127.5259953
  96.0328722  35.3485135 132.1547814  95.5791049  34.5076045 132.2113005
  95.4022689  35.9846533 132.4922594  94.9761642  26.2777121 133.3848482
  94.2384399  25.7654507 133.7158724  95.2288415  25.8377502 132.5731759
  94.4761662  37.1861632 133.0897632  94.7684636  37.7466689 132.3709998
  94.9860282  37.4790193 133.8450791  81.3697625  29.4584059 132.3671849
  81.1722025  28.8653420 131.6422915  80.8144289  29.1536270 133.0847788
  89.3494349  29.3507166 134.4866442  89.4042959  28.3981002 134.4108919
  88.5385551  29.5066605 134.9707740  90.4985543  33.2787289 125.7244725
  90.0604973  32.5623148 125.2650363  91.2395984  33.5063404 125.1629817
  87.2886709  27.9684226 132.2456821  86.4754574  28.2678396 132.6522013
  87.7845703  27.5739914 132.9631303  89.4395287  37.9641983 134.1791086
  89.3971466  38.1902829 133.2499618  90.3557986  37.7305357 134.3276887
  98.6158657  31.5544486 131.7821044  98.4776556  31.7446082 130.8542233
  98.2594876  32.3163869 132.2389095  87.5561088  34.8405012 133.9753048
  88.3501686  34.3455332 133.7735623  86.8452780  34.3122875 133.6120754
  92.3755932  37.2223107 138.3265416  92.4292954  37.7914043 139.0943132
  91.5070713  37.3924992 137.9619453  83.8643851  28.9848093 130.0512801
  82.9341439  28.9232549 130.2682763  83.9601323  28.4624046 129.2549442
  83.7829400  25.5102906 132.6391043  84.0436217  26.4248239 132.5300203
  84.6046572  25.0427349 132.7887655  91.3344032  31.3883369 139.8852348
  92.2636092  31.5394529 139.7121315  90.9135062  31.4767390 139.0300994
  90.1332364  35.4134034 137.6550885  89.9943449  35.0452818 138.5276823
  89.3446960  35.9281673 137.4834843  90.7280516  40.5143130 128.9976422
  90.9032271  40.0431173 129.8122045  90.0413304  41.1408896 129.2257683
  91.6837579  34.7915636 135.0439723  91.3487411  34.7516406 135.9397373
  91.1841524  34.1260352 134.5710133  94.6196770  32.1371671 125.3176783
  94.0025941  31.4118499 125.2209835  94.1513259  32.8981031 124.9743857
  85.2941601  43.6632493 135.7716282  85.5338199  44.2951017 136.4495301
  84.4510797  43.3120533 136.0581641  86.4095316  26.3557095 124.4398087
  85.5324783  26.2345896 124.0760334  86.8853069  25.5643173 124.1876976
  77.9297456  31.1434255 134.5339594  78.6168496  30.8295985 133.9460610
  77.7745585  32.0475619 134.2606846  89.8069463  39.4711615 138.1757786
  89.7339634  40.2766587 138.6877091  89.3646856  39.6703581 137.3505807
  89.5959242  38.7083385 131.6860608  88.8126764  39.2505066 131.7798832
  90.2951987  39.2257365 132.0854849  92.9055892  24.5178015 134.3294813
  93.4024592  23.7647977 134.0095883  92.1342874  24.5542331 133.7638022
  92.2668146  39.3698449 140.3315945  92.9796118  40.0045914 140.2591846
  91.7758175  39.4662315 139.5155947  93.9885673  33.2749702 131.9033236
  93.0541952  33.3951164 131.7337941  94.1662342  32.3722169 131.6393246
  89.4890861  26.6595398 134.0566498  89.1188649  26.1066438 134.7447403
  89.9849954  26.0553531 133.5041498  97.3758224  29.1167021 132.4383270
  97.8418677  29.9495013 132.3643573  97.8265725  28.6512003 133.1428529
  87.3180060  37.1192893 141.1521516  88.0189519  37.7529376 141.3050910
  86.8475175  37.4607624 140.3917155  95.4434456  35.4610843 129.4369423
  95.7194299  35.3467437 130.3463297  94.5738954  35.0628327 129.3981596
  92.0788520  39.7097193 133.0802236  92.2610914  38.8918849 133.5429988
  92.9021506  39.9264886 132.6427126  92.4130685  38.6365379 130.3417285
  92.9418451  38.1257833 129.7287447  92.6758905  38.3207909 131.2062818
  82.9147778  36.6529248 138.0852618  83.5001215  35.9072936 138.2180522
  82.7172616  36.9633205 138.9689282  85.7686433  39.6880495 133.1015061
  85.0996808  40.1726623 132.6179101  85.6299303  39.9349716 134.0158439
  89.9091702  41.7224239 139.6997719  90.4610010  41.8855860 140.4646804
  90.2497895  42.3128677 139.0277744  81.1374010  27.9498950 129.8810993
  81.4327451  27.0409629 129.8278046  80.2362046  27.9286690 129.5591995
  93.0460089  39.6706214 136.6861401  92.9211228  38.8695954 136.1772347
  93.7039180  40.1652408 136.1975371  95.1094997  37.4715234 138.3140951
  94.1625333  37.3520586 138.2419278  95.4577770  36.5837732 138.3967213
  82.8661852  25.6313048 130.0050318  82.5374558  24.7510427 129.8225424
  83.2201222  25.5760717 130.8926707  92.1141431  37.2667951 134.5145303
  91.9666393  36.3384658 134.6952873  92.9394924  37.2888041 134.0302379
  85.9803675  25.9186018 130.3725796  86.3199747  26.4471939 129.6504404
  86.4275795  26.2566424 131.1484362  95.7175552  38.0896509 135.6010176
  96.6422100  37.8839371 135.4634627  95.5490856  37.8412910 136.5099518
  87.9671822  24.4160639 128.5719088  88.6880184  24.7941892 128.0682805
  87.3437126  25.1349516 128.6754066  92.1102945  25.1205788 129.5077421
  92.3266559  26.0030426 129.2066249  91.6297012  24.7292002 128.7783063
  95.5070869  38.6082177 130.9572268  95.6807746  38.0428599 130.2046120
  95.9999760  39.4083072 130.7751758  88.1135445  23.9508430 131.4016625
  88.2351356  23.0225076 131.6007512  87.8237487  23.9647116 130.4894940
 101.3610260  31.3718600 132.5762567 101.8041406  30.6225925 132.1781691
 100.4836770  31.3628736 132.1936299  96.4946041  37.9248941 128.0569166
  97.1896946  38.5455634 128.2756481  96.8369191  37.0744292 128.3321544
  98.3937464  35.3748647 129.5856497  98.9188788  35.7135919 128.8605817
  98.3059817  34.4395662 129.4019631  90.0557513  39.2882720 141.7146373
  90.3644639  39.0431867 142.5869073  90.8532995  39.4929359 141.2265244
  90.0778125  41.4420630 133.9451750  89.6383115  40.9497009 134.6384607
  90.8286242  40.8993598 133.7043825  82.5570464  37.6332171 133.9476378
  83.3828484  37.3335943 133.5675021  82.2064516  36.8639793 134.3966167
  87.5251997  36.9858639 136.0174052  86.9032006  36.3229344 135.7176279
  88.1956864  37.0119771 135.3347699  80.7579069  35.5518497 134.9065312
  79.9210977  35.1240672 134.7249313  80.7302714  35.7450941 135.8436103
  87.0865504  35.5362562 129.4932512  87.2353624  36.2198027 128.8399185
  87.8931947  35.5167652 130.0081968  84.8418137  31.5627740 130.4993581
  84.5964179  30.6590070 130.6973791  85.0114052  31.5644890 129.5573059
  84.1113785  27.2956098 127.9979742  83.4183029  27.3700453 127.3419778
  83.8665536  26.5316441 128.5201259  90.5860910  38.0310693 126.9644259
  90.0134877  38.6500880 126.5114731  91.1593703  38.5810055 127.4984181
  93.8058169  38.3147843 128.0952842  94.7388842  38.2493405 128.2985717
  93.7181382  39.1504110 127.6367374  96.4346186  37.6313713 125.0556789
  96.3559818  37.2973577 125.9492547  97.2555853  38.1235481 125.0548262
  90.9707708  29.3671506 124.3060312  91.9166813  29.2377714 124.3748730
  90.5921953  28.6286168 124.7829740  89.1550625  27.2921482 124.2415197
  88.2482081  26.9954595 124.3177911  89.4326606  26.9951300 123.3749483
  90.7712691  21.8358372 130.3959439  89.9613419  21.4905457 130.7714685
  91.4597108  21.5265915 130.9847050  92.7003239  20.9136419 132.0183735
  93.2534278  21.3331872 132.6773758  92.9373326  19.9872167 132.0606691
  87.9249410  24.1508417 124.3827176  88.7868574  24.4763316 124.6422994
  88.1099754  23.3639913 123.8700242  96.0782046  23.0236944 131.5262399
  95.4980715  23.6821748 131.1440452  95.8117979  22.2014288 131.1149817
  81.8553568  32.1649011 134.5373380  81.8324256  32.2636698 133.5855263
  82.1654205  33.0114161 134.8590546  94.8606924  25.1837034 130.5818748
  93.9732779  25.4686685 130.3638942  95.2760913  25.0230797 129.7346025
  82.8691175  39.7644785 135.6690192  82.7345643  39.0045186 135.1028190
  82.4523237  40.4885685 135.2018981  94.0050138  34.9481709 124.6766768
  94.7085988  35.1531711 125.2924423  93.2812787  35.5158471 124.9415851
  94.8347948  30.6991570 130.7969038  94.7783149  31.1560121 129.9576670
  95.3876291  29.9382255 130.6191881  86.0260301  40.6614102 135.8808635
  85.9092685  41.6059535 135.7787325  85.2052747  40.3587664 136.2694434
  95.9136835  35.3864238 126.7265228  96.7482439  34.9545436 126.5442703
  95.7521178  35.2146252 127.6542122  95.5682727  31.8896351 128.0921567
  95.5131531  31.7240623 127.1510011  94.9428783  32.5972384 128.2483757
  88.8778853  21.3904460 127.6706885  88.8657523  22.3346300 127.8275156
  89.7702275  21.2074606 127.3766347  87.0514815  41.3142364 139.0964563
  87.9542061  41.3465974 139.4131058  86.8252185  40.3842815 139.1110899
  88.8068417  40.0673351 135.7574642  87.8564048  40.0675212 135.6439014
  89.1100903  39.3206085 135.2410677 104.5421110  45.9033889 136.8220404
 105.1799520  45.7840636 136.1183745 104.4241953  46.8514733 136.8808357
 101.3510817  45.8561317 136.7581929 101.0129328  45.7402382 135.8702464
 102.2200585  45.4552482 136.7382935  97.2097632  47.7096794 132.7478820
  96.6462497  47.6186730 131.9795108  97.0950027  46.8896698 133.2281313
  94.7562064  49.2047985 135.5863041  95.5483356  48.8638810 135.1709340
  94.9958714  49.3142960 136.5065194 102.7897191  51.3767761 128.0593285
 102.1385171  51.9621842 127.6727299 103.5841554  51.9073956 128.1188322
  96.7152818  48.4656898 128.4580419  97.4883694  47.9185885 128.3193295
  97.0678217  49.3301148 128.6694881  98.5537861  49.7933281 141.6647319
  98.2627727  50.6978912 141.5493985  99.1894845  49.8349808 142.3791388
  99.4794068  47.1710129 138.2548678 100.0757640  46.9466152 137.5405641
  99.5369039  46.4294875 138.8574126  99.0519096  44.6249565 126.0898869
  99.3044617  44.1031086 125.3282332  98.1143655  44.4615710 126.1925553
 104.0962379  43.6285343 133.8973612 104.8825468  43.2104766 133.5464030
 104.3601083  44.5331435 134.0655261 104.2672456  49.0658193 128.5962269
 103.6318289  49.1392820 129.3083174 103.9369863  49.6551792 127.9181349
  98.7715385  46.5277670 128.2923244  98.6551643  45.8522574 128.9604329
  98.8817645  46.0410044 127.4755397 101.1146926  45.9887818 131.9969933
 100.7505133  45.4618439 132.7082855 101.9714042  45.5986287 131.8236419
 100.7552413  41.0177717 126.9931282 100.9226815  41.8857954 127.3601753
 100.5649582  41.1804999 126.0692571 103.5127746  49.4794696 138.6597112
 103.2128469  50.3819735 138.5512920 103.1678805  49.2126879 139.5118265
  96.9640227  45.9308493 134.6933817  96.0390724  45.7984707 134.9011509
  97.2124640  46.7102712 135.1903759 100.7341633  43.4735375 127.9777949
 100.6141259  43.9192426 128.8163429 100.0394222  43.8220692 127.4191487
  94.3249038  45.5741767 135.5277606  94.4541419  45.8276246 136.4417018
  93.6446490  46.1669475 135.2082261  98.4948526  56.2439017 131.6268080
  98.4172555  57.1946842 131.7056561  97.8910169  55.8984889 132.2843006
 106.4326700  43.9456848 128.8058283 107.3444556  44.1784235 128.6305980
 105.9236347  44.5293892 128.2433361 105.0396282  48.9282666 136.1971864
 104.4105144  49.0928381 135.4947932 104.6521944  49.3424276 136.9682828
 108.9185514  49.8637104 133.5516228 108.2336552  50.2436006 133.0013261
 109.0029363  50.4732431 134.2848176 100.5924244  48.6657075 133.4621949
 101.0562589  48.9444777 132.6726572 100.3281042  47.7640519 133.2795040
  97.4848325  48.2128556 136.4001713  98.0549682  48.6415824 135.7619197
  98.0756437  47.9311141 137.0985898  99.5293130  44.7880227 130.2711515
 100.2317173  45.2401271 130.7385441  99.1973758  44.1464046 130.8991408
  93.2718464  43.0463780 135.5728648  92.4817518  43.3021308 135.0968759
  93.7629711  43.8612117 135.6780689  95.2233209  43.4108359 132.5312125
  94.4264372  43.5227053 133.0495620  94.9958801  43.7495011 131.6653015
 101.0538877  49.9353062 140.4794639 101.1183309  50.3973469 141.3152811
 100.3449801  49.3050427 140.6076949  91.5556167  43.2994270 138.0043639
  91.8064205  44.1841280 138.2701215  92.0915715  43.1198872 137.2318731
 100.7686894  51.6021169 130.3473620 100.6332569  52.4472705 130.7758468
 101.3096707  51.8040447 129.5839554  94.2216292  49.1196608 130.9201545
  94.7340812  49.9139858 131.0707110  94.8739005  48.4222898 130.8535146
  96.0311177  52.2362364 133.0024298  96.2077805  53.1580329 132.8145282
  96.8268010  51.9220783 133.4318678  95.3163533  44.2826996 142.8786461
  95.2017048  43.3812253 143.1793560  94.4608051  44.5290692 142.5271278
  97.1542492  53.7540538 139.0034640  97.7049917  53.6257601 138.2311634
  96.3153968  54.0535427 138.6529533 100.9509663  50.0191665 143.3478871
 101.4838000  49.2579954 143.1178179 100.4223744  49.7265317 144.0903026
  92.1865209  47.4485262 131.6961115  93.0240431  47.8582270 131.4794823
  92.3643476  46.5084704 131.6661309 104.0829641  45.1160342 127.3844948
 103.5676264  45.8864947 127.6233336 103.8106949  44.4425479 128.0078010
 101.6676752  39.9610043 132.4430187 100.8118348  39.5716894 132.2635825
 102.0803704  40.0402004 131.5829972  99.4418784  37.5795116 135.8487928
 100.3071781  37.3837925 135.4893818  99.5096293  37.3505468 136.7757285
 109.0563915  47.8692697 129.3198122 108.2793358  47.5303857 128.8753284
 109.7355396  47.8745320 128.6453087 103.8715944  42.9887435 129.2104730
 103.5666080  43.3033584 130.0614873 104.8246386  43.0668854 129.2532063
 102.3162376  49.1477658 130.8597683 101.7883737  48.4130417 130.5470921
 101.8149879  49.9252334 130.6137652 107.2955222  47.3426678 135.9764730
 106.6378896  48.0325940 136.0644858 108.0995621  47.7323110 136.3198716
  97.0481103  39.8097324 133.2204295  97.6224855  39.5872506 132.4877488
  97.6352086  39.8786019 133.9732896 106.1060681  45.6971051 134.0268672
 106.6192562  46.3301043 134.5290381 106.7561904  45.0972247 133.6612032
  97.3750691  41.8401785 127.2400180  96.5388003  42.1776472 127.5609455
  97.2355460  41.7050765 126.3027317  99.3503771  36.6838573 131.9479364
  98.6968183  36.3687590 131.3235979  99.3084245  36.0614314 132.6739187
 100.4614976  46.9657868 123.8632657  99.5542038  46.7347122 124.0623806
 100.9586008  46.1695487 124.0506638 103.3683055  55.6755375 126.7829343
 102.6944754  55.9787072 127.3914301 103.7548877  56.4784456 126.4334800
 102.5841511  43.1720507 136.2727012 101.6664073  43.3935454 136.1148700
 103.0001655  43.2466817 135.4138719 103.3676559  44.5711922 131.4029692
 104.1148378  45.0833320 131.0936814 103.6368149  44.2495975 132.2634086
 101.6403209  47.0670463 128.3856647 100.7314429  46.7829496 128.4829116
 101.6698293  47.4869542 127.5259953 106.8722477  50.6777053 132.1547814
 106.4184804  49.8367962 132.2113005 106.2416444  51.3138451 132.4922594
 105.8155396  41.6069039 133.3848482 105.0778153  41.0946425 133.7158724
 106.0682170  41.1669420 132.5731759 105.3155416  52.5153549 133.0897632
 105.6078390  53.0758606 132.3709998 105.8254037  52.8082110 133.8450791
  92.2091380  44.7875977 132.3671849  92.0115780  44.1945338 131.6422915
  91.6538044  44.4828187 133.0847788 100.1888103  44.6799084 134.4866442
 100.2436713  43.7272920 134.4108919  99.3779305  44.8358523 134.9707740
 101.3379297  48.6079207 125.7244725 100.8998727  47.8915066 125.2650363
 102.0789738  48.8355322 125.1629817  98.1280463  43.2976143 132.2456821
  97.3148329  43.5970314 132.6522013  98.6239458  42.9031832 132.9631303
 100.2789041  53.2933900 134.1791086 100.2365220  53.5194747 133.2499618
 101.1951740  53.0597275 134.3276887 109.4552412  46.8836404 131.7821044
 109.3170311  47.0738000 130.8542233 109.0988631  47.6455787 132.2389095
  97.6194538  40.8694499 137.8618056  98.2593917  40.7283258 137.1641019
  96.7872069  40.5829012 137.4856658  98.3954842  50.1696929 133.9753048
  99.1895441  49.6747249 133.7735623  97.6846534  49.6414792 133.6120754
 103.2149687  52.5515025 138.3265416 103.2686709  53.1205961 139.0943132
 102.3464468  52.7216910 137.9619453  94.7037605  44.3140011 130.0512801
  93.7735194  44.2524467 130.2682763  94.7995077  43.7915964 129.2549442
  94.6223155  40.8394824 132.6391043  94.8829972  41.7540157 132.5300203
  95.4440327  40.3719266 132.7887655  96.0948080  42.2532581 139.8089867
  96.7671133  42.0449943 139.1602516  95.2677866  42.0554667 139.3695099
 102.1737786  46.7175287 139.8852348 103.1029846  46.8686446 139.7121315
 101.7528816  46.8059308 139.0300994 100.9726118  50.7425951 137.6550885
 100.8337204  50.3744736 138.5276823 100.1840714  51.2573591 137.4834843
 101.5674270  55.8435048 128.9976422 101.7426026  55.3723091 129.8122045
 100.8807058  56.4700814 129.2257683 102.5231333  50.1207554 135.0439723
 102.1881166  50.0808324 135.9397373 102.0235279  49.4552270 134.5710133
  96.4975577  45.5275184 140.5692304  96.3595375  44.7955423 141.1703843
  97.4080501  45.4384084 140.2876492 105.4590525  47.4663588 125.3176783
 104.8419695  46.7410417 125.2209835 104.9907013  48.2272949 124.9743857
  99.1257878  45.2395143 140.0575984  99.8357496  44.5988336 140.0162602
  99.0827186  45.4908038 140.9802165  96.1335355  58.9924411 135.7716282
  96.3731954  59.6242935 136.4495301  95.2904552  58.6412451 136.0581641
  97.2489071  41.6849013 124.4398087  96.3718537  41.5637813 124.0760334
  97.7246824  40.8935091 124.1876976  88.7691211  46.4726172 134.5339594
  89.4562251  46.1587902 133.9460610  88.6139340  47.3767537 134.2606846
  93.5725933  41.3616369 138.9624618  93.4884122  40.7542038 138.2275028
  92.7508639  41.8525387 138.9634114 100.6463217  54.8003533 138.1757786
 100.5733389  55.6058504 138.6877091 100.2040610  54.9995499 137.3505807
 100.4352997  54.0375303 131.6860608  99.6520519  54.5796983 131.7798832
 101.1345742  54.5549283 132.0854849 103.7449647  39.8469932 134.3294813
 104.2418346  39.0939895 134.0095883 102.9736628  39.8834249 133.7638022
 103.1061901  54.6990367 140.3315945 103.8189873  55.3337832 140.2591846
 102.6151929  54.7954233 139.5155947 104.8279428  48.6041620 131.9033236
 103.8935706  48.7243082 131.7337941 105.0056096  47.7014086 131.6393246
 100.3284616  41.9887315 134.0566498  99.9582403  41.4358356 134.7447403
 100.8243708  41.3845449 133.5041498 108.2151979  44.4458939 132.4383270
 108.6812431  45.2786931 132.3643573 108.6659479  43.9803921 133.1428529
  98.1573814  52.4484810 141.1521516  98.8583274  53.0821293 141.3050910
  97.6868929  52.7899542 140.3917155 106.2828210  50.7902760 129.4369423
 106.5588054  50.6759355 130.3463297 105.4132709  50.3920245 129.3981596
 102.9182274  55.0389111 133.0802236 103.1004669  54.2210767 133.5429988
 103.7415260  55.2556803 132.6427126 103.2524440  53.9657296 130.3417285
 103.7812206  53.4549751 129.7287447 103.5152659  53.6499826 131.2062818
  93.7541532  51.9821166 138.0852618  94.3394969  51.2364853 138.2180522
  93.5566371  52.2925122 138.9689282  96.6080187  55.0172413 133.1015061
  95.9390563  55.5018541 132.6179101  96.4693057  55.2641633 134.0158439
  88.3459187  44.5526766 136.8057061  88.3843287  44.0190356 137.5994179
  87.8399480  44.0261971 136.1868039 100.7485456  57.0516156 139.6997719
 101.3003764  57.2147778 140.4646804 101.0891650  57.6420594 139.0277744
  95.7249949  39.3991306 140.3019604  95.7891276  40.2606137 139.8897001
  95.6617070  38.7865308 139.5691962  91.9767765  43.2790868 129.8810993
  92.2721206  42.3701546 129.8278046  91.0755800  43.2578607 129.5591995
 103.8853843  54.9998132 136.6861401 103.7604983  54.1987872 136.1772347
 104.5432934  55.4944325 136.1975371  95.5062012  41.3546864 135.8638541
  94.7848597  41.9682832 135.7246015  96.2955267  41.8904629 135.7855187
 105.9488752  52.8007152 138.3140951 105.0019087  52.6812503 138.2419278
 106.2971525  51.9129650 138.3967213  93.7055606  40.9604966 130.0050318
  93.3768312  40.0802344 129.8225424  94.0594977  40.9052634 130.8926707
 102.9535185  52.5959868 134.5145303 102.8060147  51.6676576 134.6952873
 103.7788679  52.6179959 134.0302379  96.8197429  41.2477935 130.3725796
  97.1593502  41.7763857 129.6504404  97.2669550  41.5858341 131.1484362
 106.5569307  53.4188427 135.6010176 107.4815854  53.2131288 135.4634627
 106.3884610  53.1704828 136.5099518  98.8065576  39.7452557 128.5719088
  99.5273939  40.1233810 128.0682805  98.1830881  40.4641434 128.6754066
 102.9496699  40.4497706 129.5077421 103.1660314  41.3322344 129.2066249
 102.4690766  40.0583919 128.7783063  97.6895921  43.4083419 136.0848165
  97.5440501  43.7223722 136.9772447  97.2121124  44.0268319 135.5319064
  99.5492304  40.3985967 136.1329055  99.5353872  39.5027060 135.7961353
 100.2664732  40.4056631 136.7667341 106.3464623  53.9374094 130.9572268
 106.5201501  53.3720517 130.2046120 106.8393514  54.7374989 130.7751758
  92.1641583  45.9488764 139.0235826  91.6195051  46.7248571 139.1556101
  93.0420933  46.2959568 138.8654948  98.9529200  39.2800347 131.4016625
  99.0745111  38.3516994 131.6007512  98.6631242  39.2939033 130.4894940
 101.8220390  36.9655258 134.5383345 101.8442087  37.0294591 133.5835324
 102.2388449  36.1259766 134.7323851 112.2004014  46.7010517 132.5762567
 112.6435160  45.9517843 132.1781691 111.3230525  46.6920654 132.1936299
 107.3339796  53.2540859 128.0569166 108.0290700  53.8747552 128.2756481
 107.6762946  52.4036210 128.3321544  92.9507605  45.0758660 141.9165983
  92.2089341  45.2241295 142.5030614  92.6300349  45.3366925 141.0532733
 109.2331219  50.7040564 129.5856497 109.7582543  51.0427837 128.8605817
 109.1453571  49.7687580 129.4019631 100.8951267  54.6174638 141.7146373
 101.2038394  54.3723785 142.5869073 101.6926749  54.8221276 141.2265244
 100.9171879  56.7712548 133.9451750 100.4776870  56.2788926 134.6384607
 101.6679996  56.2285515 133.7043825  93.3964218  52.9624089 133.9476378
  94.2222238  52.6627860 133.5675021  93.0458270  52.1931711 134.3966167
  98.3645752  52.3150557 136.0174052  97.7425761  51.6521262 135.7176279
  99.0350618  52.3411689 135.3347699  91.5972823  50.8810415 134.9065312
  90.7604732  50.4532589 134.7249313  91.5696469  51.0742858 135.8436103
  97.9259258  50.8654480 129.4932512  98.0747379  51.5489944 128.8399185
  98.7325702  50.8459570 130.0081968  95.6811891  46.8919658 130.4993581
  95.4357933  45.9881988 130.6973791  95.8507806  46.8936808 129.5573059
  94.9507539  42.6248015 127.9979742  94.2576784  42.6992370 127.3419778
  94.7059291  41.8608359 128.5201259 101.4254664  53.3602611 126.9644259
 100.8528631  53.9792798 126.5114731 101.9987458  53.9101972 127.4984181
 104.6451924  53.6439761 128.0952842 105.5782597  53.5785322 128.2985717
 104.5575137  54.4796028 127.6367374 107.2739940  52.9605631 125.0556789
 107.1953572  52.6265495 125.9492547 108.0949607  53.4527399 125.0548262
 101.8101463  44.6963423 124.3060312 102.7560567  44.5669631 124.3748730
 101.4315707  43.9578085 124.7829740  99.9944380  42.6213400 124.2415197
  99.0875835  42.3246512 124.3177911 100.2720361  42.3243218 123.3749483
  90.9122320  43.9419763 134.6914244  90.5925104  43.0885071 134.3988618
  90.3655748  44.1568341 135.4472211  94.6902228  46.6582204 138.4083750
  94.9088237  47.5899312 138.4271784  95.1028001  46.2990178 139.1938554
 101.6106445  37.1650289 130.3959439 100.8007174  36.8197374 130.7714685
 102.2990862  36.8557833 130.9847050 103.5396994  36.2428336 132.0183735
 104.0928032  36.6623790 132.6773758 103.7767080  35.3164084 132.0606691
  98.7643164  39.4800335 124.3827176  99.6262328  39.8055233 124.6422994
  98.9493508  38.6931831 123.8700242  90.7810580  47.5622675 136.6607365
  90.0874051  47.1476627 136.1477320  91.5283571  47.6043211 136.0640784
 106.9175801  38.3528861 131.5262399 106.3374470  39.0113665 131.1440452
 106.6511733  37.5306206 131.1149817  92.6947323  47.4940928 134.5373380
  92.6718011  47.5928616 133.5855263  93.0047959  48.3406079 134.8590546
  95.3534700  49.5517083 138.6519994  96.3077954  49.5201026 138.5849926
  95.1547224  49.0907707 139.4670220  95.9434083  48.1218199 141.2190792
  96.7626972  48.6162278 141.2425629  96.2170890  47.2050168 141.1908360
 105.7000679  40.5128952 130.5818748 104.8126534  40.7978602 130.3638942
 106.1154668  40.3522715 129.7346025  93.7084929  55.0936703 135.6690192
  93.5739397  54.3337104 135.1028190  93.2916992  55.8177603 135.2018981
 104.8443892  50.2773626 124.6766768 105.5479742  50.4823629 125.2924423
 104.1206541  50.8450388 124.9415851 105.6741703  46.0283488 130.7969038
 105.6176904  46.4852039 129.9576670 106.2270045  45.2674172 130.6191881
  96.8654055  55.9906020 135.8808635  96.7486439  56.9351452 135.7787325
  96.0446501  55.6879581 136.2694434 106.7530590  50.7156156 126.7265228
 107.5876194  50.2837354 126.5442703 106.5914933  50.5438169 127.6542122
 106.4076482  47.2188269 128.0921567 106.3525286  47.0532540 127.1510011
 105.7822537  47.9264302 128.2483757  91.1968997  42.4556333 141.9182989
  91.8427860  41.9455287 142.4070214  90.9886148  43.1925015 142.4926414
  99.7172607  36.7196378 127.6706885  99.7051277  37.6638218 127.8275156
 100.6096029  36.5366523 127.3766347  97.8908569  56.6434282 139.0964563
  98.7935816  56.6757892 139.4131058  97.6645939  55.7134733 139.1110899
  99.6462171  55.3965268 135.7574642  98.6957802  55.3967130 135.6439014
  99.9494657  54.6498003 135.2410677 115.3814865  61.2325807 136.8220404
 116.0193275  61.1132554 136.1183745 115.2635708  62.1806651 136.8808357
 112.1904571  61.1853235 136.7581929 111.8523083  61.0694300 135.8702464
 113.0594339  60.7844400 136.7382935 108.0491387  63.0388711 132.7478820
 107.4856252  62.9478648 131.9795108 107.9343782  62.2188616 133.2281313
 105.5955819  64.5339903 135.5863041 106.3877111  64.1930727 135.1709340
 105.8352469  64.6434878 136.5065194 113.6290945  66.7059679 128.0593285
 112.9778925  67.2913759 127.6727299 114.4235308  67.2365874 128.1188322
 107.5546573  63.7948816 128.4580419 108.3277449  63.2477803 128.3193295
 107.9071971  64.6593065 128.6694881 110.3187822  62.5002047 138.2548678
 110.9151394  62.2758069 137.5405641 110.3762794  61.7586792 138.8574126
 109.8912850  59.9541482 126.0898869 110.1438371  59.4323003 125.3282332
 108.9537410  59.7907628 126.1925553 114.9356133  58.9577261 133.8973612
 115.7219222  58.5396684 133.5464030 115.1994838  59.8623353 134.0655261
 115.1066211  64.3950111 128.5962269 114.4712044  64.4684737 129.3083174
 114.7763617  64.9843710 127.9181349 109.6109139  61.8569588 128.2923244
 109.4945397  61.1814492 128.9604329 109.7211399  61.3701962 127.4755397
 111.9540680  61.3179735 131.9969933 111.5898887  60.7910356 132.7082855
 112.8107796  60.9278204 131.8236419 111.5946167  56.3469635 126.9931282
 111.7620569  57.2149871 127.3601753 111.4043336  56.5096917 126.0692571
 107.8033982  61.2600411 134.6933817 106.8784478  61.1276625 134.9011509
 108.0518395  62.0394630 135.1903759 111.5735388  58.8027292 127.9777949
 111.4535013  59.2484343 128.8163429 110.8787976  59.1512610 127.4191487
 105.1642793  60.9033684 135.5277606 105.2935174  61.1568163 136.4417018
 104.4840244  61.4961392 135.2082261 109.3342280  71.5730934 131.6268080
 109.2566310  72.5238759 131.7056561 108.7303924  71.2276807 132.2843006
 117.2720454  59.2748766 128.8058283 118.1838310  59.5076152 128.6305980
 116.7630101  59.8585810 128.2433361 111.4317998  63.9948992 133.4621949
 111.8956344  64.2736695 132.6726572 111.1674796  63.0932437 133.2795040
 108.3242079  63.5420474 136.4001713 108.8943436  63.9707742 135.7619197
 108.9150191  63.2603058 137.0985898 110.3686884  60.1172145 130.2711515
 111.0710928  60.5693188 130.7385441 110.0367513  59.4755963 130.8991408
 104.1112218  58.3755697 135.5728648 103.3211272  58.6313226 135.0968759
 104.6023466  59.1904035 135.6780689 106.0626964  58.7400276 132.5312125
 105.2658127  58.8518971 133.0495620 105.8352556  59.0786929 131.6653015
 102.3949921  58.6286188 138.0043639 102.6457960  59.5133198 138.2701215
 102.9309470  58.4490789 137.2318731 111.6080649  66.9313087 130.3473620
 111.4726324  67.7764623 130.7758468 112.1490461  67.1332365 129.5839554
 105.0610046  64.4488525 130.9201545 105.5734567  65.2431775 131.0707110
 105.7132759  63.7514816 130.8535146 106.8704931  67.5654281 133.0024298
 107.0471559  68.4872246 132.8145282 107.6661765  67.2512701 133.4318678
 106.1557288  59.6118913 142.8786461 106.0410803  58.7104171 143.1793560
 105.3001805  59.8582610 142.5271278 103.0258963  62.7777180 131.6961115
 103.8634185  63.1874188 131.4794823 103.2037231  61.8376622 131.6661309
 114.9223395  60.4452260 127.3844948 114.4070019  61.2156865 127.6233336
 114.6500704  59.7717396 128.0078010 112.5070506  55.2901961 132.4430187
 111.6512103  54.9008811 132.2635825 112.9197458  55.3693922 131.5829972
 110.2812539  52.9087034 135.8487928 111.1465536  52.7129843 135.4893818
 110.3490048  52.6797386 136.7757285 119.8957669  63.1984615 129.3198122
 119.1187112  62.8595774 128.8753284 120.5749150  63.2037238 128.6453087
 114.7109698  58.3179352 129.2104730 114.4059834  58.6325501 130.0614873
 115.6640141  58.3960772 129.2532063 113.1556130  64.4769576 130.8597683
 112.6277492  63.7422335 130.5470921 112.6543633  65.2544252 130.6137652
 107.8874858  55.1389242 133.2204295 108.4618610  54.9164423 132.4877488
 108.4745840  55.2077936 133.9732896 116.9454435  61.0262969 134.0268672
 117.4586317  61.6592961 134.5290381 117.5955659  60.4264164 133.6612032
 108.2144445  57.1693703 127.2400180 107.3781757  57.5068389 127.5609455
 108.0749215  57.0342683 126.3027317 110.1897526  52.0130491 131.9479364
 109.5361938  51.6979508 131.3235979 110.1478000  51.3906231 132.6739187
 111.3008730  62.2949786 123.8632657 110.3935792  62.0639039 124.0623806
 111.7979762  61.4987405 124.0506638 114.2076809  71.0047293 126.7829343
 113.5338508  71.3078990 127.3914301 114.5942631  71.8076373 126.4334800
 113.4235266  58.5012424 136.2727012 112.5057827  58.7227371 136.1148700
 113.8395410  58.5758735 135.4138719 114.2070314  59.9003840 131.4029692
 114.9542133  60.4125237 131.0936814 114.4761903  59.5787893 132.2634086
 112.4796964  62.3962381 128.3856647 111.5708183  62.1121414 128.4829116
 112.5092048  62.8161459 127.5259953 117.7116231  66.0068970 132.1547814
 117.2578558  65.1659880 132.2113005 117.0810198  66.6430369 132.4922594
 116.6549151  56.9360956 133.3848482 115.9171908  56.4238342 133.7158724
 116.9075924  56.4961338 132.5731759 116.1549171  67.8445467 133.0897632
 116.4472145  68.4050524 132.3709998 116.6647791  68.1374028 133.8450791
 103.0485134  60.1167895 132.3671849 102.8509534  59.5237256 131.6422915
 102.4931798  59.8120105 133.0847788 111.0281858  60.0091001 134.4866442
 111.0830468  59.0564838 134.4108919 110.2173060  60.1650440 134.9707740
 112.1773052  63.9371124 125.7244725 111.7392482  63.2206983 125.2650363
 112.9183493  64.1647239 125.1629817 108.9674218  58.6268061 132.2456821
 108.1542083  58.9262232 132.6522013 109.4633212  58.2323750 132.9631303
 111.1182796  68.6225818 134.1791086 111.0758975  68.8486664 133.2499618
 112.0345495  68.3889193 134.3276887 120.2946166  62.2128321 131.7821044
 120.1564065  62.4029917 130.8542233 119.9382385  62.9747704 132.2389095
 108.4588293  56.1986417 137.8618056 109.0987672  56.0575176 137.1641019
 107.6265823  55.9120930 137.4856658 109.2348597  65.4988847 133.9753048
 110.0289195  65.0039167 133.7735623 108.5240289  64.9706710 133.6120754
 105.5431360  59.6431929 130.0512801 104.6128948  59.5816384 130.2682763
 105.6388832  59.1207881 129.2549442 105.4616909  56.1686742 132.6391043
 105.7223726  57.0832075 132.5300203 106.2834081  55.7011184 132.7887655
 106.9341834  57.5824499 139.8089867 107.6064888  57.3741861 139.1602516
 106.1071621  57.3846585 139.3695099 112.4068024  71.1726965 128.9976422
 112.5819780  70.7015009 129.8122045 111.7200813  71.7992732 129.2257683
 113.3625088  65.4499472 135.0439723 113.0274920  65.4100242 135.9397373
 112.8629033  64.7844188 134.5710133 107.3369332  60.8567102 140.5692304
 107.1989130  60.1247341 141.1703843 108.2474255  60.7676002 140.2876492
 116.2984279  62.7955506 125.3176783 115.6813450  62.0702334 125.2209835
 115.8300768  63.5564866 124.9743857 109.9651632  60.5687061 140.0575984
 110.6751251  59.9280253 140.0162602 109.9220940  60.8199956 140.9802165
 108.0882825  57.0140930 124.4398087 107.2112292  56.8929731 124.0760334
 108.5640578  56.2227009 124.1876976  99.6084965  61.8018090 134.5339594
 100.2956005  61.4879820 133.9460610  99.4533094  62.7059455 134.2606846
 104.4119687  56.6908287 138.9624618 104.3277876  56.0833956 138.2275028
 103.5902394  57.1817305 138.9634114 111.2746751  69.3667221 131.6860608
 110.4914273  69.9088901 131.7798832 111.9739496  69.8841200 132.0854849
 114.5843401  55.1761850 134.3294813 115.0812101  54.4231812 134.0095883
 113.8130383  55.2126167 133.7638022 115.6673182  63.9333537 131.9033236
 114.7329461  64.0535000 131.7337941 115.8449851  63.0306004 131.6393246
 111.1678370  57.3179233 134.0566498 110.7976158  56.7650274 134.7447403
 111.6637463  56.7137367 133.5041498 119.0545733  59.7750857 132.4383270
 119.5206186  60.6078848 132.3643573 119.5053234  59.3095838 133.1428529
 117.1221965  66.1194678 129.4369423 117.3981808  66.0051273 130.3463297
 116.2526463  65.7212163 129.3981596 113.7576029  70.3681029 133.0802236
 113.9398423  69.5502685 133.5429988 114.5809015  70.5848721 132.6427126
 114.0918194  69.2949214 130.3417285 114.6205960  68.7841668 129.7287447
 114.3546414  68.9791744 131.2062818 104.5935287  67.3113083 138.0852618
 105.1788724  66.5656771 138.2180522 104.3960125  67.6217040 138.9689282
 107.4473942  70.3464331 133.1015061 106.7784317  70.8310458 132.6179101
 107.3086812  70.5933551 134.0158439  99.1852941  59.8818683 136.8057061
  99.2237041  59.3482274 137.5994179  98.6793234  59.3553889 136.1868039
 106.5643704  54.7283224 140.3019604 106.6285030  55.5898055 139.8897001
 106.5010824  54.1157226 139.5691962 102.8161519  58.6082786 129.8810993
 103.1114960  57.6993464 129.8278046 101.9149555  58.5870525 129.5591995
 106.3455766  56.6838782 135.8638541 105.6242352  57.2974750 135.7246015
 107.1349022  57.2196547 135.7855187 104.5449361  56.2896883 130.0050318
 104.2162067  55.4094262 129.8225424 104.8988731  56.2344552 130.8926707
 113.7928940  67.9251786 134.5145303 113.6453902  66.9968493 134.6952873
 114.6182433  67.9471877 134.0302379 107.6591184  56.5769853 130.3725796
 107.9987256  57.1055774 129.6504404 108.1063304  56.9150259 131.1484362
 109.6459331  55.0744475 128.5719088 110.3667693  55.4525727 128.0682805
 109.0224635  55.7933351 128.6754066 113.7890454  55.7789624 129.5077421
 114.0054068  56.6614261 129.2066249 113.3084521  55.3875837 128.7783063
 108.5289675  58.7375337 136.0848165 108.3834256  59.0515640 136.9772447
 108.0514879  59.3560237 135.5319064 110.3886058  55.7277885 136.1329055
 110.3747627  54.8318978 135.7961353 111.1058486  55.7348549 136.7667341
 117.1858378  69.2666012 130.9572268 117.3595255  68.7012435 130.2046120
 117.6787269  70.0666907 130.7751758 103.0035337  61.2780681 139.0235826
 102.4588805  62.0540489 139.1556101 103.8814687  61.6251486 138.8654948
 109.7922954  54.6092265 131.4016625 109.9138865  53.6808911 131.6007512
 109.5024996  54.6230951 130.4894940 112.6614144  52.2947176 134.5383345
 112.6835841  52.3586509 133.5835324 113.0782203  51.4551684 134.7323851
 123.0397769  62.0302435 132.5762567 123.4828915  61.2809760 132.1781691
 122.1624279  62.0212571 132.1936299 118.1733550  68.5832777 128.0569166
 118.8684455  69.2039469 128.2756481 118.5156700  67.7328128 128.3321544
 103.7901359  60.4050577 141.9165983 103.0483095  60.5533213 142.5030614
 103.4694104  60.6658843 141.0532733 120.0724973  66.0332482 129.5856497
 120.5976297  66.3719755 128.8605817 119.9847326  65.0979497 129.4019631
 104.2357973  68.2916006 133.9476378 105.0615993  67.9919778 133.5675021
 103.8852025  67.5223629 134.3966167 109.2039506  67.6442474 136.0174052
 108.5819515  66.9813179 135.7176279 109.8744373  67.6703606 135.3347699
 102.4366578  66.2102333 134.9065312 101.5998486  65.7824507 134.7249313
 102.4090223  66.4034776 135.8436103 108.7653013  66.1946398 129.4932512
 108.9141133  66.8781862 128.8399185 109.5719456  66.1751488 130.0081968
 106.5205646  62.2211575 130.4993581 106.2751688  61.3173905 130.6973791
 106.6901561  62.2228726 129.5573059 105.7901293  57.9539933 127.9979742
 105.0970538  58.0284288 127.3419778 105.5453045  57.1900277 128.5201259
 112.2648419  68.6894528 126.9644259 111.6922386  69.3084715 126.5114731
 112.8381212  69.2393890 127.4984181 115.4845678  68.9731678 128.0952842
 116.4176351  68.9077240 128.2985717 115.3968891  69.8087945 127.6367374
 118.1133695  68.2897549 125.0556789 118.0347326  67.9557412 125.9492547
 118.9343362  68.7819317 125.0548262 112.6495217  60.0255341 124.3060312
 113.5954322  59.8961549 124.3748730 112.2709462  59.2870003 124.7829740
 110.8338134  57.9505317 124.2415197 109.9269590  57.6538430 124.3177911
 111.1114115  57.6535135 123.3749483 101.7516075  59.2711681 134.6914244
 101.4318859  58.4176989 134.3988618 101.2049503  59.4860259 135.4472211
 105.5295982  61.9874122 138.4083750 105.7481992  62.9191230 138.4271784
 105.9421756  61.6282096 139.1938554 112.4500200  52.4942207 130.3959439
 111.6400928  52.1489292 130.7714685 113.1384617  52.1849751 130.9847050
 114.3790748  51.5720254 132.0183735 114.9321787  51.9915707 132.6773758
 114.6160835  50.6456002 132.0606691 109.6036919  54.8092253 124.3827176
 110.4656083  55.1347151 124.6422994 109.7887263  54.0223748 123.8700242
 101.6204335  62.8914592 136.6607365 100.9267806  62.4768545 136.1477320
 102.3677326  62.9335129 136.0640784 117.7569555  53.6820779 131.5262399
 117.1768224  54.3405583 131.1440452 117.4905488  52.8598124 131.1149817
 103.5341077  62.8232846 134.5373380 103.5111765  62.9220533 133.5855263
 103.8441714  63.6697997 134.8590546 106.1928455  64.8809001 138.6519994
 107.1471708  64.8492943 138.5849926 105.9940979  64.4199625 139.4670220
 116.5394433  55.8420869 130.5818748 115.6520288  56.1270520 130.3638942
 116.9548422  55.6814633 129.7346025 104.5478684  70.4228621 135.6690192
 104.4133152  69.6629021 135.1028190 104.1310746  71.1469520 135.2018981
 115.6837647  65.6065544 124.6766768 116.3873497  65.8115547 125.2924423
 114.9600296  66.1742306 124.9415851 116.5135457  61.3575405 130.7969038
 116.4570658  61.8143957 129.9576670 117.0663799  60.5966090 130.6191881
 117.5924344  66.0448073 126.7265228 118.4269948  65.6129272 126.5442703
 117.4308687  65.8730087 127.6542122 117.2470236  62.5480187 128.0921567
 117.1919040  62.3824458 127.1510011 116.6216292  63.2556219 128.2483757
 102.0362751  57.7848251 141.9182989 102.6821615  57.2747205 142.4070214
 101.8279902  58.5216933 142.4926414 110.5566362  52.0488296 127.6706885
 110.5445032  52.9930136 127.8275156 111.4489784  51.8658441 127.3766347
 120.7306605  75.2833400 126.0898869 120.9832126  74.7614921 125.3282332
 119.7931164  75.1199545 126.1925553 122.4339922  71.6761553 126.9931282
 122.6014324  72.5441789 127.3601753 122.2437091  71.8388834 126.0692571
 119.0538199  72.4985621 127.2400180 118.2175512  72.8360307 127.5609455
 118.9142969  72.3634600 126.3027317 121.0291280  67.3422408 131.9479364
 120.3755692  67.0271426 131.3235979 120.9871754  66.7198149 132.6739187
 122.1402485  77.6241704 123.8632657 121.2329547  77.3930957 124.0623806
 122.6373517  76.8279323 124.0506638 116.3825114  74.9723846 130.0512801
 115.4522703  74.9108302 130.2682763 116.4782586  74.4499799 129.2549442
 118.9276580  72.3432848 124.4398087 118.0506046  72.2221649 124.0760334
 119.4034333  71.5518926 124.1876976 113.6555274  73.9374703 129.8810993
 113.9508715  73.0285382 129.8278046 112.7543309  73.9162443 129.5591995
 115.3843115  71.6188801 130.0050318 115.0555821  70.7386180 129.8225424
 115.7382486  71.5636470 130.8926707 120.4853085  70.4036392 128.5719088
 121.2061448  70.7817645 128.0682805 119.8618390  71.1225269 128.6754066
 120.6316709  69.9384183 131.4016625 120.7532620  69.0100829 131.6007512
 120.3418751  69.9522869 130.4894940 116.6295048  73.2831851 127.9979742
 115.9364293  73.3576206 127.3419778 116.3846800  72.5192194 128.5201259
 123.4888971  75.3547259 124.3060312 124.4348076  75.2253467 124.3748730
 123.1103216  74.6161921 124.7829740 121.6731889  73.2797235 124.2415197
 120.7663344  72.9830348 124.3177911 121.9507870  72.9827053 123.3749483
 123.2893954  67.8234125 130.3959439 122.4794683  67.4781210 130.7714685
 123.9778371  67.5141668 130.9847050 120.4430673  70.1384170 124.3827176
 121.3049837  70.4639069 124.6422994 120.6281017  69.3515666 123.8700242
 121.3960116  67.3780213 127.6706885 121.3838786  68.3222053 127.8275156
 122.2883538  67.1950359 127.3766347  81.6895547   2.0233663 113.5074649
  81.0157246   2.3265359 114.1159607  82.0761369   2.8262743 113.1580106
  79.8886762   2.1913335 115.7221729  80.0638518   1.7201378 116.5367351
  79.2019550   2.8179101 115.9502989  93.7027357   7.5804094 123.5465711
  94.3405767   7.4610841 122.8429051  93.5848200   8.5284938 123.6053663
  90.5117063   7.5331522 123.4827236  90.1735575   7.4172587 122.5947771
  91.3806832   7.1322687 123.4628242  86.3703879   9.3866998 119.4724127
  85.8068744   9.2956935 118.7040414  86.2556274   8.5666903 119.9526619
  83.9168311  10.8818190 122.3108347  84.7089603  10.5409015 121.8954646
  84.1564961  10.9913165 123.2310501  91.9503438  13.0537966 114.7838592
  91.2991417  13.6392047 114.3972605  92.7447801  13.5844161 114.8433629
  85.8759065  10.1427103 115.1825726  86.6489941   9.5956090 115.0438602
  86.2284464  11.0071353 115.3940187  88.6400314   8.8480334 124.9793985
  89.2363887   8.6236357 124.2650948  88.6975286   8.1065080 125.5819433
  88.2125343   6.3019769 112.8144176  88.4650863   5.7801291 112.0527639
  87.2749902   6.1385915 112.9170860  93.4278703  10.7428398 115.3207576
  92.7924536  10.8163025 116.0328481  93.0976109  11.3321997 114.6426655
  87.9321631   8.2047875 115.0168551  87.8157890   7.5292779 115.6849635
  88.0423891   7.7180249 114.2000704  90.2753172   7.6658023 118.7215240
  89.9111380   7.1388643 119.4328162  91.1320288   7.2756492 118.5481726
  92.6733993  11.1564901 125.3842419  92.3734716  12.0589940 125.2758226
  92.3285052  10.8897084 126.2363572  86.1246474   7.6078698 121.4179123
  85.1996970   7.4754912 121.6256815  86.3730887   8.3872917 121.9149066
  89.8947880   5.1505580 114.7023255  89.7747505   5.5962630 115.5408736
  89.2000469   5.4990897 114.1436794  83.4855285   7.2511971 122.2522912
  83.6147666   7.5046450 123.1662324  82.8052736   7.8439679 121.9327568
  87.6554772  17.9209221 118.3513387  87.5778802  18.8717047 118.4301867
  87.0516416  17.5755094 119.0088313  94.2002529  10.6052871 122.9217171
  93.5711391  10.7698585 122.2193239  93.8128191  11.0194481 123.6928135
  98.0791761  11.5407309 120.2761535  97.3942799  11.9206211 119.7258568
  98.1635610  12.1502636 121.0093482  89.7530491  10.3427279 120.1867256
  90.2168836  10.6214982 119.3971879  89.4887289   9.4410724 120.0040347
  86.6454572   9.8898761 123.1247019  87.2155929  10.3186029 122.4864504
  87.2362683   9.6081346 123.8231205  88.6899377   6.4650432 116.9956821
  89.3923420   6.9171475 117.4630748  88.3580005   5.8234251 117.6236714
  84.3839456   5.0878564 119.2557431  83.5870619   5.1997258 119.7740927
  84.1565048   5.4265216 118.3898322  90.2145124  11.6123267 127.2039946
  90.2789556  12.0743674 128.0398118  89.5056047  10.9820632 127.3322256
  89.9293141  13.2791374 117.0718926  89.7938816  14.1242910 117.5003774
  90.4702954  13.4810652 116.3084860  83.3822539  10.7966812 117.6446851
  83.8947059  11.5910063 117.7952416  84.0345251  10.0993103 117.5780453
  85.1917423  13.9132569 119.7269605  85.3684052  14.8350533 119.5390589
  85.9874257  13.5990988 120.1563984  86.3148739  15.4310743 125.7279947
  86.8656164  15.3027806 124.9556941  85.4760215  15.7305632 125.3774840
  81.3471455   9.1255467 118.4206422  82.1846677   9.5352475 118.2040130
  81.5249723   8.1854909 118.3906616  93.2435888   6.7930547 114.1090255
  92.7282511   7.5635152 114.3478642  92.9713196   6.1195684 114.7323316
  98.2170162   9.5462902 116.0443428  97.4399604   9.2074062 115.5998591
  98.8961643   9.5515525 115.3698394  91.4768623  10.8247863 117.5842990
  90.9489984  10.0900622 117.2716228  90.9756125  11.6022539 117.3382958
  96.4561469   9.0196883 122.7010036  95.7985143   9.7096145 122.7890165
  97.2601868   9.4093315 123.0444023  95.2666927   7.3741256 120.7513978
  95.7798809   8.0071248 121.2535688  95.9168151   6.7742451 120.3857338
  86.5356937   3.5171990 113.9645487  85.6994250   3.8546677 114.2854762
  86.3961707   3.3820970 113.0272624  89.6221223   8.6428073 110.5877963
  88.7148284   8.4117327 110.7869112  90.1192255   7.8465692 110.7751945
  92.5289302  17.3525580 113.5074649  91.8551000  17.6557277 114.1159607
  92.9155124  18.1554661 113.1580106  91.7447758   4.8490712 122.9972319
  90.8270320   5.0705659 122.8394007  92.1607902   4.9237022 122.1384026
  92.5282806   6.2482127 118.1274999  93.2754625   6.7603524 117.8182121
  92.7974396   5.9266180 118.9879393  90.8009456   8.7440668 115.1101953
  89.8920675   8.4599701 115.2074423  90.8304540   9.1639747 114.2505260
  96.0328724  12.3547257 118.8793121  95.5791051  11.5138167 118.9358311
  95.4022690  12.9908656 119.2167901  94.4761663  14.1923754 119.8142939
  94.7684637  14.7528811 119.0955305  94.9860283  14.4852315 120.5696098
  81.3697627   6.4646182 119.0917155  81.1722026   5.8715543 118.3668222
  80.8144291   6.1598392 119.8093094  89.3494350   6.3569289 121.2111749
  89.4042960   5.4043125 121.1354225  88.5385552   6.5128728 121.6953047
  90.4985544  10.2849412 112.4490032  90.0604974   9.5685271 111.9895669
  91.2395985  10.5125526 111.8875123  87.2886710   4.9746348 118.9702127
  86.4754576   5.2740519 119.3767320  87.7845704   4.5802037 119.6876610
  89.4395288  14.9704105 120.9036392  89.3971467  15.1964952 119.9744924
  90.3557987  14.7367480 121.0522193  98.6158659   8.5606609 118.5066350
  98.4776557   8.7508205 117.5787540  98.2594878   9.3225991 118.9634402
  87.5561089  11.8467134 120.6998355  88.3501687  11.3517454 120.4980930
  86.8452781  11.3184997 120.3366060  92.3755933  14.2285230 125.0510723
  92.4292956  14.7976166 125.8188438  91.5070715  14.3987115 124.6864760
  83.8643852   5.9910216 116.7758108  82.9341440   5.9294671 116.9928070
  83.9601324   5.4686169 115.9794749  83.7829401   2.5165029 119.3636349
  84.0436219   3.4310362 119.2545510  84.6046574   2.0489471 119.5132962
  91.3344033   8.3945492 126.6097654  92.2636093   8.5456651 126.4366622
  90.9135063   8.4829513 125.7546301  90.1332365  12.4196156 124.3796192
  89.9943450  12.0514941 125.2522130  89.3446961  12.9343796 124.2080150
  90.7280517  17.5205253 115.7221729  90.9032272  17.0493296 116.5367351
  90.0413305  18.1471019 115.9502989  91.6837580  11.7977759 121.7685030
  91.3487413  11.7578529 122.6642680  91.1841526  11.1322475 121.2955440
  94.6196772   9.1433793 112.0422089  94.0025942   8.4180621 111.9455142
  94.1513260   9.9043154 111.6989164  85.2941602  20.6694615 122.4961589
  85.5338200  21.3013140 123.1740607  84.4510799  20.3182655 122.7826948
  86.4095318   3.3619218 111.1643394  85.5324784   3.2408018 110.8005640
  86.8853071   2.5705296 110.9122282  77.9297458   8.1496377 121.2584901
  78.6168497   7.8358107 120.6705916  77.7745586   9.0537742 120.9852152
  89.8069464  16.4773738 124.9003093  89.7339635  17.2828709 125.4122397
  89.3646857  16.6765704 124.0751114  89.5959244  15.7145508 118.4105914
  88.8126765  16.2567188 118.5044139  90.2951989  16.2319488 118.8100155
  92.2668147  16.3760572 127.0561251  92.9796120  17.0108037 126.9837153
  91.7758176  16.4724438 126.2401253  93.9885674  10.2811825 118.6278543
  93.0541953  10.4013287 118.4583247  94.1662343   9.3784291 118.3638553
  87.3180061  14.1255015 127.8766822  88.0189520  14.7591498 128.0296216
  86.8475176  14.4669747 127.1162461  95.4434457  12.4672965 116.1614729
  95.7194301  12.3529560 117.0708603  94.5738956  12.0690450 116.1226902
  92.0788521  16.7159316 119.8047543  92.2610915  15.8980972 120.2675295
  92.9021507  16.9327008 119.3672433  92.4130686  15.6427501 117.0662591
  92.9418453  15.1319956 116.4532753  92.6758906  15.3270031 117.9308124
  82.9147779  13.6591370 124.8097925  83.5001216  12.9135058 124.9425829
  82.7172617  13.9695327 125.6934589  85.7686434  16.6942618 119.8260367
  85.0996810  17.1788745 119.3424407  85.6299304  16.9411838 120.7403746
  89.9091703  18.7286361 126.4243026  90.4610011  18.8917983 127.1892111
  90.2497896  19.3190799 125.7523050  81.1374011   4.9561073 116.6056299
  81.4327452   4.0471751 116.5523353  80.2362047   4.9348812 116.2837302
  93.0460090  16.6768337 123.4106708  92.9211230  15.8758077 122.9017653
  93.7039181  17.1714530 122.9220678  95.1094998  14.4777357 125.0386258
  94.1625334  14.3582708 124.9664585  95.4577772  13.5899855 125.1212519
  82.8661853   2.6375170 116.7295625  82.5374559   1.7572549 116.5470730
  83.2201224   2.5822839 117.6172014  92.1141432  14.2730073 121.2390610
  91.9666394  13.3446781 121.4198180  92.9394925  14.2950164 120.7547685
  85.9803676   2.9248140 117.0971102  86.3199749   3.4534062 116.3749711
  86.4275797   3.2628546 117.8729669  95.7175554  15.0958632 122.3255483
  96.6422101  14.8901493 122.1879934  95.5490857  14.8475033 123.2344824
  95.5070870  15.6144299 117.6817574  95.6807747  15.0490722 116.9291427
  95.9999761  16.4145194 117.4997064  96.4946042  14.9311064 114.7814473
  97.1896947  15.5517756 115.0001787  96.8369192  14.0806415 115.0566850
  98.3937465  12.3810769 116.3101803  98.9188790  12.7198042 115.5851123
  98.3059818  11.4457785 116.1264938  90.0557514  16.2944843 128.4391680
  90.3644641  16.0493990 129.3114380  90.8532996  16.4991481 127.9510550
  90.0778126  18.4482753 120.6697056  89.6383116  17.9559131 121.3629913
  90.8286243  17.9055720 120.4289132  82.5570465  14.6394293 120.6721685
  83.3828485  14.3398065 120.2920328  82.2064517  13.8701916 121.1211473
  87.5251998  13.9920762 122.7419358  86.9032008  13.3291467 122.4421586
  88.1956865  14.0181894 122.0593006  80.7579070  12.5580620 121.6310618
  79.9210979  12.1302794 121.4494619  80.7302716  12.7513063 122.5681409
  87.0865505  12.5424685 116.2177819  87.2353626  13.2260149 115.5644491
  87.8931949  12.5229775 116.7327274  84.8418138   8.5689863 117.2238888
  84.5964180   7.6652193 117.4219098  85.0114053   8.5707013 116.2818366
  84.1113786   4.3018220 114.7225049  83.4183031   4.3762575 114.0665085
  83.8665538   3.5378564 115.2446566  90.5860911  15.0372815 113.6889566
  90.0134878  15.6563003 113.2360038  91.1593704  15.5872177 114.2229488
  93.8058171  15.3209966 114.8198148  94.7388844  15.2555527 115.0231024
  93.7181383  16.1566232 114.3612681  96.4346187  14.6375836 111.7802096
  96.3559819  14.3035700 112.6737854  97.2555854  15.1297604 111.7793568
  90.9707709   6.3733628 111.0305619  91.9166814   6.2439836 111.0994037
  90.5921954   5.6348290 111.5075047  89.1550626   4.2983605 110.9660504
  88.2482082   4.0016717 111.0423217  89.4326607   4.0013423 110.0994790
  81.8553569   9.1711133 121.2618687  81.8324257   9.2698821 120.3100570
  82.1654206  10.0176284 121.5835853  82.8691176  16.7706908 122.3935499
  82.7345644  16.0107309 121.8273497  82.4523238  17.4947808 121.9264288
  94.0050139  11.9543831 111.4012074  94.7085989  12.1593834 112.0169730
  93.2812788  12.5220593 111.6661158  94.8347949   7.7053693 117.5214344
  94.7783151   8.1622244 116.6821977  95.3876292   6.9444377 117.3437187
  86.0260302  17.6676225 122.6053942  85.9092686  18.6121657 122.5032632
  85.2052748  17.3649786 122.9939741  95.9136836  12.3926361 113.4510534
  96.7482440  11.9607559 113.2688009  95.7521179  12.2208374 114.3787429
  95.5682729   8.8958474 114.8166874  95.5131532   8.7302745 113.8755318
  94.9428784   9.6034507 114.9729063  87.0514816  18.3204487 125.8209870
  87.9542063  18.3528097 126.1376365  86.8252186  17.3904938 125.8356206
  88.8068418  17.0735473 122.4819949  87.8564049  17.0737335 122.3684321
  89.1100904  16.3268208 121.9655983 104.5421112  22.9096012 123.5465711
 105.1799521  22.7902759 122.8429051 104.4241954  23.8576856 123.6053663
 101.3510818  22.8623440 123.4827236 101.0129329  22.7464504 122.5947771
 102.2200586  22.4614605 123.4628242  97.2097633  24.7158916 119.4724127
  96.6462499  24.6248853 118.7040414  97.0950029  23.8958821 119.9526619
  94.7562065  26.2110108 122.3108347  95.5483357  25.8700932 121.8954646
  94.9958716  26.3205083 123.2310501 102.7897192  28.3829884 114.7838592
 102.1385172  28.9683964 114.3972605 103.5841555  28.9136079 114.8433629
  96.7152819  25.4719021 115.1825726  97.4883695  24.9248008 115.0438602
  97.0678218  26.3363270 115.3940187  98.5537862  26.7995403 128.3892625
  98.2627728  27.7041034 128.2739292  99.1894846  26.8411931 129.1036695
  99.4794069  24.1772252 124.9793985 100.0757641  23.9528274 124.2650948
  99.5369040  23.4356997 125.5819433  99.0519097  21.6311687 112.8144176
  99.3044618  21.1093208 112.0527639  98.1143656  21.4677833 112.9170860
 104.0962380  20.6347465 120.6218919 104.8825469  20.2166889 120.2709336
 104.3601084  21.5393558 120.7900568 104.2672457  26.0720316 115.3207576
 103.6318290  26.1454942 116.0328481 103.9369864  26.6613915 114.6426655
  98.7715386  23.5339793 115.0168551  98.6551644  22.8584696 115.6849635
  98.8817646  23.0472167 114.2000704 101.1146927  22.9949940 118.7215240
 100.7505134  22.4680561 119.4328162 101.9714043  22.6048409 118.5481726
 100.7552414  18.0239840 113.7176589 100.9226816  18.8920076 114.0847060
 100.5649583  18.1867122 112.7937878 103.5127747  26.4856819 125.3842419
 103.2128470  27.3881858 125.2758226 103.1678807  26.2189002 126.2363572
  96.9640228  22.9370616 121.4179123  96.0390725  22.8046830 121.6256815
  97.2124642  23.7164835 121.9149066 100.7341635  20.4797497 114.7023255
 100.6141260  20.9254548 115.5408736 100.0394223  20.8282815 114.1436794
  94.3249040  22.5803889 122.2522912  94.4541421  22.8338368 123.1662324
  93.6446491  23.1731597 121.9327568  98.4948527  33.2501139 118.3513387
  98.4172557  34.2008964 118.4301867  97.8910170  32.9047012 119.0088313
 106.4326701  20.9518971 115.5303589 107.3444557  21.1846357 115.3551287
 105.9236348  21.5356015 114.9678668 105.0396283  25.9344789 122.9217171
 104.4105146  26.0990503 122.2193239 104.6521945  26.3486399 123.6928135
 108.9185515  26.8699227 120.2761535 108.2336553  27.2498128 119.7258568
 109.0029364  27.4794554 121.0093482 100.5924245  25.6719197 120.1867256
 101.0562591  25.9506900 119.3971879 100.3281043  24.7702642 120.0040347
  97.4848326  25.2190679 123.1247019  98.0549683  25.6477947 122.4864504
  98.0756438  24.9373263 123.8231205  99.5293131  21.7942349 116.9956821
 100.2317174  22.2463393 117.4630748  99.1973760  21.1526168 117.6236714
  93.2718465  20.0525902 122.2973955  92.4817519  20.3083431 121.8214065
  93.7629712  20.8674240 122.4025995  95.2233210  20.4170481 119.2557431
  94.4264374  20.5289176 119.7740927  94.9958803  20.7557134 118.3898322
 101.0538878  26.9415185 127.2039946 101.1183311  27.4035592 128.0398118
 100.3449802  26.3112550 127.3322256  91.5556168  20.3056393 124.7288946
  91.8064206  21.1903402 124.9946521  92.0915716  20.1260994 123.9564037
 100.7686896  28.6083292 117.0718926 100.6332571  29.4534828 117.5003774
 101.3096708  28.8102570 116.3084860  94.2216293  26.1258730 117.6446851
  94.7340814  26.9201980 117.7952416  94.8739006  25.4285021 117.5780453
  96.0311178  29.2424486 119.7269605  96.2077806  30.1642451 119.5390589
  96.8268011  28.9282906 120.1563984  95.3163534  21.2889118 129.6031768
  95.2017050  20.3874376 129.9038867  94.4608052  21.5352815 129.2516584
  97.1542493  30.7602660 125.7279947  97.7049918  30.6319724 124.9556941
  96.3153969  31.0597549 125.3774840 100.9509664  27.0253788 130.0724178
 101.4838001  26.2642076 129.8423486 100.4223745  26.7327440 130.8148333
  92.1865210  24.4547384 118.4206422  93.0240432  24.8644393 118.2040130
  92.3643478  23.5146827 118.3906616 104.0829642  22.1222465 114.1090255
 103.5676265  22.8927070 114.3478642 103.8106950  21.4487601 114.7323316
 101.6676753  16.9672166 119.1675493 100.8118349  16.5779016 118.9881132
 102.0803705  17.0464127 118.3075279  99.4418786  14.5857239 122.5733235
 100.3071782  14.3900048 122.2139124  99.5096294  14.3567591 123.5002592
 109.0563916  24.8754820 116.0443428 108.2793359  24.5365979 115.5998591
 109.7355397  24.8807443 115.3698394 103.8715945  19.9949557 115.9350036
 103.5666081  20.3095706 116.7860179 104.8246387  20.0730977 115.9777369
 102.3162377  26.1539780 117.5842990 101.7883739  25.4192540 117.2716228
 101.8149880  26.9314457 117.3382958 107.2955223  24.3488801 122.7010036
 106.6378897  25.0388062 122.7890165 108.0995622  24.7385233 123.0444023
  97.0481105  16.8159447 119.9449602  97.6224857  16.5934628 119.2122795
  97.6352087  16.8848141 120.6978203 106.1060682  22.7033174 120.7513978
 106.6192564  23.3363166 121.2535688 106.7561906  22.1034369 120.3857338
  97.3750692  18.8463908 113.9645487  96.5388004  19.1838594 114.2854762
  97.2355461  18.7112888 113.0272624  99.3503772  13.6900696 118.6724671
  98.6968185  13.3749713 118.0481286  99.3084247  13.0676436 119.3984494
 100.4614977  23.9719991 110.5877963  99.5542039  23.7409244 110.7869112
 100.9586009  23.1757610 110.7751945 103.3683056  32.6817498 113.5074649
 102.6944755  32.9849195 114.1159607 103.7548878  33.4846578 113.1580106
 102.5841513  20.1782629 122.9972319 101.6664074  20.3997576 122.8394007
 103.0001656  20.2528940 122.1384026 103.3676560  21.5774045 118.1274999
 104.1148379  22.0895442 117.8182121 103.6368150  21.2558098 118.9879393
 101.6403211  24.0732586 115.1101953 100.7314430  23.7891618 115.2074423
 101.6698294  24.4931664 114.2505260 106.8722478  27.6839175 118.8793121
 106.4184805  26.8430085 118.9358311 106.2416445  28.3200573 119.2167901
 105.8155398  18.6131161 120.1093788 105.0778154  18.1008547 120.4404031
 106.0682171  18.1731543 119.2977065 105.3155417  29.5215672 119.8142939
 105.6078392  30.0820729 119.0955305 105.8254038  29.8144233 120.5696098
  92.2091381  21.7938100 119.0917155  92.0115781  21.2007460 118.3668222
  91.6538045  21.4890310 119.8093094 100.1888105  21.6861206 121.2111749
 100.2436714  20.7335043 121.1354225  99.3779307  21.8420645 121.6953047
 101.3379298  25.6141329 112.4490032 100.8998728  24.8977188 111.9895669
 102.0789739  25.8417444 111.8875123  98.1280465  20.3038266 118.9702127
  97.3148330  20.6032437 119.3767320  98.6239459  19.9093955 119.6876610
 100.2789043  30.2996023 120.9036392 100.2365221  30.5256869 119.9744924
 101.1951741  30.0659397 121.0522193 109.4552413  23.8898526 118.5066350
 109.3170312  24.0800122 117.5787540 109.0988632  24.6517909 118.9634402
  97.6194539  17.8756621 124.5863362  98.2593919  17.7345381 123.8886326
  96.7872070  17.5891135 124.2101964  98.3954843  27.1759052 120.6998355
  99.1895442  26.6809372 120.4980930  97.6846536  26.6476915 120.3366060
 103.2149688  29.5577147 125.0510723 103.2686710  30.1268084 125.8188438
 102.3464469  29.7279032 124.6864760  94.7037607  21.3202134 116.7758108
  93.7735195  21.2586589 116.9928070  94.7995079  20.7978086 115.9794749
  94.6223156  17.8456946 119.3636349  94.8829973  18.7602280 119.2545510
  95.4440328  17.3781389 119.5132962  96.0948081  19.2594704 126.5335174
  96.7671135  19.0512066 125.8847823  95.2677868  19.0616790 126.0940406
 102.1737787  23.7237409 126.6097654 103.1029847  23.8748569 126.4366622
 101.7528818  23.8121430 125.7546301 100.9726119  27.7488074 124.3796192
 100.8337205  27.3806858 125.2522130 100.1840716  28.2635713 124.2080150
 101.5674271  32.8497170 115.7221729 101.7426027  32.3785214 116.5367351
 100.8807059  33.4762937 115.9502989 102.5231334  27.1269677 121.7685030
 102.1881167  27.0870447 122.6642680 102.0235280  26.4614393 121.2955440
  96.4975578  22.5337307 127.2937611  96.3595376  21.8017545 127.8949150
  97.4080502  22.4446207 127.0121799 105.4590526  24.4725711 112.0422089
 104.8419697  23.7472539 111.9455142 104.9907015  25.2335071 111.6989164
  99.1257879  22.2457266 126.7821291  99.8357498  21.6050458 126.7407909
  99.0827187  22.4970161 127.7047471  96.1335357  35.9986533 122.4961589
  96.3731955  36.6305057 123.1740607  95.2904553  35.6474573 122.7826948
  97.2489072  18.6911135 111.1643394  96.3718538  18.5699936 110.8005640
  97.7246825  17.8997214 110.9122282  88.7691212  23.4788295 121.2584901
  89.4562252  23.1650025 120.6705916  88.6139341  24.3829660 120.9852152
  93.5725934  18.3678492 125.6869925  93.4884123  17.7604161 124.9520334
  92.7508641  18.8587510 125.6879421 100.6463218  31.8065656 124.9003093
 100.5733390  32.6120627 125.4122397 100.2040612  32.0057621 124.0751114
 100.4352998  31.0437426 118.4105914  99.6520520  31.5859106 118.5044139
 101.1345743  31.5611405 118.8100155 103.7449648  16.8532055 121.0540120
 104.2418348  16.1002017 120.7341190 102.9736630  16.8896372 120.4883329
 103.1061902  31.7052490 127.0561251 103.8189874  32.3399954 126.9837153
 102.6151931  31.8016356 126.2401253 104.8279429  25.6103742 118.6278543
 103.8935708  25.7305205 118.4583247 105.0056097  24.7076209 118.3638553
 100.3284617  18.9949438 120.7811804  99.9582404  18.4420478 121.4692710
 100.8243709  18.3907572 120.2286804 108.2151980  21.4521062 119.1628577
 108.6812432  22.2849053 119.0888880 108.6659481  20.9866043 119.8673836
  98.1573815  29.4546933 127.8766822  98.8583275  30.0883416 128.0296216
  97.6868930  29.7961665 127.1162461 106.2828211  27.7964883 116.1614729
 106.5588055  27.6821477 117.0708603 105.4132710  27.3982368 116.1226902
 102.9182275  32.0451234 119.8047543 103.1004670  31.2272890 120.2675295
 103.7415261  32.2618926 119.3672433 103.2524441  30.9719419 117.0662591
 103.7812207  30.4611873 116.4532753 103.5152660  30.6561949 117.9308124
  93.7541534  28.9883288 124.8097925  94.3394970  28.2426976 124.9425829
  93.5566372  29.2987245 125.6934589  96.6080189  32.0234536 119.8260367
  95.9390564  32.5080663 119.3424407  96.4693058  32.2703756 120.7403746
  88.3459188  21.5588888 123.5302368  88.3843288  21.0252479 124.3239486
  87.8399481  21.0324094 122.9113345 100.7485457  34.0578279 126.4243026
 101.3003765  34.2209901 127.1892111 101.0891651  34.6482717 125.7523050
  95.7249951  16.4053429 127.0264910  95.7891277  17.2668260 126.6142308
  95.6617071  15.7927430 126.2937269  91.9767766  20.2852990 116.6056299
  92.2721207  19.3763669 116.5523353  91.0755802  20.2640730 116.2837302
 103.8853845  32.0060255 123.4106708 103.7604984  31.2049994 122.9017653
 104.5432936  32.5006448 122.9220678  95.5062013  18.3608987 122.5883848
  94.7848599  18.9744955 122.4491321  96.2955269  18.8966752 122.5100494
 105.9488753  29.8069275 125.0386258 105.0019089  29.6874626 124.9664585
 106.2971526  28.9191773 125.1212519  93.7055607  17.9667088 116.7295625
  93.3768314  17.0864467 116.5470730  94.0594978  17.9114757 117.6172014
 102.9535186  29.6021991 121.2390610 102.8060149  28.6738698 121.4198180
 103.7788680  29.6242082 120.7547685  96.8197431  18.2540058 117.0971102
  97.1593503  18.7825979 116.3749711  97.2669551  18.5920464 117.8729669
 106.5569308  30.4250550 122.3255483 107.4815856  30.2193411 122.1879934
 106.3884612  30.1766951 123.2344824  98.8065578  16.7514680 115.2964395
  99.5273940  17.1295932 114.7928112  98.1830882  17.4703556 115.3999373
 102.9496701  17.4559829 116.2322727 103.1660315  18.3384466 115.9311555
 102.4690768  17.0646042 115.5028369  97.6895922  20.4145542 122.8093472
  97.5440503  20.7285845 123.7017753  97.2121126  21.0330442 122.2564371
  99.5492305  17.4048090 122.8574361  99.5353874  16.5089183 122.5206659
 100.2664733  17.4118753 123.4912647 106.3464624  30.9436217 117.6817574
 106.5201502  30.3782640 116.9291427 106.8393516  31.7437112 117.4997064
  92.1641584  22.9550886 125.7481133  91.6195052  23.7310694 125.8801407
  93.0420934  23.3021691 125.5900254  98.9529201  16.2862470 118.1261932
  99.0745112  15.3579116 118.3252819  98.6631243  16.3001156 117.2140247
 101.8220391  13.9717380 121.2628651 101.8442088  14.0356714 120.3080631
 102.2388450  13.1321889 121.4569158 112.2004016  23.7072640 119.3007874
 112.6435162  22.9579965 118.9026997 111.3230526  23.6982776 118.9181606
 107.3339797  30.2602981 114.7814473 108.0290701  30.8809674 115.0001787
 107.6762947  29.4098333 115.0566850  92.9507606  22.0820782 128.6411290
  92.2089342  22.2303418 129.2275920  92.6300350  22.3429048 127.7778039
 109.2331220  27.7102687 116.3101803 109.7582544  28.0489960 115.5851123
 109.1453573  26.7749702 116.1264938 100.8951269  31.6236761 128.4391680
 101.2038395  31.3785907 129.3114380 101.6926751  31.8283399 127.9510550
 100.9171881  33.7774670 120.6697056 100.4776871  33.2851049 121.3629913
 101.6679998  33.2347638 120.4289132  93.3964220  29.9686211 120.6721685
  94.2222240  29.6689983 120.2920328  93.0458272  29.1993834 121.1211473
  98.3645753  29.3212679 122.7419358  97.7425762  28.6583384 122.4421586
  99.0350620  29.3473811 122.0593006  91.5972825  27.8872538 121.6310618
  90.7604733  27.4594712 121.4494619  91.5696470  28.0804981 122.5681409
  97.9259260  27.8716603 116.2177819  98.0747380  28.5552067 115.5644491
  98.7325703  27.8521693 116.7327274  95.6811893  23.8981780 117.2238888
  95.4357935  22.9944110 117.4219098  95.8507807  23.8998931 116.2818366
  94.9507540  19.6310138 114.7225049  94.2576785  19.7054493 114.0665085
  94.7059292  18.8670482 115.2446566 101.4254665  30.3664733 113.6889566
 100.8528632  30.9854920 113.2360038 101.9987459  30.9164095 114.2229488
 104.6451925  30.6501883 114.8198148 105.5782598  30.5847445 115.0231024
 104.5575138  31.4858150 114.3612681 107.2739942  29.9667754 111.7802096
 107.1953573  29.6327617 112.6737854 108.0949609  30.4589522 111.7793568
 101.8101464  21.7025546 111.0305619 102.7560569  21.5731754 111.0994037
 101.4315709  20.9640208 111.5075047  99.9944381  19.6275522 110.9660504
  99.0875836  19.3308635 111.0423217 100.2720362  19.3305340 110.0994790
  90.9122321  20.9481886 121.4159550  90.5925106  20.0947194 121.1233924
  90.3655750  21.1630464 122.1717518  94.6902229  23.6644327 125.1329057
  94.9088239  24.5961434 125.1517091  95.1028003  23.3052301 125.9183861
 101.6106447  14.1712412 117.1204745 100.8007175  13.8259497 117.4959991
 102.2990864  13.8619956 117.7092357 103.5396995  13.2490459 118.7429042
 104.0928034  13.6685912 119.4019065 103.7767081  12.3226207 118.7851998
  98.7643166  16.4862457 111.1072483  99.6262330  16.8117356 111.3668300
  98.9493510  15.6993953 110.5945549  90.7810581  24.5684797 123.3852672
  90.0874053  24.1538750 122.8722626  91.5283572  24.6105334 122.7886091
 106.9175802  15.3590984 118.2507706 106.3374471  16.0175788 117.8685758
 106.6511735  14.5368329 117.8395124  92.6947324  24.5003051 121.2618687
  92.6718012  24.5990738 120.3100570  93.0047960  25.3468202 121.5835853
  95.3534702  26.5579206 125.3765301  96.3077955  26.5263148 125.3095233
  95.1547225  26.0969830 126.1915527  95.9434084  25.1280322 127.9436099
  96.7626973  25.6224401 127.9670936  96.2170892  24.2112290 127.9153666
 105.7000680  17.5191074 117.3064054 104.8126535  17.8040725 117.0884249
 106.1154669  17.3584838 116.4591331  93.7084931  32.0998825 122.3935499
  93.5739398  31.3399226 121.8273497  93.2916993  32.8239725 121.9264288
 104.8443894  27.2835749 111.4012074 105.5479744  27.4885751 112.0169730
 104.1206542  27.8512511 111.6661158 105.6741704  23.0345610 117.5214344
 105.6176905  23.4914162 116.6821977 106.2270046  22.2736295 117.3437187
  96.8654056  32.9968142 122.6053942  96.7486441  33.9413575 122.5032632
  96.0446503  32.6941704 122.9939741 106.7530591  27.7218278 113.4510534
 107.5876195  27.2899477 113.2688009 106.5914934  27.5500292 114.3787429
 106.4076483  24.2250392 114.8166874 106.3525287  24.0594663 113.8755318
 105.7822538  24.9326424 114.9729063  91.1968998  19.4618456 128.6428296
  91.8427862  18.9517410 129.1315521  90.9886149  20.1987138 129.2171721
  99.7172609  13.7258501 114.3952192  99.7051278  14.6700340 114.5520463
 100.6096030  13.5428646 114.1011653  97.8908571  33.6496404 125.8209870
  98.7935817  33.6820015 126.1376365  97.6645941  32.7196855 125.8356206
  99.6462173  32.4027391 122.4819949  98.6957804  32.4029253 122.3684321
  99.9494659  31.6560125 121.9655983 115.3814866  38.2387929 123.5465711
 116.0193276  38.1194677 122.8429051 115.2635709  39.1868773 123.6053663
 112.1904572  38.1915357 123.4827236 111.8523084  38.0756422 122.5947771
 113.0594340  37.7906523 123.4628242 108.0491388  40.0450834 119.4724127
 107.4856253  39.9540771 118.7040414 107.9343783  39.2250738 119.9526619
 105.5955820  41.5402025 122.3108347 106.3877112  41.1992850 121.8954646
 105.8352470  41.6497000 123.2310501 113.6290947  43.7121802 114.7838592
 112.9778926  44.2975882 114.3972605 114.4235310  44.2427996 114.8433629
 107.5546574  40.8010939 115.1825726 108.3277450  40.2539926 115.0438602
 107.9071973  41.6655188 115.3940187 109.3931616  42.1287321 128.3892625
 109.1021482  43.0332952 128.2739292 110.0288601  42.1703849 129.1036695
 110.3187823  39.5064169 124.9793985 110.9151396  39.2820192 124.2650948
 110.3762795  38.7648915 125.5819433 109.8912852  36.9603605 112.8144176
 110.1438372  36.4385126 112.0527639 108.9537411  36.7969750 112.9170860
 114.9356134  35.9639383 120.6218919 115.7219224  35.5458806 120.2709336
 115.1994839  36.8685475 120.7900568 115.1066212  41.4012233 115.3207576
 114.4712045  41.4746860 116.0328481 114.7763618  41.9905832 114.6426655
 109.6109140  38.8631711 115.0168551 109.4945399  38.1876614 115.6849635
 109.7211400  38.3764085 114.2000704 111.9540681  38.3241858 118.7215240
 111.5898889  37.7972479 119.4328162 112.8107797  37.9340327 118.5481726
 111.5946168  33.3531758 113.7176589 111.7620571  34.2211994 114.0847060
 111.4043337  33.5159039 112.7937878 114.3521502  41.8148736 125.3842419
 114.0522225  42.7173775 125.2758226 114.0072561  41.5480920 126.2363572
 107.8033983  38.2662533 121.4179123 106.8784479  38.1338747 121.6256815
 108.0518396  39.0456753 121.9149066 111.5735389  35.8089415 114.7023255
 111.4535014  36.2546466 115.5408736 110.8787978  36.1574733 114.1436794
 105.1642794  37.9095807 122.2522912 105.2935175  38.1630286 123.1662324
 104.4840245  38.5023515 121.9327568 109.3342281  48.5793057 118.3513387
 109.2566311  49.5300882 118.4301867 108.7303925  48.2338929 119.0088313
 117.2720455  36.2810888 115.5303589 118.1838311  36.5138275 115.3551287
 116.7630102  36.8647932 114.9678668 115.8790038  41.2636707 122.9217171
 115.2498900  41.4282421 122.2193239 115.4915700  41.6778316 123.6928135
 119.7579270  42.1991145 120.2761535 119.0730308  42.5790046 119.7258568
 119.8423119  42.8086471 121.0093482 111.4318000  41.0011115 120.1867256
 111.8956345  41.2798818 119.3971879 111.1674798  40.0994559 120.0040347
 108.3242081  40.5482596 123.1247019 108.8943438  40.9769865 122.4864504
 108.9150192  40.2665181 123.8231205 110.3686886  37.1234267 116.9956821
 111.0710929  37.5755311 117.4630748 110.0367514  36.4818086 117.6236714
 104.1112220  35.3817820 122.2973955 103.3211274  35.6375348 121.8214065
 104.6023467  36.1966158 122.4025995 106.0626965  35.7462399 119.2557431
 105.2658128  35.8581093 119.7740927 105.8352557  36.0849051 118.3898322
 111.8932633  42.2707102 127.2039946 111.9577065  42.7327510 128.0398118
 111.1843556  41.6404467 127.3322256 102.3949923  35.6348310 124.7288946
 102.6457961  36.5195320 124.9946521 102.9309471  35.4552912 123.9564037
 111.6080650  43.9375210 117.0718926 111.4726325  44.7826745 117.5003774
 112.1490463  44.1394487 116.3084860 105.0610048  41.4550648 117.6446851
 105.5734568  42.2493898 117.7952416 105.7132760  40.7576938 117.5780453
 106.8704932  44.5716404 119.7269605 107.0471561  45.4934369 119.5390589
 107.6661766  44.2574823 120.1563984 106.1557289  36.6181036 129.6031768
 106.0410804  35.7166293 129.9038867 105.3001807  36.8644733 129.2516584
 107.9936248  46.0894578 125.7279947 108.5443673  45.9611641 124.9556941
 107.1547724  46.3889467 125.3774840 111.7903419  42.3545706 130.0724178
 112.3231756  41.5933994 129.8423486 111.2617500  42.0619357 130.8148333
 103.0258964  39.7839302 118.4206422 103.8634186  40.1936310 118.2040130
 103.2037232  38.8438744 118.3906616 114.9223397  37.4514383 114.1090255
 114.4070020  38.2218987 114.3478642 114.6500705  36.7779519 114.7323316
 112.5070508  32.2964084 119.1675493 111.6512104  31.9070934 118.9881132
 112.9197459  32.3756044 118.3075279 110.2812540  29.9149157 122.5733235
 111.1465537  29.7191965 122.2139124 110.3490049  29.6859508 123.5002592
 119.8957671  40.2046737 116.0443428 119.1187113  39.8657897 115.5998591
 120.5749152  40.2099361 115.3698394 114.7109700  35.3241475 115.9350036
 114.4059835  35.6387624 116.7860179 115.6640142  35.4022895 115.9777369
 113.1556132  41.4831698 117.5842990 112.6277493  40.7484458 117.2716228
 112.6543634  42.2606375 117.3382958 118.1348978  39.6780719 122.7010036
 117.4772652  40.3679980 122.7890165 118.9389377  40.0677151 123.0444023
 107.8874859  32.1451364 119.9449602 108.4618611  31.9226546 119.2122795
 108.4745842  32.2140059 120.6978203 116.9454436  38.0325091 120.7513978
 117.4586318  38.6655083 121.2535688 117.5955660  37.4326287 120.3857338
 108.2144446  34.1755825 113.9645487 107.3781759  34.5130512 114.2854762
 108.0749216  34.0404805 113.0272624 110.1897527  29.0192613 118.6724671
 109.5361939  28.7041631 118.0481286 110.1478001  28.3968354 119.3984494
 111.3008732  39.3011908 110.5877963 110.3935793  39.0701162 110.7869112
 111.7979764  38.5049528 110.7751945 114.2076811  48.0109416 113.5074649
 113.5338509  48.3141112 114.1159607 114.5942633  48.8138496 113.1580106
 113.4235267  35.5074547 122.9972319 112.5057829  35.7289494 122.8394007
 113.8395411  35.5820857 122.1384026 114.2070315  36.9065963 118.1274999
 114.9542134  37.4187360 117.8182121 114.4761905  36.5850015 118.9879393
 112.4796965  39.4024503 115.1101953 111.5708184  39.1183536 115.2074423
 112.5092049  39.8223582 114.2505260 117.7116233  43.0131093 118.8793121
 117.2578560  42.1722003 118.9358311 117.0810199  43.6492491 119.2167901
 116.6549152  33.9423079 120.1093788 115.9171909  33.4300465 120.4404031
 116.9075926  33.5023460 119.2977065 116.1549172  44.8507589 119.8142939
 116.4472146  45.4112647 119.0955305 116.6647792  45.1436150 120.5696098
 103.0485136  37.1230017 119.0917155 102.8509535  36.5299378 118.3668222
 102.4931800  36.8182228 119.8093094 111.0281859  37.0153124 121.2111749
 111.0830469  36.0626960 121.1354225 110.2173061  37.1712563 121.6953047
 112.1773053  40.9433247 112.4490032 111.7392483  40.2269106 111.9895669
 112.9183494  41.1709362 111.8875123 108.9674219  35.6330184 118.9702127
 108.1542085  35.9324354 119.3767320 109.4633213  35.2385872 119.6876610
 111.1182797  45.6287941 120.9036392 111.0758976  45.8548787 119.9744924
 112.0345496  45.3951315 121.0522193 120.2946168  39.2190444 118.5066350
 120.1564066  39.4092040 117.5787540 119.9382387  39.9809827 118.9634402
 108.4588294  33.2048539 124.5863362 109.0987673  33.0637298 123.8886326
 107.6265824  32.9183053 124.2101964 109.2348598  42.5050970 120.6998355
 110.0289196  42.0101290 120.4980930 108.5240290  41.9768833 120.3366060
 114.0543442  44.8869065 125.0510723 114.1080465  45.4560001 125.8188438
 113.1858224  45.0570950 124.6864760 105.5431361  36.6494051 116.7758108
 104.6128949  36.5878507 116.9928070 105.6388833  36.1270004 115.9794749
 105.4616910  33.1748864 119.3636349 105.7223728  34.0894197 119.2545510
 106.2834083  32.7073307 119.5132962 106.9341836  34.5886621 126.5335174
 107.6064889  34.3803983 125.8847823 106.1071622  34.3908707 126.0940406
 113.0131542  39.0529327 126.6097654 113.9423602  39.2040487 126.4366622
 112.5922572  39.1413348 125.7546301 111.8119874  43.0779992 124.3796192
 111.6730959  42.7098776 125.2522130 111.0234470  43.5927631 124.2080150
 112.4068026  48.1789088 115.7221729 112.5819781  47.7077131 116.5367351
 111.7200814  48.8054854 115.9502989 113.3625089  42.4561594 121.7685030
 113.0274922  42.4162364 122.6642680 112.8629035  41.7906310 121.2955440
 107.3369333  37.8629224 127.2937611 107.1989131  37.1309463 127.8949150
 108.2474256  37.7738124 127.0121799 116.2984281  39.8017629 112.0422089
 115.6813451  39.0764457 111.9455142 115.8300769  40.5626989 111.6989164
 109.9651634  37.5749184 126.7821291 110.6751252  36.9342376 126.7407909
 109.9220942  37.8262078 127.7047471 106.9729111  51.3278451 122.4961589
 107.2125709  51.9596975 123.1740607 106.1298308  50.9766491 122.7826948
 108.0882826  34.0203053 111.1643394 107.2112293  33.8991854 110.8005640
 108.5640580  33.2289131 110.9122282  99.6084967  38.8080213 121.2584901
 100.2956006  38.4941943 120.6705916  99.4533095  39.7121577 120.9852152
 104.4119689  33.6970409 125.6869925 104.3277877  33.0896079 124.9520334
 103.5902395  34.1879428 125.6879421 111.4856973  47.1357573 124.9003093
 111.4127144  47.9412545 125.4122397 111.0434366  47.3349539 124.0751114
 111.2746753  46.3729343 118.4105914 110.4914274  46.9151023 118.5044139
 111.9739498  46.8903323 118.8100155 114.5843403  32.1823973 121.0540120
 115.0812102  31.4293935 120.7341190 113.8130384  32.2188289 120.4883329
 113.9455656  47.0344407 127.0561251 114.6583629  47.6691872 126.9837153
 113.4545685  47.1308273 126.2401253 115.6673183  40.9395660 118.6278543
 114.7329462  41.0597122 118.4583247 115.8449852  40.0368127 118.3638553
 111.1678371  34.3241356 120.7811804 110.7976159  33.7712396 121.4692710
 111.6637464  33.7199489 120.2286804 119.0545735  36.7812979 119.1628577
 119.5206187  37.6140971 119.0888880 119.5053235  36.3157961 119.8673836
 108.9967570  44.7838851 127.8766822 109.6977029  45.4175334 128.0296216
 108.5262685  45.1253582 127.1162461 117.1221966  43.1256801 116.1614729
 117.3981810  43.0113395 117.0708603 116.2526465  42.7274285 116.1226902
 113.7576030  47.3743151 119.8047543 113.9398424  46.5564807 120.2675295
 114.5809016  47.5910844 119.3672433 114.0918195  46.3011337 117.0662591
 114.6205962  45.7903791 116.4532753 114.3546415  45.9853867 117.9308124
 104.5935288  44.3175206 124.8097925 105.1788725  43.5718894 124.9425829
 104.3960126  44.6279163 125.6934589 107.4473943  47.3526453 119.8260367
 106.7784318  47.8372581 119.3424407 107.3086813  47.5995674 120.7403746
  99.1852943  36.8880806 123.5302368  99.2237042  36.3544397 124.3239486
  98.6793236  36.3616012 122.9113345 111.5879212  49.3870197 126.4243026
 112.1397520  49.5501818 127.1892111 111.9285405  49.9774635 125.7523050
 106.5643705  31.7345347 127.0264910 106.6285032  32.5960177 126.6142308
 106.5010825  31.1219348 126.2937269 102.8161520  35.6144908 116.6056299
 103.1114961  34.7055587 116.5523353 101.9149556  35.5932648 116.2837302
 114.7247599  47.3352172 123.4106708 114.5998739  46.5341912 122.9017653
 115.3826690  47.8298366 122.9220678 106.3455767  33.6900905 122.5883848
 105.6242353  34.3036872 122.4491321 107.1349023  34.2258670 122.5100494
 116.7882507  45.1361192 125.0386258 115.8412843  45.0166544 124.9664585
 117.1365281  44.2483690 125.1212519 104.5449362  33.2959006 116.7295625
 104.2162068  32.4156385 116.5470730 104.8988733  33.2406675 117.6172014
 113.7928941  44.9313909 121.2390610 113.6453903  44.0030616 121.4198180
 114.6182434  44.9533999 120.7547685 107.6591185  33.5831976 117.0971102
 107.9987258  34.1117897 116.3749711 108.1063306  33.9212382 117.8729669
 117.3963063  45.7542467 122.3255483 118.3209610  45.5485329 122.1879934
 117.2278366  45.5058868 123.2344824 109.6459332  32.0806597 115.2964395
 110.3667695  32.4587850 114.7928112 109.0224636  32.7995474 115.3999373
 113.7890455  32.7851746 116.2322727 114.0054069  33.6676384 115.9311555
 113.3084522  32.3937960 115.5028369 108.5289676  35.7437459 122.8093472
 108.3834257  36.0577762 123.7017753 108.0514880  36.3622360 122.2564371
 110.3886059  32.7340007 122.8574361 110.3747628  31.8381101 122.5206659
 111.1058487  32.7410671 123.4912647 117.1858379  46.2728135 117.6817574
 117.3595256  45.7074557 116.9291427 117.6787270  47.0729030 117.4997064
 103.0035339  38.2842804 125.7481133 102.4588807  39.0602612 125.8801407
 103.8814688  38.6313608 125.5900254 109.7922955  31.6154388 118.1261932
 109.9138866  30.6871034 118.3252819 109.5024998  31.6293074 117.2140247
 112.6614146  29.3009298 121.2628651 112.6835842  29.3648631 120.3080631
 113.0782205  28.4613807 121.4569158 123.0397770  39.0364558 119.3007874
 123.4828916  38.2871883 118.9026997 122.1624280  39.0274694 118.9181606
 118.1733551  45.5894899 114.7814473 118.8684456  46.2101592 115.0001787
 118.5156701  44.7390250 115.0566850 103.7901360  37.4112700 128.6411290
 103.0483097  37.5595335 129.2275920 103.4694105  37.6720966 127.7778039
 120.0724974  43.0394605 116.3101803 120.5976299  43.3781877 115.5851123
 119.9847327  42.1041620 116.1264938 111.7345023  46.9528678 128.4391680
 112.0432150  46.7077825 129.3114380 112.5320505  47.1575317 127.9510550
 111.7565635  49.1066588 120.6697056 111.3170625  48.6142967 121.3629913
 112.5073752  48.5639556 120.4289132 104.2357974  45.2978129 120.6721685
 105.0615994  44.9981901 120.2920328 103.8852026  44.5285751 121.1211473
 109.2039507  44.6504597 122.7419358 108.5819517  43.9875302 122.4421586
 109.8744374  44.6765729 122.0593006 102.4366579  43.2164455 121.6310618
 101.5998488  42.7886630 121.4494619 102.4090225  43.4096899 122.5681409
 108.7653014  43.2008520 116.2177819 108.9141135  43.8843985 115.5644491
 109.5719458  43.1813610 116.7327274 106.5205647  39.2273698 117.2238888
 106.2751689  38.3236028 117.4219098 106.6901562  39.2290848 116.2818366
 105.7901295  34.9602056 114.7225049 105.0970540  35.0346411 114.0665085
 105.5453047  34.1962399 115.2446566 112.2648420  45.6956651 113.6889566
 111.6922387  46.3146838 113.2360038 112.8381213  46.2456012 114.2229488
 115.4845680  45.9793801 114.8198148 116.4176353  45.9139363 115.0231024
 115.3968892  46.8150068 114.3612681 118.1133696  45.2959671 111.7802096
 118.0347328  44.9619535 112.6737854 118.9343363  45.7881439 111.7793568
 112.6495218  37.0317464 111.0305619 113.5954323  36.9023672 111.0994037
 112.2709463  36.2932125 111.5075047 110.8338135  34.9567440 110.9660504
 109.9269591  34.6600553 111.0423217 111.1114116  34.6597258 110.0994790
 101.7516076  36.2773803 121.4159550 101.4318860  35.4239112 121.1233924
 101.2049504  36.4922381 122.1717518 105.5295983  38.9936244 125.1329057
 105.7481993  39.9253352 125.1517091 105.9421757  38.6344219 125.9183861
 112.4500201  29.5004330 117.1204745 111.6400929  29.1551415 117.4959991
 113.1384618  29.1911873 117.7092357 114.3790749  28.5782376 118.7429042
 114.9321788  28.9977830 119.4019065 114.6160836  27.6518125 118.7851998
 109.6036920  31.8154375 111.1072483 110.4656084  32.1409273 111.3668300
 109.7887264  31.0285871 110.5945549 101.6204336  39.8976715 123.3852672
 100.9267807  39.4830668 122.8722626 102.3677327  39.9397251 122.7886091
 117.7569557  30.6882902 118.2507706 117.1768226  31.3467706 117.8685758
 117.4905489  29.8660246 117.8395124 103.5341078  39.8294969 121.2618687
 103.5111766  39.9282656 120.3100570 103.8441715  40.6760119 121.5835853
 106.1928456  41.8871124 125.3765301 107.1471710  41.8555066 125.3095233
 105.9940980  41.4261747 126.1915527 106.7827838  40.4572240 127.9436099
 107.6020727  40.9516318 127.9670936 107.0564646  39.5404208 127.9153666
 116.5394435  32.8482992 117.3064054 115.6520290  33.1332643 117.0884249
 116.9548424  32.6876755 116.4591331 104.5478685  47.4290743 122.3935499
 104.4133153  46.6691144 121.8273497 104.1310747  48.1531643 121.9264288
 115.6837648  42.6127667 111.4012074 116.3873498  42.8177669 112.0169730
 114.9600297  43.1804429 111.6661158 116.5135458  38.3637528 117.5214344
 116.4570660  38.8206079 116.6821977 117.0663801  37.6028213 117.3437187
 107.7047811  48.3260060 122.6053942 107.5880195  49.2705493 122.5032632
 106.8840257  48.0233622 122.9939741 117.5924345  43.0510196 113.4510534
 118.4269949  42.6191394 113.2688009 117.4308688  42.8792210 114.3787429
 117.2470238  39.5542309 114.8166874 117.1919041  39.3886581 113.8755318
 116.6216293  40.2618342 114.9729063 102.0362753  34.7910374 128.6428296
 102.6821616  34.2809328 129.1315521 101.8279904  35.5279055 129.2171721
 110.5566363  29.0550418 114.3952192 110.5445033  29.9992258 114.5520463
 111.4489785  28.8720564 114.1011653 108.7302325  48.9788322 125.8209870
 109.6329572  49.0111932 126.1376365 108.5039695  48.0488773 125.8356206
 110.4855927  47.7319309 122.4819949 109.5351558  47.7321170 122.3684321
 110.7888413  46.9852043 121.9655983 126.2208621  53.5679847 123.5465711
 126.8587030  53.4486594 122.8429051 126.1029463  54.5160691 123.6053663
 123.0298327  53.5207275 123.4827236 122.6916838  53.4048340 122.5947771
 123.8988095  53.1198440 123.4628242 118.8885142  55.3742752 119.4724127
 118.3250008  55.2832688 118.7040414 118.7737538  54.5542656 119.9526619
 116.4349574  56.8693943 122.3108347 117.2270866  56.5284768 121.8954646
 116.6746225  56.9788918 123.2310501 124.4684701  59.0413719 114.7838592
 123.8172681  59.6267800 114.3972605 125.2629064  59.5719914 114.8433629
 118.3940328  56.1302856 115.1825726 119.1671204  55.5831843 115.0438602
 118.7465727  56.9947106 115.3940187 120.2325371  57.4579239 128.3892625
 119.9415237  58.3624869 128.2739292 120.8682355  57.4995766 129.1036695
 121.1581578  54.8356087 124.9793985 121.7545150  54.6112110 124.2650948
 121.2156549  54.0940833 125.5819433 120.7306606  52.2895522 112.8144176
 120.9832127  51.7677044 112.0527639 119.7931165  52.1261668 112.9170860
 125.7749889  51.2931301 120.6218919 126.5612978  50.8750724 120.2709336
 126.0388593  52.1977393 120.7900568 125.9459966  56.7304151 115.3207576
 125.3105799  56.8038778 116.0328481 125.6157373  57.3197750 114.6426655
 120.4502895  54.1923628 115.0168551 120.3339153  53.5168532 115.6849635
 120.5605155  53.7056002 114.2000704 122.7934436  53.6533776 118.7215240
 122.4292643  53.1264397 119.4328162 123.6501552  53.2632245 118.5481726
 122.4339923  48.6823675 113.7176589 122.6014325  49.5503912 114.0847060
 122.2437092  48.8450957 112.7937878 125.1915256  57.1440654 125.3842419
 124.8915979  58.0465693 125.2758226 124.8466316  56.8772837 126.2363572
 118.6427737  53.5954451 121.4179123 117.7178234  53.4630665 121.6256815
 118.8912151  54.3748670 121.9149066 122.4129144  51.1381333 114.7023255
 122.2928769  51.5838383 115.5408736 121.7181732  51.4866650 114.1436794
 116.0036549  53.2387725 122.2522912 116.1328930  53.4922203 123.1662324
 115.3234000  53.8315433 121.9327568 120.1736036  63.9084974 118.3513387
 120.0960065  64.8592800 118.4301867 119.5697679  63.5630847 119.0088313
 128.1114210  51.6102806 115.5303589 129.0232066  51.8430193 115.3551287
 127.6023857  52.1939850 114.9678668 126.7183792  56.5928624 122.9217171
 126.0892655  56.7574338 122.2193239 126.3309454  57.0070234 123.6928135
 130.5973024  57.5283062 120.2761535 129.9124062  57.9081964 119.7258568
 130.6816873  58.1378389 121.0093482 122.2711754  56.3303032 120.1867256
 122.7350100  56.6090735 119.3971879 122.0068552  55.4286477 120.0040347
 119.1635835  55.8774514 123.1247019 119.7337192  56.3061782 122.4864504
 119.7543947  55.5957099 123.8231205 121.2080640  52.4526185 116.9956821
 121.9104683  52.9047228 117.4630748 120.8761269  51.8110004 117.6236714
 114.9505974  50.7109737 122.2973955 114.1605028  50.9667266 121.8214065
 115.4417221  51.5258075 122.4025995 116.9020719  51.0754317 119.2557431
 116.1051883  51.1873011 119.7740927 116.6746312  51.4140969 118.3898322
 122.7326387  57.5999020 127.2039946 122.7970820  58.0619427 128.0398118
 122.0237311  56.9696385 127.3322256 113.2343677  50.9640228 124.7288946
 113.4851715  51.8487238 124.9946521 113.7703225  50.7844829 123.9564037
 122.4474405  59.2667127 117.0718926 122.3120080  60.1118663 117.5003774
 122.9884217  59.4686405 116.3084860 115.9003802  56.7842565 117.6446851
 116.4128323  57.5785816 117.7952416 116.5526515  56.0868856 117.5780453
 117.7098687  59.9008322 119.7269605 117.8865315  60.8226286 119.5390589
 118.5055520  59.5866741 120.1563984 116.9951043  51.9472954 129.6031768
 116.8804558  51.0458211 129.9038867 116.1395561  52.1936650 129.2516584
 118.8330002  61.4186496 125.7279947 119.3837427  61.2903559 124.9556941
 117.9941478  61.7181385 125.3774840 122.6297173  57.6837623 130.0724178
 123.1625510  56.9225912 129.8423486 122.1011254  57.3911275 130.8148333
 113.8652719  55.1131220 118.4206422 114.7027941  55.5228228 118.2040130
 114.0430987  54.1730662 118.3906616 125.7617151  52.7806300 114.1090255
 125.2463774  53.5510905 114.3478642 125.4894459  52.1071437 114.7323316
 123.3464262  47.6256001 119.1675493 122.4905858  47.2362852 118.9881132
 123.7591214  47.7047962 118.3075279 121.1206295  45.2441074 122.5733235
 121.9859291  45.0483883 122.2139124 121.1883803  45.0151426 123.5002592
 130.7351425  55.5338655 116.0443428 129.9580868  55.1949815 115.5998591
 131.4142906  55.5391278 115.3698394 125.5503454  50.6533393 115.9350036
 125.2453590  50.9679542 116.7860179 126.5033896  50.7314812 115.9777369
 123.9949886  56.8123616 117.5842990 123.4671248  56.0776375 117.2716228
 123.4937389  57.5898292 117.3382958 128.9742732  55.0072636 122.7010036
 128.3166406  55.6971898 122.7890165 129.7783131  55.3969068 123.0444023
 118.7268614  47.4743282 119.9449602 119.3012366  47.2518464 119.2122795
 119.3139596  47.5431977 120.6978203 127.7848191  53.3617009 120.7513978
 128.2980073  53.9947001 121.2535688 128.4349415  52.7618205 120.3857338
 119.0538201  49.5047743 113.9645487 118.2175513  49.8422430 114.2854762
 118.9142970  49.3696723 113.0272624 121.0291281  44.3484531 118.6724671
 120.3755694  44.0333548 118.0481286 120.9871755  43.7260271 119.3984494
 122.1402486  54.6303826 110.5877963 121.2329548  54.3993080 110.7869112
 122.6373518  53.8341445 110.7751945 125.0470565  63.3401333 113.5074649
 124.3732264  63.6433030 114.1159607 125.4336387  64.1430414 113.1580106
 124.2629022  50.8366465 122.9972319 123.3451583  51.0581412 122.8394007
 124.6789165  50.9112775 122.1384026 125.0464069  52.2357880 118.1274999
 125.7935888  52.7479277 117.8182121 125.3155659  51.9141933 118.9879393
 123.3190720  54.7316421 115.1101953 122.4101939  54.4475454 115.2074423
 123.3485803  55.1515500 114.2505260 128.5509987  58.3423010 118.8793121
 128.0972314  57.5013920 118.9358311 127.9203954  58.9784409 119.2167901
 127.4942907  49.2714997 120.1093788 126.7565663  48.7592383 120.4404031
 127.7469680  48.8315378 119.2977065 126.9942926  60.1799507 119.8142939
 127.2865901  60.7404564 119.0955305 127.5041547  60.4728068 120.5696098
 113.8878890  52.4521935 119.0917155 113.6903290  51.8591296 118.3668222
 113.3325554  52.1474145 119.8093094 121.8675614  52.3445042 121.2111749
 121.9224223  51.3918878 121.1354225 121.0566816  52.5004481 121.6953047
 123.0166807  56.2725165 112.4490032 122.5786237  55.5561024 111.9895669
 123.7577248  56.5001279 111.8875123 119.8067974  50.9622101 118.9702127
 118.9935839  51.2616272 119.3767320 120.3026968  50.5677790 119.6876610
 121.9576551  60.9579858 120.9036392 121.9152730  61.1840705 119.9744924
 122.8739250  60.7243233 121.0522193 131.1339922  54.5482362 118.5066350
 130.9957821  54.7383958 117.5787540 130.7776141  55.3101744 118.9634402
 119.2982048  48.5340457 124.5863362 119.9381428  48.3929216 123.8886326
 118.4659579  48.2474970 124.2101964 120.0742352  57.8342887 120.6998355
 120.8682951  57.3393207 120.4980930 119.3634045  57.3060750 120.3366060
 124.8937197  60.2160983 125.0510723 124.9474219  60.7851919 125.8188438
 124.0251978  60.3862868 124.6864760 116.3825116  51.9785969 116.7758108
 115.4522704  51.9170424 116.9928070 116.4782588  51.4561922 115.9794749
 116.3010665  48.5040782 119.3636349 116.5617482  49.4186115 119.2545510
 117.1227837  48.0365224 119.5132962 117.7735590  49.9178539 126.5335174
 118.4458644  49.7095901 125.8847823 116.9465377  49.7200625 126.0940406
 123.8525296  54.3821245 126.6097654 124.7817356  54.5332404 126.4366622
 123.4316326  54.4705266 125.7546301 122.6513628  58.4071909 124.3796192
 122.5124714  58.0390694 125.2522130 121.8628224  58.9219549 124.2080150
 123.2461780  63.5081006 115.7221729 123.4213536  63.0369049 116.5367351
 122.5594568  64.1346772 115.9502989 124.2018843  57.7853512 121.7685030
 123.8668676  57.7454282 122.6642680 123.7022789  57.1198228 121.2955440
 118.1763087  53.1921142 127.2937611 118.0382885  52.4601381 127.8949150
 119.0868011  53.1030042 127.0121799 127.1378035  55.1309546 112.0422089
 126.5207206  54.4056374 111.9455142 126.6694524  55.8918907 111.6989164
 120.8045388  52.9041101 126.7821291 121.5145007  52.2634293 126.7407909
 120.7614696  53.1553996 127.7047471 117.8122866  66.6570368 122.4961589
 118.0519464  67.2888893 123.1740607 116.9692062  66.3058409 122.7826948
 118.9276581  49.3494971 111.1643394 118.0506047  49.2283771 110.8005640
 119.4034334  48.5581049 110.9122282 110.4478721  54.1372130 121.2584901
 111.1349761  53.8233860 120.6705916 110.2926850  55.0413495 120.9852152
 115.2513443  49.0262327 125.6869925 115.1671632  48.4187996 124.9520334
 114.4296150  49.5171345 125.6879421 122.3250727  62.4649491 124.9003093
 122.2520899  63.2704462 125.4122397 121.8828120  62.6641457 124.0751114
 122.1140507  61.7021261 118.4105914 121.3308029  62.2442941 118.5044139
 122.8133252  62.2195241 118.8100155 125.4237157  47.5115890 121.0540120
 125.9205857  46.7585853 120.7341190 124.6524139  47.5480207 120.4883329
 124.7849411  62.3636325 127.0561251 125.4977383  62.9983790 126.9837153
 124.2939440  62.4600191 126.2401253 126.5066938  56.2687578 118.6278543
 125.5723217  56.3889040 118.4583247 126.6843606  55.3660044 118.3638553
 122.0072126  49.6533273 120.7811804 121.6369913  49.1004314 121.4692710
 122.5031218  49.0491407 120.2286804 129.8939489  52.1104897 119.1628577
 130.3599941  52.9432889 119.0888880 130.3446990  51.6449878 119.8673836
 119.8361324  60.1130768 127.8766822 120.5370784  60.7467251 128.0296216
 119.3656439  60.4545500 127.1162461 127.9615720  58.4548718 116.1614729
 128.2375564  58.3405313 117.0708603 127.0920219  58.0566203 116.1226902
 124.5969784  62.7035069 119.8047543 124.7792179  61.8856725 120.2675295
 125.4202770  62.9202761 119.3672433 124.9311950  61.6303254 117.0662591
 125.4599716  61.1195709 116.4532753 125.1940169  61.3145784 117.9308124
 115.4329042  59.6467123 124.8097925 116.0182479  58.9010811 124.9425829
 115.2353881  59.9571080 125.6934589 118.2867698  62.6818371 119.8260367
 117.6178073  63.1664498 119.3424407 118.1480567  62.9287591 120.7403746
 110.0246697  52.2172724 123.5302368 110.0630797  51.6836314 124.3239486
 109.5186990  51.6907929 122.9113345 122.4272966  64.7162114 126.4243026
 122.9791274  64.8793736 127.1892111 122.7679160  65.3066552 125.7523050
 117.4037460  47.0637264 127.0264910 117.4678786  47.9252095 126.6142308
 117.3404580  46.4511266 126.2937269 113.6555275  50.9436826 116.6056299
 113.9508716  50.0347504 116.5523353 112.7543311  50.9224565 116.2837302
 125.5641354  62.6644090 123.4106708 125.4392493  61.8633830 122.9017653
 126.2220445  63.1590283 122.9220678 117.1849522  49.0192822 122.5883848
 116.4636108  49.6328790 122.4491321 117.9742778  49.5550587 122.5100494
 127.6276262  60.4653110 125.0386258 126.6806597  60.3458461 124.9664585
 127.9759035  59.5775608 125.1212519 115.3843116  48.6250923 116.7295625
 115.0555823  47.7448302 116.5470730 115.7382487  48.5698592 117.6172014
 124.6322695  60.2605826 121.2390610 124.4847658  59.3322534 121.4198180
 125.4576189  60.2825917 120.7547685 118.4984940  48.9123893 117.0971102
 118.8381012  49.4409815 116.3749711 118.9457060  49.2504299 117.8729669
 128.2356817  61.0834385 122.3255483 129.1603365  60.8777246 122.1879934
 128.0672120  60.8350786 123.2344824 120.4853087  47.4098515 115.2964395
 121.2061449  47.7879768 114.7928112 119.8618391  48.1287392 115.3999373
 124.6284210  48.1143664 116.2322727 124.8447824  48.9968302 115.9311555
 124.1478277  47.7229877 115.5028369 119.3683431  51.0729377 122.8093472
 119.2228012  51.3869680 123.7017753 118.8908635  51.6914277 122.2564371
 121.2279814  48.0631925 122.8574361 121.2141383  47.1673018 122.5206659
 121.9452242  48.0702589 123.4912647 128.0252133  61.6020052 117.6817574
 128.1989011  61.0366475 116.9291427 128.5181025  62.4020947 117.4997064
 113.8429093  53.6134721 125.7481133 113.2982561  54.3894529 125.8801407
 114.7208443  53.9605526 125.5900254 120.6316710  46.9446305 118.1261932
 120.7532621  46.0162952 118.3252819 120.3418752  46.9584991 117.2140247
 123.5007900  44.6301216 121.2628651 123.5229597  44.6940549 120.3080631
 123.9175959  43.7905724 121.4569158 133.8791524  54.3656475 119.3007874
 134.3222671  53.6163801 118.9026997 133.0018035  54.3566612 118.9181606
 129.0127306  60.9186817 114.7814473 129.7078210  61.5393509 115.0001787
 129.3550456  60.0682168 115.0566850 114.6295115  52.7404618 128.6411290
 113.8876851  52.8887253 129.2275920 114.3087859  53.0012883 127.7778039
 130.9118729  58.3686522 116.3101803 131.4370053  58.7073795 115.5851123
 130.8241081  57.4333538 116.1264938 122.5738778  62.2820596 128.4391680
 122.8825904  62.0369743 129.3114380 123.3714260  62.4867234 127.9510550
 122.5959390  64.4358506 120.6697056 122.1564380  63.9434884 121.3629913
 123.3467507  63.8931473 120.4289132 115.0751729  60.6270046 120.6721685
 115.9009749  60.3273818 120.2920328 114.7245781  59.8577669 121.1211473
 120.0433262  59.9796515 122.7419358 119.4213271  59.3167220 122.4421586
 120.7138129  60.0057647 122.0593006 113.2760334  58.5456373 121.6310618
 112.4392242  58.1178547 121.4494619 113.2483979  58.7388816 122.5681409
 119.6046769  58.5300438 116.2177819 119.7534889  59.2135902 115.5644491
 120.4113212  58.5105528 116.7327274 117.3599402  54.5565616 117.2238888
 117.1145444  53.6527946 117.4219098 117.5295316  54.5582766 116.2818366
 116.6295049  50.2893973 114.7225049 115.9364294  50.3638328 114.0665085
 116.3846801  49.5254317 115.2446566 123.1042174  61.0248568 113.6889566
 122.5316141  61.6438756 113.2360038 123.6774968  61.5747930 114.2229488
 126.3239434  61.3085719 114.8198148 127.2570107  61.2431280 115.0231024
 126.2362647  62.1441985 114.3612681 128.9527451  60.6251589 111.7802096
 128.8741082  60.2911453 112.6737854 129.7737118  61.1173357 111.7793568
 123.4888973  52.3609381 111.0305619 124.4348077  52.2315589 111.0994037
 123.1103218  51.6224043 111.5075047 121.6731890  50.2859358 110.9660504
 120.7663345  49.9892470 111.0423217 121.9507871  49.9889176 110.0994790
 112.5909830  51.6065721 121.4159550 112.2712615  50.7531029 121.1233924
 112.0443258  51.8214299 122.1717518 116.3689738  54.3228162 125.1329057
 116.5875748  55.2545270 125.1517091 116.7815512  53.9636136 125.9183861
 123.2893956  44.8296247 117.1204745 122.4794684  44.4843332 117.4959991
 123.9778373  44.5203791 117.7092357 125.2184504  43.9074294 118.7429042
 125.7715543  44.3269748 119.4019065 125.4554590  42.9810042 118.7851998
 120.4430675  47.1446293 111.1072483 121.3049839  47.4701191 111.3668300
 120.6281019  46.3577789 110.5945549 112.4598090  55.2268633 123.3852672
 111.7661562  54.8122585 122.8722626 113.2071081  55.2689169 122.7886091
 128.5963311  46.0174819 118.2507706 128.0161980  46.6759623 117.8685758
 128.3299244  45.1952164 117.8395124 114.3734833  55.1586886 121.2618687
 114.3505521  55.2574574 120.3100570 114.6835469  56.0052037 121.5835853
 117.0322211  57.2163041 125.3765301 117.9865464  57.1846984 125.3095233
 116.8334734  56.7553665 126.1915527 117.6221593  55.7864157 127.9436099
 118.4414482  56.2808236 127.9670936 117.8958401  54.8696126 127.9153666
 127.3788189  48.1774910 117.3064054 126.4914044  48.4624560 117.0884249
 127.7942178  48.0168673 116.4591331 115.3872439  62.7582661 122.3935499
 115.2526907  61.9983062 121.8273497 114.9704502  63.4823561 121.9264288
 126.5231402  57.9419584 111.4012074 127.2267253  58.1469587 112.0169730
 125.7994051  58.5096346 111.6661158 127.3529213  53.6929446 117.5214344
 127.2964414  54.1497997 116.6821977 127.9057555  52.9320130 117.3437187
 118.5441565  63.6551978 122.6053942 118.4273950  64.5997410 122.5032632
 117.7234012  63.3525539 122.9939741 128.4318100  58.3802114 113.4510534
 129.2663704  57.9483312 113.2688009 128.2702443  58.2084127 114.3787429
 128.0863992  54.8834227 114.8166874 128.0312796  54.7178498 113.8755318
 127.4610047  55.5910260 114.9729063 112.8756507  50.1202291 128.6428296
 113.5215371  49.6101245 129.1315521 112.6673658  50.8570973 129.2171721
 121.3960118  44.3842336 114.3952192 121.3838787  45.3284176 114.5520463
 122.2883539  44.2012481 114.1011653 119.5696079  64.3080240 125.8209870
 120.4723326  64.3403850 126.1376365 119.3433450  63.3780691 125.8356206
 121.3249682  63.0611226 122.4819949 120.3745313  63.0613088 122.3684321
 121.6282168  62.3143961 121.9655983 133.8692081  68.8499193 123.4827236
 133.5310593  68.7340257 122.5947771 134.7381849  68.4490358 123.4628242
 129.7278897  70.7034669 119.4724127 129.1643762  70.6124606 118.7040414
 129.6131292  69.8834574 119.9526619 127.2743329  72.1985861 122.3108347
 128.0664621  71.8576685 121.8954646 127.5139979  72.3080836 123.2310501
 135.3078456  74.3705637 114.7838592 134.6566435  74.9559717 114.3972605
 136.1022818  74.9011832 114.8433629 129.2334083  71.4594774 115.1825726
 130.0064959  70.9123761 115.0438602 129.5859482  72.3239023 115.3940187
 131.9975332  70.1648005 124.9793985 132.5938905  69.9404027 124.2650948
 132.0550304  69.4232750 125.5819433 131.5700361  67.6187440 112.8144176
 131.8225881  67.0968961 112.0527639 130.6324920  67.4553586 112.9170860
 136.6143643  66.6223219 120.6218919 137.4006733  66.2042642 120.2709336
 136.8782348  67.5269311 120.7900568 136.7853721  72.0596069 115.3207576
 136.1499554  72.1330695 116.0328481 136.4551127  72.6489668 114.6426655
 131.2896649  69.5215546 115.0168551 131.1732908  68.8460449 115.6849635
 131.3998909  69.0347920 114.2000704 133.6328190  68.9825693 118.7215240
 133.2686398  68.4556314 119.4328162 134.4895306  68.5924162 118.5481726
 133.2733677  64.0115593 113.7176589 133.4408080  64.8795829 114.0847060
 133.0830846  64.1742875 112.7937878 129.4821492  68.9246369 121.4179123
 128.5571988  68.7922583 121.6256815 129.7305905  69.7040588 121.9149066
 133.2522898  66.4673250 114.7023255 133.1322523  66.9130301 115.5408736
 132.5575487  66.8158568 114.1436794 126.8430303  68.5679642 122.2522912
 126.9722684  68.8214121 123.1662324 126.1627754  69.1607350 121.9327568
 131.0129790  79.2376892 118.3513387 130.9353820  80.1884717 118.4301867
 130.4091434  78.8922765 119.0088313 133.1105509  71.6594950 120.1867256
 133.5743854  71.9382653 119.3971879 132.8462307  70.7578395 120.0040347
 130.0029590  71.2066432 123.1247019 130.5730947  71.6353700 122.4864504
 130.5937701  70.9249016 123.8231205 132.0474395  67.7818102 116.9956821
 132.7498438  68.2339146 117.4630748 131.7155023  67.1401921 117.6236714
 125.7899729  66.0401655 122.2973955 124.9998783  66.2959184 121.8214065
 126.2810976  66.8549993 122.4025995 127.7414474  66.4046234 119.2557431
 126.9445637  66.5164929 119.7740927 127.5140066  66.7432887 118.3898322
 124.0737432  66.2932146 124.7288946 124.3245470  67.1779156 124.9946521
 124.6096980  66.1136747 123.9564037 133.2868159  74.5959045 117.0718926
 133.1513834  75.4410581 117.5003774 133.8277972  74.7978323 116.3084860
 126.7397557  72.1134483 117.6446851 127.2522077  72.9077733 117.7952416
 127.3920269  71.4160774 117.5780453 128.5492441  75.2300239 119.7269605
 128.7259070  76.1518204 119.5390589 129.3449275  74.9158659 120.1563984
 127.8344798  67.2764871 129.6031768 127.7198313  66.3750129 129.9038867
 126.9789316  67.5228568 129.2516584 124.7046473  70.4423137 118.4206422
 125.5421695  70.8520146 118.2040130 124.8824741  69.5022580 118.3906616
 136.6010905  68.1098218 114.1090255 136.0857529  68.8802823 114.3478642
 136.3288214  67.4363354 114.7323316 134.1858017  62.9547919 119.1675493
 133.3299613  62.5654769 118.9881132 134.5984968  63.0339880 118.3075279
 131.9600049  60.5732992 122.5733235 132.8253046  60.3775801 122.2139124
 132.0277558  60.3443344 123.5002592 136.3897209  65.9825310 115.9350036
 136.0847344  66.2971459 116.7860179 137.3427651  66.0606730 115.9777369
 134.8343641  72.1415534 117.5842990 134.3065002  71.4068293 117.2716228
 134.3331143  72.9190210 117.3382958 129.5662368  62.8035200 119.9449602
 130.1406120  62.5810381 119.2122795 130.1533351  62.8723894 120.6978203
 129.8931955  64.8339661 113.9645487 129.0569267  65.1714347 114.2854762
 129.7536725  64.6988641 113.0272624 131.8685036  59.6776449 118.6724671
 131.2149448  59.3625466 118.0481286 131.8265510  59.0552189 119.3984494
 132.9796241  69.9595744 110.5877963 132.0723302  69.7284997 110.7869112
 133.4767273  69.1633363 110.7751945 135.8864320  78.6693251 113.5074649
 135.2126018  78.9724948 114.1159607 136.2730142  79.4722331 113.1580106
 135.1022776  66.1658382 122.9972319 134.1845338  66.3873329 122.8394007
 135.5182920  66.2404693 122.1384026 135.8857824  67.5649798 118.1274999
 136.6329643  68.0771195 117.8182121 136.1549414  67.2433851 118.9879393
 134.1584474  70.0608339 115.1101953 133.2495693  69.7767371 115.2074423
 134.1879558  70.4807417 114.2505260 124.7272645  67.7813853 119.0917155
 124.5297044  67.1883213 118.3668222 124.1719309  67.4766063 119.8093094
 132.7069368  67.6736959 121.2111749 132.7617978  66.7210796 121.1354225
 131.8960570  67.8296398 121.6953047 133.8560562  71.6017082 112.4490032
 133.4179992  70.8852941 111.9895669 134.5971003  71.8293197 111.8875123
 130.6461728  66.2914019 118.9702127 129.8329594  66.5908190 119.3767320
 131.1420722  65.8969708 119.6876610 132.7970306  76.2871776 120.9036392
 132.7546485  76.5132622 119.9744924 133.7133005  76.0535151 121.0522193
 130.1375803  63.8632375 124.5863362 130.7775182  63.7221134 123.8886326
 129.3053333  63.5766888 124.2101964 130.9136107  73.1634805 120.6998355
 131.7076705  72.6685125 120.4980930 130.2027799  72.6352668 120.3366060
 127.2218870  67.3077887 116.7758108 126.2916458  67.2462342 116.9928070
 127.3176342  66.7853839 115.9794749 127.1404419  63.8332700 119.3636349
 127.4011237  64.7478033 119.2545510 127.9621592  63.3657142 119.5132962
 128.6129345  65.2470457 126.5335174 129.2852398  65.0387819 125.8847823
 127.7859131  65.0492543 126.0940406 134.0855535  78.8372923 115.7221729
 134.2607290  78.3660967 116.5367351 133.3988323  79.4638690 115.9502989
 135.0412598  73.1145430 121.7685030 134.7062431  73.0746200 122.6642680
 134.5416544  72.4490146 121.2955440 129.0156842  68.5213060 127.2937611
 128.8776640  67.7893298 127.8949150 129.9261765  68.4321960 127.0121799
 131.6439143  68.2333019 126.7821291 132.3538761  67.5926211 126.7407909
 131.6008451  68.4845914 127.7047471 129.7670335  64.6786888 111.1643394
 128.8899802  64.5575689 110.8005640 130.2428089  63.8872967 110.9122282
 121.2872476  69.4664048 121.2584901 121.9743515  69.1525778 120.6705916
 121.1320604  70.3705413 120.9852152 126.0907198  64.3554245 125.6869925
 126.0065386  63.7479914 124.9520334 125.2689904  64.8463263 125.6879421
 132.9534261  77.0313179 118.4105914 132.1701783  77.5734859 118.5044139
 133.6527007  77.5487158 118.8100155 136.2630912  62.8407808 121.0540120
 136.7599611  62.0877770 120.7341190 135.4917893  62.8772125 120.4883329
 137.3460692  71.5979495 118.6278543 136.4116971  71.7180958 118.4583247
 137.5237361  70.6951962 118.3638553 132.8465880  64.9825191 120.7811804
 132.4763668  64.4296231 121.4692710 133.3424973  64.3783325 120.2286804
 135.4363539  78.0326987 119.8047543 135.6185933  77.2148643 120.2675295
 136.2596525  78.2494679 119.3672433 135.7705704  76.9595172 117.0662591
 136.2993471  76.4487626 116.4532753 136.0333924  76.6437702 117.9308124
 126.2722797  74.9759041 124.8097925 126.8576234  74.2302729 124.9425829
 126.0747635  75.2862998 125.6934589 129.1261452  78.0110289 119.8260367
 128.4571827  78.4956416 119.3424407 128.9874322  78.2579509 120.7403746
 120.8640452  67.5464641 123.5302368 120.9024551  67.0128232 124.3239486
 120.3580745  67.0199847 122.9113345 128.2431214  62.3929182 127.0264910
 128.3072541  63.2544013 126.6142308 128.1798334  61.7803184 126.2937269
 124.4949029  66.2728744 116.6056299 124.7902470  65.3639422 116.5523353
 123.5937065  66.2516483 116.2837302 128.0243276  64.3484740 122.5883848
 127.3029862  64.9620708 122.4491321 128.8136532  64.8842505 122.5100494
 126.2236871  63.9542841 116.7295625 125.8949577  63.0740220 116.5470730
 126.5776242  63.8990510 117.6172014 135.4716450  75.5897744 121.2390610
 135.3241412  74.6614451 121.4198180 136.2969943  75.6117835 120.7547685
 129.3378694  64.2415811 117.0971102 129.6774767  64.7701732 116.3749711
 129.7850815  64.5796217 117.8729669 131.3246841  62.7390433 115.2964395
 132.0455204  63.1171685 114.7928112 130.7012145  63.4579309 115.3999373
 135.4677964  63.4435582 116.2322727 135.6841578  64.3260219 115.9311555
 134.9872031  63.0521795 115.5028369 130.2077185  66.4021295 122.8093472
 130.0621766  66.7161598 123.7017753 129.7302389  67.0206195 122.2564371
 132.0673568  63.3923843 122.8574361 132.0535137  62.4964936 122.5206659
 132.7845996  63.3994506 123.4912647 124.6822848  68.9426639 125.7481133
 124.1376316  69.7186447 125.8801407 125.5602197  69.2897444 125.5900254
 131.4710464  62.2738223 118.1261932 131.5926375  61.3454869 118.3252819
 131.1812507  62.2876909 117.2140247 134.3401655  59.9593133 121.2628651
 134.3623351  60.0232467 120.3080631 134.7569714  59.1197642 121.4569158
 125.4688869  68.0696535 128.6411290 124.7270606  68.2179171 129.2275920
 125.1481614  68.3304801 127.7778039 125.9145483  75.9561964 120.6721685
 126.7403503  75.6565736 120.2920328 125.5639535  75.1869587 121.1211473
 130.8827016  75.3088432 122.7419358 130.2607026  74.6459137 122.4421586
 131.5531883  75.3349564 122.0593006 124.1154088  73.8748291 121.6310618
 123.2785997  73.4470465 121.4494619 124.0877734  74.0680734 122.5681409
 130.4440523  73.8592356 116.2177819 130.5928644  74.5427820 115.5644491
 131.2506967  73.8397446 116.7327274 128.1993156  69.8857533 117.2238888
 127.9539198  68.9819863 117.4219098 128.3689071  69.8874684 116.2818366
 127.4688804  65.6185891 114.7225049 126.7758049  65.6930246 114.0665085
 127.2240556  64.8546235 115.2446566 133.9435929  76.3540486 113.6889566
 133.3709896  76.9730673 113.2360038 134.5168722  76.9039848 114.2229488
 134.3282727  67.6901299 111.0305619 135.2741832  67.5607507 111.0994037
 133.9496972  66.9515961 111.5075047 132.5125644  65.6151275 110.9660504
 131.6057100  65.3184388 111.0423217 132.7901625  65.3181093 110.0994790
 123.4303585  66.9357639 121.4159550 123.1106369  66.0822947 121.1233924
 122.8837013  67.1506217 122.1717518 127.2083492  69.6520080 125.1329057
 127.4269502  70.5837188 125.1517091 127.6209266  69.2928054 125.9183861
 134.1287710  60.1588165 117.1204745 133.3188438  59.8135250 117.4959991
 134.8172127  59.8495709 117.7092357 136.0578258  59.2366212 118.7429042
 136.6109297  59.6561665 119.4019065 136.2948345  58.3101960 118.7851998
 131.2824429  62.4738211 111.1072483 132.1443593  62.7993109 111.3668300
 131.4674773  61.6869706 110.5945549 123.2991845  70.5560550 123.3852672
 122.6055316  70.1414503 122.8722626 124.0464836  70.5981087 122.7886091
 125.2128587  70.4878804 121.2618687 125.1899275  70.5866491 120.3100570
 125.5229224  71.3343955 121.5835853 127.8715965  72.5454959 125.3765301
 128.8259219  72.5138901 125.3095233 127.6728489  72.0845583 126.1915527
 126.2266194  78.0874578 122.3935499 126.0920662  77.3274979 121.8273497
 125.8098256  78.8115478 121.9264288 123.7150262  65.4494209 128.6428296
 124.3609125  64.9393163 129.1315521 123.5067413  66.1862891 129.2171721
 132.2353872  59.7134254 114.3952192 132.2232542  60.6576093 114.5520463
 133.1277294  59.5304399 114.1011653 135.3342784  81.6020661 116.6056299
 135.6296225  80.6931340 116.5523353 134.4330820  81.5808401 116.2837302
 137.0630625  79.2834759 116.7295625 136.7343332  78.4032138 116.5470730
 137.4169996  79.2282428 117.6172014  98.4948528  10.2563262 105.0758693
  98.4172558  11.2071087 105.1547174  97.8910172   9.9109134 105.7333620
  97.1542495   7.7664783 112.4525254  97.7049920   7.6381846 111.6802248
  96.3153970   8.0659672 112.1020146 103.3683057   9.6879621 100.2319956
 102.6944756   9.9911317 100.8404914 103.7548879  10.4908701  99.8825413
 101.5674273   9.8559293 102.4467035 101.7426028   9.3847336 103.2612658
 100.8807061  10.4825059 102.6748296  96.1335358  13.0048656 109.2206895
  96.3731956  13.6367180 109.8985914  95.2904554  12.6536696 109.5072255
 100.6463220   8.8127778 111.6248399 100.5733391   9.6182750 112.1367704
 100.2040613   9.0119744 110.7996421 100.4352999   8.0499548 105.1351221
  99.6520521   8.5921228 105.2289445 101.1345744   8.5673528 105.5345462
 103.1061903   8.7114612 113.7806558 103.8189875   9.3462077 113.7082459
 102.6151932   8.8078478 112.9646560  93.7541535   5.9945411 111.5343231
  94.3394972   5.2489099 111.6671136  93.5566373   6.3049367 112.4179895
  96.6080190   9.0296658 106.5505674  95.9390565   9.5142786 106.0669714
  96.4693060   9.2765879 107.4649052 100.7485459  11.0640402 113.1488332
 101.3003767  11.2272023 113.9137417 101.0891652  11.6544839 112.4768357
 100.8951270   8.6298883 115.1636987 101.2038396   8.3848030 116.0359686
 101.6926752   8.8345522 114.6755857 100.9171882  10.7836793 107.3942363
 100.4776872  10.2913172 108.0875220 101.6679999  10.2409761 107.1534438
  93.3964221   6.9748334 107.3966991  94.2222241   6.6752106 107.0165635
  93.0458273   6.2055956 107.8456780  91.5972826   4.8934660 108.3555925
  90.7604734   4.4656835 108.1739926  91.5696471   5.0867104 109.2926716
  93.7084932   9.1060948 109.1180806  93.5739400   8.3461349 108.5518804
  93.2916994   9.8301848 108.6509595  96.8654058  10.0030265 109.3299248
  96.7486442  10.9475698 109.2277939  96.0446504   9.7003827 109.7185047
  97.8908572  10.6558527 112.5455177  98.7935818  10.6882137 112.8621672
  97.6645942   9.7258978 112.5601512  99.6462174   9.4089514 109.2065255
  98.6957805   9.4091375 109.0929628  99.9494660   8.6622248 108.6901290
 115.3814867  15.2450052 110.2711018 116.0193277  15.1256799 109.5674358
 115.2635710  16.1930896 110.3298970 112.1904574  15.1977480 110.2072542
 111.8523085  15.0818545 109.3193077 113.0594342  14.7968645 110.1873549
 108.0491389  17.0512956 106.1969433 107.4856254  16.9602893 105.4285721
 107.9343784  16.2312861 106.6771926 105.5955821  18.5464148 109.0353654
 106.3877113  18.2054973 108.6199953 105.8352471  18.6559123 109.9555807
 113.6290948  20.7183924 101.5083898 112.9778928  21.3038005 101.1217912
 114.4235311  21.2490119 101.5678936 107.5546575  17.8073061 101.9071033
 108.3277451  17.2602048 101.7683908 107.9071974  18.6717311 102.1185494
 109.3931618  19.1349444 115.1137932 109.1021484  20.0395074 114.9984598
 110.0288602  19.1765971 115.8282001 110.3187825  16.5126292 111.7039292
 110.9151397  16.2882314 110.9896255 110.3762796  15.7711038 112.3064739
 109.8912853  13.9665727  99.5389483 110.1438374  13.4447249  98.7772946
 108.9537412  13.8031873  99.6416166 115.1066213  18.4074356 102.0452883
 114.4712046  18.4808983 102.7573787 114.7763620  18.9967955 101.3671962
 109.6109142  15.8693833 101.7413857 109.4945400  15.1938737 102.4094942
 109.7211402  15.3826207 100.9246011 111.9540683  15.3303980 105.4460547
 111.5898890  14.8034601 106.1573468 112.8107799  14.9402450 105.2727032
 114.3521503  18.8210859 112.1087726 114.0522226  19.7235898 112.0003533
 114.0072562  18.5543042 112.9608878 107.8033984  15.2724656 108.1424430
 106.8784481  15.1400870 108.3502122 108.0518397  16.0518875 108.6394372
 111.5735390  12.8151538 101.4268562 111.4535016  13.2608588 102.2654042
 110.8787979  13.1636855 100.8682100 105.1642795  14.9157929 108.9768219
 105.2935176  15.1692408 109.8907631 104.4840247  15.5085637 108.6572874
 109.3342283  25.5855179 105.0758693 109.2566312  26.5363004 105.1547174
 108.7303926  25.2401052 105.7333620 115.8790039  18.2698829 109.6462478
 115.2498901  18.4344543 108.9438545 115.4915701  18.6840439 110.4173442
 119.7579271  19.2053267 107.0006841 119.0730309  19.5852168 106.4503875
 119.8423120  19.8148594 107.7338789 111.4318001  18.0073237 106.9112563
 111.8956346  18.2860940 106.1217185 111.1674799  17.1056682 106.7285653
 108.3242082  17.5544719 109.8492326 108.8943439  17.9831987 109.2109810
 108.9150194  17.2727304 110.5476512 110.3686887  14.1296390 103.7202128
 111.0710930  14.5817433 104.1876054 110.0367515  13.4880209 104.3482021
 104.1112221  12.3879942 109.0219261 103.3211275  12.6437471 108.5459372
 104.6023468  13.2028280 109.1271302 106.0626966  12.7524522 105.9802738
 105.2658129  12.8643216 106.4986234 105.8352558  13.0911174 105.1143629
 111.8932634  19.2769225 113.9285253 111.9577066  19.7389632 114.7643425
 111.1843558  18.6466590 114.0567563 102.3949924  12.6410433 111.4534252
 102.6457962  13.5257443 111.7191828 102.9309472  12.4615034 110.6809344
 111.6080651  20.9437332 103.7964233 111.4726326  21.7888868 104.2249081
 112.1490464  21.1456610 103.0330167 105.0610049  18.4612770 104.3692158
 105.5734569  19.2556021 104.5197723 105.7132762  17.7639061 104.3025760
 106.8704934  21.5778527 106.4514911 107.0471562  22.4996491 106.2635895
 107.6661767  21.2636946 106.8809291 106.1557290  13.6243159 116.3277075
 106.0410805  12.7228416 116.6284173 105.3001808  13.8706855 115.9761891
 107.9936249  23.0956700 112.4525254 108.5443674  22.9673764 111.6802248
 107.1547725  23.3951589 112.1020146 111.7903420  19.3607828 116.7969485
 112.3231757  18.5996116 116.5668793 111.2617501  19.0681480 117.5393639
 103.0258966  16.7901425 105.1451729 103.8634188  17.1998433 104.9285436
 103.2037233  15.8500867 105.1151923 114.9223398  14.4576505 100.8335562
 114.4070021  15.2281110 101.0723949 114.6500706  13.7841642 101.4568623
 119.8957672  17.2108860 102.7688735 119.1187115  16.8720019 102.3243897
 120.5749153  17.2161483 102.0943700 113.1556133  18.4893821 104.3088297
 112.6277494  17.7546580 103.9961534 112.6543636  19.2668497 104.0628265
 118.1348979  16.6842841 109.4255343 117.4772653  17.3742103 109.5135472
 118.9389378  17.0739273 109.7689329 116.9454438  15.0387214 107.4759285
 117.4586319  15.6717206 107.9780995 117.5955661  14.4388409 107.1102645
 108.2144448  11.1817948 100.6890794 107.3781760  11.5192635 101.0100068
 108.0749217  11.0466928  99.7517931 111.3008733  16.3074031  97.3123270
 110.3935795  16.0763284  97.5114419 111.7979765  15.5111650  97.4997251
 114.2076812  25.0171538 100.2319956 113.5338511  25.3203235 100.8404914
 114.5942634  25.8200619  99.8825413 113.4235268  12.5136669 109.7217625
 112.5057830  12.7351616 109.5639313 113.8395412  12.5882980 108.8629333
 114.2070316  13.9128085 104.8520306 114.9542135  14.4249482 104.5427428
 114.4761906  13.5912138 105.7124699 112.4796966  16.4086626 101.8347260
 111.5708186  16.1245659 101.9319730 112.5092050  16.8285704 100.9750567
 117.7116234  20.0193215 105.6038427 117.2578561  19.1784125 105.6603618
 117.0810201  20.6554614 105.9413208 116.1549173  21.8569712 106.5388246
 116.4472147  22.4174769 105.8200611 116.6647794  22.1498273 107.2941405
 103.0485137  14.1292140 105.8162462 102.8509537  13.5361501 105.0913529
 102.4931801  13.8244350 106.5338401 111.0281860  14.0215246 107.9357055
 111.0830470  13.0689083 107.8599532 110.2173062  14.1774686 108.4198354
 112.1773054  17.9495370  99.1735338 111.7392484  17.2331228  98.7140976
 112.9183495  18.1771484  98.6120430 108.9674220  12.6392306 105.6947434
 108.1542086  12.9386477 106.1012626 109.4633215  12.2447995 106.4121916
 111.1182798  22.6350063 107.6281699 111.0758977  22.8610909 106.6990231
 112.0345497  22.4013438 107.7767500 120.2946169  16.2252567 105.2311657
 120.1564068  16.4154163 104.3032846 119.9382388  16.9871949 105.6879708
 109.2348599  19.5113092 107.4243662 110.0289198  19.0163412 107.2226236
 108.5240291  18.9830955 107.0611367 114.0543444  21.8931188 111.7756029
 114.1080466  22.4622124 112.5433745 113.1858225  22.0633073 111.4110066
 105.5431362  13.6556174 103.5003414 104.6128951  13.5940629 103.7173376
 105.6388834  13.1332127 102.7040055 105.4616912  10.1810987 106.0881656
 105.7223729  11.0956320 105.9790816 106.2834084   9.7135429 106.2378269
 106.9341837  11.5948744 113.2580480 107.6064890  11.3866106 112.6093129
 106.1071623  11.3970830 112.8185713 113.0131543  16.0591450 113.3342961
 113.9423603  16.2102609 113.1611928 112.5922573  16.1475471 112.4791608
 111.8119875  20.0842114 111.1041499 111.6730961  19.7160899 111.9767437
 111.0234471  20.5989754 110.9325456 112.4068027  25.1851211 102.4467035
 112.5819783  24.7139254 103.2612658 111.7200815  25.8116977 102.6748296
 113.3625090  19.4623717 108.4930336 113.0274923  19.4224487 109.3887986
 112.8629036  18.7968433 108.0200747 107.3369334  14.8691347 114.0182918
 107.1989132  14.1371586 114.6194457 108.2474258  14.7800247 113.7367105
 116.2984282  16.8079751  98.7667396 115.6813452  16.0826579  98.6700449
 115.8300770  17.5689111  98.4234470 109.9651635  14.5811306 113.5066597
 110.6751253  13.9404498 113.4653216 109.9220943  14.8324201 114.4292778
 106.9729112  28.3340573 109.2206895 107.2125711  28.9659098 109.8985914
 106.1298309  27.9828613 109.5072255 108.0882828  11.0265176  97.8888700
 107.2112294  10.9053976  97.5250947 108.5640581  10.2351254  97.6367589
  99.6084968  15.8142335 107.9830207 100.2956008  15.5004065 107.3951223
  99.4533097  16.7183700 107.7097459 104.4119690  10.7032532 112.4115231
 104.3277879  10.0958201 111.6765641 103.5902396  11.1941550 112.4124728
 111.4856974  24.1419696 111.6248399 111.4127146  24.9474667 112.1367704
 111.0434367  24.3411662 110.7996421 111.2746754  23.3791466 105.1351221
 110.4914276  23.9213146 105.2289445 111.9739499  23.8965446 105.5345462
 113.9455658  24.0406530 113.7806558 114.6583630  24.6753995 113.7082459
 113.4545686  24.1370396 112.9646560 115.6673185  17.9457783 105.3523850
 114.7329463  18.0659245 105.1828554 115.8449853  17.0430249 105.0883859
 108.9967571  21.7900973 114.6012129 109.6977031  22.4237456 114.7541523
 108.5262686  22.1315705 113.8407768 117.1221967  20.1318923 102.8860036
 117.3981811  20.0175518 103.7953910 116.2526466  19.7336408 102.8472209
 113.7576031  24.3805274 106.5292849 113.9398426  23.5626930 106.9920602
 114.5809017  24.5972966 106.0917739 114.0918197  23.3073459 103.7907898
 114.6205963  22.7965914 103.1778060 114.3546416  22.9915989 104.6553431
 104.5935289  21.3237328 111.5343231 105.1788726  20.5781016 111.6671136
 104.3960128  21.6341285 112.4179895 107.4473944  24.3588576 106.5505674
 106.7784320  24.8434703 106.0669714 107.3086814  24.6057796 107.4649052
  99.1852944  13.8942929 110.2547675  99.2237044  13.3606519 111.0484793
  98.6793237  13.3678134 109.6358652 111.5879213  26.3932319 113.1488332
 112.1397521  26.5563941 113.9137417 111.9285407  26.9836757 112.4768357
 102.8161522  12.6207031 103.3301606 103.1114963  11.7117709 103.2768660
 101.9149557  12.5994770 103.0082608 114.7247600  24.3414295 110.1352014
 114.5998740  23.5404035 109.6262960 115.3826691  24.8360488 109.6465984
 106.3455769  10.6963027 109.3129155 105.6242354  11.3098995 109.1736628
 107.1349024  11.2320792 109.2345801 116.7882509  22.1423315 111.7631564
 115.8412844  22.0228666 111.6909891 117.1365282  21.2545813 111.8457826
 104.5449363  10.3021128 103.4540931 104.2162069   9.4218507 103.2716037
 104.8988734  10.2468797 104.3417320 113.7928942  21.9376031 107.9635917
 113.6453904  21.0092739 108.1443487 114.6182436  21.9596122 107.4792992
 107.6591186  10.5894098 103.8216409 107.9987259  11.1180019 103.0995017
 108.1063307  10.9274504 104.5974975 117.3963064  22.7604590 109.0500789
 118.3209611  22.5547451 108.9125241 117.2278367  22.5120991 109.9590131
 108.5289678  12.7499582 109.5338779 108.3834258  13.0639885 110.4263060
 108.0514881  13.3684482 108.9809677 117.1858380  23.2790257 104.4062881
 117.3595258  22.7136680 103.6536733 117.6787271  24.0791152 104.2242371
 103.0035340  15.2904926 112.4726440 102.4588808  16.0664734 112.6046714
 103.8814690  15.6375731 112.3145561 118.1733553  22.5957022 101.5059779
 118.8684457  23.2163714 101.7247094 118.5156703  21.7452373 101.7812157
 103.7901362  14.4174823 115.3656597 103.0483098  14.5657458 115.9521227
 103.4694106  14.6783088 114.5023346 120.0724976  20.0456727 103.0347110
 120.5976300  20.3844000 102.3096430 119.9847328  19.1103743 102.8510245
 111.7345024  23.9590801 115.1636987 112.0432151  23.7139948 116.0359686
 112.5320506  24.1637439 114.6755857 111.7565636  26.1128711 107.3942363
 111.3170627  25.6205089 108.0875220 112.5073753  25.5701678 107.1534438
 104.2357975  22.3040251 107.3966991 105.0615995  22.0044023 107.0165635
 103.8852027  21.5347874 107.8456780 109.2039509  21.6566720 109.4664665
 108.5819518  20.9937425 109.1666893 109.8744375  21.6827851 108.7838313
 102.4366580  20.2226578 108.3555925 101.5998489  19.7948752 108.1739926
 102.4090226  20.4159021 109.2926716 108.7653015  20.2070643 102.9423125
 108.9141136  20.8906107 102.2889798 109.5719459  20.1875733 103.4572581
 106.5205648  16.2335821 103.9484194 106.2751690  15.3298151 104.1464404
 106.6901563  16.2352971 103.0063672 105.7901296  11.9664178 101.4470356
 105.0970541  12.0408533 100.7910392 105.5453048  11.2024522 101.9691873
 112.2648421  22.7018773 100.4134873 111.6922388  23.3208961  99.9605345
 112.8381215  23.2518135 100.9474795 115.4845681  22.9855924 101.5443455
 116.4176354  22.9201485 101.7476331 115.3968894  23.8212190 101.0857988
 118.1133697  22.3021794  98.5047403 118.0347329  21.9681657  99.3983161
 118.9343364  22.7943562  98.5038875 112.6495220  14.0379586  97.7550925
 113.5954324  13.9085794  97.8239343 112.2709464  13.2994248  98.2320353
 110.8338137  11.9629563  97.6905810 109.9269592  11.6662675  97.7668524
 111.1114118  11.6659381  96.8240097 101.7516077  13.2835926 108.1404857
 101.4318861  12.4301234 107.8479231 101.2049505  13.4984504 108.8962824
 105.5295985  15.9998367 111.8574363 105.7481994  16.9315475 111.8762397
 105.9421758  15.6406341 112.6429167 101.6204337  16.9038837 110.1097978
 100.9267808  16.4892790 109.5967933 102.3677328  16.9459374 109.5131397
 103.5341080  16.8357091 107.9863993 103.5111768  16.9344778 107.0345876
 103.8441716  17.6822242 108.3081159 106.1928457  18.8933246 112.1010608
 107.1471711  18.8617189 112.0340539 105.9940981  18.4323870 112.9160834
 106.7827840  17.4634362 114.6681405 107.6020729  17.9578441 114.6916243
 107.0564647  16.5466330 114.6398973 104.5478686  24.4352866 109.1180806
 104.4133154  23.6753267 108.5518804 104.1310749  25.1593766 108.6509595
 115.6837649  19.6189789  98.1257381 116.3873499  19.8239792  98.7415037
 114.9600298  20.1866551  98.3906464 116.5135460  15.3699651 104.2459651
 116.4570661  15.8268202 103.4067284 117.0663802  14.6090335 104.0682494
 107.7047812  25.3322183 109.3299248 107.5880196  26.2767615 109.2277939
 106.8840258  25.0295744 109.7185047 117.5924347  20.0572318 100.1755841
 118.4269951  19.6253517  99.9933316 117.4308690  19.8854332 101.1032735
 117.2470239  16.5604432 101.5412180 117.1919043  16.3948703 100.6000624
 116.6216294  17.2680465 101.6974370 102.0362754  11.7972496 115.3673602
 102.6821617  11.2871450 115.8560828 101.8279905  12.5341178 115.9417028
 108.7302326  25.9850445 112.5455177 109.6329573  26.0174055 112.8621672
 108.5039696  25.0550896 112.5601512 110.4855928  24.7381431 109.2065255
 109.5351559  24.7383293 109.0929628 110.7888414  23.9914166 108.6901290
 126.2208622  30.5741970 110.2711018 126.8587032  30.4548717 109.5674358
 126.1029465  31.5222814 110.3298970 123.0298328  30.5269398 110.2072542
 122.6916840  30.4110462 109.3193077 123.8988096  30.1260563 110.1873549
 118.8885144  32.3804874 106.1969433 118.3250009  32.2894811 105.4285721
 118.7737539  31.5604779 106.6771926 116.4349576  33.8756066 109.0353654
 117.2270868  33.5346890 108.6199953 116.6746226  33.9851041 109.9555807
 124.4684702  36.0475842 101.5083898 123.8172682  36.6329922 101.1217912
 125.2629065  36.5782037 101.5678936 118.3940330  33.1364979 101.9071033
 119.1671206  32.5893966 101.7683908 118.7465728  34.0009228 102.1185494
 120.2325372  34.4641361 115.1137932 119.9415238  35.3686992 114.9984598
 120.8682357  34.5057889 115.8282001 121.1581579  31.8418210 111.7039292
 121.7545151  31.6174232 110.9896255 121.2156551  31.1002955 112.3064739
 120.7306607  29.2957645  99.5389483 120.9832128  28.7739166  98.7772946
 119.7931167  29.1323791  99.6416166 125.7749890  28.2993423 107.3464226
 126.5612979  27.8812847 106.9954643 126.0388595  29.2039516 107.5145874
 125.9459968  33.7366274 102.0452883 125.3105801  33.8100900 102.7573787
 125.6157374  34.3259873 101.3671962 120.4502896  31.1985751 101.7413857
 120.3339154  30.5230654 102.4094942 120.5605156  30.7118125 100.9246011
 122.7934437  30.6595898 105.4460547 122.4292644  30.1326519 106.1573468
 123.6501553  30.2694367 105.2727032 122.4339924  25.6885798 100.4421895
 122.6014326  26.5566034 100.8092366 122.2437093  25.8513080  99.5183184
 125.1915257  34.1502777 112.1087726 124.8915980  35.0527816 112.0003533
 124.8466317  33.8834960 112.9608878 118.6427739  30.6016574 108.1424430
 117.7178235  30.4692788 108.3502122 118.8912152  31.3810793 108.6394372
 122.4129145  28.1443455 101.4268562 122.2928770  28.5900506 102.2654042
 121.7181733  28.4928773 100.8682100 116.0036550  30.2449847 108.9768219
 116.1328931  30.4984326 109.8907631 115.3234001  30.8377555 108.6572874
 120.1736037  40.9147097 105.0758693 120.0960067  41.8654922 105.1547174
 119.5697681  40.5692970 105.7333620 128.1114211  28.6164929 102.2548896
 129.0232067  28.8492315 102.0796594 127.6023858  29.2001973 101.6923975
 126.7183793  33.5990747 109.6462478 126.0892656  33.7636461 108.9438545
 126.3309456  34.0132357 110.4173442 130.5973025  34.5345185 107.0006841
 129.9124063  34.9144086 106.4503875 130.6816875  35.1440511 107.7338789
 122.2711755  33.3365155 106.9112563 122.7350101  33.6152858 106.1217185
 122.0068553  32.4348600 106.7285653 119.1635836  32.8836637 109.8492326
 119.7337193  33.3123905 109.2109810 119.7543948  32.6019221 110.5476512
 121.2080641  29.4588307 103.7202128 121.9104685  29.9109351 104.1876054
 120.8761270  28.8172126 104.3482021 114.9505975  27.7171860 109.0219261
 114.1605029  27.9729389 108.5459372 115.4417223  28.5320198 109.1271302
 116.9020721  28.0816439 105.9802738 116.1051884  28.1935134 106.4986234
 116.6746313  28.4203092 105.1143629 122.7326388  34.6061143 113.9285253
 122.7970821  35.0681550 114.7643425 122.0237312  33.9758507 114.0567563
 113.2343678  27.9702351 111.4534252 113.4851717  28.8549360 111.7191828
 113.7703227  27.7906952 110.6809344 122.4474406  36.2729250 103.7964233
 122.3120081  37.1180786 104.2249081 122.9884218  36.4748528 103.0330167
 115.9003803  33.7904688 104.3692158 116.4128324  34.5847938 104.5197723
 116.5526516  33.0930979 104.3025760 117.7098688  36.9070444 106.4514911
 117.8865316  37.8288409 106.2635895 118.5055522  36.5928864 106.8809291
 116.9951045  28.9535076 116.3277075 116.8804560  28.0520333 116.6284173
 116.1395562  29.1998773 115.9761891 118.8330004  38.4248618 112.4525254
 119.3837429  38.2965681 111.6802248 117.9941479  38.7243507 112.1020146
 122.6297175  34.6899746 116.7969485 123.1625511  33.9288034 116.5668793
 122.1011256  34.3973398 117.5393639 113.8652720  32.1193342 105.1451729
 114.7027942  32.5290351 104.9285436 114.0430988  31.1792785 105.1151923
 125.7617152  29.7868423 100.8335562 125.2463776  30.5573028 101.0723949
 125.4894461  29.1133559 101.4568623 123.3464263  24.6318124 105.8920800
 122.4905860  24.2424974 105.7126439 123.7591215  24.7110085 105.0320586
 121.1206296  22.2503197 109.2978541 121.9859293  22.0546005 108.9384431
 121.1883805  22.0213549 110.2247898 130.7351426  32.5400778 102.7688735
 129.9580869  32.2011937 102.3243897 131.4142907  32.5453401 102.0943700
 125.5503455  27.6595515 102.6595343 125.2453591  27.9741664 103.5105486
 126.5033898  27.7376935 102.7022676 123.9949887  33.8185738 104.3088297
 123.4671249  33.0838498 103.9961534 123.4937390  34.5960415 104.0628265
 128.9742733  32.0134759 109.4255343 128.3166408  32.7034020 109.5135472
 129.7783133  32.4031191 109.7689329 118.7268615  24.4805405 106.6694908
 119.3012367  24.2580586 105.9368101 119.3139597  24.5494099 107.4223510
 127.7848192  30.3679132 107.4759285 128.2980074  31.0009123 107.9780995
 128.4349416  29.7680327 107.1102645 119.0538202  26.5109866 100.6890794
 118.2175514  26.8484552 101.0100068 118.9142972  26.3758846  99.7517931
 121.0291283  21.3546654 105.3969978 120.3755695  21.0395671 104.7726592
 120.9871757  20.7322394 106.1229801 122.1402487  31.6365949  97.3123270
 121.2329549  31.4055202  97.5114419 122.6373519  30.8403568  97.4997251
 125.0470566  40.3463456 100.2319956 124.3732265  40.6495153 100.8404914
 125.4336388  41.1492536  99.8825413 124.2629023  27.8428587 109.7217625
 123.3451584  28.0643534 109.5639313 124.6789167  27.9174898 108.8629333
 125.0464071  29.2420003 104.8520306 125.7935890  29.7541400 104.5427428
 125.3155660  28.9204056 105.7124699 123.3190721  31.7378544 101.8347260
 122.4101940  31.4537576 101.9319730 123.3485805  32.1577622 100.9750567
 128.5509988  35.3485133 105.6038427 128.0972315  34.5076043 105.6603618
 127.9203955  35.9846531 105.9413208 127.4942908  26.2777119 106.8339095
 126.7565665  25.7654505 107.1649337 127.7469681  25.8377501 106.0222372
 126.9942928  37.1861630 106.5388246 127.2865902  37.7466687 105.8200611
 127.5041548  37.4790191 107.2941405 113.8878891  29.4584058 105.8162462
 113.6903291  28.8653418 105.0913529 113.3325555  29.1536268 106.5338401
 121.8675615  29.3507164 107.9357055 121.9224225  28.3981001 107.8599532
 121.0566817  29.5066603 108.4198354 123.0166809  33.2787287  99.1735338
 122.5786239  32.5623146  98.7140976 123.7577250  33.5063402  98.6120430
 119.8067975  27.9684224 105.6947434 118.9935840  28.2678394 106.1012626
 120.3026969  27.5739913 106.4121916 121.9576553  37.9641981 107.6281699
 121.9152732  38.1902827 106.6990231 122.8739252  37.7305355 107.7767500
 131.1339923  31.5544484 105.2311657 130.9957822  31.7446080 104.3032846
 130.7776142  32.3163867 105.6879708 119.2982050  25.5402579 111.3108669
 119.9381429  25.3991339 110.6131632 118.4659580  25.2537093 110.9347271
 120.0742354  34.8405010 107.4243662 120.8682952  34.3455330 107.2226236
 119.3634046  34.3122873 107.0611367 124.8937198  37.2223105 111.7756029
 124.9474220  37.7914042 112.5433745 124.0251979  37.3924990 111.4110066
 116.3825117  28.9848092 103.5003414 115.4522705  28.9232547 103.7173376
 116.4782589  28.4624044 102.7040055 116.3010666  25.5102904 106.0881656
 116.5617483  26.4248238 105.9790816 117.1227838  25.0427347 106.2378269
 117.7735591  26.9240662 113.2580480 118.4458645  26.7158024 112.6093129
 116.9465378  26.7262748 112.8185713 123.8525298  31.3883367 113.3342961
 124.7817358  31.5394527 113.1611928 123.4316328  31.4767388 112.4791608
 122.6513630  35.4134032 111.1041499 122.5124715  35.0452816 111.9767437
 121.8628226  35.9281671 110.9325456 123.2461781  40.5143128 102.4467035
 123.4213537  40.0431172 103.2612658 122.5594570  41.1408895 102.6748296
 124.2018845  34.7915635 108.4930336 123.8668677  34.7516405 109.3887986
 123.7022790  34.1260350 108.0200747 118.1763089  30.1983265 114.0182918
 118.0382887  29.4663503 114.6194457 119.0868012  30.1092165 113.7367105
 127.1378036  32.1371669  98.7667396 126.5207207  31.4118497  98.6700449
 126.6694525  32.8981029  98.4234470 120.8045389  29.9103224 113.5066597
 121.5145008  29.2696416 113.4653216 120.7614697  30.1616119 114.4292778
 117.8122867  43.6632491 109.2206895 118.0519465  44.2951015 109.8985914
 116.9692063  43.3120531 109.5072255 118.9276582  26.3557093  97.8888700
 118.0506049  26.2345894  97.5250947 119.4034335  25.5643171  97.6367589
 110.4478722  31.1434253 107.9830207 111.1349762  30.8295983 107.3951223
 110.2926851  32.0475618 107.7097459 115.2513445  26.0324449 112.4115231
 115.1671633  25.4250119 111.6765641 114.4296151  26.5233468 112.4124728
 122.3250729  39.4711614 111.6248399 122.2520900  40.2766585 112.1367704
 121.8828122  39.6703579 110.7996421 122.1140508  38.7083384 105.1351221
 121.3308030  39.2505064 105.2289445 122.8133253  39.2257363 105.5345462
 125.4237158  24.5178013 107.7785426 125.9205858  23.7647975 107.4586496
 124.6524140  24.5542330 107.2128636 124.7849412  39.3698448 113.7806558
 125.4977384  40.0045912 113.7082459 124.2939441  39.4662314 112.9646560
 126.5066939  33.2749700 105.3523850 125.5723218  33.3951163 105.1828554
 126.6843608  32.3722167 105.0883859 122.0072127  26.6595396 107.5057111
 121.6369915  26.1066436 108.1938016 122.5031220  26.0553529 106.9532111
 129.8939490  29.1167020 105.8873884 130.3599943  29.9495011 105.8134186
 130.3446991  28.6512001 106.5919142 119.8361326  37.1192891 114.6012129
 120.5370785  37.7529374 114.7541523 119.3656441  37.4607623 113.8407768
 127.9615722  35.4610841 102.8860036 128.2375565  35.3467435 103.7953910
 127.0920220  35.0628326 102.8472209 124.5969786  39.7097192 106.5292849
 124.7792180  38.8918848 106.9920602 125.4202772  39.9264884 106.0917739
 124.9311951  38.6365377 103.7907898 125.4599717  38.1257831 103.1778060
 125.1940171  38.3207907 104.6553431 115.4329044  36.6529246 111.5343231
 116.0182481  35.9072934 111.6671136 115.2353882  36.9633203 112.4179895
 118.2867699  39.6880493 106.5505674 117.6178074  40.1726621 106.0669714
 118.1480569  39.9349714 107.4649052 110.0246698  29.2234846 110.2547675
 110.0630798  28.6898437 111.0484793 109.5186991  28.6970052 109.6358652
 122.4272968  41.7224237 113.1488332 122.9791276  41.8855858 113.9137417
 122.7679161  42.3128675 112.4768357 117.4037461  24.0699387 113.7510217
 117.4678787  24.9314218 113.3387615 117.3404581  23.4573388 113.0182575
 113.6555276  27.9498948 103.3301606 113.9508717  27.0409627 103.2768660
 112.7543312  27.9286688 103.0082608 125.5641355  39.6706212 110.1352014
 125.4392494  38.8695952 109.6262960 126.2220446  40.1652406 109.6465984
 117.1849523  26.0254945 109.3129155 116.4636109  26.6390913 109.1736628
 117.9742779  26.5612710 109.2345801 127.6276263  37.4715233 111.7631564
 126.6806599  37.3520584 111.6909891 127.9759036  36.5837731 111.8457826
 115.3843118  25.6313046 103.4540931 115.0555824  24.7510425 103.2716037
 115.7382488  25.5760715 104.3417320 124.6322697  37.2667949 107.9635917
 124.4847659  36.3384656 108.1443487 125.4576190  37.2888040 107.4792992
 118.4984941  25.9186016 103.8216409 118.8381013  26.4471937 103.0995017
 118.9457061  26.2566422 104.5974975 128.2356818  38.0896508 109.0500789
 129.1603366  37.8839369 108.9125241 128.0672122  37.8412909 109.9590131
 120.4853088  24.4160637 102.0209702 121.2061450  24.7941890 101.5173418
 119.8618392  25.1349514 102.1244680 124.6284211  25.1205786 102.9568034
 124.8447825  26.0030424 102.6556862 124.1478278  24.7292000 102.2273676
 119.3683432  28.0791500 109.5338779 119.2228013  28.3931803 110.4263060
 118.8908636  28.6976400 108.9809677 121.2279815  25.0694048 109.5819668
 121.2141384  24.1735141 109.2451966 121.9452243  25.0764711 110.2157954
 128.0252135  38.6082175 104.4062881 128.1989012  38.0428597 103.6536733
 128.5181026  39.4083070 104.2242371 113.8429094  30.6196844 112.4726440
 113.2982562  31.3956652 112.6046714 114.7208444  30.9667649 112.3145561
 120.6316711  23.9508428 104.8507238 120.7532622  23.0225074 105.0498126
 120.3418753  23.9647114 103.9385554 123.5007901  21.6363338 107.9873958
 123.5229598  21.7002671 107.0325938 123.9175960  20.7967847 108.1814464
 133.8791526  31.3718598 106.0253181 134.3222672  30.6225923 105.6272304
 133.0018036  31.3628734 105.6426913 129.0127307  37.9248939 101.5059779
 129.7078212  38.5455632 101.7247094 129.3550457  37.0744291 101.7812157
 114.6295116  29.7466740 115.3656597 113.8876852  29.8949376 115.9521227
 114.3087861  30.0075006 114.5023346 130.9118730  35.3748645 103.0347110
 131.4370054  35.7135918 102.3096430 130.8241083  34.4395660 102.8510245
 122.5738779  39.2882719 115.1636987 122.8825905  39.0431865 116.0359686
 123.3714261  39.4929357 114.6755857 122.5959391  41.4420628 107.3942363
 122.1564381  40.9497007 108.0875220 123.3467508  40.8993596 107.1534438
 115.0751730  37.6332169 107.3966991 115.9009750  37.3335941 107.0165635
 114.7245782  36.8639791 107.8456780 120.0433263  36.9858637 109.4664665
 119.4213272  36.3229342 109.1666893 120.7138130  37.0119769 108.7838313
 113.2760335  35.5518496 108.3555925 112.4392243  35.1240670 108.1739926
 113.2483980  35.7450939 109.2926716 119.6046770  35.5362561 102.9423125
 119.7534890  36.2198025 102.2889798 120.4113213  35.5167651 103.4572581
 117.3599403  31.5627738 103.9484194 117.1145445  30.6590068 104.1464404
 117.5295318  31.5644889 103.0063672 116.6295051  27.2956096 101.4470356
 115.9364295  27.3700451 100.7910392 116.3846802  26.5316439 101.9691873
 123.1042176  38.0310691 100.4134873 122.5316143  38.6500878  99.9605345
 123.6774969  38.5810053 100.9474795 126.3239435  38.3147841 101.5443455
 127.2570108  38.2493403 101.7476331 126.2362648  39.1504108 101.0857988
 128.9527452  37.6313712  98.5047403 128.8741084  37.2973575  99.3983161
 129.7737119  38.1235479  98.5038875 123.4888974  29.3671504  97.7550925
 124.4348079  29.2377712  97.8239343 123.1103219  28.6286166  98.2320353
 121.6731891  27.2921480  97.6905810 120.7663347  26.9954593  97.7668524
 121.9507872  26.9951298  96.8240097 112.5909832  28.6127844 108.1404857
 112.2712616  27.7593152 107.8479231 112.0443260  28.8276422 108.8962824
 116.3689739  31.3290285 111.8574363 116.5875749  32.2607392 111.8762397
 116.7815513  30.9698259 112.6429167 123.2893957  21.8358370 103.8450052
 122.4794685  21.4905455 104.2205298 123.9778374  21.5265914 104.4337663
 125.2184505  20.9136417 105.4674348 125.7715544  21.3331870 106.1264372
 125.4554592  19.9872165 105.5097304 120.4430676  24.1508415  97.8317790
 121.3049840  24.4763314  98.0913607 120.6281020  23.3639911  97.3190855
 112.4598092  32.2330755 110.1097978 111.7661563  31.8184708 109.5967933
 113.2071083  32.2751292 109.5131397 128.5963312  23.0236942 104.9753013
 128.0161981  23.6821746 104.5931065 128.3299245  22.2014286 104.5640430
 114.3734834  32.1649009 107.9863993 114.3505522  32.2636696 107.0345876
 114.6835471  33.0114160 108.3081159 117.0322212  34.2225164 112.1010608
 117.9865466  34.1909106 112.0340539 116.8334736  33.7615788 112.9160834
 117.6221594  32.7926280 114.6681405 118.4414483  33.2870359 114.6916243
 117.8958402  31.8758248 114.6398973 127.3788190  25.1837032 104.0309361
 126.4914045  25.4686683 103.8129556 127.7942179  25.0230796 103.1836638
 115.3872441  39.7644783 109.1180806 115.2526909  39.0045184 108.5518804
 114.9704503  40.4885683 108.6509595 126.5231404  34.9481707  98.1257381
 127.2267254  35.1531709  98.7415037 125.7994053  35.5158469  98.3906464
 127.3529214  30.6991568 104.2459651 127.2964415  31.1560120 103.4067284
 127.9057556  29.9382253 104.0682494 118.5441567  40.6614100 109.3299248
 118.4273951  41.6059533 109.2277939 117.7234013  40.3587662 109.7185047
 128.4318101  35.3864236 100.1755841 129.2663705  34.9545435  99.9933316
 128.2702444  35.2146250 101.1032735 128.0863993  31.8896349 101.5412180
 128.0312797  31.7240621 100.6000624 127.4610049  32.5972382 101.6974370
 112.8756508  27.1264414 115.3673602 113.5215372  26.6163368 115.8560828
 112.6673659  27.8633095 115.9417028 121.3960119  21.3904458 101.1197499
 121.3838789  22.3346298 101.2765770 122.2883541  21.2074604 100.8256960
 119.5696081  41.3142362 112.5455177 120.4723327  41.3465973 112.8621672
 119.3433451  40.3842813 112.5601512 121.3249683  40.0673349 109.2065255
 120.3745314  40.0675210 109.0929628 121.6282169  39.3206083 108.6901290
 133.8692083  45.8561315 110.2072542 133.5310594  45.7402380 109.3193077
 134.7381851  45.4552480 110.1873549 129.7278898  47.7096792 106.1969433
 129.1643763  47.6186729 105.4285721 129.6131293  46.8896696 106.6771926
 127.2743330  49.2047983 109.0353654 128.0664622  48.8638808 108.6199953
 127.5139980  49.3142958 109.9555807 135.3078457  51.3767759 101.5083898
 134.6566437  51.9621840 101.1217912 136.1022820  51.9073954 101.5678936
 129.2334084  48.4656897 101.9071033 130.0064960  47.9185884 101.7683908
 129.5859483  49.3301146 102.1185494 131.0719127  49.7933279 115.1137932
 130.7808993  50.6978910 114.9984598 131.7076111  49.8349807 115.8282001
 131.9975334  47.1710127 111.7039292 132.5938906  46.9466150 110.9896255
 132.0550305  46.4294873 112.3064739 131.5700362  44.6249563  99.5389483
 131.8225883  44.1031084  98.7772946 130.6324921  44.4615708  99.6416166
 136.6143645  43.6285341 107.3464226 137.4006734  43.2104764 106.9954643
 136.8782349  44.5331433 107.5145874 136.7853722  49.0658191 102.0452883
 136.1499555  49.1392818 102.7573787 136.4551129  49.6551790 101.3671962
 131.2896651  46.5277669 101.7413857 131.1732909  45.8522572 102.4094942
 131.3998911  46.0410043 100.9246011 133.6328192  45.9887816 105.4460547
 133.2686399  45.4618437 106.1573468 134.4895308  45.5986285 105.2727032
 133.2733679  41.0177715 100.4421895 133.4408081  41.8857952 100.8092366
 133.0830848  41.1804997  99.5183184 136.0309012  49.4794694 112.1087726
 135.7309735  50.3819733 112.0003533 135.6860071  49.2126878 112.9608878
 129.4821493  45.9308491 108.1424430 128.5571990  45.7984705 108.3502122
 129.7305906  46.7102710 108.6394372 133.2522899  43.4735373 101.4268562
 133.1322525  43.9192424 102.2654042 132.5575488  43.8220691 100.8682100
 126.8430304  45.5741765 108.9768219 126.9722685  45.8276244 109.8907631
 126.1627756  46.1669473 108.6572874 131.0129792  56.2439015 105.0758693
 130.9353821  57.1946840 105.1547174 130.4091435  55.8984887 105.7333620
 137.5577548  48.9282665 109.6462478 136.9286410  49.0928379 108.9438545
 137.1703210  49.3424274 110.4173442 133.1105510  48.6657073 106.9112563
 133.5743855  48.9444776 106.1217185 132.8462308  47.7640517 106.7285653
 130.0029591  48.2128554 109.8492326 130.5730948  48.6415823 109.2109810
 130.5937703  47.9311139 110.5476512 132.0474396  44.7880225 103.7202128
 132.7498439  45.2401269 104.1876054 131.7155024  44.1464044 104.3482021
 125.7899730  43.0463778 109.0219261 124.9998784  43.3021306 108.5459372
 126.2810977  43.8612116 109.1271302 127.7414475  43.4108357 105.9802738
 126.9445638  43.5227051 106.4986234 127.5140067  43.7495009 105.1143629
 133.5720143  49.9353060 113.9285253 133.6364575  50.3973467 114.7643425
 132.8631067  49.3050425 114.0567563 124.0737433  43.2994268 111.4534252
 124.3245471  44.1841278 111.7191828 124.6096981  43.1198870 110.6809344
 133.2868160  51.6021168 103.7964233 133.1513835  52.4472703 104.2249081
 133.8277973  51.8040445 103.0330167 126.7397558  49.1196606 104.3692158
 127.2522078  49.9139856 104.5197723 127.3920271  48.4222896 104.3025760
 128.5492443  52.2362362 106.4514911 128.7259071  53.1580327 106.2635895
 129.3449276  51.9220781 106.8809291 127.8344799  44.2826994 116.3277075
 127.7198314  43.3812251 116.6284173 126.9789317  44.5290691 115.9761891
 129.6723758  53.7540536 112.4525254 130.2231183  53.6257599 111.6802248
 128.8335234  54.0535425 112.1020146 133.4690929  50.0191664 116.7969485
 134.0019266  49.2579952 116.5668793 132.9405010  49.7265315 117.5393639
 124.7046475  47.4485260 105.1451729 125.5421697  47.8582268 104.9285436
 124.8824742  46.5084702 105.1151923 136.6010907  45.1160341 100.8335562
 136.0857530  45.8864945 101.0723949 136.3288215  44.4425477 101.4568623
 134.1858018  39.9610041 105.8920800 133.3299614  39.5716892 105.7126439
 134.5984970  40.0402002 105.0320586 131.9600050  37.5795114 109.2978541
 132.8253047  37.3837923 108.9384431 132.0277559  37.3505466 110.2247898
 136.3897210  42.9887433 102.6595343 136.0847345  43.3033582 103.5105486
 137.3427652  43.0668853 102.7022676 134.8343642  49.1477656 104.3088297
 134.3065003  48.4130416 103.9961534 134.3331144  49.9252332 104.0628265
 129.5662369  39.8097322 106.6694908 130.1406121  39.5872504 105.9368101
 130.1533352  39.8786017 107.4223510 129.8931956  41.8401783 100.6890794
 129.0569269  42.1776470 101.0100068 129.7536726  41.7050763  99.7517931
 131.8685037  36.6838571 105.3969978 131.2149449  36.3687588 104.7726592
 131.8265511  36.0614312 106.1229801 132.9796242  46.9657866  97.3123270
 132.0723304  46.7347120  97.5114419 133.4767274  46.1695486  97.4997251
 135.8864321  55.6755374 100.2319956 135.2126020  55.9787070 100.8404914
 136.2730143  56.4784454  99.8825413 135.1022777  43.1720505 109.7217625
 134.1845339  43.3935452 109.5639313 135.5182921  43.2466815 108.8629333
 135.8857825  44.5711921 104.8520306 136.6329644  45.0833318 104.5427428
 136.1549415  44.2495973 105.7124699 134.1584475  47.0670461 101.8347260
 133.2495695  46.7829494 101.9319730 134.1879559  47.4869540 100.9750567
 124.7272646  44.7875975 105.8162462 124.5297046  44.1945336 105.0913529
 124.1719310  44.4828186 106.5338401 132.7069369  44.6799082 107.9357055
 132.7617979  43.7272918 107.8599532 131.8960571  44.8358521 108.4198354
 133.8560563  48.6079205  99.1735338 133.4179993  47.8915064  98.7140976
 134.5971004  48.8355320  98.6120430 130.6461729  43.2976142 105.6947434
 129.8329595  43.5970312 106.1012626 131.1420724  42.9031830 106.4121916
 132.7970307  53.2933899 107.6281699 132.7546486  53.5194745 106.6990231
 133.7133006  53.0597273 107.7767500 130.1375804  40.8694497 111.3108669
 130.7775183  40.7283256 110.6131632 129.3053335  40.5829011 110.9347271
 130.9136108  50.1696928 107.4243662 131.7076707  49.6747248 107.2226236
 130.2027800  49.6414791 107.0611367 135.7330952  52.5515023 111.7756029
 135.7867975  53.1205959 112.5433745 134.8645734  52.7216908 111.4110066
 127.2218871  44.3140009 103.5003414 126.2916460  44.2524465 103.7173376
 127.3176343  43.7915962 102.7040055 127.1404421  40.8394822 106.0881656
 127.4011238  41.7540155 105.9790816 127.9621593  40.3719265 106.2378269
 128.6129346  42.2532579 113.2580480 129.2852399  42.0449941 112.6093129
 127.7859132  42.0554665 112.8185713 134.6919052  46.7175285 113.3342961
 135.6211112  46.8686445 113.1611928 134.2710082  46.8059306 112.4791608
 133.4907384  50.7425950 111.1041499 133.3518470  50.3744734 111.9767437
 132.7021980  51.2573589 110.9325456 134.0855536  55.8435046 102.4467035
 134.2607292  55.3723089 103.2612658 133.3988324  56.4700812 102.6748296
 135.0412599  50.1207552 108.4930336 134.7062432  50.0808322 109.3887986
 134.5416545  49.4552268 108.0200747 129.0156843  45.5275182 114.0182918
 128.8776641  44.7955421 114.6194457 129.9261767  45.4384082 113.7367105
 131.6439144  45.2395142 113.5066597 132.3538762  44.5988334 113.4653216
 131.6008452  45.4908036 114.4292778 128.6516621  58.9924409 109.2206895
 128.8913219  59.6242933 109.8985914 127.8085818  58.6412449 109.5072255
 129.7670337  41.6849011  97.8888700 128.8899803  41.5637812  97.5250947
 130.2428090  40.8935089  97.6367589 121.2872477  46.4726171 107.9830207
 121.9743517  46.1587901 107.3951223 121.1320606  47.3767535 107.7097459
 126.0907199  41.3616367 112.4115231 126.0065388  40.7542037 111.6765641
 125.2689905  41.8525385 112.4124728 133.1644483  54.8003531 111.6248399
 133.0914655  55.6058503 112.1367704 132.7221876  54.9995497 110.7996421
 132.9534263  54.0375301 105.1351221 132.1701785  54.5796981 105.2289445
 133.6527008  54.5549281 105.5345462 136.2630913  39.8469931 107.7785426
 136.7599612  39.0939893 107.4586496 135.4917894  39.8834247 107.2128636
 135.6243167  54.6990365 113.7806558 136.3371139  55.3337830 113.7082459
 135.1333195  54.7954231 112.9646560 137.3460694  48.6041618 105.3523850
 136.4116972  48.7243080 105.1828554 137.5237362  47.7014085 105.0883859
 132.8465882  41.9887314 107.5057111 132.4763669  41.4358354 108.1938016
 133.3424974  41.3845447 106.9532111 130.6755080  52.4484809 114.6012129
 131.3764540  53.0821292 114.7541523 130.2050195  52.7899540 113.8407768
 135.4363540  55.0389109 106.5292849 135.6185935  54.2210765 106.9920602
 136.2596526  55.2556802 106.0917739 135.7705706  53.9657294 103.7907898
 136.2993472  53.4549749 103.1778060 136.0333925  53.6499825 104.6553431
 126.2722798  51.9821164 111.5343231 126.8576235  51.2364852 111.6671136
 126.0747637  52.2925120 112.4179895 129.1261453  55.0172411 106.5505674
 128.4571829  55.5018539 106.0669714 128.9874323  55.2641632 107.4649052
 120.8640453  44.5526764 110.2547675 120.9024552  44.0190355 111.0484793
 120.3580746  44.0261969 109.6358652 133.2666722  57.0516155 113.1488332
 133.8185030  57.2147776 113.9137417 133.6072916  57.6420592 112.4768357
 128.2431215  39.3991304 113.7510217 128.3072542  40.2606135 113.3387615
 128.1798336  38.7865306 113.0182575 124.4949031  43.2790866 103.3301606
 124.7902472  42.3701545 103.2768660 123.5937066  43.2578606 103.0082608
 136.4035109  54.9998130 110.1352014 136.2786249  54.1987870 109.6262960
 137.0614200  55.4944324 109.6465984 128.0243278  41.3546863 109.3129155
 127.3029863  41.9682830 109.1736628 128.8136533  41.8904628 109.2345801
 126.2236872  40.9604964 103.4540931 125.8949578  40.0802343 103.2716037
 126.5776243  40.9052632 104.3417320 135.4716451  52.5959866 107.9635917
 135.3241413  51.6676574 108.1443487 136.2969945  52.6179957 107.4792992
 129.3378695  41.2477934 103.8216409 129.6774768  41.7763855 103.0995017
 129.7850816  41.5858340 104.5974975 131.3246842  39.7452555 102.0209702
 132.0455205  40.1233808 101.5173418 130.7012147  40.4641432 102.1244680
 135.4677965  40.4497704 102.9568034 135.6841580  41.3322342 102.6556862
 134.9872032  40.0583918 102.2273676 130.2077187  43.4083417 109.5338779
 130.0621767  43.7223720 110.4263060 129.7302390  44.0268318 108.9809677
 132.0673570  40.3985965 109.5819668 132.0535138  39.5027059 109.2451966
 132.7845998  40.4056629 110.2157954 124.6822849  45.9488762 112.4726440
 124.1376317  46.7248570 112.6046714 125.5602199  46.2959566 112.3145561
 131.4710466  39.2800346 104.8507238 131.5926377  38.3516992 105.0498126
 131.1812508  39.2939032 103.9385554 134.3401656  36.9655256 107.9873958
 134.3623353  37.0294589 107.0325938 134.7569715  36.1259765 108.1814464
 125.4688871  45.0758658 115.3656597 124.7270607  45.2241293 115.9521227
 125.1481615  45.3366924 114.5023346 133.4132533  54.6174636 115.1636987
 133.7219660  54.3723783 116.0359686 134.2108015  54.8221275 114.6755857
 133.4353145  56.7712546 107.3942363 132.9958136  56.2788925 108.0875220
 134.1861262  56.2285514 107.1534438 125.9145484  52.9624087 107.3966991
 126.7403504  52.6627859 107.0165635 125.5639536  52.1931709 107.8456780
 130.8827018  52.3150555 109.4664665 130.2607027  51.6521260 109.1666893
 131.5531884  52.3411687 108.7838313 124.1154089  50.8810413 108.3555925
 123.2785998  50.4532588 108.1739926 124.0877735  51.0742857 109.2926716
 130.4440524  50.8654478 102.9423125 130.5928645  51.5489943 102.2889798
 131.2506968  50.8459568 103.4572581 128.1993157  46.8919656 103.9484194
 127.9539199  45.9881986 104.1464404 128.3689072  46.8936806 103.0063672
 127.4688805  42.6248014 101.4470356 126.7758050  42.6992368 100.7910392
 127.2240557  41.8608357 101.9691873 133.9435930  53.3602609 100.4134873
 133.3709897  53.9792796  99.9605345 134.5168724  53.9101970 100.9474795
 134.3282729  44.6963422  97.7550925 135.2741833  44.5669630  97.8239343
 133.9496973  43.9578083  98.2320353 132.5125646  42.6213398  97.6905810
 131.6057101  42.3246511  97.7668524 132.7901627  42.3243216  96.8240097
 123.4303586  43.9419761 108.1404857 123.1106370  43.0885069 107.8479231
 122.8837014  44.1568339 108.8962824 127.2083494  46.6582202 111.8574363
 127.4269503  47.5899310 111.8762397 127.6209267  46.2990177 112.6429167
 134.1287711  37.1650288 103.8450052 133.3188440  36.8197373 104.2205298
 134.8172128  36.8557831 104.4337663 136.0578260  36.2428334 105.4674348
 136.6109298  36.6623788 106.1264372 136.2948346  35.3164083 105.5097304
 131.2824430  39.4800333  97.8317790 132.1443594  39.8055231  98.0913607
 131.4674774  38.6931829  97.3190855 123.2991846  47.5622673 110.1097978
 122.6055317  47.1476626 109.5967933 124.0464837  47.6043209 109.5131397
 125.2128589  47.4940927 107.9863993 125.1899277  47.5928614 107.0345876
 125.5229225  48.3406077 108.3081159 127.8715966  49.5517082 112.1010608
 128.8259220  49.5201024 112.0340539 127.6728490  49.0907705 112.9160834
 128.4615349  48.1218198 114.6681405 129.2808238  48.6162276 114.6916243
 128.7352156  47.2050166 114.6398973 126.2266195  55.0936701 109.1180806
 126.0920663  54.3337102 108.5518804 125.8098258  55.8177601 108.6509595
 129.3835321  55.9906018 109.3299248 129.2667705  56.9351451 109.2277939
 128.5627767  55.6879580 109.7185047 123.7150263  42.4556332 115.3673602
 124.3609126  41.9455285 115.8560828 123.5067414  43.1925013 115.9417028
 132.2353873  36.7196376 101.1197499 132.2232543  37.6638216 101.2765770
 133.1277295  36.5366522 100.8256960 130.4089835  56.6434280 112.5455177
 131.3117082  56.6757890 112.8621672 130.1827205  55.7134731 112.5601512
 132.1643437  55.3965267 109.2065255 131.2139068  55.3967128 109.0929628
 132.4675923  54.6498001 108.6901290 136.6293484  58.3755695 109.0219261
 135.8392538  58.6313224 108.5459372 137.1204732  59.1904033 109.1271302
 134.9131187  58.6286186 111.4534252 135.1639226  59.5133196 111.7191828
 135.4490736  58.4490787 110.6809344 135.5440229  62.7777178 105.1451729
 136.3815451  63.1874186 104.9285436 135.7218497  61.8376620 105.1151923
 135.5666400  60.1167893 105.8162462 135.3690800  59.5237254 105.0913529
 135.0113064  59.8120103 106.5338401 132.1266231  61.8018088 107.9830207
 132.8137271  61.4879818 107.3951223 131.9714360  62.7059453 107.7097459
 136.9300953  56.6908285 112.4115231 136.8459142  56.0833954 111.6765641
 136.1083660  57.1817303 112.4124728 131.7034207  59.8818682 110.2547675
 131.7418307  59.3482272 111.0484793 131.1974500  59.3553887 109.6358652
 135.3342785  58.6082784 103.3301606 135.6296226  57.6993462 103.2768660
 134.4330821  58.5870523 103.0082608 137.0630627  56.2896881 103.4540931
 136.7343333  55.4094260 103.2716037 137.4169997  56.2344550 104.3417320
 135.5216603  61.2780679 112.4726440 134.9770071  62.0540487 112.6046714
 136.3995953  61.6251484 112.3145561 136.3082625  60.4050576 115.3656597
 135.5664361  60.5533211 115.9521227 135.9875370  60.6658841 114.5023346
 136.7539239  68.2916004 107.3966991 137.5797259  67.9919776 107.0165635
 136.4033291  67.5223627 107.8456780 134.9547844  66.2102331 108.3555925
 134.1179752  65.7824505 108.1739926 134.9271489  66.4034774 109.2926716
 134.2697341  59.2711679 108.1404857 133.9500125  58.4176987 107.8479231
 133.7230769  59.4860257 108.8962824 134.1385601  62.8914590 110.1097978
 133.4449072  62.4768543 109.5967933 134.8858592  62.9335127 109.5131397
 136.0522343  62.8232844 107.9863993 136.0293031  62.9220532 107.0345876
 136.3622980  63.6697995 108.3081159 137.0659950  70.4228619 109.1180806
 136.9314418  69.6629020 108.5518804 136.6492012  71.1469519 108.6509595
 134.5544017  57.7848249 115.3673602 135.2002881  57.2747203 115.8560828
 134.3461168  58.5216931 115.9417028 120.1736038  17.9209220  91.8004000
 120.0960068  18.8717045  91.8792481 119.5697682  17.5755092  92.4578926
 118.8330005  15.4310741  99.1770560 119.3837430  15.3027804  98.4047554
 117.9941481  15.7305630  98.8265453 125.0470568  17.3525578  86.9565263
 124.3732266  17.6557275  87.5650220 125.4336390  18.1554659  86.6070720
 123.2461783  17.5205251  89.1712342 123.4213538  17.0493294  89.9857964
 122.5594571  18.1471017  89.3993603 117.8122868  20.6694614  95.9452202
 118.0519466  21.3013138  96.6231221 116.9692065  20.3182654  96.2317561
 122.3250730  16.4773736  98.3493706 122.2520901  17.2828708  98.8613010
 121.8828123  16.6765702  97.5241727 122.1140510  15.7145506  91.8596527
 121.3308031  16.2567186  91.9534752 122.8133255  16.2319486  92.2590769
 124.7849413  16.3760570 100.5051865 125.4977386  17.0108035 100.4327766
 124.2939442  16.4724436  99.6891866 115.4329045  13.6591369  98.2588538
 116.0182482  12.9135057  98.3916442 115.2353883  13.9695325  99.1425202
 118.2867700  16.6942616  93.2750980 117.6178075  17.1788744  92.7915021
 118.1480570  16.9411836  94.1894359 122.4272969  18.7286360  99.8733639
 122.9791277  18.8917981 100.6382724 122.7679162  19.3190797  99.2013664
 122.5738780  16.2944841 101.8882293 122.8825907  16.0493988 102.7604993
 123.3714262  16.4991480 101.4001163 122.5959392  18.4482751  94.1187670
 122.1564382  17.9559129  94.8120526 123.3467509  17.9055718  93.8779745
 115.0751731  14.6394292  94.1212298 115.9009751  14.3398064  93.7410941
 114.7245783  13.8701914  94.5702086 113.2760336  12.5580618  95.0801231
 112.4392245  12.1302792  94.8985233 113.2483982  12.7513061  96.0172023
 115.3872442  16.7706906  95.8426112 115.2526910  16.0107307  95.2764110
 114.9704504  17.4947806  95.3754901 118.5441568  17.6676223  96.0544555
 118.4273952  18.6121656  95.9523245 117.7234014  17.3649785  96.4430354
 119.5696082  18.3204485  99.2700483 120.4723329  18.3528095  99.5866978
 119.3433452  17.3904936  99.2846819 121.3249684  17.0735471  95.9310562
 120.3745315  17.0737333  95.8174934 121.6282170  16.3268206  95.4146597
 133.8692084  22.8623438  96.9317849 133.5310595  22.7464503  96.0438384
 134.7381852  22.4614603  96.9118855 129.7278899  24.7158914  92.9214740
 129.1643765  24.6248851  92.1531028 129.6131295  23.8958819  93.4017233
 127.2743331  26.2110106  95.7598960 128.0664623  25.8700931  95.3445260
 127.5139982  26.3205081  96.6801114 135.3078458  28.3829882  88.2329205
 134.6566438  28.9683962  87.8463219 136.1022821  28.9136077  88.2924242
 129.2334085  25.4719019  88.6316339 130.0064961  24.9248006  88.4929215
 129.5859484  26.3363269  88.8430801 131.0719128  26.7995401 101.8383239
 130.7808994  27.7041032 101.7229905 131.7076112  26.8411929 102.5527308
 131.9975335  24.1772250  98.4284598 132.5938907  23.9528272  97.7141561
 132.0550306  23.4356995  99.0310046 131.5700363  21.6311685  86.2634789
 131.8225884  21.1093207  85.5018252 130.6324922  21.4677831  86.3661473
 136.7853723  26.0720314  88.7698189 136.1499556  26.1454941  89.4819094
 136.4551130  26.6613913  88.0917268 131.2896652  23.5339791  88.4659164
 131.1732910  22.8584695  89.1340248 131.3998912  23.0472165  87.6491317
 133.6328193  22.9949938  92.1705853 133.2686400  22.4680559  92.8818775
 134.4895309  22.6048407  91.9972339 136.0309013  26.4856817  98.8333032
 135.7309736  27.3881856  98.7248839 135.6860073  26.2189000  99.6854185
 129.4821494  22.9370614  94.8669737 128.5571991  22.8046828  95.0747428
 129.7305908  23.7164833  95.3639679 133.2522901  20.4797496  88.1513869
 133.1322526  20.9254546  88.9899349 132.5575489  20.8282813  87.5927407
 126.8430306  22.5803887  95.7013526 126.9722687  22.8338366  96.6152937
 126.1627757  23.1731595  95.3818181 131.0129793  33.2501137  91.8004000
 130.9353823  34.2008962  91.8792481 130.4091436  32.9047010  92.4578926
 137.5577549  25.9344787  96.3707784 136.9286412  26.0990501  95.6683852
 137.1703211  26.3486397  97.1418748 133.1105511  25.6719195  93.6357869
 133.5743857  25.9506898  92.8462492 132.8462309  24.7702640  93.4530960
 130.0029592  25.2190677  96.5737633 130.5730949  25.6477945  95.9355117
 130.5937704  24.9373262  97.2721818 132.0474397  21.7942348  90.4447434
 132.7498440  22.2463391  90.9121361 131.7155026  21.1526167  91.0727328
 125.7899731  20.0525900  95.7464568 124.9998785  20.3083429  95.2704679
 126.2810978  20.8674238  95.8516609 127.7414476  20.4170480  92.7048045
 126.9445640  20.5289174  93.2231540 127.5140069  20.7557132  91.8388935
 133.5720144  26.9415183 100.6530559 133.6364577  27.4035590 101.4888731
 132.8631068  26.3112548 100.7812869 124.0737434  20.3056391  98.1779559
 124.3245472  21.1903401  98.4437135 124.6096982  20.1260992  97.4054651
 133.2868162  28.6083290  90.5209540 133.1513837  29.4534826  90.9494387
 133.8277974  28.8102568  89.7575473 126.7397559  26.1258728  91.0937465
 127.2522080  26.9201979  91.2443029 127.3920272  25.4285019  91.0271066
 128.5492444  29.2424485  93.1760218 128.7259072  30.1642449  92.9881202
 129.3449277  28.9282904  93.6054598 127.8344800  21.2889117 103.0522381
 127.7198315  20.3874374 103.3529480 126.9789318  21.5352813 102.7007198
 129.6723759  30.7602658  99.1770560 130.2231184  30.6319722  98.4047554
 128.8335235  31.0597547  98.8265453 133.4690930  27.0253786 103.5214791
 134.0019267  26.2642074 103.2914099 132.9405011  26.7327438 104.2638946
 124.7046476  24.4547383  91.8697035 125.5421698  24.8644391  91.6530743
 124.8824744  23.5146825  91.8397229 136.6010908  22.1222463  87.5580868
 136.0857531  22.8927068  87.7969256 136.3288216  21.4487599  88.1813930
 134.8343643  26.1539779  91.0333603 134.3065005  25.4192538  90.7206841
 134.3331146  26.9314455  90.7873572 129.8931958  18.8463906  87.4136100
 129.0569270  19.1838593  87.7345375 129.7536727  18.7112886  86.4763237
 132.9796243  23.9719989  84.0368576 132.0723305  23.7409242  84.2359725
 133.4767275  23.1757608  84.2242558 135.8864322  32.6817496  86.9565263
 135.2126021  32.9849193  87.5650220 136.2730144  33.4846577  86.6070720
 135.1022779  20.1782627  96.4462932 134.1845340  20.3997574  96.2884620
 135.5182922  20.2528938  95.5874639 135.8857826  21.5774043  91.5765612
 136.6329645  22.0895440  91.2672734 136.1549416  21.2558096  92.4370006
 134.1584477  24.0732584  88.5592567 133.2495696  23.7891617  88.6565036
 134.1879560  24.4931662  87.6995873 124.7272647  21.7938098  92.5407769
 124.5297047  21.2007459  91.8158835 124.1719311  21.4890308  93.2583708
 132.7069371  21.6861204  94.6602362 132.7617980  20.7335041  94.5844838
 131.8960573  21.8420644  95.1443660 133.8560564  25.6141328  85.8980645
 133.4179994  24.8977186  85.4386282 134.5971005  25.8417442  85.3365736
 130.6461731  20.3038264  92.4192741 129.8329596  20.6032435  92.8257933
 131.1420725  19.9093953  93.1367223 132.7970308  30.2996021  94.3527005
 132.7546487  30.5256867  93.4235537 133.7133007  30.0659396  94.5012807
 130.9136109  27.1759050  94.1488968 131.7076708  26.6809370  93.9471543
 130.2027802  26.6476913  93.7856674 135.7330954  29.5577146  98.5001336
 135.7867976  30.1268082  99.2679052 134.8645735  29.7279031  98.1355373
 127.2218873  21.3202132  90.2248721 126.2916461  21.2586587  90.4418683
 127.3176345  20.7978085  89.4285362 127.1404422  17.8456945  92.8126963
 127.4011239  18.7602278  92.7036123 127.9621594  17.3781387  92.9623575
 128.6129347  19.2594702  99.9825787 129.2852401  19.0512064  99.3338436
 127.7859134  19.0616788  99.5431019 134.6919053  23.7237408 100.0588268
 135.6211113  23.8748567  99.8857235 134.2710083  23.8121428  99.2036914
 133.4907385  27.7488072  97.8286805 133.3518471  27.3806857  98.7012743
 132.7021981  28.2635712  97.6570763 134.0855537  32.8497169  89.1712342
 134.2607293  32.3785212  89.9857964 133.3988325  33.4762935  89.3993603
 135.0412600  27.1269675  95.2175643 134.7062433  27.0870445  96.1133293
 134.5416546  26.4614391  94.7446053 129.0156844  22.5337305 100.7428224
 128.8776642  21.8017544 101.3439763 129.9261768  22.4446205 100.4612412
 131.6439145  22.2457264 100.2311904 132.3538764  21.6050456 100.1898522
 131.6008453  22.4970159 101.1538085 128.6516623  35.9986531  95.9452202
 128.8913221  36.6305056  96.6231221 127.8085819  35.6474571  96.2317561
 129.7670338  18.6911133  84.6134007 128.8899804  18.5699934  84.2496254
 130.2428091  17.8997212  84.3612896 121.2872478  23.4788293  94.7075514
 121.9743518  23.1650023  94.1196529 121.1320607  24.3829658  94.4342766
 126.0907200  18.3678490  99.1360538 126.0065389  17.7604159  98.4010948
 125.2689907  18.8587508  99.1370034 133.1644484  31.8065654  98.3493706
 133.0914656  32.6120625  98.8613010 132.7221877  32.0057620  97.5241727
 132.9534264  31.0437424  91.8596527 132.1701786  31.5859104  91.9534752
 133.6527009  31.5611403  92.2590769 135.6243168  31.7052488 100.5051865
 136.3371140  32.3399953 100.4327766 135.1333197  31.8016354  99.6891866
 137.3460695  25.6103741  92.0769156 136.4116974  25.7305203  91.9073861
 137.5237363  24.7076207  91.8129166 130.6755081  29.4546931 101.3257435
 131.3764541  30.0883414 101.4786830 130.2050196  29.7961663 100.5653075
 135.4363541  32.0451232  93.2538156 135.6185936  31.2272888  93.7165908
 136.2596527  32.2618924  92.8163046 135.7705707  30.9719417  90.5153205
 136.2993473  30.4611872  89.9023367 136.0333926  30.6561947  91.3798738
 126.2722800  28.9883286  98.2588538 126.8576236  28.2426974  98.3916442
 126.0747638  29.2987243  99.1425202 129.1261455  32.0234534  93.2750980
 128.4571830  32.5080661  92.7915021 128.9874324  32.2703754  94.1894359
 120.8640454  21.5588887  96.9792981 120.9024554  21.0252477  97.7730099
 120.3580747  21.0324092  96.3603958 133.2666723  34.0578277  99.8733639
 133.8185031  34.2209899 100.6382724 133.6072917  34.6482715  99.2013664
 124.4949032  20.2852989  90.0546913 124.7902473  19.3763667  90.0013966
 123.5937068  20.2640728  89.7327915 136.4035111  32.0060253  96.8597321
 136.2786250  31.2049993  96.3508266 137.0614202  32.5006446  96.3711291
 128.0243279  18.3608985  96.0374461 127.3029865  18.9744953  95.8981935
 128.8136535  18.8966750  95.9591107 126.2236873  17.9667086  90.1786238
 125.8949580  17.0864465  89.9961344 126.5776244  17.9114755  91.0662627
 135.4716452  29.6021989  94.6881223 135.3241415  28.6738696  94.8688793
 136.2969946  29.6242080  94.2038299 129.3378697  18.2540056  90.5461715
 129.6774769  18.7825977  89.8240324 129.7850817  18.5920462  91.3220282
 130.2077188  20.4145540  96.2584085 130.0621769  20.7285843  97.1508367
 129.7302392  21.0330440  95.7054984 124.6822850  22.9550884  99.1971746
 124.1376318  23.7310692  99.3292021 125.5602200  23.3021689  99.0390868
 125.4688872  22.0820781 102.0901903 124.7270608  22.2303416 102.6766534
 125.1481616  22.3429046 101.2268653 133.4132535  31.6236759 101.8882293
 133.7219661  31.3785906 102.7604993 134.2108017  31.8283397 101.4001163
 133.4353147  33.7774668  94.1187670 132.9958137  33.2851047  94.8120526
 134.1861264  33.2347636  93.8779745 125.9145486  29.9686209  94.1212298
 126.7403506  29.6689981  93.7410941 125.5639538  29.1993832  94.5702086
 130.8827019  29.3212678  96.1909971 130.2607028  28.6583383  95.8912199
 131.5531886  29.3473809  95.5083619 124.1154091  27.8872536  95.0801231
 123.2785999  27.4594710  94.8985233 124.0877736  28.0804979  96.0172023
 130.4440526  27.8716601  89.6668432 130.5928646  28.5552065  89.0135105
 131.2506969  27.8521691  90.1817888 128.1993159  23.8981779  90.6729501
 127.9539201  22.9944109  90.8709711 128.3689073  23.8998929  89.7308979
 127.4688806  19.6310136  88.1715662 126.7758051  19.7054491  87.5155698
 127.2240558  18.8670480  88.6937179 133.9435931  30.3664731  87.1380179
 133.3709898  30.9854918  86.6850651 134.5168725  30.9164093  87.6720101
 134.3282730  21.7025544  84.4796232 135.2741834  21.5731752  84.5484650
 133.9496975  20.9640206  84.9565660 132.5125647  19.6275520  84.4151117
 131.6057102  19.3308633  84.4913831 132.7901628  19.3305339  83.5485403
 123.4303587  20.9481884  94.8650164 123.1106372  20.0947192  94.5724538
 122.8837015  21.1630462  95.6208131 127.2083495  23.6644325  98.5819670
 127.4269505  24.5961433  98.6007704 127.6209269  23.3052299  99.3674474
 123.2991847  24.5684795  96.8343285 122.6055319  24.1538748  96.3213240
 124.0464838  24.6105332  96.2376704 125.2128590  24.5003049  94.7109300
 125.1899278  24.5990736  93.7591183 125.5229226  25.3468200  95.0326466
 127.8715968  26.5579204  98.8255914 128.8259221  26.5263147  98.7585846
 127.6728491  26.0969828  99.6406140 128.4615350  25.1280320 101.3926712
 129.2808239  25.6224399 101.4161549 128.7352158  24.2112288 101.3644280
 126.2266196  32.0998824  95.8426112 126.0920664  31.3399225  95.2764110
 125.8098259  32.8239724  95.3754901 129.3835322  32.9968141  96.0544555
 129.2667707  33.9413573  95.9523245 128.5627769  32.6941702  96.4430354
 123.7150264  19.4618454 102.0918909 124.3609128  18.9517408 102.5806134
 123.5067415  20.1987136 102.6662334 130.4089836  33.6496403  99.2700483
 131.3117083  33.6820013  99.5866978 130.1827207  32.7196854  99.2846819
 132.1643439  32.4027389  95.9310562 131.2139070  32.4029251  95.8174934
 132.4675925  31.6560124  95.4146597 136.6293486  35.3817818  95.7464568
 135.8392540  35.6375347  95.2704679 137.1204733  36.1966156  95.8516609
 134.9131189  35.6348308  98.1779559 135.1639227  36.5195318  98.4437135
 135.4490737  35.4552910  97.4054651 135.5440230  39.7839300  91.8697035
 136.3815452  40.1936309  91.6530743 135.7218498  38.8438742  91.8397229
 135.5666402  37.1230016  92.5407769 135.3690801  36.5299376  91.8158835
 135.0113066  36.8182226  93.2583708 132.1266233  38.8080211  94.7075514
 132.8137272  38.4941941  94.1196529 131.9714361  39.7121576  94.4342766
 136.9300955  33.6970407  99.1360538 136.8459143  33.0896077  98.4010948
 136.1083661  34.1879426  99.1370034 131.7034209  36.8880804  96.9792981
 131.7418308  36.3544395  97.7730099 131.1974502  36.3616010  96.3603958
 135.3342786  35.6144906  90.0546913 135.6296227  34.7055585  90.0013966
 134.4330822  35.5932646  89.7327915 137.0630628  33.2959004  90.1786238
 136.7343334  32.4156383  89.9961344 137.4169999  33.2406673  91.0662627
 135.5216605  38.2842802  99.1971746 134.9770073  39.0602610  99.3292021
 136.3995954  38.6313606  99.0390868 136.3082626  37.4112698 102.0901903
 135.5664363  37.5595334 102.6766534 135.9875371  37.6720964 101.2268653
 136.7539240  45.2978127  94.1212298 137.5797260  44.9981899  93.7410941
 136.4033292  44.5285749  94.5702086 134.9547845  43.2164453  95.0801231
 134.1179754  42.7886628  94.8985233 134.9271491  43.4096897  96.0172023
 134.2697342  36.2773802  94.8650164 133.9500126  35.4239110  94.5724538
 133.7230770  36.4922380  95.6208131 134.1385602  39.8976713  96.8343285
 133.4449073  39.4830666  96.3213240 134.8858593  39.9397250  96.2376704
 136.0522344  39.8294967  94.7109300 136.0293032  39.9282654  93.7591183
 136.3622981  40.6760118  95.0326466 137.0659951  47.4290741  95.8426112
 136.9314419  46.6691142  95.2764110 136.6492013  48.1531641  95.3754901
 134.5544019  34.7910372 102.0918909 135.2002882  34.2809326 102.5806134
 134.3461170  35.5279053 102.6662334 136.7539241  22.3040250  80.8457604
 137.5797261  22.0044021  80.4656248 136.4033293  21.5347872  81.2947393
 134.9547846  20.2226576  81.8046538 134.1179755  19.7948750  81.6230539
 134.9271492  20.4159019  82.7417329 137.0659952  24.4352864  82.5671419
 136.9314420  23.6753265  82.0009417 136.6492015  25.1593764  82.1000208
  57.1039955  77.6241705 150.4142040  56.1967017  77.3930959 150.6133189
  57.6010987  76.8279325 150.6016022  58.4526442  75.3547260 150.8569696
  59.3985547  75.2253469 150.9258114  58.0740687  74.6161922 151.3339124
  59.4322172  59.0413721 141.3347975  58.7810152  59.6267801 140.9481989
  60.2266535  59.5719916 141.3943013  65.6988896  55.5338657 142.5952812
  64.9218338  55.1949816 142.1507974  66.3780377  55.5391280 141.9207777
  57.1039957  54.6303828 137.1387347  56.1967018  54.3993081 137.3378496
  57.6010989  53.8341447 137.3261328  60.0108036  63.3401335 140.0584033
  59.3369734  63.6433032 140.6668991  60.3973858  64.1430415 139.7089490
  57.9804278  56.2725166 138.9999415  57.5423708  55.5561025 138.5405053
  58.7214719  56.5001281 138.4384507  58.2099251  63.5081007 142.2731112
  58.3851006  63.0369051 143.0876735  57.5232039  64.1346774 142.5012373
  62.1015506  55.1309548 138.5931473  61.4844676  54.4056376 138.4964526
  61.6331994  55.8918908 138.2498547  62.9253191  58.4548720 142.7124113
  63.2013035  58.3405315 143.6217987  62.0557690  58.0566205 142.6736286
  59.8949420  61.6303256 143.6171975  60.4237187  61.1195711 143.0042137
  60.1577640  61.3145786 144.4817508  62.9889604  61.6020054 144.2326958
  63.1626481  61.0366477 143.4800810  63.4818495  62.4020949 144.0506448
  63.9764776  60.9186819 141.3323856  64.6715681  61.5393511 141.5511171
  64.3187926  60.0682170 141.6076234  65.8756199  58.3686524 142.8611187
  66.4007524  58.7073797 142.1360507  65.7878552  57.4333539 142.6774322
  58.0679645  61.0248570 140.2398950  57.4953612  61.6438757 139.7869422
  58.6412438  61.5747932 140.7738872  61.2876905  61.3085720 141.3707532
  62.2207578  61.2431282 141.5740408  61.2000117  62.1441987 140.9122065
  63.9164921  60.6251591 138.3311480  63.8378553  60.2911454 139.2247238
  64.7374588  61.1173359 138.3302952  58.4526443  52.3609383 137.5815002
  59.3985548  52.2315591 137.6503420  58.0740688  51.6224045 138.0584430
  61.4868873  57.9419586 137.9521458  62.1904723  58.1469589 138.5679114
  60.7631522  58.5096348 138.2170541  63.3955570  58.3802115 140.0019918
  64.2301174  57.9483314 139.8197393  63.2339913  58.2084129 140.9296812
  63.0501463  54.8834229 141.3676257  62.9950266  54.7178500 140.4264701
  62.4247518  55.5910262 141.5238447  72.0239846  68.8971766 150.0975095
  72.6618255  68.7778514 149.3938435  71.9060688  69.8452610 150.1563047
  68.8329552  68.8499195 150.0336619  68.4948063  68.7340259 149.1457154
  69.7019320  68.4490360 150.0137626  64.6916368  70.7034671 146.0233510
  64.1281233  70.6124608 145.2549798  64.5768763  69.8834575 146.5036003
  62.2380799  72.1985863 148.8617731  63.0302091  71.8576687 148.4464030
  62.4777450  72.3080838 149.7819884  70.2715926  74.3705639 141.3347975
  69.6203906  74.9559719 140.9481989  71.0660289  74.9011834 141.3943013
  64.1971553  71.4594776 141.7335110  64.9702429  70.9123763 141.5947985
  64.5496952  72.3239025 141.9449571  66.9612803  70.1648007 151.5303369
  67.5576375  69.9404029 150.8160332  67.0187774  69.4232752 152.1328816
  66.5337831  67.6187442 139.3653560  66.7863352  67.0968963 138.6037023
  65.5962390  67.4553587 139.4680243  71.5781114  66.6223220 147.1728303
  72.3644203  66.2042643 146.8218720  71.8419818  67.5269312 147.3409951
  71.7491191  72.0596071 141.8716960  71.1137024  72.1330697 142.5837864
  71.4188598  72.6489669 141.1936039  76.9789541  66.5598453 148.0761281
  77.7114713  65.9897670 148.3099111  76.2228897  66.1720054 148.5167787
  66.2534120  69.5215548 141.5677935  66.1370378  68.8460451 142.2359019
  66.3636380  69.0347922 140.7510088  68.5965661  68.9825695 145.2724624
  68.2323868  68.4556316 145.9837545  69.4532777  68.5924164 145.0991109
  68.2371148  64.0115595 140.2685972  68.4045550  64.8795831 140.6356443
  68.0468317  64.1742876 139.3447262  64.4458963  68.9246370 147.9688507
  63.5209459  68.7922585 148.1766199  64.6943376  69.7040590 148.4658449
  74.3943625  64.9915114 149.6149240  73.4860502  64.9230522 149.3208001
  74.3431221  65.4687059 150.4431065  68.2160369  66.4673252 141.2532639
  68.0959994  66.9130303 142.0918119  67.5212957  66.8158570 140.6946177
  61.8067774  68.5679644 148.8032296  61.9360155  68.8214123 149.7171708
  61.1265225  69.1607352 148.4836951  65.9767261  79.2376894 144.9022770
  65.8991291  80.1884719 144.9811251  65.3728904  78.8922766 145.5597697
  76.2605271  63.1931552 151.3927114  75.6179651  63.4864085 150.7466908
  75.7560200  63.0784473 152.1980311  73.9145435  66.9394725 142.0812973
  74.8263291  67.1722112 141.9060671  73.4055082  67.5231770 141.5188052
  68.0742979  71.6594952 146.7376640  68.5381325  71.9382655 145.9481262
  67.8099777  70.7578396 146.5549730  64.9667060  71.2066433 149.6756403
  65.5368417  71.6353702 149.0373887  65.5575172  70.9249018 150.3740589
  67.0111865  67.7818104 143.5466205  67.7135908  68.2339148 144.0140131
  66.6792494  67.1401923 144.1746098  62.7051944  66.4046236 145.8066815
  61.9083108  66.5164930 146.3250311  62.4777537  66.7432888 144.9407706
  68.2505630  74.5959047 143.6228310  68.1151305  75.4410583 144.0513158
  68.7915442  74.7978325 142.8594244  61.7035027  72.1134485 144.1956235
  62.2159548  72.9077735 144.3461800  62.3557740  71.4160775 144.1289837
  63.5129912  75.2300241 146.2778988  63.6896540  76.1518206 146.0899972
  64.3086745  74.9158660 146.7073368  59.6683944  70.4423139 144.9715806
  60.5059166  70.8520148 144.7549513  59.8462212  69.5022581 144.9416000
  71.5648376  68.1098220 140.6599639  71.0494999  68.8802825 140.8988026
  71.2925684  67.4363356 141.2832700  69.1495487  62.9547921 145.7184877
  68.2937083  62.5654771 145.5390516  69.5622439  63.0339881 144.8584663
  76.5382650  70.8630575 142.5952812  75.7612093  70.5241734 142.1507974
  77.2174131  70.8683198 141.9207777  71.3534679  65.9825312 142.4859420
  71.0484815  66.2971461 143.3369563  72.3065121  66.0606732 142.5286753
  69.7981111  72.1415535 144.1352374  69.2702473  71.4068295 143.8225611
  69.2968614  72.9190212 143.8892342  64.5299839  62.8035202 146.4958985
  65.1043591  62.5810383 145.7632178  65.1170821  62.8723896 147.2487587
  73.5879416  68.6908928 147.3023362  74.1011298  69.3238920 147.8045072
  74.2380640  68.0910124 146.9366722  64.8569426  64.8339663 140.5154871
  64.0206738  65.1714349 140.8364145  64.7174195  64.6988642 139.5782008
  66.8322506  59.6776450 145.2234055  66.1786919  59.3625468 144.5990670
  66.7902981  59.0552191 145.9493878  67.9433711  69.9595746 137.1387347
  67.0360773  69.7284999 137.3378496  68.4404743  69.1633365 137.3261328
  70.8501790  78.6693253 140.0584033  70.1763489  78.9724950 140.6668991
  71.2367612  79.4722333 139.7089490  70.0660247  66.1658384 149.5481702
  69.1482808  66.3873331 149.3903390  70.4820390  66.2404694 148.6893410
  70.8495294  67.5649800 144.6784383  71.5967113  68.0771197 144.3691505
  71.1186884  67.2433852 145.5388776  69.1221945  70.0608340 141.6611337
  68.2133164  69.7767373 141.7583807  69.1517028  70.4807419 140.8014644
  74.3541212  73.6714930 145.4302504  73.9003539  72.8305840 145.4867695
  73.7235179  74.3076328 145.7677285  73.2974132  64.6006916 146.6603172
  72.5596888  64.0884302 146.9913414  73.5500905  64.1607298 145.8486449
  72.7974151  75.5091427 146.3652323  73.0897126  76.0696484 145.6464688
  73.3072772  75.8019988 147.1205482  73.3985759  57.3783168 147.2544941
  73.7044636  56.5180531 146.9670856  74.1238364  57.9700788 147.0543935
  59.6910115  67.7813855 145.6426539  59.4934515  67.1883215 144.9177606
  59.1356779  67.4766065 146.3602478  67.6706839  67.6736961 147.7621132
  67.7255448  66.7210797 147.6863609  66.8598041  67.8296400 148.2462431
  68.8198032  71.6017084 138.9999415  68.3817462  70.8852943 138.5405053
  69.5608473  71.8293199 138.4384507  65.6099199  66.2914021 145.5211511
  64.7967064  66.5908191 145.9276703  66.1058193  65.8969710 146.2385993
  67.7607777  76.2871778 147.4545776  67.7183955  76.5132624 146.5254308
  68.6770475  76.0535152 147.6031577  76.9371147  69.8774281 145.0575734
  76.7989046  70.0675877 144.1296923  76.5807366  70.6393664 145.5143785
  65.8773577  73.1634807 147.2507739  66.6714176  72.6685127 147.0490313
  65.1665270  72.6352670 146.8875444  62.1856341  67.3077888 143.3267491
  61.2553929  67.2462344 143.5437453  62.2813813  66.7853841 142.5304132
  62.1041890  63.8332701 145.9145733  62.3648707  64.7478035 145.8054893
  62.9259062  63.3657144 146.0642346  69.0493005  78.8372925 142.2731112
  69.2244761  78.3660968 143.0876735  68.3625793  79.4638691 142.5012373
  70.0050068  73.1145431 148.3194413  69.6699901  73.0746201 149.2152063
  69.5054014  72.4490147 147.8464824  72.9409260  70.4601466 138.5931473
  72.3238431  69.7348294 138.4964526  72.4725749  71.2210826 138.2498547
  64.7307806  64.6786890 137.7152777  63.8537272  64.5575691 137.3515024
  65.2065559  63.8872968 137.4631666  56.2509946  69.4664050 147.8094284
  56.9380986  69.1525780 147.2215300  56.0958075  70.3705414 147.5361536
  67.9171732  77.0313180 144.9615298  67.1339254  77.5734861 145.0553522
  68.6164477  77.5487160 145.3609539  71.2268382  62.8407810 147.6049503
  71.7237082  62.0877772 147.2850573  70.4555364  62.8772127 147.0392713
  72.3098163  71.5979497 145.1787927  71.3754442  71.7180960 145.0092631
  72.4874831  70.6951964 144.9147936  67.8103351  64.9825193 147.3321188
  67.4401138  64.4296233 148.0202093  68.3062443  64.3783326 146.7796188
  75.6970714  67.4396816 145.7137961  76.1631166  68.2724808 145.6398263
  76.1478215  66.9741798 146.4183219  73.7646945  73.7840638 142.7124113
  74.0406789  73.6697232 143.6217987  72.8951444  73.3858123 142.6736286
  70.4001009  78.0326989 146.3556926  70.5823404  77.2148644 146.8184679
  71.2233995  78.2494681 145.9181816  70.7343175  76.9595174 143.6171975
  71.2630941  76.4487628 143.0042137  70.9971394  76.6437704 144.4817508
  61.2360268  74.9759043 151.3607308  61.8213704  74.2302731 151.4935213
  61.0385106  75.2863000 152.2443972  64.0898923  78.0110290 146.3769751
  63.4209298  78.4956418 145.8933791  63.9511792  78.2579511 147.2913129
  59.4586500  66.2728745 143.1565683  59.7539941  65.3639424 143.1032737
  58.5574536  66.2516485 142.8346685  61.1874341  63.9542843 143.2805008
  60.8587048  63.0740222 143.0980114  61.5413712  63.8990512 144.1681397
  70.4353920  75.5897746 147.7899994  70.2878883  74.6614453 147.9707564
  71.2607414  75.6117836 147.3057069  64.3016165  64.2415813 143.6480486
  64.6412237  64.7701734 142.9259094  64.7488285  64.5796219 144.4239052
  66.2884312  62.7390434 141.8473779  67.0092674  63.1171687 141.3437495
  65.6649616  63.4579311 141.9508757  70.4315435  63.4435583 142.7832111
  70.6479049  64.3260221 142.4820939  69.9509502  63.0521797 142.0537753
  73.8283358  76.9311972 144.2326958  74.0020236  76.3658394 143.4800810
  74.3212250  77.7312867 144.0506448  66.4347935  62.2738225 144.6771315
  66.5563846  61.3454871 144.8762203  66.1449977  62.2876911 143.7649631
  79.6822750  69.6948395 145.8517258  80.1253896  68.9455720 145.4536381
  78.8049260  69.6858531 145.4690990  74.8158531  76.2478736 141.3323856
  75.5109435  76.8685429 141.5511171  75.1581681  75.3974087 141.6076234
  76.7149954  73.6978442 142.8611187  77.2401278  74.0365715 142.1360507
  76.6272307  72.7625457 142.6774322  60.8782954  75.9561966 147.2231068
  61.7040974  75.6565738 146.8429712  60.5277006  75.1869588 147.6720857
  65.8464487  75.3088434 149.2928742  65.2244496  74.6459139 148.9930970
  66.5169354  75.3349566 148.6102390  59.0791559  73.8748292 148.1820002
  58.2423467  73.4470467 148.0004003  59.0515204  74.0680736 149.1190793
  65.4077994  73.8592357 142.7687202  65.5566114  74.5427822 142.1153875
  66.2144437  73.8397448 143.2836658  63.1630627  69.8857535 143.7748271
  62.9176669  68.9819865 143.9728481  63.3326541  69.8874686 142.8327749
  62.4326274  65.6185893 141.2734433  61.7395519  65.6930248 140.6174469
  62.1878026  64.8546236 141.7955950  68.9073399  76.3540488 140.2398950
  68.3347366  76.9730675 139.7869422  69.4806193  76.9039850 140.7738872
  72.1270659  76.6377638 141.3707532  73.0601332  76.5723200 141.5740408
  72.0393872  77.4733905 140.9122065  74.7558676  75.9543508 138.3311480
  74.6772307  75.6203372 139.2247238  75.5768343  76.4465276 138.3302952
  69.2920198  67.6901301 137.5815002  70.2379303  67.5607509 137.6503420
  68.9134443  66.9515963 138.0584430  75.2642082  59.3557307 147.5441894
  75.0666903  59.0472395 148.4285226  75.8741788  60.0818946 147.6739824
  67.4763115  65.6151277 137.5169887  66.5694570  65.3184390 137.5932601
  67.7539096  65.3181095 136.6504174  69.0925181  60.1588167 143.6714129
  68.2825909  59.8135252 144.0469375  69.7809598  59.8495711 144.2601740
  71.0215729  59.2366214 145.2938425  71.5746768  59.6561667 145.9528449
  71.2585815  58.3101962 145.3361381  66.2461900  62.4738212 137.6581867
  67.1081064  62.7993111 137.9177684  66.4312244  61.6869708 137.1454932
  74.3994536  61.3466739 144.8017090  73.8193205  62.0051543 144.4195142
  74.1330469  60.5244083 144.3904507  72.8498102  60.7471796 147.0038410
  73.3497881  60.8588331 146.1952729  73.4933710  60.4432849 147.6439218
  60.1766058  70.4878806 147.8128070  60.1536746  70.5866493 146.8609953
  60.4866694  71.3343957 148.1345236  73.1819414  63.5066829 143.8573438
  72.2945269  63.7916480 143.6393633  73.5973403  63.3460593 143.0100715
  76.5333950  63.5313350 147.5727777  77.3094340  64.0209803 147.8452394
  75.8082084  63.9571404 148.0299647  78.9706509  64.2440969 148.6301718
  79.5651000  64.0036705 147.9195026  79.0433093  63.5248100 149.2575254
  61.1903665  78.0874580 148.9444883  61.0558132  77.3274981 148.3782881
  60.7735727  78.8115480 148.4773672  72.3262628  73.2711504 137.9521458
  73.0298478  73.4761506 138.5679114  71.6025276  73.8388266 138.2170541
  73.1560438  69.0221365 144.0723728  73.0995639  69.4789916 143.2331361
  73.7088780  68.2612050 143.8946571  76.9665244  64.8111097 144.8973848
  76.7102178  64.4107733 145.7282055  76.3418112  65.5254891 144.7723987
  81.2777582  67.5507170 147.4045139  80.7177140  67.6200359 148.1776701
  80.6721085  67.3748155 146.6844635  74.2349325  73.7094033 140.0019918
  75.0694929  73.2775231 139.8197393  74.0733668  73.5376047 140.9296812
  73.8895217  70.2126146 141.3676257  73.8344021  70.0470418 140.4264701
  73.2641272  70.9202179 141.5238447  67.1991343  59.7134255 140.9461576
  67.1870012  60.6576095 141.1029847  68.0914764  59.5304401 140.6521037
  71.0143462  56.3077032 145.2007512  70.2475858  55.7535519 145.3464195
  71.4254167  56.3798901 146.0621664  77.3731586  82.9479360 139.3653560
  77.6257106  82.4260881 138.6037023  76.4356145  82.7845505 139.4680243
  79.0764902  79.3407512 140.2685972  79.2439305  80.2087749 140.6356443
  78.8862071  79.5034794 139.3447262  75.6963180  80.1631580 140.5154871
  74.8600493  80.5006267 140.8364145  75.5567950  80.0280560 139.5782008
  77.6716261  75.0068368 145.2234055  77.0180673  74.6917385 144.5990670
  77.6296735  74.3844109 145.9493878  78.7827466  85.2887663 137.1387347
  77.8754527  85.0576917 137.3378496  79.2798498  84.4925282 137.3261328
  73.0250095  82.6369806 143.3267491  72.0947683  82.5754262 143.5437453
  73.1207567  82.1145759 142.5304132  75.5701560  80.0078808 137.7152777
  74.6931027  79.8867609 137.3515024  76.0459314  79.2164886 137.4631666
  70.2980254  81.6020663 143.1565683  70.5933695  80.6931341 143.1032737
  69.3968290  81.5808402 142.8346685  72.0268096  79.2834761 143.2805008
  71.6980802  78.4032140 143.0980114  72.3807467  79.2282429 144.1681397
  77.1278066  78.0682352 141.8473779  77.8486429  78.4463605 141.3437495
  76.5043370  78.7871229 141.9508757  77.2741689  77.6030142 144.6771315
  77.3957600  76.6746789 144.8762203  76.9843732  77.6168828 143.7649631
  73.2720029  80.9477810 141.2734433  72.5789274  81.0222165 140.6174469
  73.0271781  80.1838154 141.7955950  80.1313952  83.0193218 137.5815002
  81.0773057  82.8899426 137.6503420  79.7528197  82.2807880 138.0584430
  78.3156869  80.9443195 137.5169887  77.4088325  80.6476307 137.5932601
  78.5932850  80.6473013 136.6504174  79.9318935  75.4880084 143.6714129
  79.1219663  75.1427169 144.0469375  80.6203352  75.1787628 144.2601740
  77.0855654  77.8030130 137.6581867  77.9474818  78.1285028 137.9177684
  77.2705998  77.0161626 137.1454932  78.0385097  75.0426173 140.9461576
  78.0263767  75.9868013 141.1029847  78.9308519  74.8596318 140.6521037
  81.8537217  71.6368950 145.2007512  81.0869612  71.0827436 145.3464195
  82.2647921  71.7090818 146.0621664  59.4322173  36.0475844 128.0593282
  58.7810153  36.6329924 127.6727296  60.2266536  36.5782038 128.1188319
  65.6988897  32.5400779 129.3198119  64.9218340  32.2011939 128.8753281
  66.3780378  32.5453403 128.6453084  57.1039958  31.6365950 123.8632653
  56.1967020  31.4055204 124.0623802  57.6010990  30.8403570 124.0506635
  60.0108037  40.3463458 126.7829340  59.3369736  40.6495154 127.3914297
  60.3973859  41.1492538 126.4334797  57.9804279  33.2787289 125.7244722
  57.5423709  32.5623148 125.2650359  58.7214720  33.5063404 125.1629814
  58.2099252  40.5143130 128.9976419  58.3851008  40.0431173 129.8122041
  57.5232040  41.1408896 129.2257680  62.1015507  32.1371671 125.3176780
  61.4844677  31.4118499 125.2209832  61.6331995  32.8981031 124.9743854
  62.9253192  35.4610843 129.4369419  63.2013036  35.3467437 130.3463294
  62.0557691  35.0628327 129.3981593  59.8949422  38.6365379 130.3417282
  60.4237188  38.1257833 129.7287444  60.1577641  38.3207909 131.2062815
  62.9889605  38.6082177 130.9572265  63.1626483  38.0428599 130.2046117
  63.4818496  39.4083072 130.7751754  63.9764778  37.9248941 128.0569163
  64.6715682  38.5455634 128.2756477  64.3187928  37.0744292 128.3321541
  65.8756201  35.3748647 129.5856494  66.4007525  35.7135919 128.8605814
  65.7878553  34.4395662 129.4019628  58.0679646  38.0310693 126.9644256
  57.4953613  38.6500880 126.5114728  58.6412440  38.5810055 127.4984178
  61.2876906  38.3147843 128.0952839  62.2207579  38.2493405 128.2985714
  61.2000119  39.1504110 127.6367371  63.9164923  37.6313713 125.0556786
  63.8378554  37.2973577 125.9492544  64.7374589  38.1235481 125.0548259
  58.4526445  29.3671506 124.3060309  59.3985549  29.2377714 124.3748727
  58.0740690  28.6286168 124.7829737  61.4868874  34.9481709 124.6766765
  62.1904724  35.1531711 125.2924420  60.7631523  35.5158471 124.9415848
  63.3955572  35.3864238 126.7265225  64.2301176  34.9545436 126.5442699
  63.2339915  35.2146252 127.6542119  63.0501464  31.8896351 128.0921564
  62.9950268  31.7240623 127.1510008  62.4247519  32.5972384 128.2483754
  72.0239847  45.9033889 136.8220401  72.6618257  45.7840636 136.1183741
  71.9060690  46.8514733 136.8808354  68.8329553  45.8561317 136.7581926
  68.4948065  45.7402382 135.8702461  69.7019321  45.4552482 136.7382932
  64.6916369  47.7096794 132.7478817  64.1281234  47.6186730 131.9795105
  64.5768764  46.8896698 133.2281310  62.2380801  49.2047985 135.5863037
  63.0302093  48.8638810 135.1709337  62.4777451  49.3142960 136.5065191
  70.2715928  51.3767761 128.0593282  69.6203907  51.9621842 127.6727296
  71.0660290  51.9073956 128.1188319  64.1971555  48.4656898 128.4580416
  64.9702431  47.9185885 128.3193292  64.5496954  49.3301148 128.6694878
  66.9612804  47.1710129 138.2548675  67.5576376  46.9466152 137.5405638
  67.0187776  46.4294875 138.8574123  66.5337832  44.6249565 126.0898866
  66.7863353  44.1031086 125.3282329  65.5962392  44.4615710 126.1925550
  71.5781115  43.6285343 133.8973609  72.3644205  43.2104766 133.5464026
  71.8419820  44.5331435 134.0655258  71.7491193  49.0658193 128.5962266
  71.1137026  49.1392820 129.3083171  71.4188599  49.6551792 127.9181345
  76.9789542  43.5660576 134.8006588  77.7114714  42.9959793 135.0344417
  76.2228898  43.1782177 135.2413093  66.2534121  46.5277670 128.2923241
  66.1370379  45.8522574 128.9604325  66.3636381  46.0410044 127.4755394
  68.5965662  45.9887818 131.9969930  68.2323869  45.4618439 132.7082852
  69.4532778  45.5986287 131.8236416  68.2371149  41.0177717 126.9931279
  68.4045551  41.8857954 127.3601750  68.0468318  41.1804999 126.0692568
  70.9946482  49.4794696 138.6597109  70.6947205  50.3819735 138.5512916
  70.6497542  49.2126879 139.5118262  64.4458964  45.9308493 134.6933814
  63.5209460  45.7984707 134.9011505  64.6943377  46.7102712 135.1903756
  74.3943626  41.9977236 136.3394547  73.4860503  41.9292645 136.0453308
  74.3431222  42.4749181 137.1676372  68.2160370  43.4735375 127.9777946
  68.0959995  43.9192426 128.8163426  67.5212958  43.8220692 127.4191484
  61.8067775  45.5741767 135.5277603  61.9360156  45.8276246 136.4417014
  61.1265226  46.1669475 135.2082258  65.9767262  56.2439017 131.6268077
  65.8991292  57.1946842 131.7056558  65.3728906  55.8984889 132.2843003
  76.2605272  40.1993675 138.1172420  75.6179653  40.4926208 137.4712215
  75.7560201  40.0846595 138.9225617  73.9145436  43.9456848 128.8058280
  74.8263292  44.1784235 128.6305977  73.4055083  44.5293892 128.2433358
  72.5215018  48.9282666 136.1971861  71.8923881  49.0928381 135.4947929
  72.1340681  49.3424276 136.9682825  76.4004250  49.8637104 133.5516225
  75.7155289  50.2436006 133.0013258  76.4848100  50.4732431 134.2848173
  73.6555182  47.5097063 140.1511569  73.8672077  48.1528823 139.4745950
  73.6084930  46.6759380 139.6833499  68.0742980  48.6657075 133.4621946
  68.5381326  48.9444777 132.6726569  67.8099778  47.7640519 133.2795037
  64.9667061  48.2128556 136.4001710  65.5368418  48.6415824 135.7619194
  65.5575173  47.9311141 137.0985895  67.0111866  44.7880227 130.2711511
  67.7135910  45.2401271 130.7385438  66.6792495  44.1464046 130.8991405
  74.7701010  50.3869019 138.3233926  75.5918454  49.9849206 138.0416607
  74.7663413  50.2837253 139.2750042  62.7051946  43.4108359 132.5312122
  61.9083109  43.5227053 133.0495617  62.4777538  43.7495011 131.6653012
  68.5357613  49.9353062 140.4794636  68.6002046  50.3973469 141.3152808
  67.8268537  49.3050427 140.6076946  82.8607003  46.7307767 134.6718897
  82.1070711  46.1615165 134.5162902  82.9954544  46.6970432 135.6189532
  68.2505631  51.6021169 130.3473617  68.1151306  52.4472705 130.7758464
  68.7915444  51.8040447 129.5839550  61.7035028  49.1196608 130.9201542
  62.2159549  49.9139858 131.0707106  62.3557741  48.4222898 130.8535143
  63.5129913  52.2362364 133.0024295  63.6896541  53.1580329 132.8145279
  64.3086747  51.9220783 133.4318675  64.6361229  53.7540538 139.0034637
  65.1868654  53.6257601 138.2311631  63.7972704  54.0535427 138.6529530
  71.9755345  52.5047536 142.5055360  71.9573821  53.3256417 142.0135629
  72.8975266  52.3801611 142.7305501  59.6683945  47.4485262 131.6961112
  60.5059167  47.8582270 131.4794820  59.8462213  46.5084704 131.6661306
  71.5648377  45.1160342 127.3844945  71.0495001  45.8864947 127.6233333
  71.2925686  44.4425479 128.0078007  69.1495488  39.9610043 132.4430184
  68.2937085  39.5716894 132.2635822  69.5622440  40.0402004 131.5829969
  76.5382651  47.8692697 129.3198119  75.7612094  47.5303857 128.8753281
  77.2174132  47.8745320 128.6453084  71.3534680  42.9887435 129.2104726
  71.0484816  43.3033584 130.0614870  72.3065123  43.0668854 129.2532059
  69.7981112  49.1477658 130.8597680  69.2702474  48.4130417 130.5470918
  69.2968615  49.9252334 130.6137649  74.7773958  47.3426678 135.9764727
  74.1197633  48.0325940 136.0644855  75.5814358  47.7323110 136.3198713
  64.5299840  39.8097324 133.2204292  65.1043592  39.5872506 132.4877485
  65.1170822  39.8786019 133.9732893  73.5879417  45.6971051 134.0268668
  74.1011299  46.3301043 134.5290378  74.2380641  45.0972247 133.6612028
  64.8569427  41.8401785 127.2400177  64.0206739  42.1776472 127.5609452
  64.7174197  41.7050765 126.3027314  66.8322508  36.6838573 131.9479361
  66.1786920  36.3687590 131.3235976  66.7902982  36.0614314 132.6739184
  67.9433712  46.9657868 123.8632653  67.0360774  46.7347122 124.0623802
  68.4404744  46.1695487 124.0506635  70.8501791  55.6755375 126.7829340
  70.1763490  55.9787072 127.3914297  71.2367613  56.4784456 126.4334797
  70.0660248  43.1720507 136.2727009  69.1482809  43.3935454 136.1148697
  70.4820392  43.2466817 135.4138716  70.8495296  44.5711922 131.4029689
  71.5967115  45.0833320 131.0936811  71.1186885  44.2495975 132.2634083
  69.1221946  47.0670463 128.3856644  68.2133165  46.7829496 128.4829113
  69.1517030  47.4869542 127.5259950  74.3541213  50.6777053 132.1547811
  73.9003540  49.8367962 132.2113002  73.7235180  51.3138451 132.4922591
  73.2974133  41.6069039 133.3848479  72.5596890  41.0946425 133.7158721
  73.5500906  41.1669420 132.5731755  72.7974153  52.5153549 133.0897629
  73.0897127  53.0758606 132.3709995  73.3072773  52.8082110 133.8450788
  73.3985760  34.3845291 133.9790248  73.7044637  33.5242654 133.6916163
  74.1238365  34.9762911 133.7789242  59.6910116  44.7875977 132.3671846
  59.4934516  44.1945338 131.6422912  59.1356780  44.4828187 133.0847785
  67.6706840  44.6799084 134.4866439  67.7255450  43.7272920 134.4108915
  66.8598042  44.8358523 134.9707737  68.8198034  48.6079207 125.7244722
  68.3817464  47.8915066 125.2650359  69.5608475  48.8355322 125.1629814
  65.6099200  43.2976143 132.2456818  64.7967065  43.5970314 132.6522010
  66.1058194  42.9031832 132.9631300  67.7607778  53.2933900 134.1791082
  67.7183957  53.5194747 133.2499614  68.6770477  53.0597275 134.3276884
  76.9371149  46.8836404 131.7821041  76.7989047  47.0738000 130.8542230
  76.5807367  47.6455787 132.2389092  76.9640528  48.9512931 136.7932312
  77.3977035  48.8588220 137.6415366  77.6772109  48.9270431 136.1552328
  65.8773579  50.1696929 133.9753045  66.6714177  49.6747249 133.7735620
  65.1665271  49.6414792 133.6120751  70.6968423  52.5515025 138.3265413
  70.7505445  53.1205961 139.0943129  69.8283204  52.7216910 137.9619450
  62.1856342  44.3140011 130.0512798  61.2553930  44.2524467 130.2682760
  62.2813814  43.7915964 129.2549439  62.1041891  40.8394824 132.6391040
  62.3648708  41.7540157 132.5300200  62.9259063  40.3719266 132.7887652
  77.8256078  48.9936631 139.3265198  78.0191968  49.8982442 139.5724473
  77.7256696  48.5344050 140.1603783  69.6556523  46.7175287 139.8852345
  70.5848583  46.8686446 139.7121312  69.2347553  46.8059308 139.0300991
  68.4544855  50.7425951 137.6550882  68.3155940  50.3744736 138.5276820
  67.6659451  51.2573591 137.4834840  69.0493007  55.8435048 128.9976419
  69.2244762  55.3723091 129.8122041  68.3625795  56.4700814 129.2257680
  70.0050070  50.1207554 135.0439720  69.6699902  50.0808324 135.9397370
  69.5054015  49.4552270 134.5710130  72.9409261  47.4663588 125.3176780
  72.3238432  46.7410417 125.2209832  72.4725750  48.2272949 124.9743854
  74.5963393  52.1762497 142.9782560  74.5375939  51.4921717 142.3113143
  74.9982911  52.9181487 142.5263186  63.6154092  58.9924411 135.7716279
  63.8550690  59.6242935 136.4495298  62.7723288  58.6412451 136.0581638
  64.7307807  41.6849013 124.4398084  63.8537274  41.5637813 124.0760331
  65.2065560  40.8935091 124.1876973  74.5980800  50.1402081 141.2096540
  73.7107579  49.8028002 141.3322939  75.1679351  49.4085112 141.4465305
  56.2509947  46.4726172 134.5339591  56.9380987  46.1587902 133.9460606
  56.0958076  47.3767537 134.2606843  68.1281954  54.8003533 138.1757783
  68.0552125  55.6058504 138.6877087  67.6859347  54.9995499 137.3505804
  67.9171733  54.0375303 131.6860604  67.1339255  54.5796983 131.7798829
  68.6164478  54.5549283 132.0854846  71.2268383  39.8469932 134.3294810
  71.7237083  39.0939895 134.0095880  70.4555365  39.8834249 133.7638019
  79.0798141  45.5510298 135.9713101  79.0688017  46.4335013 135.6007034
  78.2115520  45.1981849 135.7767638  70.5880637  54.6990367 140.3315942
  71.3008609  55.3337832 140.2591843  70.0970666  54.7954233 139.5155943
  72.3098164  48.6041620 131.9033233  71.3754443  48.7243082 131.7337938
  72.4874833  47.7014086 131.6393243  67.8103352  41.9887315 134.0566494
  67.4401140  41.4358356 134.7447400  68.3062445  41.3845449 133.5041495
  75.6970715  44.4458939 132.4383267  76.1631168  45.2786931 132.3643570
  76.1478216  43.9803921 133.1428526  65.6392551  52.4484810 141.1521512
  66.3402010  53.0821293 141.3050907  65.1687666  52.7899542 140.3917152
  73.7646947  50.7902760 129.4369419  74.0406790  50.6759355 130.3463294
  72.8951445  50.3920245 129.3981593  73.4393837  45.0029418 138.9774063
  72.7865287  45.2505325 138.3226516  73.8174217  44.1893556 138.6436540
  70.4001011  55.0389111 133.0802233  70.5823405  54.2210767 133.5429985
  71.2233997  55.2556803 132.6427123  70.7343176  53.9657296 130.3417282
  71.2630942  53.4549751 129.7287444  70.9971396  53.6499826 131.2062815
  61.2360269  51.9821166 138.0852615  61.8213706  51.2364853 138.2180519
  61.0385107  52.2925122 138.9689279  64.0898924  55.0172413 133.1015057
  63.4209299  55.5018541 132.6179098  63.9511794  55.2641633 134.0158436
  68.2304193  57.0516156 139.6997716  68.7822501  57.2147778 140.4646801
  68.5710386  57.6420594 139.0277741  59.4586501  43.2790868 129.8810990
  59.7539942  42.3701546 129.8278043  58.5574537  43.2578607 129.5591992
  71.3672580  54.9998132 136.6861398  71.2423719  54.1987872 136.1772344
  72.0251671  55.4944325 136.1975368  73.4307488  52.8007152 138.3140948
  72.4837824  52.6812503 138.2419275  73.7790261  51.9129650 138.3967210
  61.1874343  40.9604966 130.0050315  60.8587049  40.0802344 129.8225421
  61.5413713  40.9052634 130.8926704  70.4353922  52.5959868 134.5145300
  70.2878884  51.6676576 134.6952870  71.2607415  52.6179959 134.0302376
  64.3016166  41.2477935 130.3725792  64.6412238  41.7763857 129.6504401
  64.7488286  41.5858341 131.1484359  74.0388043  53.4188427 135.6010173
  74.9634591  53.2131288 135.4634624  73.8703347  53.1704828 136.5099515
  66.2884313  39.7452557 128.5719085  67.0092675  40.1233810 128.0682802
  65.6649617  40.4641434 128.6754063  70.4315436  40.4497706 129.5077418
  70.6479050  41.3322344 129.2066246  69.9509503  40.0583919 128.7783060
  73.8283360  53.9374094 130.9572265  74.0020237  53.3720517 130.2046117
  74.3212251  54.7374989 130.7751754  66.4347936  39.2800347 131.4016622
  66.5563847  38.3516994 131.6007509  66.1449978  39.2939033 130.4894937
  79.6822751  46.7010517 132.5762564  80.1253897  45.9517843 132.1781688
  78.8049261  46.6920654 132.1936296  74.8158532  53.2540859 128.0569163
  75.5109437  53.8747552 128.2756477  75.1581682  52.4036210 128.3321541
  76.7149955  50.7040564 129.5856494  77.2401279  51.0427837 128.8605814
  76.6272308  49.7687580 129.4019628  68.3770004  54.6174638 141.7146370
  68.6857130  54.3723785 142.5869070  69.1745486  54.8221276 141.2265240
  68.3990616  56.7712548 133.9451747  67.9595606  56.2788926 134.6384603
  69.1498733  56.2285515 133.7043822  60.8782955  52.9624089 133.9476375
  61.7040975  52.6627860 133.5675018  60.5277007  52.1931711 134.3966164
  65.8464488  52.3150557 136.0174048  65.2244497  51.6521262 135.7176276
  66.5169355  52.3411689 135.3347696  59.0791560  50.8810415 134.9065308
  58.2423468  50.4532589 134.7249310  59.0515205  51.0742858 135.8436100
  76.4043861  51.3373468 144.8907692  75.6139405  51.3197607 144.3512191
  76.1677216  51.8761762 145.6456728  76.5241736  48.1865934 142.2040420
  76.5739741  48.0215942 143.1455943  76.4155660  47.3193193 141.8138301
  65.4077995  50.8654480 129.4932509  65.5566115  51.5489944 128.8399182
  66.2144438  50.8459570 130.0081965  78.0259933  50.6062876 142.4482442
  77.7344741  50.9692856 143.2845903  77.4132064  49.8929884 142.2695774
  79.2255615  48.1715756 134.9685012  80.0602507  48.6105560 135.1322572
  79.3614744  47.6954409 134.1493258  76.2747121  45.7295491 140.9162500
  76.7501243  45.9223137 140.1081351  75.3512687  45.7854676 140.6705883
  63.1630628  46.8919658 130.4993578  62.9176670  45.9881988 130.6973788
  63.3326543  46.8936808 129.5573056  62.4326276  42.6248015 127.9979739
  61.7395520  42.6992370 127.3419775  62.1878027  41.8608359 128.5201256
  68.9073401  53.3602611 126.9644256  68.3347368  53.9792798 126.5114728
  69.4806194  53.9101972 127.4984178  74.9748790  42.6061251 139.1490805
  75.9266213  42.7059348 139.1703029  74.8052241  41.8139519 139.6588890
  72.1270660  53.6439761 128.0952839  73.0601333  53.5785322 128.2985714
  72.0393873  54.4796028 127.6367371  74.7558677  52.9605631 125.0556786
  74.6772309  52.6265495 125.9492544  75.5768344  53.4527399 125.0548259
  77.4536868  45.8267370 138.2633105  77.4213188  44.8883371 138.4492789
  78.0637492  45.9051407 137.5298930  69.2920199  44.6963423 124.3060309
  70.2379304  44.5669631 124.3748727  68.9134444  43.9578085 124.7829737
  77.6031357  42.6178414 138.3091388  77.0870405  41.8336870 138.1221317
  78.4871305  42.2897130 138.4737908  75.2642084  36.3619429 134.2687201
  75.0666905  36.0534517 135.1530533  75.8741789  37.0881068 134.3985131
  83.2713418  46.8883377 137.4039142  84.0016807  46.6268665 137.9646845
  82.6620364  46.1512099 137.4441210  81.3528715  45.0291240 138.0013593
  80.6261879  44.8947205 137.3930084  80.9376002  45.3368068 138.8070311
  67.4763116  42.6213400 124.2415194  66.5694572  42.3246512 124.3177908
  67.7539097  42.3243218 123.3749480  69.0925182  37.1650289 130.3959435
  68.2825910  36.8197374 130.7714682  69.7809599  36.8557833 130.9847047
  71.0215730  36.2428336 132.0183732  71.5746769  36.6623790 132.6773755
  71.2585817  35.3164084 132.0606688  66.2461901  39.4800335 124.3827173
  67.1081065  39.8055233 124.6422991  66.4312245  38.6931831 123.8700239
  74.3994537  38.3528861 131.5262396  73.8193206  39.0113665 131.1440449
  74.1330470  37.5306206 131.1149814  72.8498104  37.7533919 133.7283717
  73.3497882  37.8650454 132.9198035  73.4933712  37.4494972 134.3684525
  60.1766059  47.4940928 134.5373377  60.1536747  47.5928616 133.5855260
  60.4866696  48.3406079 134.8590543  73.1819415  40.5128952 130.5818745
  72.2945270  40.7978602 130.3638939  73.5973404  40.3522715 129.7346021
  76.5333951  40.5375473 134.2973084  77.3094342  41.0271925 134.5697701
  75.8082086  40.9633527 134.7544953  78.9706510  41.2503092 135.3547024
  79.5651001  41.0098828 134.6440333  79.0433094  40.5310222 135.9820561
  61.1903666  55.0936703 135.6690189  61.0558134  54.3337104 135.1028187
  60.7735728  55.8177603 135.2018978  72.3262629  50.2773626 124.6766765
  73.0298479  50.4823629 125.2924420  71.6025278  50.8450388 124.9415848
  73.1560439  46.0283488 130.7969035  73.0995640  46.4852039 129.9576667
  73.7088782  45.2674172 130.6191877  76.9665245  41.8173220 131.6219154
  76.7102179  41.4169855 132.4527362  76.3418113  42.5317013 131.4969293
  81.2777583  44.5569293 134.1290446  80.7177141  44.6262482 134.9022008
  80.6721086  44.3810277 133.4089942  64.3472792  55.9906020 135.8808632
  64.2305176  56.9351452 135.7787322  63.5265238  55.6879581 136.2694431
  74.2349326  50.7156156 126.7265225  75.0694930  50.2837354 126.5442699
  74.0733669  50.5438169 127.6542119  73.8895218  47.2188269 128.0921564
  73.8344022  47.0532540 127.1510008  73.2641274  47.9264302 128.2483754
  67.1991344  36.7196378 127.6706882  67.1870014  37.6638218 127.8275153
  68.0914766  36.5366523 127.3766344  65.3727306  56.6434282 139.0964560
  66.2754552  56.6757892 139.4131055  65.1464676  55.7134733 139.1110896
  67.1280908  55.3965268 135.7574639  66.1776539  55.3967130 135.6439011
  67.4313394  54.6498003 135.2410674  71.0143463  33.3139155 131.9252819
  70.2475859  32.7597641 132.0709501  71.4254168  33.3861023 132.7866971
  82.8633601  61.2325807 136.8220401  83.5012011  61.1132554 136.1183741
  82.7454444  62.1806651 136.8808354  79.6723308  61.1853235 136.7581926
  79.3341819  61.0694300 135.8702461  80.5413076  60.7844400 136.7382932
  75.5310123  63.0388711 132.7478817  74.9674988  62.9478648 131.9795105
  75.4162518  62.2188616 133.2281310  80.1543091  62.3388087 142.7168132
  80.1431731  61.9440885 141.8448635  80.3163730  61.6054159 143.3101903
  73.0774555  64.5339903 135.5863037  73.8695847  64.1930727 135.1709337
  73.3171205  64.6434878 136.5065191  81.1109682  66.7059679 128.0593282
  80.4597662  67.2913759 127.6727296  81.9054045  67.2365874 128.1188319
  75.0365309  63.7948816 128.4580416  75.8096185  63.2477803 128.3193292
  75.3890708  64.6593065 128.6694878  76.8750352  65.1225198 141.6647316
  76.5840218  66.0270829 141.5493982  77.5107336  65.1641726 142.3791385
  77.8006559  62.5002047 138.2548675  78.3970131  62.2758069 137.5405638
  77.8581530  61.7586792 138.8574123  77.3731587  59.9541482 126.0898866
  77.6257108  59.4323003 125.3282329  76.4356146  59.7907628 126.1925550
  82.4174870  58.9577261 133.8973609  83.2037959  58.5396684 133.5464026
  82.6813574  59.8623353 134.0655258  82.5884947  64.3950111 128.5962266
  81.9530780  64.4684737 129.3083171  82.2582354  64.9843710 127.9181345
  87.8183297  58.8952494 134.8006588  88.5508469  58.3251711 135.0344417
  87.0622653  58.5074094 135.2413093  77.0927876  61.8569588 128.2923241
  76.9764134  61.1814492 128.9604325  77.2030136  61.3701962 127.4755394
  79.4359417  61.3179735 131.9969930  79.0717624  60.7910356 132.7082852
  80.2926533  60.9278204 131.8236416  85.3408717  52.6074068 139.2601197
  85.0092042  53.4769479 139.0362411  84.7454331  52.2910352 139.9395227
  79.0764904  56.3469635 126.9931279  79.2439306  57.2149871 127.3601750
  78.8862073  56.5096917 126.0692568  81.8340237  64.8086614 138.6597109
  81.5340960  65.7111653 138.5512916  81.4891296  64.5418797 139.5118262
  75.2852718  61.2600411 134.6933814  74.3603215  61.1276625 134.9011505
  75.5337131  62.0394630 135.1903756  85.2337381  57.3269154 136.3394547
  84.3254258  57.2584562 136.0453308  85.1824976  57.8041099 137.1676372
  79.0554124  58.8027292 127.9777946  78.9353750  59.2484343 128.8163426
  78.3606713  59.1512610 127.4191484  72.6461529  60.9033684 135.5277603
  72.7753910  61.1568163 136.4417014  71.9658981  61.4961392 135.2082258
  76.8161017  71.5730934 131.6268077  76.7385046  72.5238759 131.7056558
  76.2122660  71.2276807 132.2843003  79.3078246  58.7458800 144.2829444
  78.5311580  59.3052720 144.2732308  79.9468809  59.2315583 144.8044314
  87.0999027  55.5285592 138.1172420  86.4573407  55.8218126 137.4712215
  86.5953955  55.4138513 138.9225617  84.7539191  59.2748766 128.8058280
  85.6657047  59.5076152 128.6305977  84.2448838  59.8585810 128.2433358
  77.5624619  61.5544253 143.8447411  78.3039303  62.0929297 143.5682234
  76.8561604  62.1810542 144.0018963  83.0379958  63.6973393 142.4419572
  83.4463314  63.2555804 141.6974205  82.3157220  63.1226021 142.6953765
  79.3911028  58.6346000 139.8153129  80.2372224  59.0585414 139.9587778
  79.3309666  57.9779625 140.5091692  83.3608773  64.2574584 136.1971861
  82.7317635  64.4220298 135.4947929  82.9734435  64.6716194 136.9682825
  87.2398005  65.1929022 133.5516225  86.5549043  65.5727923 133.0013258
  87.3241854  65.8024349 134.2848173  82.5410474  56.2950369 141.4734303
  82.2971406  57.0492429 140.9368579  82.8170404  56.6735716 142.3081550
  84.4948936  62.8388981 140.1511569  84.7065832  63.4820741 139.4745950
  84.4478685  62.0051298 139.6833499  82.0975165  55.4506802 137.0548141
  81.2359644  55.7488055 137.3464878  82.1237600  55.6677201 136.1229173
  78.9136735  63.9948992 133.4621946  79.3775080  64.2736695 132.6726569
  78.6493533  63.0932437 133.2795037  75.8060816  63.5420474 136.4001710
  76.3762173  63.9707742 135.7619194  76.3968928  63.2603058 137.0985895
  77.8505621  60.1172145 130.2711511  78.5529664  60.5693188 130.7385438
  77.5186249  59.4755963 130.8991405  76.2985982  58.7083901 144.6462721
  75.6684643  59.3900182 144.8798118  76.1922070  58.5966983 143.7015859
  71.5930955  58.3755697 135.5728645  70.8030009  58.6313226 135.0968756
  72.0842202  59.1904035 135.6780686  85.6094764  65.7160936 138.3233926
  86.4312208  65.3141124 138.0416607  85.6057167  65.6129171 139.2750042
  73.5445700  58.7400276 132.5312122  72.7476863  58.8518971 133.0495617
  73.3171292  59.0786929 131.6653012  79.3751368  65.2644980 140.4794636
  79.4395800  65.7265387 141.3152808  78.6662292  64.6342345 140.6076946
  69.8768658  58.6286188 138.0043636  70.1276696  59.5133198 138.2701212
  70.4128206  58.4490789 137.2318728  93.7000757  62.0599685 134.6718897
  92.9464466  61.4907083 134.5162902  93.8348299  62.0262349 135.6189532
  79.0899385  66.9313087 130.3473617  78.9545060  67.7764623 130.7758464
  79.6309198  67.1332365 129.5839550  72.5428783  64.4488525 130.9201542
  73.0553303  65.2431775 131.0707106  73.1951496  63.7514816 130.8535143
  74.3523668  67.5654281 133.0024295  74.5290296  68.4872246 132.8145279
  75.1480501  67.2512701 133.4318675  78.4934686  54.4262546 144.6008228
  79.2344399  55.0269699 144.5212691  78.7252609  53.6840184 144.0426271
  73.6376024  59.6118913 142.8786458  73.5229539  58.7104171 143.1793557
  72.7820542  59.8582610 142.5271275  80.7167862  67.5536654 144.4773959
  80.2731716  66.7673032 144.1594863  81.3785075  67.7415804 143.8117850
  75.4754983  69.0832455 139.0034637  76.0262408  68.9549519 138.2311631
  74.6366459  69.3827344 138.6529530  82.8149100  67.8339454 142.5055360
  82.7967575  68.6548335 142.0135629  83.7369020  67.7093529 142.7305501
  79.2722154  65.3483583 143.3478868  79.8050491  64.5871871 143.1178176
  78.7436235  65.0557235 144.0903023  82.4391849  50.4543649 138.8772510
  82.0956118  51.3445291 138.8011621  82.8070812  50.2645307 138.0142095
  70.5077700  62.7777180 131.6961112  71.3452922  63.1874188 131.4794820
  70.6855967  61.8376622 131.6661306  82.4042132  60.4452260 127.3844945
  81.8888755  61.2156865 127.6233333  82.1319440  59.7717396 128.0078007
  79.9889243  55.2901961 132.4430184  79.1330839  54.9008811 132.2635822
  80.4016195  55.3693922 131.5829969  81.5188389  52.8248304 136.8421743
  81.0153185  52.7878439 136.0289549  81.8118996  53.7341047 136.9018400
  77.7631275  52.9087034 135.8487925  78.6284272  52.7129843 135.4893815
  77.8308784  52.6797386 136.7757282  87.3776406  63.1984615 129.3198119
  86.6005849  62.8595774 128.8753281  88.0567887  63.2037238 128.6453084
  82.1928435  58.3179352 129.2104726  81.8878571  58.6325501 130.0614870
  83.1458877  58.3960772 129.2532059  80.6374867  64.4769576 130.8597680
  80.1096228  63.7422335 130.5470918  80.1362370  65.2544252 130.6137649
  85.6167713  62.6718596 135.9764727  84.9591387  63.3617857 136.0644855
  86.4208112  63.0615028 136.3198713  75.3693594  55.1389242 133.2204292
  75.9437346  54.9164423 132.4877485  75.9564577  55.2077936 133.9732893
  84.4273172  61.0262969 134.0268668  84.9405053  61.6592961 134.5290378
  85.0774396  60.4264164 133.6612028  75.6963182  57.1693703 127.2400177
  74.8600494  57.5068389 127.5609452  75.5567951  57.0342683 126.3027314
  77.6716262  52.0130491 131.9479361  77.0180674  51.6979508 131.3235976
  77.6296736  51.3906231 132.6739184  78.7827467  62.2949786 123.8632653
  77.8754529  62.0639039 124.0623802  79.2798499  61.4987405 124.0506635
  81.6895546  71.0047293 126.7829340  81.0157245  71.3078990 127.3914297
  82.0761368  71.8076373 126.4334797  80.9054002  58.5012424 136.2727009
  79.9876564  58.7227371 136.1148697  81.3214146  58.5758735 135.4138716
  81.6889050  59.9003840 131.4029689  82.4360869  60.4125237 131.0936811
  81.9580640  59.5787893 132.2634083  79.9615700  62.3962381 128.3856644
  79.0526920  62.1121414 128.4829113  79.9910784  62.8161459 127.5259950
  85.1934968  66.0068970 132.1547811  84.7397295  65.1659880 132.2113002
  84.5628935  66.6430369 132.4922591  84.1367887  56.9360956 133.3848479
  83.3990644  56.4238342 133.7158721  84.3894661  56.4961338 132.5731755
  83.6367907  67.8445467 133.0897629  83.9290881  68.4050524 132.3709995
  84.1466528  68.1374028 133.8450788  84.2379515  49.7137208 133.9790248
  84.5438392  48.8534572 133.6916163  84.9632120  50.3054828 133.7789242
  70.5303871  60.1167895 132.3671846  70.3328271  59.5237256 131.6422912
  69.9750535  59.8120105 133.0847785  78.5100594  60.0091001 134.4866439
  78.5649204  59.0564838 134.4108915  77.6991796  60.1650440 134.9707737
  79.6591788  63.9371124 125.7244722  79.2211218  63.2206983 125.2650359
  80.4002229  64.1647239 125.1629814  76.4492954  58.6268061 132.2456818
  75.6360820  58.9262232 132.6522010  76.9451949  58.2323750 132.9631300
  78.6001532  68.6225818 134.1791082  78.5577711  68.8486664 133.2499614
  79.5164231  68.3889193 134.3276884  82.0467166  59.0909886 141.0771712
  82.4016554  59.3181359 141.9366177  82.6939297  59.4228262 140.4548967
  87.7764903  62.2128321 131.7821041  87.6382802  62.4029917 130.8542230
  87.4201122  62.9747704 132.2389092  75.9407029  56.1986417 137.8618053
  76.5806408  56.0575176 137.1641016  75.1084560  55.9120930 137.4856655
  87.8034283  64.2804848 136.7932312  88.2370789  64.1880138 137.6415366
  88.5165863  64.2562349 136.1552328  76.7167333  65.4988847 133.9753045
  77.5107932  65.0039167 133.7735620  76.0059025  64.9706710 133.6120751
  81.5362178  67.8806943 138.3265413  81.5899200  68.4497879 139.0943129
  80.6676959  68.0508828 137.9619450  73.0250097  59.6431929 130.0512798
  72.0947685  59.5816384 130.2682760  73.1207569  59.1207881 129.2549439
  72.9435646  56.1686742 132.6391040  73.2042463  57.0832075 132.5300200
  73.7652818  55.7011184 132.7887652  74.4160571  57.5824499 139.8089864
  75.0883624  57.3741861 139.1602513  73.5890357  57.3846585 139.3695096
  88.6649832  64.3228549 139.3265198  88.8585722  65.2274360 139.5724473
  88.5650450  63.8635968 140.1603783  80.3186143  54.2086440 141.8255525
  79.6714058  54.9076389 141.7320001  81.0887158  54.6422584 142.1931773
  83.7264941  64.4735292 144.9006078  83.5750447  64.2445844 143.9836162
  83.7169620  65.4305893 144.9137423  80.4950277  62.0467205 139.8852345
  81.4242337  62.1978364 139.7121312  80.0741307  62.1351225 139.0300991
  79.2938609  66.0717869 137.6550882  79.1549695  65.7036653 138.5276820
  78.5053205  66.5865508 137.4834840  79.8886761  71.1726965 128.9976419
  80.0638517  70.7015009 129.8122041  79.2019549  71.7992732 129.2257680
  80.8443824  65.4499472 135.0439720  80.5093657  65.4100242 135.9397370
  80.3447770  64.7844188 134.5710130  74.8188068  60.8567102 140.5692301
  74.6807866  60.1247341 141.1703840  75.7292992  60.7676002 140.2876489
  83.7803016  62.7955506 125.3176780  83.1632186  62.0702334 125.2209832
  83.3119504  63.5564866 124.9743854  77.4470369  60.5687061 140.0575981
  78.1569987  59.9280253 140.0162599  77.4039677  60.8199956 140.9802162
  85.4357147  67.5054414 142.9782560  85.3769694  66.8213635 142.3113143
  85.8376666  68.2473404 142.5263186  76.1599303  57.5552279 141.8771620
  75.6236660  57.1043017 142.5293217  75.5716011  57.6898188 141.1342085
  74.4547846  74.3216328 135.7716279  74.6944445  74.9534852 136.4495298
  73.6117043  73.9704368 136.0581638  75.5701562  57.0140930 124.4398084
  74.6931028  56.8929731 124.0760331  76.0459315  56.2227009 124.1876973
  85.4374555  65.4693998 141.2096540  84.5501334  65.1319920 141.3322939
  86.0073106  64.7377030 141.4465305  67.0903702  61.8018090 134.5339591
  67.7774742  61.4879820 133.9460606  66.9351831  62.7059455 134.2606843
  71.8938424  56.6908287 138.9624615  71.8096613  56.0833956 138.2275025
  71.0721130  57.1817305 138.9634111  78.9675708  70.1295451 138.1757783
  78.8945880  70.9350422 138.6877087  78.5253101  70.3287416 137.3505804
  78.7565488  69.3667221 131.6860604  77.9733010  69.9088901 131.7798829
  79.4558233  69.8841200 132.0854846  82.0662138  55.1761850 134.3294810
  82.5630837  54.4231812 134.0095880  81.2949119  55.2126167 133.7638019
  89.9191895  60.8802216 135.9713101  89.9081772  61.7626931 135.6007034
  89.0509275  60.5273767 135.7767638  81.4274392  70.0282285 140.3315942
  82.1402364  70.6629750 140.2591843  80.9364420  70.1246151 139.5155943
  83.1491919  63.9333537 131.9033233  82.2148197  64.0535000 131.7337938
  83.3268587  63.0306004 131.6393243  78.6497107  57.3179233 134.0566494
  78.2794894  56.7650274 134.7447400  79.1456199  56.7137367 133.5041495
  86.5364470  59.7750857 132.4383267  87.0024922  60.6078848 132.3643570
  86.9871970  59.3095838 133.1428526  76.4786305  67.7776728 141.1521512
  77.1795765  68.4113211 141.3050907  76.0081420  68.1191460 140.3917152
  84.6040701  66.1194678 129.4369419  84.8800545  66.0051273 130.3463294
  83.7345200  65.7212163 129.3981593  84.5081133  52.1431444 136.4774169
  83.5944212  52.3735670 136.6456376  84.9374234  52.2269888 137.3288201
  84.2787591  60.3321336 138.9774063  83.6259041  60.5797243 138.3226516
  84.6567971  59.5185474 138.6436540  81.2394765  70.3681029 133.0802233
  81.4217160  69.5502685 133.5429985  82.0627751  70.5848721 132.6427123
  81.5736931  69.2949214 130.3417282  82.1024697  68.7841668 129.7287444
  81.8365150  68.9791744 131.2062815  80.3275164  61.0741147 145.4640100
  79.6515801  60.9735276 146.1342475  81.1502798  60.9180360 145.9276097
  72.0754023  67.3113083 138.0852615  72.6607460  66.5656771 138.2180519
  71.8778862  67.6217040 138.9689279  74.9292678  70.3464331 133.1015057
  74.2603054  70.8310458 132.6179098  74.7905548  70.5933551 134.0158436
  66.6671678  59.8818683 136.8057058  66.7055778  59.3482274 137.5994176
  66.1611971  59.3553889 136.1868035  79.0697947  72.3808074 139.6997716
  79.6216255  72.5439696 140.4646801  79.4104141  72.9712512 139.0277741
  74.0462440  54.7283224 140.3019601  74.1103767  55.5898055 139.8896998
  73.9829561  54.1157226 139.5691959  73.5214713  56.8006356 143.9492635
  74.1486752  56.4183434 144.5630159  72.6642632  56.5820558 144.3148327
  83.9208821  67.2069332 145.5546370  84.4648725  67.8199290 145.0601325
  83.3395666  67.7648910 146.0713383  70.2980256  58.6082786 129.8810990
  70.5933697  57.6993464 129.8278043  69.3968291  58.5870525 129.5591992
  82.2066334  70.3290050 136.6861398  82.0817474  69.5279789 136.1772344
  82.8645425  70.8236243 136.1975368  73.8274503  56.6838782 135.8638538
  73.1061088  57.2974750 135.7246012  74.6167758  57.2196547 135.7855184
  84.2701243  68.1299070 138.3140948  83.3231578  68.0104421 138.2419275
  84.6184016  67.2421568 138.3967210  76.6300816  54.0193209 142.1379190
  77.1535218  54.2655505 142.9005499  76.4113149  54.8513243 141.7182327
  72.0268097  56.2896883 130.0050315  71.6980803  55.4094262 129.8225421
  72.3807468  56.2344552 130.8926704  81.2747676  67.9251786 134.5145300
  81.1272638  66.9968493 134.6952870  82.1001170  67.9471877 134.0302376
  75.1409920  56.5769853 130.3725792  75.4805993  57.1055774 129.6504401
  75.5882041  56.9150259 131.1484359  84.8781798  68.7480345 135.6010173
  85.8028345  68.5423206 135.4634624  84.7097101  68.4996746 136.5099515
  77.8353361  54.9606904 139.8228861  77.4950182  54.1614717 140.2249540
  77.1292367  55.2608615 139.2505694  78.4869833  52.0456216 138.2756184
  79.3095902  51.5716694 138.1535074  78.7307897  52.8246700 138.7754870
  77.1278067  55.0744475 128.5719085  77.8486430  55.4525727 128.0682802
  76.5043372  55.7933351 128.6754063  81.2709190  55.7789624 129.5077418
  81.4872805  56.6614261 129.2066246  80.7903258  55.3875837 128.7783060
  76.0108412  58.7375337 136.0848162  75.8652992  59.0515640 136.9772444
  75.5333615  59.3560237 135.5319061  77.8704795  55.7277885 136.1329052
  77.8566363  54.8318978 135.7961350  78.5877223  55.7348549 136.7667338
  79.7230925  56.1615225 138.1782179  79.4648703  57.0832296 138.1766510
  79.1915966  55.7645660 138.8682643  84.6677114  69.2666012 130.9572265
  84.8413992  68.7012435 130.2046117  85.1606005  70.0666907 130.7751754
  70.4854074  61.2780681 139.0235823  69.9407542  62.0540489 139.1556098
  71.3633424  61.6251486 138.8654945  77.2741691  54.6092265 131.4016622
  77.3957602  53.6808911 131.6007509  76.9843733  54.6230951 130.4894937
  80.1432881  52.2947176 134.5383342  80.1654578  52.3586509 133.5835321
  80.5600940  51.4551684 134.7323848  90.5216505  62.0302435 132.5762564
  90.9647651  61.2809760 132.1781688  89.6443016  62.0212571 132.1936296
  85.6552287  68.5832777 128.0569163  86.3503191  69.2039469 128.2756477
  85.9975437  67.7328128 128.3321541  71.2720096  60.4050577 141.9165980
  70.5301832  60.5533213 142.5030611  70.9512840  60.6658843 141.0532730
  87.5543710  66.0332482 129.5856494  88.0795034  66.3719755 128.8605814
  87.4666062  65.0979497 129.4019628  79.2163758  69.9466556 141.7146370
  79.5250885  69.7015702 142.5869070  80.0139240  70.1513194 141.2265240
  79.2384370  72.1004465 133.9451747  78.7989361  71.6080844 134.6384603
  79.9892487  71.5577433 133.7043822  71.7176709  68.2916006 133.9476375
  72.5434729  67.9919778 133.5675018  71.3670761  67.5223629 134.3966164
  76.6858243  67.6442474 136.0174048  76.0638252  66.9813179 135.7176276
  77.3563110  67.6703606 135.3347696  69.9185314  66.2102333 134.9065308
  69.0817223  65.7824507 134.7249310  69.8908960  66.4034776 135.8436100
  76.7582770  56.1224262 145.6106554  76.8070926  56.9986385 145.2284324
  77.3005284  55.5801655 145.0378198  87.2437616  66.6665386 144.8907692
  86.4533159  66.6489525 144.3512191  87.0070970  67.2053679 145.6456728
  87.3635491  63.5157852 142.2040420  87.4133496  63.3507860 143.1455943
  87.2549414  62.6485111 141.8138301  76.2471750  66.1946398 129.4932509
  76.3959870  66.8781862 128.8399182  77.0538193  66.1751488 130.0081965
  84.6539253  59.4988780 143.5199727  85.5549116  59.3595245 143.2283725
  84.7287228  59.6643235 144.4597904  78.9882059  56.8755635 142.3652913
  78.1185368  57.1689201 142.0935502  79.2241539  57.4596080 143.0860177
  88.8653688  65.9354794 142.4482442  88.5738496  66.2984774 143.2845903
  88.2525819  65.2221802 142.2695774  90.0649370  63.5007673 134.9685012
  90.8996261  63.9397477 135.1322572  90.2008499  63.0246327 134.1493258
  87.1140876  61.0587408 140.9162500  87.5894997  61.2515055 140.1081351
  86.1906441  61.1146594 140.6705883  74.0024382  62.2211575 130.4993578
  73.7570424  61.3173905 130.6973788  74.1720297  62.2228726 129.5573056
  81.6921092  53.0935252 139.8818334  82.2103036  53.8296279 139.5564822
  81.3376225  53.3999245 140.7165093  73.2720030  57.9539933 127.9979739
  72.5789275  58.0284288 127.3419775  73.0271782  57.1900277 128.5201256
  81.9433687  49.5135534 135.4019230  82.2235440  48.8458723 136.0279657
  82.7284293  49.7064630 134.8893894  79.7467155  68.6894528 126.9644256
  79.1741122  69.3084715 126.5114728  80.3199949  69.2393890 127.4984178
  85.8142545  57.9353168 139.1490805  86.7659968  58.0351266 139.1703029
  85.6445995  57.1431437 139.6588890  83.8356924  55.0208752 139.3350206
  83.2406856  55.3013764 138.6396695  83.5506621  55.5102652 140.1066947
  82.9664415  68.9731678 128.0952839  83.8995088  68.9077240 128.2985714
  82.8787628  69.8087945 127.6367371  85.5952431  68.2897549 125.0556786
  85.5166063  67.9557412 125.9492544  86.4162098  68.7819317 125.0548259
  88.2930623  61.1559288 138.2633105  88.2606943  60.2175289 138.4492789
  88.9031246  61.2343325 137.5298930  80.1313954  60.0255341 124.3060309
  81.0773058  59.8961549 124.3748727  79.7528198  59.2870003 124.7829737
  88.4425111  57.9470331 138.3091388  87.9264160  57.1628788 138.1221317
  89.3265060  57.6189048 138.4737908  86.1035838  51.6911347 134.2687201
  85.9060659  51.3826435 135.1530533  86.7135544  52.4172986 134.3985131
  94.1107173  62.2175295 137.4039142  94.8410561  61.9560583 137.9646845
  93.5014118  61.4804017 137.4441210  92.1922470  60.3583157 138.0013593
  91.4655633  60.2239122 137.3930084  91.7769757  60.6659986 138.8070311
  80.0152646  64.0773087 145.7660966  80.9355656  64.2551686 145.9601012
  79.9802229  63.1329132 145.6140665  78.3156871  57.9505317 124.2415194
  77.4088326  57.6538430 124.3177908  78.5932852  57.6535135 123.3749480
  69.2334811  59.2711681 134.6914241  68.9137595  58.4176989 134.3988615
  68.6868239  59.4860259 135.4472208  73.0114719  61.9874122 138.4083747
  73.2300728  62.9191230 138.4271781  73.4240492  61.6282096 139.1938551
  79.9318936  52.4942207 130.3959435  79.1219665  52.1489292 130.7714682
  80.6203353  52.1849751 130.9847047  81.8609485  51.5720254 132.0183732
  82.4140523  51.9915707 132.6773755  82.0979571  50.6456002 132.0606688
  77.8842584  57.5607328 147.7986496  77.7839311  58.5101684 147.7298587
  77.6664126  57.2325566 146.9262566  77.0855655  54.8092253 124.3827173
  77.9474819  55.1347151 124.6422991  77.2705999  54.0223748 123.8700239
  69.1023071  62.8914592 136.6607362  68.4086543  62.4768545 136.1477317
  69.8496062  62.9335129 136.0640781  85.2388292  53.6820779 131.5262396
  84.6586961  54.3405583 131.1440449  84.9724224  52.8598124 131.1149814
  83.6891858  53.0825837 133.7283717  84.1891637  53.1942371 132.9198035
  84.3327466  52.7786890 134.3684525  77.7473854  60.9904466 146.6151558
  77.2640936  61.7904826 146.8215447  77.8334793  61.0012411 145.6619002
  71.0159814  62.8232846 134.5373377  70.9930502  62.9220533 133.5855260
  71.3260450  63.6697997 134.8590543  73.6747191  64.8809001 138.6519991
  74.6290445  64.8492943 138.5849923  73.4759715  64.4199625 139.4670217
  74.2646574  63.4510117 141.2190789  75.0839463  63.9454196 141.2425626
  74.5383381  62.5342085 141.1908357  84.0213170  55.8420869 130.5818745
  83.1339025  56.1270520 130.3638939  84.4367159  55.6814633 129.7346021
  87.3727706  55.8667390 134.2973084  88.1488096  56.3563843 134.5697701
  86.6475840  56.2925445 134.7544953  89.8100265  56.5795010 135.3547024
  90.4044755  56.3390746 134.6440333  89.8826848  55.8602140 135.9820561
  72.0297420  70.4228621 135.6690189  71.8951888  69.6629021 135.1028187
  71.6129483  71.1469520 135.2018978  83.1656383  65.6065544 124.6766765
  83.8692233  65.8115547 125.2924420  82.4419032  66.1742306 124.9415848
  83.9954194  61.3575405 130.7969035  83.9389395  61.8143957 129.9576667
  84.5482536  60.5966090 130.6191877  87.8058999  57.1465137 131.6219154
  87.5495934  56.7461773 132.4527362  87.1811868  57.8608931 131.4969293
  92.1171337  59.8861210 134.1290446  91.5570895  59.9554400 134.9022008
  91.5114841  59.7102195 133.4089942  75.1866546  71.3197938 135.8808632
  75.0698930  72.2643370 135.7787322  74.3658992  71.0171499 136.2694431
  85.0743081  66.0448073 126.7265225  85.9088685  65.6129272 126.5442699
  84.9127424  65.8730087 127.6542119  84.7288973  62.5480187 128.0921564
  84.6737777  62.3824458 127.1510008  84.1035028  63.2556219 128.2483754
  69.5181488  57.7848251 141.9182986  70.1640351  57.2747205 142.4070211
  69.3098639  58.5216933 142.4926411  82.0434880  64.8529098 147.4175127
  82.9126040  65.0269751 147.0561762  81.5641632  65.6723515 147.2950856
  78.0385098  52.0488296 127.6706882  78.0263768  52.9930136 127.8275153
  78.9308520  51.8658441 127.3766344  76.2121060  71.9726199 139.0964560
  77.1148307  72.0049810 139.4131055  75.9858430  71.0426650 139.1110896
  77.9674662  70.7257186 135.7574639  77.0170293  70.7259048 135.6439011
  78.2707148  69.9789921 135.2410674  81.8537218  48.6431072 131.9252819
  81.0869614  48.0889559 132.0709501  82.2647923  48.7152941 132.7866971
  93.7027356  76.5617724 136.8220401  94.3405766  76.4424472 136.1183741
  93.5848199  77.5098568 136.8808354  90.5117062  76.5145152 136.7581926
  90.1735574  76.3986217 135.8702461  91.3806830  76.1136318 136.7382932
  86.3703878  78.3680629 132.7478817  85.8068743  78.2770566 131.9795105
  86.2556273  77.5480533 133.2281310  83.9168310  79.8631821 135.5863037
  84.7089602  79.5222645 135.1709337  84.1564960  79.9726796 136.5065191
  91.9503436  82.0351597 128.0593282  91.2991416  82.6205677 127.6727296
  92.7447799  82.5657792 128.1188319  85.8759064  79.1240734 128.4580416
  86.6489940  78.5769721 128.3193292  86.2284462  79.9884983 128.6694878
  88.6400313  77.8293965 138.2548675  89.2363885  77.6049987 137.5405638
  88.6975285  77.0878710 138.8574123  88.2125341  75.2833400 126.0898866
  88.4650862  74.7614921 125.3282329  87.2749901  75.1199545 126.1925550
  93.2568624  74.2869178 133.8973609  94.0431713  73.8688601 133.5464026
  93.5207329  75.1915270 134.0655258  93.4278702  79.7242029 128.5962266
  92.7924535  79.7976655 129.3083171  93.0976108  80.3135627 127.9181345
  98.6577051  74.2244411 134.8006588  99.3902223  73.6543628 135.0344417
  97.9016407  73.8366012 135.2413093  87.9321630  77.1861506 128.2923241
  87.8157888  76.5106409 128.9604325  88.0423890  76.6993880 127.4755394
  90.2753171  76.6471653 131.9969930  89.9111378  76.1202274 132.7082852
  91.1320287  76.2570122 131.8236416  96.1802472  67.9365986 139.2601197
  95.8485797  68.8061397 139.0362411  95.5848085  67.6202270 139.9395227
  89.9158658  71.6761553 126.9931279  90.0833060  72.5441789 127.3601750
  89.7255827  71.8388834 126.0692568  86.1246473  76.5892328 134.6933814
  85.1996969  76.4568542 134.9011505  86.3730886  77.3686548 135.1903756
  96.0731135  72.6561072 136.3394547  95.1648012  72.5876480 136.0453308
  96.0218731  73.1333017 137.1676372  89.8947879  74.1319210 127.9777946
  89.7747504  74.5776261 128.8163426  89.2000467  74.4804528 127.4191484
  83.4855284  76.2325602 135.5277603  83.6147665  76.4860081 136.4417014
  82.8052735  76.8253310 135.2082258  87.6554771  86.9022852 131.6268077
  87.5778801  87.8530677 131.7056558  87.0516415  86.5568724 132.2843003
  97.9392781  70.8577510 138.1172420  97.2967162  71.1510043 137.4712215
  97.4347710  70.7430430 138.9225617  95.5932945  74.6040683 128.8058280
  96.5050801  74.8368070 128.6305977  95.0842592  75.1877728 128.2433358
  90.2304783  73.9637918 139.8153129  91.0765978  74.3877331 139.9587778
  90.1703421  73.3071542 140.5091692  92.9368920  70.7798719 137.0548141
  92.0753399  71.0779973 137.3464878  92.9631355  70.9969118 136.1229173
  89.7530489  79.3240910 133.4621946  90.2168835  79.6028613 132.6726569
  89.4887287  78.4224354 133.2795037  86.6454570  78.8712391 136.4001710
  87.2155927  79.2999660 135.7619194  87.2362682  78.5894976 137.0985895
  88.6899375  75.4464062 130.2711511  89.3923419  75.8985106 130.7385438
  88.3580004  74.8047881 130.8991405  82.4324709  73.7047615 135.5728645
  81.6423763  73.9605143 135.0968756  82.9235957  74.5195953 135.6780686
  84.3839455  74.0692194 132.5312122  83.5870618  74.1810888 133.0495617
  84.1565047  74.4078846 131.6653012  80.7162412  73.9578105 138.0043636
  80.9670451  74.8425115 138.2701212  81.2521961  73.7782707 137.2318728
  89.9293140  82.2605005 130.3473617  89.7938815  83.1056541 130.7758464
  90.4702952  82.4624282 129.5839550  83.3822537  79.7780443 130.9201542
  83.8947058  80.5723693 131.0707106  84.0345250  79.0806733 130.8535143
  85.1917422  82.8946199 133.0024295  85.3684050  83.8164164 132.8145279
  85.9874256  82.5804618 133.4318675  84.4769779  74.9410831 142.8786458
  84.3623294  74.0396088 143.1793557  83.6214296  75.1874528 142.5271275
  93.2785604  65.7835567 138.8772510  92.9349873  66.6737208 138.8011621
  93.6464566  65.5937224 138.0142095  81.3471454  78.1069097 131.6961112
  82.1846676  78.5166106 131.4794820  81.5249722  77.1668539 131.6661306
  93.2435886  75.7744178 127.3844945  92.7282510  76.5448782 127.6233333
  92.9713195  75.1009314 128.0078007  90.8282997  70.6193879 132.4430184
  89.9724594  70.2300729 132.2635822  91.2409949  70.6985839 131.5829969
  92.3582144  68.1540222 136.8421743  91.8546940  68.1170357 136.0289549
  92.6512751  69.0632965 136.9018400  88.6025030  68.2378952 135.8487925
  89.4678027  68.0421760 135.4893815  88.6702539  68.0089303 136.7757282
  98.2170160  78.5276532 129.3198119  97.4399603  78.1887692 128.8753281
  98.8961641  78.5329156 128.6453084  93.0322189  73.6471270 129.2104726
  92.7272325  73.9617419 130.0614870  93.9852632  73.7252690 129.2532059
  91.4768621  79.8061493 130.8597680  90.9489983  79.0714253 130.5470918
  90.9756124  80.5836170 130.6137649  86.2087349  70.4681160 133.2204292
  86.7831101  70.2456341 132.4877485  86.7958331  70.5369854 133.9732893
  95.2666926  76.3554886 134.0268668  95.7798808  76.9884878 134.5290378
  95.9168150  75.7556082 133.6612028  86.5356936  72.4985621 127.2400177
  85.6994248  72.8360307 127.5609452  86.3961706  72.3634600 126.3027314
  88.5110017  67.3422408 131.9479361  87.8574429  67.0271426 131.3235976
  88.4690491  66.7198149 132.6739184  89.6221221  77.6241704 123.8632653
  88.7148283  77.3930957 124.0623802  90.1192253  76.8279323 124.0506635
  92.5289300  86.3339211 126.7829340  91.8550999  86.6370907 127.3914297
  92.9155122  87.1368291 126.4334797  91.7447757  73.8304342 136.2727009
  90.8270318  74.0519289 136.1148697  92.1607901  73.9050652 135.4138716
  92.5282805  75.2295758 131.4029689  93.2754624  75.7417155 131.0936811
  92.7974394  74.9079810 132.2634083  90.8009455  77.7254298 128.3856644
  89.8920674  77.4413331 128.4829113  90.8304539  78.1453377 127.5259950
  96.0328722  81.3360888 132.1547811  95.5791049  80.4951798 132.2113002
  95.4022689  81.9722286 132.4922591  94.9761642  72.2652874 133.3848479
  94.2384399  71.7530260 133.7158721  95.2288415  71.8253256 132.5731755
  94.4761662  83.1737385 133.0897629  94.7684636  83.7342442 132.3709995
  94.9860282  83.4665946 133.8450788  95.0773269  65.0429126 133.9790248
  95.3832146  64.1826489 133.6916163  95.8025874  65.6346746 133.7789242
  81.3697625  75.4459813 132.3671846  81.1722025  74.8529173 131.6422912
  80.8144289  75.1412023 133.0847785  89.3494349  75.3382919 134.4866439
  89.4042959  74.3856755 134.4108915  88.5385551  75.4942358 134.9707737
  90.4985543  79.2663042 125.7244722  90.0604973  78.5498901 125.2650359
  91.2395984  79.4939157 125.1629814  87.2886709  73.9559979 132.2456818
  86.4754574  74.2554149 132.6522010  87.7845703  73.5615667 132.9631300
  89.4395287  83.9517736 134.1791082  89.3971466  84.1778582 133.2499614
  90.3557986  83.7181110 134.3276884  98.6158657  77.5420239 131.7821041
  98.4776556  77.7321835 130.8542230  98.2594876  78.3039622 132.2389092
  86.7800784  71.5278334 137.8618053  87.4200163  71.3867093 137.1641016
  85.9478314  71.2412848 137.4856655  87.5561088  80.8280765 133.9753045
  88.3501686  80.3331085 133.7735620  86.8452780  80.2998628 133.6120751
  83.8643851  74.9723846 130.0512798  82.9341439  74.9108302 130.2682760
  83.9601323  74.4499799 129.2549439  83.7829400  71.4978659 132.6391040
  84.0436217  72.4123992 132.5300200  84.6046572  71.0303102 132.7887652
  85.2554325  72.9116416 139.8089864  85.9277379  72.7033779 139.1602513
  84.4284112  72.7138502 139.3695096  91.1579897  69.5378357 141.8255525
  90.5107812  70.2368307 141.7320001  91.9280913  69.9714501 142.1931773
  90.7280516  86.5018883 128.9976419  90.9032271  86.0306926 129.8122041
  90.0413304  87.1284649 129.2257680  91.6837579  80.7791389 135.0439720
  91.3487411  80.7392159 135.9397370  91.1841524  80.1136105 134.5710130
  85.6581823  76.1859019 140.5692301  85.5201621  75.4539258 141.1703840
  86.5686746  76.0967919 140.2876489  94.6196770  78.1247424 125.3176780
  94.0025941  77.3994252 125.2209832  94.1513259  78.8856784 124.9743854
  88.2864123  75.8978979 140.0575981  88.9963742  75.2572171 140.0162599
  88.2433431  76.1491874 140.9802162  86.9993057  72.8844197 141.8771620
  86.4630414  72.4334935 142.5293217  86.4109766  73.0190105 141.1342085
  86.4095316  72.3432848 124.4398084  85.5324783  72.2221649 124.0760331
  86.8853069  71.5518926 124.1876973  77.9297456  77.1310008 134.5339591
  78.6168496  76.8171738 133.9460606  77.7745585  78.0351372 134.2606843
  82.7332179  72.0200204 138.9624615  82.6490367  71.4125874 138.2275025
  81.9114885  72.5109223 138.9634111  89.5959242  84.6959138 131.6860604
  88.8126764  85.2380819 131.7798829  90.2951987  85.2133118 132.0854846
  92.9055892  70.5053768 134.3294810  93.4024592  69.7523730 134.0095880
  92.1342874  70.5418084 133.7638019  93.9885673  79.2625455 131.9033233
  93.0541952  79.3826917 131.7337938  94.1662342  78.3597922 131.6393243
  89.4890861  72.6471151 134.0566494  89.1188649  72.0942191 134.7447400
  89.9849954  72.0429284 133.5041495  97.3758224  75.1042774 132.4383267
  97.8418677  75.9370766 132.3643570  97.8265725  74.6387756 133.1428526
  95.4434456  81.4486596 129.4369419  95.7194299  81.3343190 130.3463294
  94.5738954  81.0504080 129.3981593  95.3474887  67.4723361 136.4774169
  94.4337967  67.7027588 136.6456376  95.7767989  67.5561805 137.3288201
  92.0788520  85.6972946 133.0802233  92.2610914  84.8794602 133.5429985
  92.9021506  85.9140639 132.6427123  92.4130685  84.6241132 130.3417282
  92.9418451  84.1133586 129.7287444  92.6758905  84.3083662 131.2062815
  82.9147778  82.6405001 138.0852615  83.5001215  81.8948689 138.2180519
  82.7172616  82.9508958 138.9689279  85.7686433  85.6756248 133.1015057
  85.0996808  86.1602376 132.6179098  85.6299303  85.9225469 134.0158436
  77.5065433  75.2110601 136.8057058  77.5449532  74.6774192 137.5994176
  77.0005725  74.6845807 136.1868035  84.8856195  70.0575142 140.3019601
  84.9497521  70.9189972 139.8896998  84.8223315  69.4449143 139.5691959
  84.3608467  72.1298274 143.9492635  84.9880506  71.7475351 144.5630159
  83.5036386  71.9112476 144.3148327  81.1374010  73.9374703 129.8810990
  81.4327451  73.0285382 129.8278043  80.2362046  73.9162443 129.5591992
  84.6668257  72.0130700 135.8638538  83.9454843  72.6266668 135.7246012
  85.4561513  72.5488465 135.7855184  87.4694571  69.3485126 142.1379190
  87.9928972  69.5947423 142.9005499  87.2506904  70.1805161 141.7182327
  82.8661852  71.6188801 130.0050315  82.5374558  70.7386180 129.8225421
  83.2201222  71.5636470 130.8926704  92.1141431  83.2543704 134.5145300
  91.9666393  82.3260411 134.6952870  92.9394924  83.2763794 134.0302376
  85.9803675  71.9061771 130.3725792  86.3199747  72.4347692 129.6504401
  86.4275795  72.2442177 131.1484359  88.6747116  70.2898821 139.8228861
  88.3343936  69.4906634 140.2249540  87.9686122  70.5900532 139.2505694
  89.3263587  67.3748134 138.2756184  90.1489657  66.9008612 138.1535074
  89.5701651  68.1538618 138.7754870  87.9671822  70.4036392 128.5719085
  88.6880184  70.7817645 128.0682802  87.3437126  71.1225269 128.6754063
  92.1102945  71.1081541 129.5077418  92.3266559  71.9906179 129.2066246
  91.6297012  70.7167755 128.7783060  86.8502166  74.0667254 136.0848162
  86.7046747  74.3807558 136.9772444  86.3727370  74.6852155 135.5319061
  88.7098549  71.0569802 136.1329052  88.6960118  70.1610896 135.7961350
  89.4270977  71.0640466 136.7667338  90.5624680  71.4907143 138.1782179
  90.3042458  72.4124213 138.1766510  90.0309720  71.0937577 138.8682643
  95.5070869  84.5957930 130.9572265  95.6807746  84.0304352 130.2046117
  95.9999760  85.3958825 130.7751754  81.3247828  76.6072599 139.0235823
  80.7801296  77.3832407 139.1556098  82.2027178  76.9543403 138.8654945
  88.1135445  69.9384183 131.4016622  88.2351356  69.0100829 131.6007509
  87.8237487  69.9522869 130.4894937  90.9826635  67.6239093 134.5383342
  91.0048332  67.6878426 133.5835321  91.3994694  66.7843602 134.7323848
 101.3610260  77.3594353 132.5762564 101.8041406  76.6101678 132.1781688
 100.4836770  77.3504489 132.1936296  96.4946041  83.9124694 128.0569163
  97.1896946  84.5331387 128.2756477  96.8369191  83.0620045 128.3321541
  82.1113850  75.7342495 141.9165980  81.3695586  75.8825131 142.5030611
  81.7906595  75.9950761 141.0532730  98.3937464  81.3624400 129.5856494
  98.9188788  81.7011672 128.8605814  98.3059817  80.4271415 129.4019628
  82.5570464  83.6207924 133.9476375  83.3828484  83.3211696 133.5675018
  82.2064516  82.8515546 134.3966164  87.5251997  82.9734392 136.0174048
  86.9032006  82.3105097 135.7176276  88.1956864  82.9995524 135.3347696
  80.7579069  81.5394250 134.9065308  79.9210977  81.1116425 134.7249310
  80.7302714  81.7326694 135.8436100  87.0865504  81.5238315 129.4932509
  87.2353624  82.2073780 128.8399182  87.8931947  81.5043405 130.0081965
  84.8418137  77.5503493 130.4993578  84.5964179  76.6465823 130.6973788
  85.0114052  77.5520644 129.5573056  92.5314847  68.4227169 139.8818334
  93.0496791  69.1588196 139.5564822  92.1769980  68.7291163 140.7165093
  84.1113785  73.2831851 127.9979739  83.4183029  73.3576206 127.3419775
  83.8665536  72.5192194 128.5201256  92.7827441  64.8427452 135.4019230
  93.0629195  64.1750641 136.0279657  93.5678048  65.0356548 134.8893894
  90.5860910  84.0186446 126.9644256  90.0134877  84.6376633 126.5114728
  91.1593703  84.5685808 127.4984178  94.6750679  70.3500669 139.3350206
  94.0800611  70.6305682 138.6396695  94.3900376  70.8394570 140.1066947
  93.8058169  84.3023596 128.0952839  94.7388842  84.2369158 128.2985714
  93.7181382  85.1379863 127.6367371  96.4346186  83.6189466 125.0556786
  96.3559818  83.2849330 125.9492544  97.2555853  84.1111234 125.0548259
  90.9707708  75.3547259 124.3060309  91.9166813  75.2253467 124.3748727
  90.5921953  74.6161921 124.7829737  96.9429593  67.0203265 134.2687201
  96.7454414  66.7118353 135.1530533  97.5529298  67.7464904 134.3985131
  89.1550625  73.2797235 124.2415194  88.2482081  72.9830348 124.3177908
  89.4326606  72.9827053 123.3749480  80.0728566  74.6003598 134.6914241
  79.7531350  73.7468907 134.3988615  79.5261994  74.8152177 135.4472208
  83.8508473  77.3166039 138.4083747  84.0694483  78.2483147 138.4271781
  84.2634247  76.9574014 139.1938551  90.7712691  67.8234125 130.3959435
  89.9613419  67.4781210 130.7714682  91.4597108  67.5141668 130.9847047
  92.7003239  66.9012172 132.0183732  93.2534278  67.3207625 132.6773755
  92.9373326  65.9747920 132.0606688  87.9249410  70.1384170 124.3827173
  88.7868574  70.4639069 124.6422991  88.1099754  69.3515666 123.8700239
  79.9416826  78.2206510 136.6607362  79.2480297  77.8060463 136.1477317
  80.6889817  78.2627046 136.0640781  96.0782046  69.0112697 131.5262396
  95.4980715  69.6697501 131.1440449  95.8117979  68.1890041 131.1149814
  94.5285613  68.4117754 133.7283717  95.0285391  68.5234289 132.9198035
  95.1721221  68.1078807 134.3684525  81.8553568  78.1524764 134.5373377
  81.8324256  78.2512451 133.5855260  82.1654205  78.9989915 134.8590543
  84.5140946  80.2100919 138.6519991  85.4684200  80.1784861 138.5849923
  84.3153470  79.7491542 139.4670217  94.8606924  71.1712787 130.5818745
  93.9732779  71.4562438 130.3638939  95.2760913  71.0106550 129.7346021
  98.2121460  71.1959308 134.2973084  98.9881851  71.6855761 134.5697701
  97.4869595  71.6217362 134.7544953 100.6494019  71.9086927 135.3547024
 101.2438510  71.6682663 134.6440333 100.7220603  71.1894058 135.9820561
  82.8691175  85.7520538 135.6690189  82.7345643  84.9920939 135.1028187
  82.4523237  86.4761438 135.2018978  94.0050138  80.9357462 124.6766765
  94.7085988  81.1407464 125.2924420  93.2812787  81.5034224 124.9415848
  94.8347948  76.6867323 130.7969035  94.7783149  77.1435874 129.9576667
  95.3876291  75.9258008 130.6191877  98.6452754  72.4757055 131.6219154
  98.3889688  72.0753691 132.4527362  98.0205622  73.1900849 131.4969293
 102.9565092  75.2153128 134.1290446 102.3964650  75.2846317 134.9022008
 102.3508595  75.0394113 133.4089942  95.9136835  81.3739991 126.7265225
  96.7482439  80.9421189 126.5442699  95.7521178  81.2022005 127.6542119
  95.5682727  77.8772104 128.0921564  95.5131531  77.7116376 127.1510008
  94.9428783  78.5848137 128.2483754  80.3575242  73.1140169 141.9182986
  81.0034106  72.6039123 142.4070211  80.1492393  73.8508850 142.4926411
  88.8778853  67.3780213 127.6706882  88.8657523  68.3222053 127.8275153
  89.7702275  67.1950359 127.3766344  92.6930972  63.9722990 131.9252819
  91.9263368  63.4181477 132.0709501  93.1041677  64.0444859 132.7866971
  99.0519096  90.6125318 126.0898866  99.3044617  90.0906839 125.3282329
  98.1143655  90.4491463 126.1925550 100.7552413  87.0053470 126.9931279
 100.9226815  87.8733707 127.3601750 100.5649582  87.1680752 126.0692568
  97.3750691  87.8277538 127.2400177  96.5388003  88.1652225 127.5609452
  97.2355460  87.6926518 126.3027314  99.3503771  82.6714326 131.9479361
  98.6968183  82.3563343 131.3235976  99.3084245  82.0490067 132.6739184
 100.4614976  92.9533621 123.8632653  99.5542038  92.7222875 124.0623802
 100.9586008  92.1571240 124.0506635  94.7037605  90.3015764 130.0512798
  93.7735194  90.2400220 130.2682760  94.7995077  89.7791717 129.2549439
  97.2489071  87.6724766 124.4398084  96.3718537  87.5513566 124.0760331
  97.7246824  86.8810844 124.1876973  91.9767765  89.2666621 129.8810990
  92.2721206  88.3577299 129.8278043  91.0755800  89.2454360 129.5591992
  93.7055606  86.9480719 130.0050315  93.3768312  86.0678097 129.8225421
  94.0594977  86.8928387 130.8926704  98.8065576  85.7328310 128.5719085
  99.5273939  86.1109563 128.0682802  98.1830881  86.4517187 128.6754063
  98.9529200  85.2676100 131.4016622  99.0745111  84.3392747 131.6007509
  98.6631242  85.2814786 130.4894937  94.9507539  88.6123768 127.9979739
  94.2576784  88.6868123 127.3419775  94.7059291  87.8484112 128.5201256
 101.8101463  90.6839176 124.3060309 102.7560567  90.5545384 124.3748727
 101.4315707  89.9453838 124.7829737  99.9944380  88.6089153 124.2415194
  99.0875835  88.3122265 124.3177908 100.2720361  88.3118971 123.3749480
 101.6106445  83.1526042 130.3959435 100.8007174  82.8073127 130.7714682
 102.2990862  82.8433586 130.9847047  98.7643164  85.4676088 124.3827173
  99.6262328  85.7930986 124.6422991  98.9493508  84.6807584 123.8700239
  99.7172607  82.7072131 127.6706882  99.7051277  83.6513971 127.8275153
 100.6096029  82.5242276 127.3766344 103.5324727  79.3014908 131.9252819
 102.7657123  78.7473394 132.0709501 103.9435432  79.3736776 132.7866971
  59.4322174  13.0537966 114.7838589  58.7810154  13.6392047 114.3972602
  60.2266537  13.5844161 114.8433626  65.6988898   9.5462902 116.0443425
  64.9218341   9.2074062 115.5998587  66.3780379   9.5515525 115.3698390
  57.1039959   8.6428073 110.5877960  56.1967021   8.4117327 110.7869109
  57.6010991   7.8465692 110.7751942  60.0108038  17.3525580 113.5074646
  59.3369737  17.6557277 114.1159604  60.3973860  18.1554661 113.1580103
  57.9804281  10.2849412 112.4490029  57.5423710   9.5685271 111.9895666
  58.7214721  10.5125526 111.8875120  58.2099253  17.5205253 115.7221725
  58.3851009  17.0493296 116.5367348  57.5232041  18.1471019 115.9502986
  62.1015508   9.1433793 112.0422086  61.4844679   8.4180621 111.9455139
  61.6331997   9.9043154 111.6989161  62.9253193  12.4672965 116.1614726
  63.2013037  12.3529560 117.0708600  62.0557692  12.0690450 116.1226899
  59.8949423  15.6427501 117.0662588  60.4237189  15.1319956 116.4532750
  60.1577642  15.3270031 117.9308121  62.9889606  15.6144299 117.6817571
  63.1626484  15.0490722 116.9291424  63.4818498  16.4145194 117.4997061
  63.9764779  14.9311064 114.7814469  64.6715683  15.5517756 115.0001784
  64.3187929  14.0806415 115.0566847  65.8756202  12.3810769 116.3101800
  66.4007526  12.7198042 115.5851120  65.7878555  11.4457785 116.1264935
  58.0679647  15.0372815 113.6889563  57.4953614  15.6563003 113.2360035
  58.6412441  15.5872177 114.2229485  61.2876907  15.3209966 114.8198145
  62.2207580  15.2555527 115.0231021  61.2000120  16.1566232 114.3612678
  63.9164924  14.6375836 111.7802093  63.8378555  14.3035700 112.6737851
  64.7374591  15.1297604 111.7793565  58.4526446   6.3733628 111.0305616
  59.3985551   6.2439836 111.0994034  58.0740691   5.6348290 111.5075044
  61.4868876  11.9543831 111.4012071  62.1904726  12.1593834 112.0169727
  60.7631524  12.5220593 111.6661155  63.3955573  12.3926361 113.4510531
  64.2301177  11.9607559 113.2688006  63.2339916  12.2208374 114.3787426
  63.0501465   8.8958474 114.8166871  62.9950269   8.7302745 113.8755315
  62.4247520   9.6034507 114.9729060  72.0239848  22.9096012 123.5465708
  72.6618258  22.7902759 122.8429048  71.9060691  23.8576856 123.6053660
  68.8329554  22.8623440 123.4827233  68.4948066  22.7464504 122.5947768
  69.7019323  22.4614605 123.4628239  64.6916370  24.7158916 119.4724124
  64.1281235  24.6248853 118.7040411  64.5768765  23.8958821 119.9526616
  62.2380802  26.2110108 122.3108344  63.0302094  25.8700932 121.8954643
  62.4777452  26.3205083 123.2310497  70.2715929  28.3829884 114.7838589
  69.6203909  28.9683964 114.3972602  71.0660292  28.9136079 114.8433626
  64.1971556  25.4719021 115.1825723  64.9702432  24.9248008 115.0438599
  64.5496955  26.3363270 115.3940184  66.9612805  24.1772252 124.9793982
  67.5576378  23.9528274 124.2650945  67.0187777  23.4356997 125.5819430
  66.5337834  21.6311687 112.8144173  66.7863354  21.1093208 112.0527636
  65.5962393  21.4677833 112.9170856  71.5781117  20.6347465 120.6218916
  72.3644206  20.2166889 120.2709333  71.8419821  21.5393558 120.7900564
  71.7491194  26.0720316 115.3207573  71.1137027  26.1454942 116.0328477
  71.4188600  26.6613915 114.6426652  76.9789544  20.5722699 121.5251895
  77.7114716  20.0021915 121.7589724  76.2228899  20.1844299 121.9658400
  66.2534122  23.5339793 115.0168548  66.1370381  22.8584696 115.6849632
  66.3636382  23.0472167 114.2000701  68.5965663  22.9949940 118.7215237
  68.2323871  22.4680561 119.4328158  69.4532779  22.6048409 118.5481722
  68.2371150  18.0239840 113.7176586  68.4045553  18.8920076 114.0847057
  68.0468319  18.1867122 112.7937875  70.9946484  26.4856819 125.3842416
  70.6947207  27.3881858 125.2758223  70.6497543  26.2189002 126.2363569
  64.4458965  22.9370616 121.4179120  63.5209462  22.8046830 121.6256812
  64.6943378  23.7164835 121.9149063  74.3943627  19.0039359 123.0639853
  73.4860505  18.9354767 122.7698614  74.3431223  19.4811304 123.8921679
  68.2160371  20.4797497 114.7023252  68.0959996  20.9254548 115.5408733
  67.5212960  20.8282815 114.1436790  61.8067776  22.5803889 122.2522909
  61.9360157  22.8338368 123.1662321  61.1265227  23.1731597 121.9327564
  65.9767263  33.2501139 118.3513384  65.8991293  34.2008964 118.4301864
  65.3728907  32.9047012 119.0088310  76.2605274  17.2055797 124.8417727
  75.6179654  17.4988331 124.1957522  75.7560202  17.0908718 125.6470924
  73.9145437  20.9518971 115.5303586  74.8263294  21.1846357 115.3551284
  73.4055084  21.5356015 114.9678665  72.5215020  25.9344789 122.9217168
  71.8923882  26.0990503 122.2193236  72.1340682  26.3486399 123.6928132
  76.4004252  26.8699227 120.2761532  75.7155290  27.2498128 119.7258565
  76.4848101  27.4794554 121.0093479  73.6555183  24.5159186 126.8756875
  73.8672078  25.1590946 126.1991256  73.6084931  23.6821502 126.4078805
  68.0742982  25.6719197 120.1867253  68.5381327  25.9506900 119.3971875
  67.8099780  24.7702642 120.0040344  64.9667063  25.2190679 123.1247016
  65.5368420  25.6477947 122.4864501  65.5575175  24.9373263 123.8231202
  67.0111868  21.7942349 116.9956818  67.7135911  22.2463393 117.4630744
  66.6792496  21.1526168 117.6236711  74.7701011  27.3931141 125.0479232
  75.5918455  26.9911329 124.7661914  74.7663414  27.2899375 125.9995348
  62.7051947  20.4170481 119.2557428  61.9083110  20.5289176 119.7740924
  62.4777539  20.7557134 118.3898319  68.5357615  26.9415185 127.2039943
  68.6002047  27.4035592 128.0398115  67.8268538  26.3112550 127.3322253
  82.8607004  23.7369890 121.3964204  82.1070713  23.1677288 121.2408208
  82.9954545  23.7032554 122.3434839  68.2505632  28.6083292 117.0718923
  68.1151307  29.4534828 117.5003771  68.7915445  28.8102570 116.3084857
  61.7035030  26.1258730 117.6446848  62.2159550  26.9201980 117.7952413
  62.3557742  25.4285021 117.5780450  63.5129914  29.2424486 119.7269602
  63.6896543  30.1642451 119.5390585  64.3086748  28.9282906 120.1563981
  64.6361230  30.7602660 125.7279944  65.1868655  30.6319724 124.9556938
  63.7972706  31.0597549 125.3774837  71.9755347  29.5109659 129.2300667
  71.9573822  30.3318540 128.7380936  72.8975267  29.3863734 129.4550808
  59.6683946  24.4547384 118.4206419  60.5059168  24.8644393 118.2040127
  59.8462214  23.5146827 118.3906613  71.5648379  22.1222465 114.1090252
  71.0495002  22.8927070 114.3478639  71.2925687  21.4487601 114.7323313
  69.1495490  16.9672166 119.1675490  68.2937086  16.5779016 118.9881129
  69.5622441  17.0464127 118.3075276  76.5382653  24.8754820 116.0443425
  75.7612095  24.5365979 115.5998587  77.2174134  24.8807443 115.3698390
  71.3534682  19.9949557 115.9350033  71.0484817  20.3095706 116.7860176
  72.3065124  20.0730977 115.9777366  69.7981114  26.1539780 117.5842987
  69.2702475  25.4192540 117.2716225  69.2968616  26.9314457 117.3382955
  74.7773960  24.3488801 122.7010033  74.1197634  25.0388062 122.7890162
  75.5814359  24.7385233 123.0444020  64.5299841  16.8159447 119.9449599
  65.1043593  16.5934628 119.2122792  65.1170824  16.8848141 120.6978200
  73.5879418  22.7033174 120.7513975  74.1011300  23.3363166 121.2535685
  74.2380642  22.1034369 120.3857335  64.8569428  18.8463908 113.9645484
  64.0206741  19.1838594 114.2854759  64.7174198  18.7112888 113.0272621
  66.8322509  13.6900696 118.6724668  66.1786921  13.3749713 118.0481283
  66.7902983  13.0676436 119.3984491  67.9433714  23.9719991 110.5877960
  67.0360775  23.7409244 110.7869109  68.4404746  23.1757610 110.7751942
  70.8501793  32.6817498 113.5074646  70.1763491  32.9849195 114.1159604
  71.2367615  33.4846578 113.1580103  70.0660249  20.1782629 122.9972316
  69.1482811  20.3997576 122.8394004  70.4820393  20.2528940 122.1384023
  70.8495297  21.5774045 118.1274996  71.5967116  22.0895442 117.8182118
  71.1186887  21.2558098 118.9879389  69.1221947  24.0732586 115.1101950
  68.2133166  23.7891618 115.2074420  69.1517031  24.4931664 114.2505257
  74.3541215  27.6839175 118.8793118  73.9003542  26.8430085 118.9358308
  73.7235181  28.3200573 119.2167898  73.2974134  18.6131161 120.1093785
  72.5596891  18.1008547 120.4404028  73.5500908  18.1731543 119.2977062
  72.7974154  29.5215672 119.8142936  73.0897128  30.0820729 119.0955302
  73.3072774  29.8144233 120.5696095  73.3985761  11.3907413 120.7035554
  73.7044638  10.5304777 120.4161470  74.1238366  11.9825033 120.5034548
  59.6910118  21.7938100 119.0917152  59.4934517  21.2007460 118.3668219
  59.1356782  21.4890310 119.8093091  67.6706841  21.6861206 121.2111746
  67.7255451  20.7335043 121.1354222  66.8598043  21.8420645 121.6953044
  68.8198035  25.6141329 112.4490029  68.3817465  24.8977188 111.9895666
  69.5608476  25.8417444 111.8875120  65.6099201  20.3038266 118.9702124
  64.7967067  20.6032437 119.3767317  66.1058195  19.9093955 119.6876607
  67.7607779  30.2996023 120.9036389  67.7183958  30.5256869 119.9744921
  68.6770478  30.0659397 121.0522190  76.9371150  23.8898526 118.5066347
  76.7989048  24.0800122 117.5787537  76.5807369  24.6517909 118.9634398
  76.9640529  25.9575053 123.5177619  77.3977036  25.8650342 124.3660673
  77.6772110  25.9332554 122.8797635  65.8773580  27.1759052 120.6998352
  66.6714178  26.6809372 120.4980927  65.1665272  26.6476915 120.3366057
  70.6968424  29.5577147 125.0510719  70.7505447  30.1268084 125.8188435
  69.8283206  29.7279032 124.6864757  62.1856343  21.3202134 116.7758104
  61.2553931  21.2586589 116.9928067  62.2813815  20.7978086 115.9794746
  62.1041892  17.8456946 119.3636346  62.3648710  18.7602280 119.2545507
  62.9259065  17.3781389 119.5132959  77.8256079  25.9998754 126.0510504
  78.0191969  26.9044564 126.2969779  77.7256697  25.5406173 126.8849089
  69.6556524  23.7237409 126.6097651  70.5848584  23.8748569 126.4366619
  69.2347554  23.8121430 125.7546298  68.4544856  27.7488074 124.3796189
  68.3155942  27.3806858 125.2522127  67.6659452  28.2635713 124.2080147
  69.0493008  32.8497170 115.7221725  69.2244763  32.3785214 116.5367348
  68.3625796  33.4762937 115.9502986  70.0050071  27.1269677 121.7685027
  69.6699904  27.0870447 122.6642677  69.5054017  26.4614393 121.2955437
  72.9409263  24.4725711 112.0422086  72.3238433  23.7472539 111.9455139
  72.4725751  25.2335071 111.6989161  74.5963394  29.1824619 129.7027867
  74.5375940  28.4983839 129.0358450  74.9982913  29.9243609 129.2508493
  63.6154093  35.9986533 122.4961586  63.8550691  36.6305057 123.1740604
  62.7723290  35.6474573 122.7826945  64.7307809  18.6911135 111.1643391
  63.8537275  18.5699936 110.8005637  65.2065562  17.8997214 110.9122279
  74.5980802  27.1464203 127.9341846  73.7107580  26.8090125 128.0568245
  75.1679353  26.4147234 128.1710612  56.2509949  23.4788295 121.2584898
  56.9380988  23.1650025 120.6705913  56.0958077  24.3829660 120.9852149
  68.1281955  31.8065656 124.9003090  68.0552126  32.6120627 125.4122394
  67.6859348  32.0057621 124.0751111  67.9171735  31.0437426 118.4105911
  67.1339256  31.5859106 118.5044136  68.6164480  31.5611405 118.8100152
  71.2268385  16.8532055 121.0540117  71.7237084  16.1002017 120.7341187
  70.4555366  16.8896372 120.4883326  79.0798142  22.5572421 122.6958408
  79.0688018  23.4397136 122.3252341  78.2115522  22.2043971 122.5012945
  70.5880638  31.7052490 127.0561248  71.3008611  32.3399954 126.9837150
  70.0970667  31.8016356 126.2401250  72.3098165  25.6103742 118.6278540
  71.3754444  25.7305205 118.4583244  72.4874834  24.7076209 118.3638550
  67.8103353  18.9949438 120.7811801  67.4401141  18.4420478 121.4692707
  68.3062446  18.3907572 120.2286801  75.6970717  21.4521062 119.1628574
  76.1631169  22.2849053 119.0888877  76.1478217  20.9866043 119.8673833
  65.6392552  29.4546933 127.8766819  66.3402011  30.0883416 128.0296213
  65.1687667  29.7961665 127.1162458  73.7646948  27.7964883 116.1614726
  74.0406792  27.6821477 117.0708600  72.8951447  27.3982368 116.1226899
  73.4393838  22.0091541 125.7019369  72.7865288  22.2567448 125.0471822
  73.8174218  21.1955679 125.3681847  70.4001012  32.0451234 119.8047540
  70.5823406  31.2272890 120.2675292  71.2233998  32.2618926 119.3672430
  70.7343177  30.9719419 117.0662588  71.2630944  30.4611873 116.4532750
  70.9971397  30.6561949 117.9308121  61.2360270  28.9883288 124.8097922
  61.8213707  28.2426976 124.9425826  61.0385109  29.2987245 125.6934586
  64.0898925  32.0234536 119.8260364  63.4209301  32.5080663 119.3424404
  63.9511795  32.2703756 120.7403743  68.2304194  34.0578279 126.4243022
  68.7822502  34.2209901 127.1892108  68.5710387  34.6482717 125.7523047
  59.4586502  20.2852990 116.6056296  59.7539943  19.3763669 116.5523350
  58.5574538  20.2640730 116.2837299  71.3672581  32.0060255 123.4106705
  71.2423721  31.2049994 122.9017650  72.0251672  32.5006448 122.9220675
  73.4307490  29.8069275 125.0386255  72.4837825  29.6874626 124.9664581
  73.7790263  28.9191773 125.1212516  61.1874344  17.9667088 116.7295621
  60.8587050  17.0864467 116.5470727  61.5413715  17.9114757 117.6172011
  70.4353923  29.6021991 121.2390607  70.2878885  28.6738698 121.4198177
  71.2607416  29.6242082 120.7547682  64.3016167  18.2540058 117.0971099
  64.6412240  18.7825979 116.3749707  64.7488288  18.5920464 117.8729666
  74.0388045  30.4250550 122.3255480  74.9634592  30.2193411 122.1879931
  73.8703348  30.1766951 123.2344821  66.2884314  16.7514680 115.2964392
  67.0092677  17.1295932 114.7928109  65.6649618  17.4703556 115.3999370
  70.4315437  17.4559829 116.2322724  70.6479052  18.3384466 115.9311552
  69.9509504  17.0646042 115.5028366  73.8283361  30.9436217 117.6817571
  74.0020238  30.3782640 116.9291424  74.3212252  31.7437112 117.4997061
  66.4347937  16.2862470 118.1261928  66.5563849  15.3579116 118.3252816
  66.1449980  16.3001156 117.2140244  79.6822752  23.7072640 119.3007871
  80.1253898  22.9579965 118.9026994  78.8049262  23.6982776 118.9181603
  74.8158533  30.2602981 114.7814469  75.5109438  30.8809674 115.0001784
  75.1581683  29.4098333 115.0566847  76.7149956  27.7102687 116.3101800
  77.2401281  28.0489960 115.5851120  76.6272309  26.7749702 116.1264935
  68.3770005  31.6236761 128.4391677  68.6857132  31.3785907 129.3114376
  69.1745487  31.8283399 127.9510547  68.3990617  33.7774670 120.6697053
  67.9595608  33.2851049 121.3629910  69.1498734  33.2347638 120.4289129
  60.8782956  29.9686211 120.6721681  61.7040976  29.6689983 120.2920325
  60.5277008  29.1993834 121.1211470  65.8464489  29.3212679 122.7419355
  65.2244499  28.6583384 122.4421583  66.5169356  29.3473811 122.0593003
  59.0791561  27.8872538 121.6310615  58.2423470  27.4594712 121.4494616
  59.0515207  28.0804981 122.5681406  76.4043863  28.3435591 131.6152998
  75.6139406  28.3259729 131.0757498  76.1677217  28.8823884 132.3702035
  76.5241738  25.1928057 128.9285727  76.5739743  25.0278064 129.8701250
  76.4155661  24.3255316 128.5383607  65.4077996  27.8716603 116.2177816
  65.5566117  28.5552067 115.5644488  66.2144440  27.8521693 116.7327271
  78.0259934  27.6124998 129.1727748  77.7344743  27.9754979 130.0091209
  77.4132066  26.8992007 128.9941080  79.2255617  25.1777878 121.6930318
  80.0602508  25.6167682 121.8567879  79.3614746  24.7016531 120.8738564
  76.2747123  22.7357613 127.6407806  76.7501244  22.9285259 126.8326658
  75.3512688  22.7916799 127.3951190  63.1630629  23.8981780 117.2238885
  62.9176671  22.9944110 117.4219095  63.3326544  23.8998931 116.2818363
  62.4326277  19.6310138 114.7225046  61.7395522  19.7054493 114.0665082
  62.1878029  18.8670482 115.2446563  68.9073402  30.3664733 113.6889563
  68.3347369  30.9854920 113.2360035  69.4806195  30.9164095 114.2229485
  74.9748792  19.6123373 125.8736112  75.9266215  19.7121471 125.8948336
  74.8052242  18.8201642 126.3834196  72.1270662  30.6501883 114.8198145
  73.0601335  30.5847445 115.0231021  72.0393874  31.4858150 114.3612678
  74.7558678  29.9667754 111.7802093  74.6772310  29.6327617 112.6737851
  75.5768345  30.4589522 111.7793565  77.4536869  22.8329493 124.9878411
  77.4213190  21.8945494 125.1738095  78.0637493  22.9113530 124.2544236
  69.2920200  21.7025546 111.0305616  70.2379305  21.5731754 111.0994034
  68.9134445  20.9640208 111.5075044  77.6031358  19.6240536 125.0336695
  77.0870407  18.8398993 124.8466624  78.4871306  19.2959253 125.1983214
  75.2642085  13.3681552 120.9932507  75.0666906  13.0596640 121.8775839
  75.8741790  14.0943191 121.1230437  83.2713419  23.8945500 124.1284448
  84.0016808  23.6330788 124.6892152  82.6620365  23.1574222 124.1686516
  81.3528716  22.0353362 124.7258899  80.6261880  21.9009327 124.1175391
  80.9376003  22.3430191 125.5315618  67.4763117  19.6275522 110.9660501
  66.5694573  19.3308635 111.0423214  67.7539098  19.3305340 110.0994787
  69.0925183  14.1712412 117.1204742  68.2825912  13.8259497 117.4959988
  69.7809600  13.8619956 117.7092354  71.0215731  13.2490459 118.7429039
  71.5746770  13.6685912 119.4019062  71.2585818  12.3226207 118.7851995
  66.2461902  16.4862457 111.1072480  67.1081066  16.8117356 111.3668297
  66.4312246  15.6993953 110.5945546  74.3994539  15.3590984 118.2507703
  73.8193208  16.0175788 117.8685755  74.1330471  14.5368329 117.8395120
  72.8498105  14.7596042 120.4529023  73.3497883  14.8712576 119.6443342
  73.4933713  14.4557094 121.0929832  60.1766060  24.5003051 121.2618684
  60.1536748  24.5990738 120.3100567  60.4866697  25.3468202 121.5835850
  73.1819417  17.5191074 117.3064051  72.2945272  17.8040725 117.0884246
  73.5973406  17.3584838 116.4591328  76.5333953  17.5437595 121.0218390
  77.3094343  18.0334048 121.2943007  75.8082087  17.9695650 121.4790260
  78.9706511  18.2565215 122.0792331  79.5651002  18.0160950 121.3685639
  79.0433095  17.5372345 122.7065867  61.1903667  32.0998825 122.3935496
  61.0558135  31.3399226 121.8273494  60.7735729  32.8239725 121.9264285
  72.3262630  27.2835749 111.4012071  73.0298480  27.4885751 112.0169727
  71.6025279  27.8512511 111.6661155  73.1560440  23.0345610 117.5214341
  73.0995642  23.4914162 116.6821974  73.7088783  22.2736295 117.3437184
  76.9665246  18.8235342 118.3464461  76.7102180  18.4231978 119.1772669
  76.3418114  19.5379136 118.2214600  81.2777584  21.5631415 120.8535752
  80.7177142  21.6324605 121.6267314  80.6721087  21.3872400 120.1335249
  64.3472793  32.9968142 122.6053939  64.2305177  33.9413575 122.5032629
  63.5265239  32.6941704 122.9939738  74.2349327  27.7218278 113.4510531
  75.0694931  27.2899477 113.2688006  74.0733670  27.5500292 114.3787426
  73.8895220  24.2250392 114.8166871  73.8344023  24.0594663 113.8755315
  73.2641275  24.9326424 114.9729060  67.1991345  13.7258501 114.3952189
  67.1870015  14.6700340 114.5520460  68.0914767  13.5428646 114.1011650
  65.3727307  33.6496404 125.8209867  66.2754554  33.6820015 126.1376362
  65.1464677  32.7196855 125.8356203  67.1280909  32.4027391 122.4819946
  66.1776540  32.4029253 122.3684318  67.4313395  31.6560125 121.9655980
  71.0143465  10.3201277 118.6498126  70.2475860   9.7659764 118.7954808
  71.4254170  10.3923146 119.5112277  82.8633603  38.2387929 123.5465708
  83.5012012  38.1194677 122.8429048  82.7454445  39.1868773 123.6053660
  79.6723309  38.1915357 123.4827233  79.3341820  38.0756422 122.5947768
  80.5413077  37.7906523 123.4628239  75.5310125  40.0450834 119.4724124
  74.9674990  39.9540771 118.7040411  75.4162520  39.2250738 119.9526616
  80.1543092  39.3450209 129.4413438  80.1431733  38.9503007 128.5693942
  80.3163731  38.6116282 130.0347210  73.0774556  41.5402025 122.3108344
  73.8695848  41.1992850 121.8954643  73.3171207  41.6497000 123.2310497
  81.1109683  43.7121802 114.7838589  80.4597663  44.2975882 114.3972602
  81.9054046  44.2427996 114.8433626  75.0365310  40.8010939 115.1825723
  75.8096186  40.2539926 115.0438599  75.3890709  41.6655188 115.3940184
  76.8750353  42.1287321 128.3892622  76.5840219  43.0332952 128.2739289
  77.5107337  42.1703849 129.1036692  77.8006560  39.5064169 124.9793982
  78.3970132  39.2820192 124.2650945  77.8581531  38.7648915 125.5819430
  77.3731588  36.9603605 112.8144173  77.6257109  36.4385126 112.0527636
  76.4356147  36.7969750 112.9170856  82.4174871  35.9639383 120.6218916
  83.2037960  35.5458806 120.2709333  82.6813575  36.8685475 120.7900564
  82.5884948  41.4012233 115.3207573  81.9530781  41.4746860 116.0328477
  82.2582355  41.9905832 114.6426652  87.8183298  35.9014616 121.5251895
  88.5508470  35.3313833 121.7589724  87.0622654  35.5136217 121.9658400
  77.0927877  38.8631711 115.0168548  76.9764135  38.1876614 115.6849632
  77.2030137  38.3764085 114.2000701  79.4359418  38.3241858 118.7215237
  79.0717625  37.7972479 119.4328158  80.2926534  37.9340327 118.5481722
  85.3408718  29.6136190 125.9846503  85.0092043  30.4831601 125.7607718
  84.7454332  29.2972474 126.6640534  79.0764905  33.3531758 113.7176586
  79.2439307  34.2211994 114.0847057  78.8862074  33.5159039 112.7937875
  81.8340238  41.8148736 125.3842416  81.5340961  42.7173775 125.2758223
  81.4891298  41.5480920 126.2363569  75.2852720  38.2662533 121.4179120
  74.3603216  38.1338747 121.6256812  75.5337133  39.0456753 121.9149063
  85.2337382  34.3331277 123.0639853  84.3254259  34.2646685 122.7698614
  85.1824978  34.8103222 123.8921679  79.0554126  35.8089415 114.7023252
  78.9353751  36.2546466 115.5408733  78.3606714  36.1574733 114.1436790
  72.6461531  37.9095807 122.2522909  72.7753912  38.1630286 123.1662321
  71.9658982  38.5023515 121.9327564  76.8161018  48.5793057 118.3513384
  76.7385048  49.5300882 118.4301864  76.2122661  48.2338929 119.0088310
  79.3078248  35.7520922 131.0074750  78.5311582  36.3114842 130.9977615
  79.9468811  36.2377705 131.5289621  87.0999028  32.5347715 124.8417727
  86.4573408  32.8280248 124.1957522  86.5953957  32.4200635 125.6470924
  84.7539192  36.2810888 115.5303586  85.6657048  36.5138275 115.3551284
  84.2448839  36.8647932 114.9678665  77.5624620  38.5606376 130.5692717
  78.3039304  39.0991420 130.2927541  76.8561605  39.1872664 130.7264269
  83.0379960  40.7035516 129.1664879  83.4463316  40.2617927 128.4219511
  82.3157221  40.1288144 129.4199072  79.3911030  35.6408123 126.5398436
  80.2372225  36.0647536 126.6833085  79.3309667  34.9841747 127.2336999
  83.3608774  41.2636707 122.9217168  82.7317637  41.4282421 122.2193236
  82.9734436  41.6778316 123.6928132  87.2398006  42.1991145 120.2761532
  86.5549044  42.5790046 119.7258565  87.3241855  42.8086471 121.0093479
  82.5410475  33.3012491 128.1979610  82.2971407  34.0554552 127.6613885
  82.8170405  33.6797839 129.0326857  84.4948938  39.8451104 126.8756875
  84.7065833  40.4882863 126.1991256  84.4478686  39.0113420 126.4078805
  82.0975167  32.4568924 123.7793447  81.2359646  32.7550178 124.0710185
  82.1237601  32.6739323 122.8474480  78.9136736  41.0011115 120.1867253
  79.3775082  41.2798818 119.3971875  78.6493534  40.0994559 120.0040344
  75.8060817  40.5482596 123.1247016  76.3762174  40.9769865 122.4864501
  76.3968929  40.2665181 123.8231202  77.8505622  37.1234267 116.9956818
  78.5529665  37.5755311 117.4630744  77.5186251  36.4818086 117.6236711
  76.2985984  35.7146024 131.3708027  75.6684644  36.3962305 131.6043424
  76.1922072  35.6029105 130.4261166  71.5930956  35.3817820 122.2973952
  70.8030010  35.6375348 121.8214062  72.0842203  36.1966158 122.4025992
  85.6094766  42.7223059 125.0479232  86.4312209  42.3203246 124.7661914
  85.6057169  42.6191293 125.9995348  73.5445701  35.7462399 119.2557428
  72.7476865  35.8581093 119.7740924  73.3171294  36.0849051 118.3898319
  79.3751369  42.2707102 127.2039943  79.4395802  42.7327510 128.0398115
  78.6662293  41.6404467 127.3322253  69.8768659  35.6348310 124.7288942
  70.1276697  36.5195320 124.9946518  70.4128207  35.4552912 123.9564034
  93.7000759  39.0661807 121.3964204  92.9464467  38.4969206 121.2408208
  93.8348300  39.0324472 122.3434839  79.0899387  43.9375210 117.0718923
  78.9545062  44.7826745 117.5003771  79.6309199  44.1394487 116.3084857
  72.5428784  41.4550648 117.6446848  73.0553305  42.2493898 117.7952413
  73.1951497  40.7576938 117.5780450  74.3523669  44.5716404 119.7269602
  74.5290297  45.4934369 119.5390585  75.1480502  44.2574823 120.1563981
  78.4934687  31.4324669 131.3253535  79.2344401  32.0331822 131.2457998
  78.7252610  30.6902306 130.7671578  73.6376025  36.6181036 129.6031765
  73.5229541  35.7166293 129.9038864  72.7820543  36.8644733 129.2516581
  80.7167863  44.5598776 131.2019265  80.2731717  43.7735155 130.8840170
  81.3785077  44.7477927 130.5363156  75.4754984  46.0894578 125.7279944
  76.0262409  45.9611641 124.9556938  74.6366460  46.3889467 125.3774837
  82.8149101  44.8401576 129.2300667  82.7967577  45.6610457 128.7380936
  83.7369021  44.7155651 129.4550808  79.2722155  42.3545706 130.0724175
  79.8050492  41.5933994 129.8423483  78.7436236  42.0619357 130.8148330
  82.4391850  27.4605772 125.6017817  82.0956120  28.3507413 125.5256927
  82.8070813  27.2707429 124.7387402  70.5077701  39.7839302 118.4206419
  71.3452923  40.1936310 118.2040127  70.6855969  38.8438744 118.3906613
  82.4042133  37.4514383 114.1090252  81.8888756  38.2218987 114.3478639
  82.1319441  36.7779519 114.7323313  79.9889244  32.2964084 119.1675490
  79.1330840  31.9070934 118.9881129  80.4016196  32.3756044 118.3075276
  81.5188391  29.8310427 123.5667050  81.0153186  29.7940562 122.7534855
  81.8118998  30.7403170 123.6263707  77.7631277  29.9149157 122.5733232
  78.6284273  29.7191965 122.2139121  77.8308786  29.6859508 123.5002589
  87.3776407  40.2046737 116.0443425  86.6005850  39.8657897 115.5998587
  88.0567888  40.2099361 115.3698390  82.1928436  35.3241475 115.9350033
  81.8878572  35.6387624 116.7860176  83.1458878  35.4022895 115.9777366
  80.6374868  41.4831698 117.5842987  80.1096230  40.7484458 117.2716225
  80.1362371  42.2606375 117.3382955  85.6167714  39.6780719 122.7010033
  84.9591389  40.3679980 122.7890162  86.4208113  40.0677151 123.0444020
  75.3693596  32.1451364 119.9449599  75.9437348  31.9226546 119.2122792
  75.9564578  32.2140059 120.6978200  84.4273173  38.0325091 120.7513975
  84.9405055  38.6655083 121.2535685  85.0774397  37.4326287 120.3857335
  75.6963183  34.1755825 113.9645484  74.8600495  34.5130512 114.2854759
  75.5567952  34.0404805 113.0272621  77.6716263  29.0192613 118.6724668
  77.0180676  28.7041631 118.0481283  77.6296738  28.3968354 119.3984491
  78.7827468  39.3011908 110.5877960  77.8754530  39.0701162 110.7869109
  79.2798500  38.5049528 110.7751942  81.6895547  48.0109416 113.5074646
  81.0157246  48.3141112 114.1159604  82.0761369  48.8138496 113.1580103
  80.9054004  35.5074547 122.9972316  79.9876565  35.7289494 122.8394004
  81.3214147  35.5820857 122.1384023  81.6889052  36.9065963 118.1274996
  82.4360870  37.4187360 117.8182118  81.9580641  36.5850015 118.9879389
  79.9615702  39.4024503 115.1101950  79.0526921  39.1183536 115.2074420
  79.9910785  39.8223582 114.2505257  85.1934969  43.0131093 118.8793118
  84.7397296  42.1722003 118.9358308  84.5628936  43.6492491 119.2167898
  84.1367889  33.9423079 120.1093785  83.3990645  33.4300465 120.4404028
  84.3894662  33.5023460 119.2977062  83.6367908  44.8507589 119.8142936
  83.9290883  45.4112647 119.0955302  84.1466529  45.1436150 120.5696095
  84.2379516  26.7199331 120.7035554  84.5438393  25.8596694 120.4161470
  84.9632121  27.3116951 120.5034548  70.5303872  37.1230017 119.0917152
  70.3328272  36.5299378 118.3668219  69.9750536  36.8182228 119.8093091
  78.5100596  37.0153124 121.2111746  78.5649206  36.0626960 121.1354222
  77.6991798  37.1712563 121.6953044  79.6591789  40.9433247 112.4490029
  79.2211219  40.2269106 111.9895666  80.4002230  41.1709362 111.8875120
  76.4492956  35.6330184 118.9702124  75.6360821  35.9324354 119.3767317
  76.9451950  35.2385872 119.6876607  78.6001534  45.6287941 120.9036389
  78.5577712  45.8548787 119.9744921  79.5164232  45.3951315 121.0522190
  82.0467167  36.0972008 127.8017018  82.4016555  36.3243481 128.6611484
  82.6939299  36.4290385 127.1794274  87.7764904  39.2190444 118.5066347
  87.6382803  39.4092040 117.5787537  87.4201123  39.9809827 118.9634398
  75.9407030  33.2048539 124.5863359  76.5806410  33.0637298 123.8886323
  75.1084561  32.9183053 124.2101961  87.8034284  41.2866971 123.5177619
  88.2370791  41.1942260 124.3660673  88.5165865  41.2624471 122.8797635
  76.7167334  42.5050970 120.6998352  77.5107933  42.0101290 120.4980927
  76.0059027  41.9768833 120.3366057  81.5362179  44.8869065 125.0510719
  81.5899201  45.4560001 125.8188435  80.6676960  45.0570950 124.6864757
  73.0250098  36.6494051 116.7758104  72.0947686  36.5878507 116.9928067
  73.1207570  36.1270004 115.9794746  72.9435647  33.1748864 119.3636346
  73.2042464  34.0894197 119.2545507  73.7652819  32.7073307 119.5132959
  74.4160572  34.5886621 126.5335171  75.0883626  34.3803983 125.8847820
  73.5890359  34.3908707 126.0940403  88.6649833  41.3290672 126.0510504
  88.8585724  42.2336482 126.2969779  88.5650452  40.8698091 126.8849089
  80.3186144  31.2148562 128.5500832  79.6714059  31.9138512 128.4565308
  81.0887160  31.6484706 128.9177080  83.7264942  41.4797414 131.6251385
  83.5750449  41.2507966 130.7081469  83.7169622  42.4368016 131.6382730
  80.4950279  39.0529327 126.6097651  81.4242339  39.2040487 126.4366619
  80.0741309  39.1413348 125.7546298  79.2938610  43.0779992 124.3796189
  79.1549696  42.7098776 125.2522127  78.5053207  43.5927631 124.2080147
  79.8886762  48.1789088 115.7221725  80.0638518  47.7077131 116.5367348
  79.2019550  48.8054854 115.9502986  80.8443825  42.4561594 121.7685027
  80.5093658  42.4162364 122.6642677  80.3447771  41.7906310 121.2955437
  74.8188069  37.8629224 127.2937608  74.6807867  37.1309463 127.8949147
  75.7292993  37.7738124 127.0121796  83.7803017  39.8017629 112.0422086
  83.1632188  39.0764457 111.9455139  83.3119506  40.5626989 111.6989161
  77.4470370  37.5749184 126.7821288  78.1569989  36.9342376 126.7407906
  77.4039678  37.8262078 127.7047468  85.4357149  44.5116537 129.7027867
  85.3769695  43.8275757 129.0358450  85.8376667  45.2535527 129.2508493
  76.1599304  34.5614402 128.6016927  75.6236661  34.1105140 129.2538523
  75.5716013  34.6960310 127.8587391  74.4547848  51.3278451 122.4961586
  74.6944446  51.9596975 123.1740604  73.6117044  50.9766491 122.7826945
  75.5701563  34.0203053 111.1643391  74.6931029  33.8991854 110.8005637
  76.0459316  33.2289131 110.9122279  85.4374556  42.4756121 127.9341846
  84.5501335  42.1382043 128.0568245  86.0073107  41.7439152 128.1710612
  67.0903703  38.8080213 121.2584898  67.7774743  38.4941943 120.6705913
  66.9351832  39.7121577 120.9852149  71.8938425  33.6970409 125.6869921
  71.8096614  33.0896079 124.9520331  71.0721132  34.1879428 125.6879418
  78.9675709  47.1357573 124.9003090  78.8945881  47.9412545 125.4122394
  78.5253103  47.3349539 124.0751111  78.7565489  46.3729343 118.4105911
  77.9733011  46.9151023 118.5044136  79.4558234  46.8903323 118.8100152
  82.0662139  32.1823973 121.0540117  82.5630839  31.4293935 120.7341187
  81.2949121  32.2188289 120.4883326  89.9191897  37.8864338 122.6958408
  89.9081773  38.7689054 122.3252341  89.0509276  37.5335889 122.5012945
  81.4274393  47.0344407 127.0561248  82.1402365  47.6691872 126.9837150
  80.9364422  47.1308273 126.2401250  83.1491920  40.9395660 118.6278540
  82.2148199  41.0597122 118.4583244  83.3268588  40.0368127 118.3638550
  78.6497108  34.3241356 120.7811801  78.2794895  33.7712396 121.4692707
  79.1456200  33.7199489 120.2286801  86.5364471  36.7812979 119.1628574
  87.0024923  37.6140971 119.0888877  86.9871972  36.3157961 119.8673833
  76.4786306  44.7838851 127.8766819  77.1795766  45.4175334 128.0296213
  76.0081421  45.1253582 127.1162458  84.6040702  43.1256801 116.1614726
  84.8800546  43.0113395 117.0708600  83.7345201  42.7274285 116.1226899
  84.5081134  29.1493566 123.2019475  83.5944214  29.3797793 123.3701682
  84.9374235  29.2332010 124.0533508  84.2787592  37.3383458 125.7019369
  83.6259043  37.5859366 125.0471822  84.6567972  36.5247596 125.3681847
  81.2394766  47.3743151 119.8047540  81.4217161  46.5564807 120.2675292
  82.0627752  47.5910844 119.3672430  81.5736932  46.3011337 117.0662588
  82.1024698  45.7903791 116.4532750  81.8365151  45.9853867 117.9308121
  80.3275165  38.0803269 132.1885407  79.6515802  37.9797399 132.8587782
  81.1502799  37.9242483 132.6521404  72.0754025  44.3175206 124.8097922
  72.6607461  43.5718894 124.9425826  71.8778863  44.6279163 125.6934586
  74.9292680  47.3526453 119.8260364  74.2603055  47.8372581 119.3424404
  74.7905549  47.5995674 120.7403743  66.6671679  36.8880806 123.5302365
  66.7055779  36.3544397 124.3239483  66.1611972  36.3616012 122.9113342
  79.0697948  49.3870197 126.4243022  79.6216256  49.5501818 127.1892108
  79.4104142  49.9774635 125.7523047  74.0462442  31.7345347 127.0264907
  74.1103768  32.5960177 126.6142305  73.9829562  31.1219348 126.2937266
  73.5214714  33.8068479 130.6737941  74.1486753  33.4245556 131.2875466
  72.6642633  33.5882681 131.0393634  83.9208823  44.2131454 132.2791677
  84.4648727  44.8261412 131.7846632  83.3395668  44.7711033 132.7958690
  70.2980257  35.6144908 116.6056296  70.5933698  34.7055587 116.5523350
  69.3968293  35.5932648 116.2837299  82.2066336  47.3352172 123.4106705
  82.0817475  46.5341912 122.9017650  82.8645427  47.8298366 122.9220675
  73.8274504  33.6900905 122.5883845  73.1061090  34.3036872 122.4491318
  74.6167760  34.2258670 122.5100491  84.2701244  45.1361192 125.0386255
  83.3231580  45.0166544 124.9664581  84.6184017  44.2483690 125.1212516
  76.6300817  31.0255331 128.8624497  77.1535219  31.2717628 129.6250806
  76.4113151  31.8575366 128.4427634  72.0268098  33.2959006 116.7295621
  71.6980805  32.4156385 116.5470727  72.3807469  33.2406675 117.6172011
  81.2747677  44.9313909 121.2390607  81.1272640  44.0030616 121.4198177
  82.1001171  44.9533999 120.7547682  75.1409922  33.5831976 117.0971099
  75.4805994  34.1117897 116.3749707  75.5882042  33.9212382 117.8729666
  84.8781799  45.7542467 122.3255480  85.8028347  45.5485329 122.1879931
  84.7097103  45.5058868 123.2344821  77.8353362  31.9669026 126.5474167
  77.4950183  31.1676839 126.9494847  77.1292369  32.2670737 125.9751000
  78.4869834  29.0518339 125.0001490  79.3095904  28.5778817 124.8780381
  78.7307898  29.8308823 125.5000176  77.1278069  32.0806597 115.2964392
  77.8486431  32.4587850 114.7928109  76.5043373  32.7995474 115.3999370
  81.2709192  32.7851746 116.2322724  81.4872806  33.6676384 115.9311552
  80.7903259  32.3937960 115.5028366  76.0108413  35.7437459 122.8093469
  75.8652994  36.0577762 123.7017750  75.5333617  36.3622360 122.2564367
  77.8704796  32.7340007 122.8574358  77.8566365  31.8381101 122.5206656
  78.5877224  32.7410671 123.4912644  79.7230927  33.1677348 124.9027486
  79.4648704  34.0894418 124.9011816  79.1915967  32.7707782 125.5927950
  84.6677115  46.2728135 117.6817571  84.8413993  45.7074557 116.9291424
  85.1606007  47.0729030 117.4997061  70.4854075  38.2842804 125.7481130
  69.9407543  39.0602612 125.8801404  71.3633425  38.6313608 125.5900251
  77.2741692  31.6154388 118.1261928  77.3957603  30.6871034 118.3252816
  76.9843734  31.6293074 117.2140244  80.1432882  29.3009298 121.2628648
  80.1654579  29.3648631 120.3080628  80.5600941  28.4613807 121.4569154
  90.5216507  39.0364558 119.3007871  90.9647653  38.2871883 118.9026994
  89.6443017  39.0274694 118.9181603  85.6552288  45.5894899 114.7814469
  86.3503192  46.2101592 115.0001784  85.9975438  44.7390250 115.0566847
  71.2720097  37.4112700 128.6411287  70.5301833  37.5595335 129.2275917
  70.9512841  37.6720966 127.7778036  87.5543711  43.0394605 116.3101800
  88.0795035  43.3781877 115.5851120  87.4666064  42.1041620 116.1264935
  79.2163760  46.9528678 128.4391677  79.5250886  46.7077825 129.3114376
  80.0139242  47.1575317 127.9510547  79.2384372  49.1066588 120.6697053
  78.7989362  48.6142967 121.3629910  79.9892489  48.5639556 120.4289129
  71.7176711  45.2978129 120.6721681  72.5434731  44.9981901 120.2920325
  71.3670763  44.5285751 121.1211470  76.6858244  44.6504597 122.7419355
  76.0638253  43.9875302 122.4421583  77.3563111  44.6765729 122.0593003
  69.9185316  43.2164455 121.6310615  69.0817224  42.7886630 121.4494616
  69.8908961  43.4096899 122.5681406  76.7582771  33.1286385 132.3351861
  76.8070927  34.0048508 131.9529631  77.3005286  32.5863778 131.7623504
  87.2437617  43.6727508 131.6152998  86.4533161  43.6551647 131.0757498
  87.0070972  44.2115802 132.3702035  87.3635492  40.5219975 128.9285727
  87.4133497  40.3569982 129.8701250  87.2549415  39.6547234 128.5383607
  76.2471751  43.2008520 116.2177816  76.3959871  43.8843985 115.5644488
  77.0538194  43.1813610 116.7327271  84.6539254  36.5050903 130.2445033
  85.5549117  36.3657368 129.9529031  84.7287229  36.6705358 131.1843211
  78.9882060  33.8817757 129.0898220  78.1185369  34.1751323 128.8180808
  79.2241540  34.4658202 129.8105483  88.8653689  42.9416916 129.1727748
  88.5738497  43.3046897 130.0091209  88.2525820  42.2283924 128.9941080
  90.0649371  40.5069796 121.6930318  90.8996263  40.9459600 121.8567879
  90.2008500  40.0308449 120.8738564  87.1140877  38.0649531 127.6407806
  87.5894999  38.2577177 126.8326658  86.1906443  38.1208717 127.3951190
  74.0024384  39.2273698 117.2238885  73.7570426  38.3236028 117.4219095
  74.1720298  39.2290848 116.2818363  81.6921094  30.0997374 126.6063640
  82.2103038  30.8358401 126.2810129  81.3376226  30.4061368 127.4410399
  73.2720031  34.9602056 114.7225046  72.5789276  35.0346411 114.0665082
  73.0271783  34.1962399 115.2446563  81.9433688  26.5197657 122.1264537
  82.2235442  25.8520846 122.7524963  82.7284295  26.7126753 121.6139201
  79.7467156  45.6956651 113.6889563  79.1741123  46.3146838 113.2360035
  80.3199950  46.2456012 114.2229485  85.8142546  34.9415291 125.8736112
  86.7659969  35.0413389 125.8948336  85.6445997  34.1493559 126.3834196
  83.8356926  32.0270874 126.0595513  83.2406858  32.3075887 125.3642001
  83.5506622  32.5164775 126.8312254  82.9664416  45.9793801 114.8198145
  83.8995089  45.9139363 115.0231021  82.8787629  46.8150068 114.3612678
  85.5952433  45.2959671 111.7802093  85.5166064  44.9619535 112.6737851
  86.4162100  45.7881439 111.7793565  88.2930624  38.1621411 124.9878411
  88.2606944  37.2237411 125.1738095  88.9031248  38.2405447 124.2544236
  80.1313955  37.0317464 111.0305616  81.0773060  36.9023672 111.0994034
  79.7528200  36.2932125 111.5075044  88.4425112  34.9532454 125.0336695
  87.9264161  34.1690911 124.8466624  89.3265061  34.6251171 125.1983214
  86.1035839  28.6973470 120.9932507  85.9060660  28.3888558 121.8775839
  86.7135545  29.4235108 121.1230437  94.1107174  39.2237417 124.1284448
  94.8410562  38.9622706 124.6892152  93.5014119  38.4866139 124.1686516
  92.1922471  37.3645280 124.7258899  91.4655634  37.2301245 124.1175391
  91.7769758  37.6722109 125.5315618  80.0152647  41.0835210 132.4906273
  80.9355657  41.2613809 132.6846319  79.9802230  40.1391255 132.3385972
  78.3156872  34.9567440 110.9660501  77.4088327  34.6600553 111.0423214
  78.5932853  34.6597258 110.0994787  69.2334812  36.2773803 121.4159547
  68.9137597  35.4239112 121.1233921  68.6868241  36.4922381 122.1717514
  73.0114720  38.9936244 125.1329054  73.2300730  39.9253352 125.1517087
  73.4240494  38.6344219 125.9183858  79.9318938  29.5004330 117.1204742
  79.1219666  29.1551415 117.4959988  80.6203355  29.1911873 117.7092354
  81.8609486  28.5782376 118.7429039  82.4140525  28.9977830 119.4019062
  82.0979572  27.6518125 118.7851995  77.8842585  34.5669450 134.5231803
  77.7839312  35.5163807 134.4543894  77.6664127  34.2387689 133.6507873
  77.0855657  31.8154375 111.1072480  77.9474821  32.1409273 111.3668297
  77.2706001  31.0285871 110.5945546  69.1023072  39.8976715 123.3852669
  68.4086544  39.4830668 122.8722623  69.8496063  39.9397251 122.7886088
  85.2388293  30.6882902 118.2507703  84.6586962  31.3467706 117.8685755
  84.9724226  29.8660246 117.8395120  83.6891859  30.0887959 120.4529023
  84.1891638  30.2004494 119.6443342  84.3327467  29.7849012 121.0929832
  77.7473855  37.9966589 133.3396864  77.2640937  38.7966949 133.5460753
  77.8334794  38.0074534 132.3864308  71.0159815  39.8294969 121.2618684
  70.9930503  39.9282656 120.3100567  71.3260451  40.6760119 121.5835850
  73.6747193  41.8871124 125.3765298  74.6290446  41.8555066 125.3095230
  73.4759716  41.4261747 126.1915524  74.2646575  40.4572240 127.9436096
  75.0839464  40.9516318 127.9670933  74.5383383  39.5404208 127.9153663
  84.0213171  32.8482992 117.3064051  83.1339026  33.1332643 117.0884246
  84.4367160  32.6876755 116.4591328  87.3727707  32.8729513 121.0218390
  88.1488097  33.3625965 121.2943007  86.6475841  33.2987567 121.4790260
  89.8100266  33.5857132 122.0792331  90.4044757  33.3452868 121.3685639
  89.8826850  32.8664263 122.7065867  72.0297422  47.4290743 122.3935496
  71.8951889  46.6691144 121.8273494  71.6129484  48.1531643 121.9264285
  83.1656385  42.6127667 111.4012071  83.8692235  42.8177669 112.0169727
  82.4419033  43.1804429 111.6661155  83.9954195  38.3637528 117.5214341
  83.9389396  38.8206079 116.6821974  84.5482537  37.6028213 117.3437184
  87.8059001  34.1527260 118.3464461  87.5495935  33.7523895 119.1772669
  87.1811869  34.8671054 118.2214600  92.1171339  36.8923333 120.8535752
  91.5570897  36.9616522 121.6267314  91.5114842  36.7164318 120.1335249
  75.1866547  48.3260060 122.6053939  75.0698932  49.2705493 122.5032629
  74.3658994  48.0233622 122.9939738  85.0743082  43.0510196 113.4510531
  85.9088686  42.6191394 113.2688006  84.9127425  42.8792210 114.3787426
  84.7288974  39.5542309 114.8166871  84.6737778  39.3886581 113.8755315
  84.1035029  40.2618342 114.9729060  69.5181489  34.7910374 128.6428293
  70.1640353  34.2809328 129.1315518  69.3098640  35.5279055 129.2171718
  82.0434881  41.8591221 134.1420433  82.9126041  42.0331873 133.7807068
  81.5641633  42.6785638 134.0196163  78.0385100  29.0550418 114.3952189
  78.0263769  29.9992258 114.5520460  78.9308521  28.8720564 114.1011650
  76.2121062  48.9788322 125.8209867  77.1148308  49.0111932 126.1376362
  75.9858432  48.0488773 125.8356203  77.9674664  47.7319309 122.4819946
  77.0170295  47.7321170 122.3684318  78.2707150  46.9852043 121.9655980
  81.8537219  25.6493195 118.6498126  81.0869615  25.0951682 118.7954808
  82.2647924  25.7215064 119.5112277  93.7027357  53.5679847 123.5465708
  94.3405767  53.4486594 122.8429048  93.5848200  54.5160691 123.6053660
  90.5117063  53.5207275 123.4827233  90.1735575  53.4048340 122.5947768
  91.3806832  53.1198440 123.4628239  86.3703879  55.3742752 119.4724124
  85.8068744  55.2832688 118.7040411  86.2556274  54.5542656 119.9526616
  90.9936846  54.6742127 129.4413438  90.9825487  54.2794925 128.5693942
  91.1557486  53.9408199 130.0347210  83.9168311  56.8693943 122.3108344
  84.7089603  56.5284768 121.8954643  84.1564961  56.9788918 123.2310497
  91.9503438  59.0413719 114.7838589  91.2991417  59.6267800 114.3972602
  92.7447801  59.5719914 114.8433626  85.8759065  56.1302856 115.1825723
  86.6489941  55.5831843 115.0438599  86.2284464  56.9947106 115.3940184
  87.7144107  57.4579239 128.3892622  87.4233973  58.3624869 128.2739289
  88.3501092  57.4995766 129.1036692  88.6400314  54.8356087 124.9793982
  89.2363887  54.6112110 124.2650945  88.6975286  54.0940833 125.5819430
  88.2125343  52.2895522 112.8144173  88.4650863  51.7677044 112.0527636
  87.2749902  52.1261668 112.9170856  93.2568626  51.2931301 120.6218916
  94.0431715  50.8750724 120.2709333  93.5207330  52.1977393 120.7900564
  93.4278703  56.7304151 115.3207573  92.7924536  56.8038778 116.0328477
  93.0976109  57.3197750 114.6426652  98.6577053  51.2306534 121.5251895
  99.3902225  50.6605751 121.7589724  97.9016408  50.8428134 121.9658400
  87.9321631  54.1923628 115.0168548  87.8157890  53.5168532 115.6849632
  88.0423891  53.7056002 114.2000701  90.2753172  53.6533776 118.7215237
  89.9111380  53.1264397 119.4328158  91.1320288  53.2632245 118.5481722
  96.1802473  44.9428108 125.9846503  95.8485798  45.8123519 125.7607718
  95.5848086  44.6264392 126.6640534  89.9158659  48.6823675 113.7176586
  90.0833062  49.5503912 114.0847057  89.7255828  48.8450957 112.7937875
  92.6733993  57.1440654 125.3842416  92.3734716  58.0465693 125.2758223
  92.3285052  56.8772837 126.2363569  86.1246474  53.5954451 121.4179120
  85.1996970  53.4630665 121.6256812  86.3730887  54.3748670 121.9149063
  96.0731136  49.6623194 123.0639853  95.1648014  49.5938603 122.7698614
  96.0218732  50.1395139 123.8921679  89.8947880  51.1381333 114.7023252
  89.7747505  51.5838383 115.5408733  89.2000469  51.4866650 114.1436790
  83.4855285  53.2387725 122.2522909  83.6147666  53.4922203 123.1662321
  82.8052736  53.8315433 121.9327564  87.6554772  63.9084974 118.3513384
  87.5778802  64.8592800 118.4301864  87.0516416  63.5630847 119.0088310
  90.1472002  51.0812840 131.0074750  89.3705336  51.6406760 130.9977615
  90.7862565  51.5669623 131.5289621  97.9392783  47.8639633 124.8417727
  97.2967163  48.1572166 124.1957522  97.4347711  47.7492553 125.6470924
  95.5932946  51.6102806 115.5303586  96.5050802  51.8430193 115.3551284
  95.0842593  52.1939850 114.9678665  88.4018374  53.8898293 130.5692717
  89.1433059  54.4283337 130.2927541  87.6955360  54.5164582 130.7264269
  93.8773714  56.0327434 129.1664879  94.2857070  55.5909844 128.4219511
  93.1550976  55.4580061 129.4199072  90.2304784  50.9700041 126.5398436
  91.0765979  51.3939454 126.6833085  90.1703422  50.3133665 127.2336999
  94.2002529  56.5928624 122.9217168  93.5711391  56.7574338 122.2193236
  93.8128191  57.0070234 123.6928132  98.0791761  57.5283062 120.2761532
  97.3942799  57.9081964 119.7258565  98.1635610  58.1378389 121.0093479
  93.3804229  48.6304409 128.1979610  93.1365161  49.3846469 127.6613885
  93.6564160  49.0089756 129.0326857  95.3342692  55.1743021 126.8756875
  95.5459587  55.8174781 126.1991256  95.2872440  54.3405338 126.4078805
  92.9368921  47.7860842 123.7793447  92.0753400  48.0842095 124.0710185
  92.9631356  48.0031241 122.8474480  89.7530491  56.3303032 120.1867253
  90.2168836  56.6090735 119.3971875  89.4887289  55.4286477 120.0040344
  86.6454572  55.8774514 123.1247016  87.2155929  56.3061782 122.4864501
  87.2362683  55.5957099 123.8231202  88.6899377  52.4526185 116.9956818
  89.3923420  52.9047228 117.4630744  88.3580005  51.8110004 117.6236711
  87.1379738  51.0437941 131.3708027  86.5078399  51.7254222 131.6043424
  87.0315826  50.9321023 130.4261166  82.4324711  50.7109737 122.2973952
  81.6423765  50.9667266 121.8214062  82.9235958  51.5258075 122.4025992
  96.4488520  58.0514977 125.0479232  97.2705964  57.6495164 124.7661914
  96.4450923  57.9483211 125.9995348  84.3839456  51.0754317 119.2557428
  83.5870619  51.1873011 119.7740924  84.1565048  51.4140969 118.3898319
  90.2145124  57.5999020 127.2039943  90.2789556  58.0619427 128.0398115
  89.5056047  56.9696385 127.3322253  80.7162414  50.9640228 124.7288942
  80.9670452  51.8487238 124.9946518  81.2521962  50.7844829 123.9564034
 104.5394513  54.3953725 121.3964204 103.7858222  53.8261123 121.2408208
 104.6742054  54.3616390 122.3434839  89.9293141  59.2667127 117.0718923
  89.7938816  60.1118663 117.5003771  90.4702954  59.4686405 116.3084857
  86.4160481  45.3458707 133.7333279  86.0227426  44.7924906 134.4080923
  87.2326621  45.6569286 134.1239796  83.3822539  56.7842565 117.6446848
  83.8947059  57.5785816 117.7952413  84.0345251  56.0868856 117.5780450
  85.1917423  59.9008322 119.7269602  85.3684052  60.8226286 119.5390585
  85.9874257  59.5866741 120.1563981  89.3328442  46.7616586 131.3253535
  90.0738155  47.3623740 131.2457998  89.5646365  46.0194224 130.7671578
  84.4769780  51.9472954 129.6031765  84.3623295  51.0458211 129.9038864
  83.6214298  52.1936650 129.2516581  91.5561618  59.8890694 131.2019265
  91.1125472  59.1027073 130.8840170  92.2178831  60.0769844 130.5363156
  86.3148739  61.4186496 125.7279944  86.8656164  61.2903559 124.9556938
  85.4760215  61.7181385 125.3774837  93.6542856  60.1693494 129.2300667
  93.6361331  60.9902375 128.7380936  94.5762776  60.0447569 129.4550808
  90.1115910  57.6837623 130.0724175  90.6444247  56.9225912 129.8423483
  89.5829991  57.3911275 130.8148330  93.2785605  42.7897689 125.6017817
  92.9349874  43.6799331 125.5256927  93.6464567  42.5999347 124.7387402
  81.3471455  55.1131220 118.4206419  82.1846677  55.5228228 118.2040127
  81.5249723  54.1730662 118.3906613  93.2435888  52.7806300 114.1090252
  92.7282511  53.5510905 114.3478639  92.9713196  52.1071437 114.7323313
  90.8282999  47.6256001 119.1675490  89.9724595  47.2362852 118.9881129
  91.2409950  47.7047962 118.3075276  92.3582145  45.1602344 123.5667050
  91.8546941  45.1232480 122.7534855  92.6512752  46.0695087 123.6263707
  88.6025031  45.2441074 122.5733232  89.4678028  45.0483883 122.2139121
  88.6702540  45.0151426 123.5002589  98.2170162  55.5338655 116.0443425
  97.4399604  55.1949815 115.5998587  98.8961643  55.5391278 115.3698390
  93.0322191  50.6533393 115.9350033  92.7272326  50.9679542 116.7860176
  93.9852633  50.7314812 115.9777366  91.4768623  56.8123616 117.5842987
  90.9489984  56.0776375 117.2716225  90.9756125  57.5898292 117.3382955
  96.4561469  55.0072636 122.7010033  95.7985143  55.6971898 122.7890162
  97.2601868  55.3969068 123.0444020  86.2087350  47.4743282 119.9449599
  86.7831102  47.2518464 119.2122792  86.7958333  47.5431977 120.6978200
  95.2666927  53.3617009 120.7513975  95.7798809  53.9947001 121.2535685
  95.9168151  52.7618205 120.3857335  86.5356937  49.5047743 113.9645484
  85.6994250  49.8422430 114.2854759  86.3961707  49.3696723 113.0272621
  88.5110018  44.3484531 118.6724668  87.8574430  44.0333548 118.0481283
  88.4690492  43.7260271 119.3984491  89.6221223  54.6303826 110.5877960
  88.7148284  54.3993080 110.7869109  90.1192255  53.8341445 110.7751942
  92.5289302  63.3401333 113.5074646  91.8551000  63.6433030 114.1159604
  92.9155124  64.1430414 113.1580103  91.7447758  50.8366465 122.9972316
  90.8270320  51.0581412 122.8394004  92.1607902  50.9112775 122.1384023
  92.5282806  52.2357880 118.1274996  93.2754625  52.7479277 117.8182118
  92.7974396  51.9141933 118.9879389  90.8009456  54.7316421 115.1101950
  89.8920675  54.4475454 115.2074420  90.8304540  55.1515500 114.2505257
  96.0328724  58.3423010 118.8793118  95.5791051  57.5013920 118.9358308
  95.4022690  58.9784409 119.2167898  94.9761643  49.2714997 120.1093785
  94.2384400  48.7592383 120.4404028  95.2288417  48.8315378 119.2977062
  94.4761663  60.1799507 119.8142936  94.7684637  60.7404564 119.0955302
  94.9860283  60.4728068 120.5696095  95.0773270  42.0491249 120.7035554
  95.3832147  41.1888612 120.4161470  95.8025875  42.6408869 120.5034548
  81.3697627  52.4521935 119.0917152  81.1722026  51.8591296 118.3668219
  80.8144291  52.1474145 119.8093091  89.3494350  52.3445042 121.2111746
  89.4042960  51.3918878 121.1354222  88.5385552  52.5004481 121.6953044
  90.4985544  56.2725165 112.4490029  90.0604974  55.5561024 111.9895666
  91.2395985  56.5001279 111.8875120  87.2886710  50.9622101 118.9702124
  86.4754576  51.2616272 119.3767317  87.7845704  50.5677790 119.6876607
  89.4395288  60.9579858 120.9036389  89.3971467  61.1840705 119.9744921
  90.3557987  60.7243233 121.0522190  92.8860922  51.4263926 127.8017018
  93.2410310  51.6535399 128.6611484  93.5333053  51.7582303 127.1794274
  98.6158659  54.5482362 118.5066347  98.4776557  54.7383958 117.5787537
  98.2594878  55.3101744 118.9634398  86.7800785  48.5340457 124.5863359
  87.4200164  48.3929216 123.8886323  85.9478315  48.2474970 124.2101961
  98.6428038  56.6158889 123.5177619  99.0764545  56.5234178 124.3660673
  99.3559619  56.5916389 122.8797635  87.5561089  57.8342887 120.6998352
  88.3501687  57.3393207 120.4980927  86.8452781  57.3060750 120.3366057
  92.3755933  60.2160983 125.0510719  92.4292956  60.7851919 125.8188435
  91.5070715  60.3862868 124.6864757  83.8643852  51.9785969 116.7758104
  82.9341440  51.9170424 116.9928067  83.9601324  51.4561922 115.9794746
  83.7829401  48.5040782 119.3636346  84.0436219  49.4186115 119.2545507
  84.6046574  48.0365224 119.5132959  85.2554327  49.9178539 126.5335171
  85.9277380  49.7095901 125.8847820  84.4284113  49.7200625 126.0940403
  99.5043588  56.6582589 126.0510504  99.6979478  57.5628400 126.2969779
  99.4044206  56.1990008 126.8849089  91.1579899  46.5440480 128.5500832
  90.5107814  47.2430430 128.4565308  91.9280914  46.9776624 128.9177080
  94.5658697  56.8089332 131.6251385  94.4144203  56.5799884 130.7081469
  94.5563376  57.7659934 131.6382730  91.3344033  54.3821245 126.6097651
  92.2636093  54.5332404 126.4366619  90.9135063  54.4705266 125.7546298
  90.1332365  58.4071909 124.3796189  89.9943450  58.0390694 125.2522127
  89.3446961  58.9219549 124.2080147  90.7280517  63.5081006 115.7221725
  90.9032272  63.0369049 116.5367348  90.0413305  64.1346772 115.9502986
  91.6837580  57.7853512 121.7685027  91.3487413  57.7454282 122.6642677
  91.1841526  57.1198228 121.2955437  85.6581824  53.1921142 127.2937608
  85.5201622  52.4601381 127.8949147  86.5686747  53.1030042 127.0121796
  94.6196772  55.1309546 112.0422086  94.0025942  54.4056374 111.9455139
  94.1513260  55.8918907 111.6989161  88.2864125  52.9041101 126.7821288
  88.9963743  52.2634293 126.7407906  88.2433433  53.1553996 127.7047468
  96.2750903  59.8408455 129.7027867  96.2163449  59.1567675 129.0358450
  96.6770422  60.5827445 129.2508493  86.9993059  49.8906319 128.6016927
  86.4630416  49.4397058 129.2538523  86.4109767  50.0252228 127.8587391
  85.2941602  66.6570368 122.4961586  85.5338200  67.2888893 123.1740604
  84.4510799  66.3058409 122.7826945  86.4095318  49.3494971 111.1643391
  85.5324784  49.2283771 110.8005637  86.8853071  48.5581049 110.9122279
  96.2768311  57.8048039 127.9341846  95.3895089  57.4673960 128.0568245
  96.8466862  57.0731070 128.1710612  77.9297458  54.1372130 121.2584898
  78.6168497  53.8233860 120.6705913  77.7745586  55.0413495 120.9852149
  82.7332180  49.0262327 125.6869921  82.6490369  48.4187996 124.9520331
  81.9114886  49.5171345 125.6879418  89.8069464  62.4649491 124.9003090
  89.7339635  63.2704462 125.4122394  89.3646857  62.6641457 124.0751111
  89.5959244  61.7021261 118.4105911  88.8126765  62.2442941 118.5044136
  90.2951989  62.2195241 118.8100152  92.9055894  47.5115890 121.0540117
  93.4024593  46.7585853 120.7341187  92.1342875  47.5480207 120.4883326
 100.7585651  53.2156256 122.6958408 100.7475527  54.0980971 122.3252341
  99.8903030  52.8627807 122.5012945  92.2668147  62.3636325 127.0561248
  92.9796120  62.9983790 126.9837150  91.7758176  62.4600191 126.2401250
  93.9885674  56.2687578 118.6278540  93.0541953  56.3889040 118.4583244
  94.1662343  55.3660044 118.3638550  89.4890862  49.6533273 120.7811801
  89.1188650  49.1004314 121.4692707  89.9849955  49.0491407 120.2286801
  97.3758226  52.1104897 119.1628574  97.8418678  52.9432889 119.0888877
  97.8265726  51.6449878 119.8673833  87.3180061  60.1130768 127.8766819
  88.0189520  60.7467251 128.0296213  86.8475176  60.4545500 127.1162458
  95.4434457  58.4548718 116.1614726  95.7194301  58.3405313 117.0708600
  94.5738956  58.0566203 116.1226899  95.3474888  44.4785484 123.2019475
  94.4337968  44.7089711 123.3701682  95.7767990  44.5623928 124.0533508
  95.1181347  52.6675376 125.7019369  94.4652797  52.9151283 125.0471822
  95.4961727  51.8539514 125.3681847  92.0788521  62.7035069 119.8047540
  92.2610915  61.8856725 120.2675292  92.9021507  62.9202761 119.3672430
  92.4130686  61.6303254 117.0662588  92.9418453  61.1195709 116.4532750
  92.6758906  61.3145784 117.9308121  91.1668920  53.4095187 132.1885407
  90.4909557  53.3089316 132.8587782  91.9896554  53.2534401 132.6521404
  82.9147779  59.6467123 124.8097922  83.5001216  58.9010811 124.9425826
  82.7172617  59.9571080 125.6934586  85.7686434  62.6818371 119.8260364
  85.0996810  63.1664498 119.3424404  85.6299304  62.9287591 120.7403743
  77.5065434  52.2172724 123.5302365  77.5449533  51.6836314 124.3239483
  77.0005727  51.6907929 122.9113342  89.9091703  64.7162114 126.4243022
  90.4610011  64.8793736 127.1892108  90.2497896  65.3066552 125.7523047
  84.8856196  47.0637264 127.0264907  84.9497523  47.9252095 126.6142305
  84.8223316  46.4511266 126.2937266  84.3608469  49.1360397 130.6737941
  84.9880507  48.7537474 131.2875466  83.5036387  48.9174599 131.0393634
  94.7602577  59.5423372 132.2791677  95.3042481  60.1553330 131.7846632
  94.1789422  60.1002950 132.7958690  81.1374011  50.9436826 116.6056296
  81.4327452  50.0347504 116.5523350  80.2362047  50.9224565 116.2837299
  93.0460090  62.6644090 123.4106705  92.9211230  61.8633830 122.9017650
  93.7039181  63.1590283 122.9220675  84.6668258  49.0192822 122.5883845
  83.9454844  49.6328790 122.4491318  85.4561514  49.5550587 122.5100491
  95.1094998  60.4653110 125.0386255  94.1625334  60.3458461 124.9664581
  95.4577772  59.5775608 125.1212516  87.4694572  46.3547249 128.8624497
  87.9928974  46.6009545 129.6250806  87.2506905  47.1867284 128.4427634
  82.8661853  48.6250923 116.7295621  82.5374559  47.7448302 116.5470727
  83.2201224  48.5698592 117.6172011  92.1141432  60.2605826 121.2390607
  91.9666394  59.3322534 121.4198177  92.9394925  60.2825917 120.7547682
  85.9803676  48.9123893 117.0971099  86.3199749  49.4409815 116.3749707
  86.4275797  49.2504299 117.8729666  95.7175554  61.0834385 122.3255480
  96.6422101  60.8777246 122.1879931  95.5490857  60.8350786 123.2344821
  88.6747117  47.2960944 126.5474167  88.3343937  46.4968757 126.9494847
  87.9686123  47.5962655 125.9751000  89.3263589  44.3810256 125.0001490
  90.1489658  43.9070735 124.8780381  89.5701652  45.1600740 125.5000176
  87.9671823  47.4098515 115.2964392  88.6880186  47.7879768 114.7928109
  87.3437127  48.1287392 115.3999370  92.1102946  48.1143664 116.2322724
  92.3266560  48.9968302 115.9311552  91.6297013  47.7229877 115.5028366
  86.8502167  51.0729377 122.8093469  86.7046748  51.3869680 123.7017750
  86.3727371  51.6914277 122.2564367  88.7098550  48.0631925 122.8574358
  88.6960119  47.1673018 122.5206656  89.4270978  48.0702589 123.4912644
  90.5624681  48.4969265 124.9027486  90.3042459  49.4186336 124.9011816
  90.0309721  48.0999700 125.5927950  95.5070870  61.6020052 117.6817571
  95.6807747  61.0366475 116.9291424  95.9999761  62.4020947 117.4997061
  81.3247830  53.6134721 125.7481130  80.7801298  54.3894529 125.8801404
  82.2027180  53.9605526 125.5900251  88.1135446  46.9446305 118.1261928
  88.2351358  46.0162952 118.3252816  87.8237489  46.9584991 117.2140244
  90.9826637  44.6301216 121.2628648  91.0048334  44.6940549 120.3080628
  91.3994696  43.7905724 121.4569154 101.3610261  54.3656475 119.3007871
 101.8041407  53.6163801 118.9026994 100.4836771  54.3566612 118.9181603
  96.4946042  60.9186817 114.7814469  97.1896947  61.5393509 115.0001784
  96.8369192  60.0682168 115.0566847  82.1113852  52.7404618 128.6411287
  81.3695588  52.8887253 129.2275917  81.7906596  53.0012883 127.7778036
  98.3937465  58.3686522 116.3101800  98.9188790  58.7073795 115.5851120
  98.3059818  57.4333538 116.1264935  90.0557514  62.2820596 128.4391677
  90.3644641  62.0369743 129.3114376  90.8532996  62.4867234 127.9510547
  90.0778126  64.4358506 120.6697053  89.6383116  63.9434884 121.3629910
  90.8286243  63.8931473 120.4289129  82.5570465  60.6270046 120.6721681
  83.3828485  60.3273818 120.2920325  82.2064517  59.8577669 121.1211470
  87.5251998  59.9796515 122.7419355  86.9032008  59.3167220 122.4421583
  88.1956865  60.0057647 122.0593003  80.7579070  58.5456373 121.6310615
  79.9210979  58.1178547 121.4494616  80.7302716  58.7388816 122.5681406
  87.5976526  48.4578303 132.3351861  87.6464681  49.3340426 131.9529631
  88.1399040  47.9155696 131.7623504  98.0831372  59.0019426 131.6152998
  97.2926915  58.9843565 131.0757498  97.8464726  59.5407720 132.3702035
  98.2029247  55.8511892 128.9285727  98.2527252  55.6861900 129.8701250
  98.0943170  54.9839151 128.5383607  87.0865505  58.5300438 116.2177816
  87.2353626  59.2135902 115.5644488  87.8931949  58.5105528 116.7327271
  95.4933009  51.8342820 130.2445033  96.3942872  51.6949285 129.9529031
  95.5680983  51.9997275 131.1843211  89.8275814  49.2109675 129.0898220
  88.9579124  49.5043241 128.8180808  90.0635295  49.7950120 129.8105483
  99.7047443  58.2708834 129.1727748  99.4132252  58.6338814 130.0091209
  99.0919575  57.5575842 128.9941080 100.9043126  55.8361714 121.6930318
 101.7390017  56.2751518 121.8567879 101.0402255  55.3600367 120.8738564
  97.9534632  53.3941448 127.6407806  98.4288753  53.5869095 126.8326658
  97.0300197  53.4500634 127.3951190  84.8418138  54.5565616 117.2238885
  84.5964180  53.6527946 117.4219095  85.0114053  54.5582766 116.2818363
  92.5314848  45.4289292 126.6063640  93.0496792  46.1650319 126.2810129
  92.1769981  45.7353285 127.4410399  84.1113786  50.2893973 114.7225046
  83.4183031  50.3638328 114.0665082  83.8665538  49.5254317 115.2446563
  92.7827442  41.8489575 122.1264537  93.0629196  41.1812764 122.7524963
  93.5678049  42.0418670 121.6139201  90.5860911  61.0248568 113.6889563
  90.0134878  61.6438756 113.2360035  91.1593704  61.5747930 114.2229485
  96.6536301  50.2707209 125.8736112  97.6053724  50.3705306 125.8948336
  96.4839751  49.4785477 126.3834196  94.6750680  47.3562792 126.0595513
  94.0800612  47.6367805 125.3642001  94.3900377  47.8456693 126.8312254
  93.8058171  61.3085719 114.8198145  94.7388844  61.2431280 115.0231021
  93.7181383  62.1441985 114.3612678  96.4346187  60.6251589 111.7802093
  96.3559819  60.2911453 112.6737851  97.2555854  61.1173357 111.7793565
  99.1324378  53.4913328 124.9878411  99.1000699  52.5529329 125.1738095
  99.7425002  53.5697365 124.2544236  90.9707709  52.3609381 111.0305616
  91.9166814  52.2315589 111.0994034  90.5921954  51.6224043 111.5075044
  99.2818867  50.2824372 125.0336695  98.7657916  49.4982828 124.8466624
 100.1658815  49.9543088 125.1983214  96.9429594  44.0265387 120.9932507
  96.7454415  43.7180475 121.8775839  97.5529299  44.7527026 121.1230437
 104.9500928  54.5529335 124.1284448 105.6804317  54.2914623 124.6892152
 104.3407874  53.8158057 124.1686516 103.0316225  52.6937198 124.7258899
 102.3049389  52.5593163 124.1175391 102.6163512  53.0014026 125.5315618
  90.8546402  56.4127127 132.4906273  91.7749411  56.5905726 132.6846319
  90.8195985  55.4683173 132.3385972  89.1550626  50.2859358 110.9660501
  88.2482082  49.9892470 111.0423214  89.4326607  49.9889176 110.0994787
  80.0728567  51.6065721 121.4159547  79.7531351  50.7531029 121.1233921
  79.5261995  51.8214299 122.1717514  83.8508474  54.3228162 125.1329054
  84.0694484  55.2545270 125.1517087  84.2634248  53.9636136 125.9183858
  90.7712692  44.8296247 117.1204742  89.9613420  44.4843332 117.4959988
  91.4597109  44.5203791 117.7092354  92.7003240  43.9074294 118.7429039
  93.2534279  44.3269748 119.4019062  92.9373327  42.9810042 118.7851995
  88.7236340  49.8961368 134.5231803  88.6233067  50.8455725 134.4543894
  88.5057882  49.5679607 133.6507873  87.9249411  47.1446293 111.1072480
  88.7868575  47.4701191 111.3668297  88.1099755  46.3577789 110.5945546
  79.9416827  55.2268633 123.3852669  79.2480298  54.8122585 122.8722623
  80.6889818  55.2689169 122.7886088  96.0782048  46.0174819 118.2507703
  95.4980717  46.6759623 117.8685755  95.8117980  45.1952164 117.8395120
  94.5285614  45.4179877 120.4529023  95.0285392  45.5296412 119.6443342
  95.1721222  45.1140930 121.0929832  88.5867610  53.3258507 133.3396864
  88.1034691  54.1258867 133.5460753  88.6728549  53.3366451 132.3864308
  81.8553569  55.1586886 121.2618684  81.8324257  55.2574574 120.3100567
  82.1654206  56.0052037 121.5835850  84.5140947  57.2163041 125.3765298
  85.4684201  57.1846984 125.3095230  84.3153471  56.7553665 126.1915524
  85.1040329  55.7864157 127.9436096  85.9233218  56.2808236 127.9670933
  85.3777137  54.8696126 127.9153663  94.8606926  48.1774910 117.3064051
  93.9732781  48.4624560 117.0884246  95.2760915  48.0168673 116.4591328
  98.2121462  48.2021431 121.0218390  98.9881852  48.6917883 121.2943007
  97.4869596  48.6279485 121.4790260 100.6494020  48.9149050 122.0792331
 101.2438511  48.6744786 121.3685639 100.7220604  48.1956180 122.7065867
  82.8691176  62.7582661 122.3935496  82.7345644  61.9983062 121.8273494
  82.4523238  63.4823561 121.9264285  94.0050139  57.9419584 111.4012071
  94.7085989  58.1469587 112.0169727  93.2812788  58.5096346 111.6661155
  94.8347949  53.6929446 117.5214341  94.7783151  54.1497997 116.6821974
  95.3876292  52.9320130 117.3437184  98.6452755  49.4819177 118.3464461
  98.3889689  49.0815813 119.1772669  98.0205623  50.1962971 118.2214600
 102.9565093  52.2215251 120.8535752 102.3964651  52.2908440 121.6267314
 102.3508596  52.0456235 120.1335249  86.0260302  63.6551978 122.6053939
  85.9092686  64.5997410 122.5032629  85.2052748  63.3525539 122.9939738
  95.9136836  58.3802114 113.4510531  96.7482440  57.9483312 113.2688006
  95.7521179  58.2084127 114.3787426  95.5682729  54.8834227 114.8166871
  95.5131532  54.7178498 113.8755315  94.9428784  55.5910260 114.9729060
  80.3575244  50.1202291 128.6428293  81.0034107  49.6101245 129.1315518
  80.1492395  50.8570973 129.2171718  92.8828636  57.1883139 134.1420433
  93.7519795  57.3623791 133.7807068  92.4035387  58.0077556 134.0196163
  88.8778854  44.3842336 114.3952189  88.8657524  45.3284176 114.5520460
  89.7702276  44.2012481 114.1011650  87.0514816  64.3080240 125.8209867
  87.9542063  64.3403850 126.1376362  86.8252186  63.3780691 125.8356203
  88.8068418  63.0611226 122.4819946  87.8564049  63.0613088 122.3684318
  89.1100904  62.3143961 121.9655980  92.6930974  40.9785113 118.6498126
  91.9263369  40.4243599 118.7954808  93.1041678  41.0506981 119.5112277
  84.6972735  47.2669908 132.7403307  85.5604196  46.9106713 132.9506632
  84.1238145  46.9283803 133.4278711 104.5421112  68.8971765 123.5465708
 105.1799521  68.7778512 122.8429048 104.4241954  69.8452609 123.6053660
 101.3510818  68.8499193 123.4827233 101.0129329  68.7340257 122.5947768
 102.2200586  68.4490358 123.4628239  97.2097633  70.7034669 119.4724124
  96.6462499  70.6124606 118.7040411  97.0950029  69.8834574 119.9526616
 101.8330601  70.0034044 129.4413438 101.8219242  69.6086843 128.5693942
 101.9951240  69.2700117 130.0347210  94.7562065  72.1985861 122.3108344
  95.5483357  71.8576685 121.8954643  94.9958716  72.3080836 123.2310497
 102.7897192  74.3705637 114.7838589 102.1385172  74.9559717 114.3972602
 103.5841555  74.9011832 114.8433626  96.7152819  71.4594774 115.1825723
  97.4883695  70.9123761 115.0438599  97.0678218  72.3239023 115.3940184
  98.5537862  72.7871156 128.3892622  98.2627728  73.6916787 128.2739289
  99.1894846  72.8287684 129.1036692  99.4794069  70.1648005 124.9793982
 100.0757641  69.9404027 124.2650945  99.5369040  69.4232750 125.5819430
  99.0519097  67.6187440 112.8144173  99.3044618  67.0968961 112.0527636
  98.1143656  67.4553586 112.9170856 104.0962380  66.6223219 120.6218916
 104.8825469  66.2042642 120.2709333 104.3601084  67.5269311 120.7900564
 104.2672457  72.0596069 115.3207573 103.6318290  72.1330695 116.0328477
 103.9369864  72.6489668 114.6426652 109.4970807  66.5598452 121.5251895
 110.2295979  65.9897669 121.7589724 108.7410163  66.1720052 121.9658400
  98.7715386  69.5215546 115.0168548  98.6551644  68.8460449 115.6849632
  98.8817646  69.0347920 114.2000701 101.1146927  68.9825693 118.7215237
 100.7505134  68.4556314 119.4328158 101.9714043  68.5924162 118.5481722
 107.0196227  60.2720026 125.9846503 106.6879552  61.1415437 125.7607718
 106.4241841  59.9556310 126.6640534 100.7552414  64.0115593 113.7176586
 100.9226816  64.8795829 114.0847057 100.5649583  64.1742875 112.7937875
 103.5127747  72.4732572 125.3842416 103.2128470  73.3757611 125.2758223
 103.1678807  72.2064755 126.2363569  96.9640228  68.9246369 121.4179120
  96.0390725  68.7922583 121.6256812  97.2124642  69.7040588 121.9149063
 106.9124891  64.9915112 123.0639853 106.0041768  64.9230520 122.7698614
 106.8612487  65.4687057 123.8921679 100.7341635  66.4673250 114.7023252
 100.6141260  66.9130301 115.5408733 100.0394223  66.8158568 114.1436790
  94.3249040  68.5679642 122.2522909  94.4541421  68.8214121 123.1662321
  93.6446491  69.1607350 121.9327564  98.4948527  79.2376892 118.3513384
  98.4172557  80.1884717 118.4301864  97.8910170  78.8922765 119.0088310
 100.9865757  66.4104758 131.0074750 100.2099091  66.9698678 130.9977615
 101.6256320  66.8961541 131.5289621 108.7786537  63.1931550 124.8417727
 108.1360917  63.4864084 124.1957522 108.2741466  63.0784471 125.6470924
 106.4326701  66.9394724 115.5303586 107.3444557  67.1722110 115.3551284
 105.9236348  67.5231768 114.9678665  99.2412129  69.2190211 130.5692717
  99.9826813  69.7575255 130.2927541  98.5349114  69.8456500 130.7264269
 104.7167469  71.3619351 129.1664879 105.1250825  70.9201762 128.4219511
 103.9944730  70.7871979 129.4199072 101.0698539  66.2991958 126.5398436
 101.9159734  66.7231372 126.6833085 101.0097176  65.6425582 127.2336999
 105.0396283  71.9220542 122.9217168 104.4105146  72.0866256 122.2193236
 104.6521945  72.3362152 123.6928132 108.9185515  72.8574980 120.2761532
 108.2336553  73.2373881 119.7258565 109.0029364  73.4670307 121.0093479
 104.2197984  63.9596327 128.1979610 103.9758916  64.7138387 127.6613885
 104.4957914  64.3381674 129.0326857 106.1736447  70.5034939 126.8756875
 106.3853342  71.1466699 126.1991256 106.1266195  69.6697255 126.4078805
 103.7762676  63.1152760 123.7793447 102.9147155  63.4134013 124.0710185
 103.8025110  63.3323158 122.8474480 100.5924245  71.6594950 120.1867253
 101.0562591  71.9382653 119.3971875 100.3281043  70.7578395 120.0040344
  97.4848326  71.2066432 123.1247016  98.0549683  71.6353700 122.4864501
  98.0756438  70.9249016 123.8231202  99.5293131  67.7818102 116.9956818
 100.2317174  68.2339146 117.4630744  99.1973760  67.1401921 117.6236711
  97.9773493  66.3729859 131.3708027  97.3472153  67.0546140 131.6043424
  97.8709581  66.2612941 130.4261166  93.2718465  66.0401655 122.2973952
  92.4817519  66.2959184 121.8214062  93.7629712  66.8549993 122.4025992
 107.2882275  73.3806894 125.0479232 108.1099718  72.9787082 124.7661914
 107.2844677  73.2775128 125.9995348  95.2233210  66.4046234 119.2557428
  94.4264374  66.5164929 119.7740924  94.9958803  66.7432887 118.3898319
 101.0538878  72.9290938 127.2039943 101.1183311  73.3911345 128.0398115
 100.3449802  72.2988303 127.3322253  91.5556168  66.2932146 124.7288942
  91.8064206  67.1779156 124.9946518  92.0915716  66.1136747 123.9564034
 115.3788268  69.7245643 121.3964204 114.6251976  69.1553041 121.2408208
 115.5135809  69.6908307 122.3434839 100.7686896  74.5959045 117.0718923
 100.6332571  75.4410581 117.5003771 101.3096708  74.7978323 116.3084857
  97.2554235  60.6750625 133.7333279  96.8621181  60.1216824 134.4080923
  98.0720376  60.9861203 134.1239796  94.2216293  72.1134483 117.6446848
  94.7340814  72.9077733 117.7952413  94.8739006  71.4160774 117.5780450
  96.0311178  75.2300239 119.7269602  96.2077806  76.1518204 119.5390585
  96.8268011  74.9158659 120.1563981 100.1722196  62.0908504 131.3253535
 100.9131910  62.6915657 131.2457998 100.4040119  61.3486142 130.7671578
  95.3163534  67.2764871 129.6031765  95.2017050  66.3750129 129.9038864
  94.4608052  67.5228568 129.2516581 102.3955372  75.2182612 131.2019265
 101.9519226  74.4318990 130.8840170 103.0572586  75.4061762 130.5363156
  97.1542493  76.7478413 125.7279944  97.7049918  76.6195477 124.9556938
  96.3153969  77.0473302 125.3774837 104.4936610  75.4985412 129.2300667
 104.4755086  76.3194293 128.7380936 105.4156530  75.3739487 129.4550808
 100.9509664  73.0129541 130.0724175 101.4838001  72.2517829 129.8423483
 100.4223745  72.7203193 130.8148330 104.1179359  58.1189607 125.6017817
 103.7743629  59.0091249 125.5256927 104.4858322  57.9291265 124.7387402
  92.1865210  70.4423137 118.4206419  93.0240432  70.8520146 118.2040127
  92.3643478  69.5022580 118.3906613 104.0829642  68.1098218 114.1090252
 103.5676265  68.8802823 114.3478639 103.8106950  67.4363354 114.7323313
 101.6676753  62.9547919 119.1675490 100.8118349  62.5654769 118.9881129
 102.0803705  63.0339880 118.3075276 103.1975900  60.4894262 123.5667050
 102.6940695  60.4524397 122.7534855 103.4906507  61.3987005 123.6263707
  99.4418786  60.5732992 122.5733232 100.3071782  60.3775801 122.2139121
  99.5096294  60.3443344 123.5002589 109.0563916  70.8630573 116.0443425
 108.2793359  70.5241732 115.5998587 109.7355397  70.8683196 115.3698390
 103.8715945  65.9825310 115.9350033 103.5666081  66.2971459 116.7860176
 104.8246387  66.0606730 115.9777366 102.3162377  72.1415534 117.5842987
 101.7883739  71.4068293 117.2716225 101.8149880  72.9190210 117.3382955
 107.2955223  70.3364554 122.7010033 106.6378897  71.0263815 122.7890162
 108.0995622  70.7260986 123.0444020  97.0481105  62.8035200 119.9449599
  97.6224857  62.5810381 119.2122792  97.6352087  62.8723894 120.6978200
 106.1060682  68.6908927 120.7513975 106.6192564  69.3238919 121.2535685
 106.7561906  68.0910122 120.3857335  97.3750692  64.8339661 113.9645484
  96.5388004  65.1714347 114.2854759  97.2355461  64.6988641 113.0272621
  99.3503772  59.6776449 118.6724668  98.6968185  59.3625466 118.0481283
  99.3084247  59.0552189 119.3984491 100.4614977  69.9595744 110.5877960
  99.5542039  69.7284997 110.7869109 100.9586009  69.1633363 110.7751942
 103.3683056  78.6693251 113.5074646 102.6944755  78.9724948 114.1159604
 103.7548878  79.4722331 113.1580103 102.5841513  66.1658382 122.9972316
 101.6664074  66.3873329 122.8394004 103.0001656  66.2404693 122.1384023
 103.3676560  67.5649798 118.1274996 104.1148379  68.0771195 117.8182118
 103.6368150  67.2433851 118.9879389 101.6403211  70.0608339 115.1101950
 100.7314430  69.7767371 115.2074420 101.6698294  70.4807417 114.2505257
 106.8722478  73.6714928 118.8793118 106.4184805  72.8305838 118.9358308
 106.2416445  74.3076327 119.2167898 105.8155398  64.6006914 120.1093785
 105.0778154  64.0884300 120.4404028 106.0682171  64.1607296 119.2977062
 105.3155417  75.5091425 119.8142936 105.6078392  76.0696482 119.0955302
 105.8254038  75.8019986 120.5696095 105.9167025  57.3783166 120.7035554
 106.2225902  56.5180530 120.4161470 106.6419630  57.9700786 120.5034548
  92.2091381  67.7813853 119.0917152  92.0115781  67.1883213 118.3668219
  91.6538045  67.4766063 119.8093091 100.1888105  67.6736959 121.2111746
 100.2436714  66.7210796 121.1354222  99.3779307  67.8296398 121.6953044
 101.3379298  71.6017082 112.4490029 100.8998728  70.8852941 111.9895666
 102.0789739  71.8293197 111.8875120  98.1280465  66.2914019 118.9702124
  97.3148330  66.5908190 119.3767317  98.6239459  65.8969708 119.6876607
 100.2789043  76.2871776 120.9036389 100.2365221  76.5132622 119.9744921
 101.1951741  76.0535151 121.0522190 103.7254676  66.7555843 127.8017018
 104.0804064  66.9827317 128.6611484 104.3726808  67.0874220 127.1794274
 109.4552413  69.8774279 118.5066347 109.3170312  70.0675875 117.5787537
 109.0988632  70.6393662 118.9634398  97.6194539  63.8632375 124.5863359
  98.2593919  63.7221134 123.8886323  96.7872070  63.5766888 124.2101961
 109.4821793  71.9450806 123.5177619 109.9158300  71.8526095 124.3660673
 110.1953374  71.9208307 122.8797635  98.3954843  73.1634805 120.6998352
  99.1895442  72.6685125 120.4980927  97.6846536  72.6352668 120.3366057
 103.2149688  75.5452900 125.0510719 103.2686710  76.1143837 125.8188435
 102.3464469  75.7154786 124.6864757  94.7037607  67.3077887 116.7758104
  93.7735195  67.2462342 116.9928067  94.7995079  66.7853839 115.9794746
  94.6223156  63.8332700 119.3636346  94.8829973  64.7478033 119.2545507
  95.4440328  63.3657142 119.5132959  96.0948081  65.2470457 126.5335171
  96.7671135  65.0387819 125.8847820  95.2677868  65.0492543 126.0940403
 110.3437342  71.9874507 126.0510504 110.5373232  72.8920318 126.2969779
 110.2437961  71.5281926 126.8849089 101.9973653  61.8732398 128.5500832
 101.3501568  62.5722347 128.4565308 102.7674669  62.3068542 128.9177080
 105.4052451  72.1381250 131.6251385 105.2537958  71.9091801 130.7081469
 105.3957131  73.0951851 131.6382730 102.1737787  69.7113163 126.6097651
 103.1029847  69.8624322 126.4366619 101.7528818  69.7997183 125.7546298
 100.9726119  73.7363827 124.3796189 100.8337205  73.3682611 125.2522127
 100.1840716  74.2511466 124.2080147 101.5674271  78.8372923 115.7221725
 101.7426027  78.3660967 116.5367348 100.8807059  79.4638690 115.9502986
 102.5231334  73.1145430 121.7685027 102.1881167  73.0746200 122.6642677
 102.0235280  72.4490146 121.2955437  96.4975578  68.5213060 127.2937608
  96.3595376  67.7893298 127.8949147  97.4080502  68.4321960 127.0121796
 105.4590526  70.4601464 112.0422086 104.8419697  69.7348292 111.9455139
 104.9907015  71.2210824 111.6989161  99.1257879  68.2333019 126.7821288
  99.8357498  67.5926211 126.7407906  99.0827187  68.4845914 127.7047468
 107.1144658  75.1700372 129.7027867 107.0557204  74.4859592 129.0358450
 107.5164176  75.9119362 129.2508493  97.8386813  65.2198237 128.6016927
  97.3024170  64.7688975 129.2538523  97.2503521  65.3544146 127.8587391
  96.1335357  81.9862286 122.4961586  96.3731955  82.6180810 123.1740604
  95.2904553  81.6350326 122.7826945  97.2489072  64.6786888 111.1643391
  96.3718538  64.5575689 110.8005637  97.7246825  63.8872967 110.9122279
 107.1162065  73.1339956 127.9341846 106.2288844  72.7965878 128.0568245
 107.6860616  72.4022987 128.1710612  88.7691212  69.4664048 121.2584898
  89.4562252  69.1525778 120.6705913  88.6139341  70.3705413 120.9852149
  93.5725934  64.3554245 125.6869921  93.4884123  63.7479914 124.9520331
  92.7508641  64.8463263 125.6879418 100.6463218  77.7941409 124.9003090
 100.5733390  78.5996380 125.4122394 100.2040612  77.9933374 124.0751111
 100.4352998  77.0313179 118.4105911  99.6520520  77.5734859 118.5044136
 101.1345743  77.5487158 118.8100152 103.7449648  62.8407808 121.0540117
 104.2418348  62.0877770 120.7341187 102.9736630  62.8772125 120.4883326
 111.5979406  68.5448174 122.6958408 111.5869282  69.4272889 122.3252341
 110.7296785  68.1919724 122.5012945 103.1061902  77.6928243 127.0561248
 103.8189874  78.3275707 126.9837150 102.6151931  77.7892109 126.2401250
 104.8279429  71.5979495 118.6278540 103.8935708  71.7180958 118.4583244
 105.0056097  70.6951962 118.3638550 100.3284617  64.9825191 120.7811801
  99.9582404  64.4296231 121.4692707 100.8243709  64.3783325 120.2286801
 108.2151980  67.4396815 119.1628574 108.6812432  68.2724806 119.0888877
 108.6659481  66.9741796 119.8673833  98.1573815  75.4422686 127.8766819
  98.8583275  76.0759169 128.0296213  97.6868930  75.7837418 127.1162458
 106.2828211  73.7840636 116.1614726 106.5588055  73.6697230 117.0708600
 105.4132710  73.3858121 116.1226899 106.1868643  59.8077402 123.2019475
 105.2731723  60.0381628 123.3701682 106.6161744  59.8915846 124.0533508
 105.9575101  67.9967294 125.7019369 105.3046552  68.2443201 125.0471822
 106.3355481  67.1831432 125.3681847 102.9182275  78.0326987 119.8047540
 103.1004670  77.2148643 120.2675292 103.7415261  78.2494679 119.3672430
 103.2524441  76.9595172 117.0662588 103.7812207  76.4487626 116.4532750
 103.5152660  76.6437702 117.9308121 102.0062674  68.7387105 132.1885407
 101.3303311  68.6381234 132.8587782 102.8290308  68.5826318 132.6521404
  93.7541534  74.9759041 124.8097922  94.3394970  74.2302729 124.9425826
  93.5566372  75.2862998 125.6934586  96.6080189  78.0110289 119.8260364
  95.9390564  78.4956416 119.3424404  96.4693058  78.2579509 120.7403743
  88.3459188  67.5464641 123.5302365  88.3843288  67.0128232 124.3239483
  87.8399481  67.0199847 122.9113342 100.7485457  80.0454032 126.4243022
 101.3003765  80.2085654 127.1892108 101.0891651  80.6358470 125.7523047
  95.7249951  62.3929182 127.0264907  95.7891277  63.2544013 126.6142305
  95.6617071  61.7803184 126.2937266  95.2002223  64.4652314 130.6737941
  95.8274262  64.0829392 131.2875466  94.3430142  64.2466516 131.0393634
 105.5996332  74.8715290 132.2791677 106.1436236  75.4845248 131.7846632
 105.0183176  75.4294868 132.7958690  91.9767766  66.2728744 116.6056296
  92.2721207  65.3639422 116.5523350  91.0755802  66.2516483 116.2837299
 103.8853845  77.9936008 123.4106705 103.7604984  77.1925747 122.9017650
 104.5432936  78.4882201 122.9220675  95.5062013  64.3484740 122.5883845
  94.7848599  64.9620708 122.4491318  96.2955269  64.8842505 122.5100491
 105.9488753  75.7945028 125.0386255 105.0019089  75.6750379 124.9664581
 106.2971526  74.9067526 125.1212516  98.3088326  61.6839167 128.8624497
  98.8322728  61.9301463 129.6250806  98.0900660  62.5159201 128.4427634
  93.7055607  63.9542841 116.7295621  93.3768314  63.0740220 116.5470727
  94.0594978  63.8990510 117.6172011 102.9535186  75.5897744 121.2390607
 102.8060149  74.6614451 121.4198177 103.7788680  75.6117835 120.7547682
  96.8197431  64.2415811 117.0971099  97.1593503  64.7701732 116.3749707
  97.2669551  64.5796217 117.8729666 106.5569308  76.4126303 122.3255480
 107.4815856  76.2069164 122.1879931 106.3884612  76.1642704 123.2344821
  99.5140871  62.6252862 126.5474167  99.1737692  61.8260675 126.9494847
  98.8079878  62.9254573 125.9751000 100.1657343  59.7102174 125.0001490
 100.9883413  59.2362652 124.8780381 100.4095407  60.4892658 125.5000176
  98.8065578  62.7390433 115.2964392  99.5273940  63.1171685 114.7928109
  98.1830882  63.4579309 115.3999370 102.9496701  63.4435582 116.2322724
 103.1660315  64.3260219 115.9311552 102.4690768  63.0521795 115.5028366
  97.6895922  66.4021295 122.8093469  97.5440503  66.7161598 123.7017750
  97.2121126  67.0206195 122.2564367  99.5492305  63.3923843 122.8574358
  99.5353874  62.4964936 122.5206656 100.2664733  63.3994506 123.4912644
 101.4018436  63.8261183 124.9027486 101.1436213  64.7478254 124.9011816
 100.8703476  63.4291617 125.5927950 106.3464624  76.9311970 117.6817571
 106.5201502  76.3658393 116.9291424 106.8393516  77.7312865 117.4997061
  92.1641584  68.9426639 125.7481130  91.6195052  69.7186447 125.8801404
  93.0420934  69.2897444 125.5900251  98.9529201  62.2738223 118.1261928
  99.0745112  61.3454869 118.3252816  98.6631243  62.2876909 117.2140244
 101.8220391  59.9593133 121.2628648 101.8442088  60.0232467 120.3080628
 102.2388450  59.1197642 121.4569154 112.2004016  69.6948393 119.3007871
 112.6435162  68.9455718 118.9026994 111.3230526  69.6858529 118.9181603
 107.3339797  76.2478734 114.7814469 108.0290701  76.8685427 115.0001784
 107.6762947  75.3974086 115.0566847  92.9507606  68.0696535 128.6411287
  92.2089342  68.2179171 129.2275917  92.6300350  68.3304801 127.7778036
 109.2331220  73.6978440 116.3101800 109.7582544  74.0365713 115.5851120
 109.1453573  72.7625455 116.1264935 100.8951269  77.6112514 128.4391677
 101.2038395  77.3661660 129.3114376 101.6926751  77.8159152 127.9510547
 100.9171881  79.7650423 120.6697053 100.4776871  79.2726802 121.3629910
 101.6679998  79.2223391 120.4289129  93.3964220  75.9561964 120.6721681
  94.2222240  75.6565736 120.2920325  93.0458272  75.1869587 121.1211470
  98.3645753  75.3088432 122.7419355  97.7425762  74.6459137 122.4421583
  99.0350620  75.3349564 122.0593003  91.5972825  73.8748291 121.6310615
  90.7604733  73.4470465 121.4494616  91.5696470  74.0680734 122.5681406
  98.4370280  63.7870220 132.3351861  98.4858436  64.6632343 131.9529631
  98.9792795  63.2447613 131.7623504 108.9225126  74.3311344 131.6152998
 108.1320670  74.3135482 131.0757498 108.6858481  74.8699637 132.3702035
 109.0423001  71.1803810 128.9285727 109.0921006  71.0153817 129.8701250
 108.9336924  70.3131069 128.5383607  97.9259260  73.8592356 116.2177816
  98.0747380  74.5427820 115.5644488  98.7325703  73.8397446 116.7327271
 106.3326763  67.1634738 130.2445033 107.2336626  67.0241203 129.9529031
 106.4074738  67.3289193 131.1843211 100.6669569  64.5401593 129.0898220
  99.7972878  64.8335159 128.8180808 100.9029049  65.1242038 129.8105483
 110.5441198  73.6000752 129.1727748 110.2526006  73.9630732 130.0091209
 109.9313329  72.8867760 128.9941080 111.7436880  71.1653631 121.6930318
 112.5783772  71.6043435 121.8567879 111.8796009  70.6892285 120.8738564
 108.7928386  68.7233366 127.6407806 109.2682508  68.9161012 126.8326658
 107.8693952  68.7792552 127.3951190  95.6811893  69.8857533 117.2238885
  95.4357935  68.9819863 117.4219095  95.8507807  69.8874684 116.2818363
 103.3708603  60.7581210 126.6063640 103.8890546  61.4942237 126.2810129
 103.0163735  61.0645203 127.4410399  94.9507540  65.6185891 114.7225046
  94.2576785  65.6930246 114.0665082  94.7059292  64.8546235 115.2446563
 103.6221197  57.1781492 122.1264537 103.9022951  56.5104681 122.7524963
 104.4071804  57.3710588 121.6139201 101.4254665  76.3540486 113.6889563
 100.8528632  76.9730673 113.2360035 101.9987459  76.9039848 114.2229485
 107.4930055  65.5999126 125.8736112 108.4447478  65.6997224 125.8948336
 107.3233506  64.8077395 126.3834196 105.5144435  62.6854709 126.0595513
 104.9194367  62.9659722 125.3642001 105.2294131  63.1748610 126.8312254
 104.6451925  76.6377636 114.8198145 105.5782598  76.5723198 115.0231021
 104.5575138  77.4733903 114.3612678 107.2739942  75.9543507 111.7802093
 107.1953573  75.6203370 112.6737851 108.0949609  76.4465275 111.7793565
 109.9718133  68.8205246 124.9878411 109.9394453  67.8821247 125.1738095
 110.5818757  68.8989283 124.2544236 101.8101464  67.6901299 111.0305616
 102.7560569  67.5607507 111.0994034 101.4315709  66.9515961 111.5075044
 110.1212621  65.6116289 125.0336695 109.6051670  64.8274746 124.8466624
 111.0052570  65.2835006 125.1983214 107.7823348  59.3557305 120.9932507
 107.5848169  59.0472393 121.8775839 108.3923054  60.0818944 121.1230437
 115.7894683  69.8821253 124.1284448 116.5198071  69.6206541 124.6892152
 115.1801628  69.1449975 124.1686516 113.8709980  68.0229115 124.7258899
 113.1443143  67.8885080 124.1175391 113.4557267  68.3305944 125.5315618
 101.6940156  71.7419045 132.4906273 102.6143166  71.9197644 132.6846319
 101.6589739  70.7975090 132.3385972  99.9944381  65.6151275 110.9660501
  99.0875836  65.3184388 111.0423214 100.2720362  65.3181093 110.0994787
  90.9122321  66.9357639 121.4159547  90.5925106  66.0822947 121.1233921
  90.3655750  67.1506217 122.1717514  94.6902229  69.6520080 125.1329054
  94.9088239  70.5837188 125.1517087  95.1028003  69.2928054 125.9183858
 101.6106447  60.1588165 117.1204742 100.8007175  59.8135250 117.4959988
 102.2990864  59.8495709 117.7092354 103.5396995  59.2366212 118.7429039
 104.0928034  59.6561665 119.4019062 103.7767081  58.3101960 118.7851995
  99.5630094  65.2253285 134.5231803  99.4626821  66.1747642 134.4543894
  99.3451636  64.8971524 133.6507873  98.7643166  62.4738211 111.1072480
  99.6262330  62.7993109 111.3668297  98.9493510  61.6869706 110.5945546
  90.7810581  70.5560550 123.3852669  90.0874053  70.1414503 122.8722623
  91.5283572  70.5981087 122.7886088 106.9175802  61.3466737 118.2507703
 106.3374471  62.0051541 117.8685755 106.6511735  60.5244082 117.8395120
 105.3679368  60.7471795 120.4529023 105.8679147  60.8588329 119.6443342
 106.0114976  60.4432848 121.0929832  99.4261364  68.6550424 133.3396864
  98.9428446  69.4550784 133.5460753  99.5122303  68.6658369 132.3864308
  92.6947324  70.4878804 121.2618684  92.6718012  70.5866491 120.3100567
  93.0047960  71.3343955 121.5835850  95.3534702  72.5454959 125.3765298
  96.3077955  72.5138901 125.3095230  95.1547225  72.0845583 126.1915524
  95.9434084  71.1156075 127.9436096  96.7626973  71.6100154 127.9670933
  96.2170892  70.1988043 127.9153663 105.7000680  63.5066827 117.3064051
 104.8126535  63.7916478 117.0884246 106.1154669  63.3460591 116.4591328
 109.0515216  63.5313348 121.0218390 109.8275606  64.0209801 121.2943007
 108.3263350  63.9571403 121.4790260 111.4887775  64.2440968 122.0792331
 112.0832266  64.0036704 121.3685639 111.5614359  63.5248098 122.7065867
  93.7084931  78.0874578 122.3935496  93.5739398  77.3274979 121.8273494
  93.2916993  78.8115478 121.9264285 104.8443894  73.2711502 111.4012071
 105.5479744  73.4761505 112.0169727 104.1206542  73.8388264 111.6661155
 105.6741704  69.0221363 117.5214341 105.6176905  69.4789915 116.6821974
 106.2270046  68.2612048 117.3437184 109.4846510  64.8111095 118.3464461
 109.2283444  64.4107731 119.1772669 108.8599378  65.5254889 118.2214600
 113.7958848  67.5507168 120.8535752 113.2358406  67.6200358 121.6267314
 113.1902351  67.3748153 120.1335249  96.8654056  78.9843896 122.6053939
  96.7486441  79.9289328 122.5032629  96.0446503  78.6817457 122.9939738
 106.7530591  73.7094031 113.4510531 107.5876195  73.2775230 113.2688006
 106.5914934  73.5376045 114.3787426 106.4076483  70.2126145 114.8166871
 106.3525287  70.0470416 113.8755315 105.7822538  70.9202177 114.9729060
  91.1968998  65.4494209 128.6428293  91.8427862  64.9393163 129.1315518
  90.9886149  66.1862891 129.2171718 103.7222390  72.5175056 134.1420433
 104.5913550  72.6915709 133.7807068 103.2429142  73.3369473 134.0196163
  99.7172609  59.7134254 114.3952189  99.7051278  60.6576093 114.5520460
 100.6096030  59.5304399 114.1011650  97.8908571  79.6372157 125.8209867
  98.7935817  79.6695768 126.1376362  97.6645941  78.7072608 125.8356203
  99.6462173  78.3903144 122.4819946  98.6957804  78.3905006 122.3684318
  99.9494659  77.6435879 121.9655980 103.5324728  56.3077030 118.6498126
 102.7657124  55.7535517 118.7954808 103.9435433  56.3798899 119.5112277
  95.5366489  62.5961826 132.7403307  96.3997951  62.2398631 132.9506632
  94.9631900  62.2575721 133.4278711 115.3814866  84.2263682 123.5465708
 116.0193276  84.1070430 122.8429048 115.2635709  85.1744526 123.6053660
 112.1904572  84.1791110 123.4827233 111.8523084  84.0632175 122.5947768
 113.0594340  83.7782276 123.4628239 108.0491388  86.0326587 119.4724124
 107.4856253  85.9416524 118.7040411 107.9343783  85.2126491 119.9526616
 105.5955820  87.5277778 122.3108344 106.3877112  87.1868603 121.8954643
 105.8352470  87.6372754 123.2310497 113.6290947  89.6997555 114.7838589
 112.9778926  90.2851635 114.3972602 114.4235310  90.2303749 114.8433626
 107.5546574  86.7886692 115.1825723 108.3277450  86.2415679 115.0438599
 107.9071973  87.6530941 115.3940184 110.3187823  85.4939922 124.9793982
 110.9151396  85.2695945 124.2650945 110.3762795  84.7524668 125.5819430
 109.8912852  82.9479358 112.8144173 110.1438372  82.4260879 112.0527636
 108.9537411  82.7845503 112.9170856 114.9356134  81.9515136 120.6218916
 115.7219224  81.5334559 120.2709333 115.1994839  82.8561228 120.7900564
 115.1066212  87.3887986 115.3207573 114.4712045  87.4622613 116.0328477
 114.7763618  87.9781585 114.6426652 120.3364562  81.8890369 121.5251895
 121.0689734  81.3189586 121.7589724 119.5803917  81.5011970 121.9658400
 109.6109140  84.8507464 115.0168548 109.4945399  84.1752367 115.6849632
 109.7211400  84.3639838 114.2000701 111.9540681  84.3117611 118.7215237
 111.5898889  83.7848232 119.4328158 112.8107797  83.9216080 118.5481722
 117.8589982  75.6011943 125.9846503 117.5273307  76.4707354 125.7607718
 117.2635595  75.2848227 126.6640534 111.5946168  79.3407511 113.7176586
 111.7620571  80.2087747 114.0847057 111.4043337  79.5034792 112.7937875
 107.8033983  84.2538286 121.4179120 106.8784479  84.1214500 121.6256812
 108.0518396  85.0332506 121.9149063 117.7518645  80.3207030 123.0639853
 116.8435523  80.2522438 122.7698614 117.7006241  80.7978975 123.8921679
 111.5735389  81.7965168 114.7023252 111.4535014  82.2422219 115.5408733
 110.8787978  82.1450486 114.1436790 105.1642794  83.8971560 122.2522909
 105.2935175  84.1506039 123.1662321 104.4840245  84.4899268 121.9327564
 109.3342281  94.5668810 118.3513384 109.2566311  95.5176635 118.4301864
 108.7303925  94.2214682 119.0088310 119.6180292  78.5223468 124.8417727
 118.9754672  78.8156001 124.1957522 119.1135220  78.4076388 125.6470924
 117.2720455  82.2686641 115.5303586 118.1838311  82.5014028 115.3551284
 116.7630102  82.8523685 114.9678665 111.9092293  81.6283876 126.5398436
 112.7553488  82.0523289 126.6833085 111.8490931  80.9717500 127.2336999
 114.6156430  78.4444677 123.7793447 113.7540909  78.7425931 124.0710185
 114.6418865  78.6615076 122.8474480 111.4318000  86.9886868 120.1867253
 111.8956345  87.2674571 119.3971875 111.1674798  86.0870312 120.0040344
 108.3242081  86.5358349 123.1247016 108.8943438  86.9645618 122.4864501
 108.9150192  86.2540934 123.8231202 110.3686886  83.1110020 116.9956818
 111.0710929  83.5631064 117.4630744 110.0367514  82.4693839 117.6236711
 104.1112220  81.3693573 122.2973952 103.3211274  81.6251101 121.8214062
 104.6023467  82.1841911 122.4025992 106.0626965  81.7338152 119.2557428
 105.2658128  81.8456846 119.7740924 105.8352557  82.0724804 118.3898319
 102.3949923  81.6224063 124.7288942 102.6457961  82.5071073 124.9946518
 102.9309471  81.4428665 123.9564034 111.6080650  89.9250963 117.0718923
 111.4726325  90.7702499 117.5003771 112.1490463  90.1270240 116.3084857
 105.0610048  87.4426401 117.6446848 105.5734568  88.2369651 117.7952413
 105.7132760  86.7452691 117.5780450 106.8704932  90.5592157 119.7269602
 107.0471561  91.4810122 119.5390585 107.6661766  90.2450576 120.1563981
 106.1557289  82.6056789 129.6031765 106.0410804  81.7042046 129.9038864
 105.3001807  82.8520486 129.2516581 114.9573114  73.4481525 125.6017817
 114.6137383  74.3383166 125.5256927 115.3252076  73.2583182 124.7387402
 103.0258964  85.7715055 118.4206419 103.8634186  86.1812063 118.2040127
 103.2037232  84.8314497 118.3906613 114.9223397  83.4390136 114.1090252
 114.4070020  84.2094740 114.3478639 114.6500705  82.7655272 114.7323313
 112.5070508  78.2839837 119.1675490 111.6512104  77.8946687 118.9881129
 112.9197459  78.3631797 118.3075276 114.0369654  75.8186180 123.5667050
 113.5334450  75.7816315 122.7534855 114.3300261  76.7278923 123.6263707
 110.2812540  75.9024910 122.5733232 111.1465537  75.7067718 122.2139121
 110.3490049  75.6735261 123.5002589 119.8957671  86.1922490 116.0443425
 119.1187113  85.8533650 115.5998587 120.5749152  86.1975114 115.3698390
 114.7109700  81.3117228 115.9350033 114.4059835  81.6263377 116.7860176
 115.6640142  81.3898648 115.9777366 113.1556132  87.4707451 117.5842987
 112.6277493  86.7360211 117.2716225 112.6543634  88.2482128 117.3382955
 107.8874859  78.1327117 119.9449599 108.4618611  77.9102299 119.2122792
 108.4745842  78.2015812 120.6978200 116.9454436  84.0200844 120.7513975
 117.4586318  84.6530836 121.2535685 117.5955660  83.4202040 120.3857335
 108.2144446  80.1631579 113.9645484 107.3781759  80.5006265 114.2854759
 108.0749216  80.0280558 113.0272621 110.1897527  75.0068366 118.6724668
 109.5361939  74.6917384 118.0481283 110.1478001  74.3844107 119.3984491
 111.3008732  85.2887661 110.5877960 110.3935793  85.0576915 110.7869109
 111.7979764  84.4925281 110.7751942 114.2076811  93.9985169 113.5074646
 113.5338509  94.3016865 114.1159604 114.5942633  94.8014249 113.1580103
 113.4235267  81.4950300 122.9972316 112.5057829  81.7165247 122.8394004
 113.8395411  81.5696610 122.1384023 114.2070315  82.8941716 118.1274996
 114.9542134  83.4063113 117.8182118 114.4761905  82.5725768 118.9879389
 112.4796965  85.3900256 115.1101950 111.5708184  85.1059289 115.2074420
 112.5092049  85.8099335 114.2505257 117.7116233  89.0006846 118.8793118
 117.2578560  88.1597756 118.9358308 117.0810199  89.6368244 119.2167898
 116.6549152  79.9298832 120.1093785 115.9171909  79.4176218 120.4404028
 116.9075926  79.4899213 119.2977062 116.1549172  90.8383343 119.8142936
 116.4472146  91.3988400 119.0955302 116.6647792  91.1311904 120.5696095
 116.7560779  72.7075084 120.7035554 117.0619656  71.8472447 120.4161470
 117.4813384  73.2992704 120.5034548 103.0485136  83.1105770 119.0917152
 102.8509535  82.5175131 118.3668219 102.4931800  82.8057981 119.8093091
 111.0281859  83.0028877 121.2111746 111.0830469  82.0502713 121.1354222
 110.2173061  83.1588316 121.6953044 112.1773053  86.9309000 112.4490029
 111.7392483  86.2144859 111.9895666 112.9183494  87.1585115 111.8875120
 108.9674219  81.6205937 118.9702124 108.1542085  81.9200107 119.3767317
 109.4633213  81.2261625 119.6876607 111.1182797  91.6163694 120.9036389
 111.0758976  91.8424540 119.9744921 112.0345496  91.3827068 121.0522190
 120.2946168  85.2066197 118.5066347 120.1564066  85.3967793 117.5787537
 119.9382387  85.9685580 118.9634398 108.4588294  79.1924292 124.5863359
 109.0987673  79.0513051 123.8886323 107.6265824  78.9058806 124.2101961
 109.2348598  88.4926723 120.6998352 110.0289196  87.9977043 120.4980927
 108.5240290  87.9644586 120.3366057 105.5431361  82.6369804 116.7758104
 104.6128949  82.5754260 116.9928067 105.6388833  82.1145757 115.9794746
 105.4616910  79.1624617 119.3636346 105.7223728  80.0769950 119.2545507
 106.2834083  78.6949060 119.5132959 106.9341836  80.5762374 126.5335171
 107.6064889  80.3679736 125.8847820 106.1071622  80.3784460 126.0940403
 112.8367408  77.2024315 128.5500832 112.1895323  77.9014265 128.4565308
 113.6068423  77.6360459 128.9177080 112.4068026  94.1664841 115.7221725
 112.5819781  93.6952884 116.5367348 111.7200814  94.7930607 115.9502986
 113.3625089  88.4437347 121.7685027 113.0274922  88.4038117 122.6642677
 112.8629035  87.7782063 121.2955437 107.3369333  83.8504977 127.2937608
 107.1989131  83.1185216 127.8949147 108.2474256  83.7613877 127.0121796
 116.2984281  85.7893382 112.0422086 115.6813451  85.0640210 111.9455139
 115.8300769  86.5502742 111.6989161 109.9651634  83.5624937 126.7821288
 110.6751252  82.9218129 126.7407906 109.9220942  83.8137832 127.7047468
 108.6780568  80.5490155 128.6016927 108.1417925  80.0980893 129.2538523
 108.0897276  80.6836063 127.8587391 108.0882826  80.0078806 111.1643391
 107.2112293  79.8867607 110.8005637 108.5640580  79.2164884 110.9122279
  99.6084967  84.7955966 121.2584898 100.2956006  84.4817696 120.6705913
  99.4533095  85.6997330 120.9852149 104.4119689  79.6846162 125.6869921
 104.3277877  79.0771832 124.9520331 103.5902395  80.1755181 125.6879418
 111.2746753  92.3605096 118.4105911 110.4914274  92.9026776 118.5044136
 111.9739498  92.8779076 118.8100152 114.5843403  78.1699726 121.0540117
 115.0812102  77.4169688 120.7341187 113.8130384  78.2064042 120.4883326
 115.6673183  86.9271413 118.6278540 114.7329462  87.0472875 118.4583244
 115.8449852  86.0243880 118.3638550 111.1678371  80.3117109 120.7811801
 110.7976159  79.7588149 121.4692707 111.6637464  79.7075242 120.2286801
 119.0545735  82.7688732 119.1628574 119.5206187  83.6016724 119.0888877
 119.5053235  82.3033714 119.8673833 117.1221966  89.1132554 116.1614726
 117.3981810  88.9989148 117.0708600 116.2526465  88.7150038 116.1226899
 117.0262397  75.1369319 123.2019475 116.1125477  75.3673546 123.3701682
 117.4555499  75.2207763 124.0533508 113.7576030  93.3618904 119.8047540
 113.9398424  92.5440560 120.2675292 114.5809016  93.5786597 119.3672430
 114.0918195  92.2887090 117.0662588 114.6205962  91.7779544 116.4532750
 114.3546415  91.9729620 117.9308121 104.5935288  90.3050959 124.8097922
 105.1788725  89.5594647 124.9425826 104.3960126  90.6154916 125.6934586
 107.4473943  93.3402206 119.8260364 106.7784318  93.8248334 119.3424404
 107.3086813  93.5871427 120.7403743  99.1852943  82.8756559 123.5302365
  99.2237042  82.3420150 124.3239483  98.6793236  82.3491765 122.9113342
 106.5643705  77.7221100 127.0264907 106.6285032  78.5835930 126.6142305
 106.5010825  77.1095101 126.2937266 106.0395978  79.7944232 130.6737941
 106.6668016  79.4121309 131.2875466 105.1823896  79.5758434 131.0393634
 102.8161520  81.6020661 116.6056296 103.1114961  80.6931340 116.5523350
 101.9149556  81.5808401 116.2837299 106.3455767  79.6776658 122.5883845
 105.6242353  80.2912625 122.4491318 107.1349023  80.2134423 122.5100491
 109.1482081  77.0131084 128.8624497 109.6716483  77.2593381 129.6250806
 108.9294414  77.8451119 128.4427634 104.5449362  79.2834759 116.7295621
 104.2162068  78.4032138 116.5470727 104.8988733  79.2282428 117.6172011
 113.7928941  90.9189662 121.2390607 113.6453903  89.9906369 121.4198177
 114.6182434  90.9409752 120.7547682 107.6591185  79.5707729 117.0971099
 107.9987258  80.0993650 116.3749707 108.1063306  79.9088135 117.8729666
 110.3534626  77.9544779 126.5474167 110.0131446  77.1552592 126.9494847
 109.6473632  78.2546490 125.9751000 111.0051098  75.0394092 125.0001490
 111.8277167  74.5654570 124.8780381 111.2489161  75.8184576 125.5000176
 109.6459332  78.0682350 115.2964392 110.3667695  78.4463603 114.7928109
 109.0224636  78.7871227 115.3999370 113.7890455  78.7727499 116.2322724
 114.0054069  79.6552137 115.9311552 113.3084522  78.3813713 115.5028366
 108.5289676  81.7313212 122.8093469 108.3834257  82.0453515 123.7017750
 108.0514880  82.3498113 122.2564367 110.3886059  78.7215760 122.8574358
 110.3747628  77.8256854 122.5206656 111.1058487  78.7286424 123.4912644
 112.2412190  79.1553101 124.9027486 111.9829968  80.0770171 124.9011816
 111.7097230  78.7583535 125.5927950 117.1858379  92.2603888 117.6817571
 117.3595256  91.6950310 116.9291424 117.6787270  93.0604783 117.4997061
 103.0035339  84.2718557 125.7481130 102.4588807  85.0478365 125.8801404
 103.8814688  84.6189361 125.5900251 109.7922955  77.6030141 118.1261928
 109.9138866  76.6746787 118.3252816 109.5024998  77.6168827 117.2140244
 112.6614146  75.2885051 121.2628648 112.6835842  75.3524384 120.3080628
 113.0782205  74.4489560 121.4569154 123.0397770  85.0240311 119.3007871
 123.4828916  84.2747636 118.9026994 122.1624280  85.0150447 118.9181603
 118.1733551  91.5770652 114.7814469 118.8684456  92.1977345 115.0001784
 118.5156701  90.7266003 115.0566847 103.7901360  83.3988453 128.6411287
 103.0483097  83.5471088 129.2275917 103.4694105  83.6596719 127.7778036
 120.0724974  89.0270358 116.3101800 120.5976299  89.3657630 115.5851120
 119.9847327  88.0917373 116.1264935 104.2357974  91.2853882 120.6721681
 105.0615994  90.9857654 120.2920325 103.8852026  90.5161504 121.1211470
 109.2039507  90.6380350 122.7419355 108.5819517  89.9751055 122.4421583
 109.8744374  90.6641482 122.0593003 102.4366579  89.2040208 121.6310615
 101.5998488  88.7762383 121.4494616 102.4090225  89.3972652 122.5681406
 108.7653014  89.1884273 116.2177816 108.9141135  89.8719738 115.5644488
 109.5719458  89.1689363 116.7327271 106.5205647  85.2149451 117.2238885
 106.2751689  84.3111781 117.4219095 106.6901562  85.2166601 116.2818363
 114.2102357  76.0873127 126.6063640 114.7284301  76.8234154 126.2810129
 113.8557490  76.3937121 127.4410399 105.7901295  80.9477809 114.7225046
 105.0970540  81.0222164 114.0665082 105.5453047  80.1838152 115.2446563
 114.4614951  72.5073410 122.1264537 114.7416705  71.8396599 122.7524963
 115.2465558  72.7002506 121.6139201 112.2648420  91.6832404 113.6889563
 111.6922387  92.3022591 113.2360035 112.8381213  92.2331766 114.2229485
 116.3538189  78.0146627 126.0595513 115.7588121  78.2951640 125.3642001
 116.0687886  78.5040528 126.8312254 115.4845680  91.9669554 114.8198145
 116.4176353  91.9015116 115.0231021 115.3968892  92.8025821 114.3612678
 118.1133696  91.2835424 111.7802093 118.0347328  90.9495288 112.6737851
 118.9343363  91.7757192 111.7793565 112.6495218  83.0193217 111.0305616
 113.5954323  82.8899425 111.0994034 112.2709463  82.2807878 111.5075044
 118.6217103  74.6849223 120.9932507 118.4241924  74.3764311 121.8775839
 119.2316808  75.4110862 121.1230437 110.8338135  80.9443193 110.9660501
 109.9269591  80.6476306 111.0423214 111.1114116  80.6473011 110.0994787
 101.7516076  82.2649556 121.4159547 101.4318860  81.4114865 121.1233921
 101.2049504  82.4798135 122.1717514 105.5295983  84.9811997 125.1329054
 105.7481993  85.9129105 125.1517087 105.9421757  84.6219972 125.9183858
 112.4500201  75.4880083 117.1204742 111.6400929  75.1427168 117.4959988
 113.1384618  75.1787626 117.7092354 114.3790749  74.5658129 118.7429039
 114.9321788  74.9853583 119.4019062 114.6160836  73.6393878 118.7851995
 109.6036920  77.8030128 111.1072480 110.4656084  78.1285027 111.3668297
 109.7887264  77.0161624 110.5945546 101.6204336  85.8852468 123.3852669
 100.9267807  85.4706421 122.8722623 102.3677327  85.9273004 122.7886088
 117.7569557  76.6758655 118.2507703 117.1768226  77.3343459 117.8685755
 117.4905489  75.8535999 117.8395120 116.2073123  76.0763712 120.4529023
 116.7072901  76.1880247 119.6443342 116.8508731  75.7724765 121.0929832
 103.5341078  85.8170722 121.2618684 103.5111766  85.9158409 120.3100567
 103.8441715  86.6635872 121.5835850 106.1928456  87.8746877 125.3765298
 107.1471710  87.8430819 125.3095230 105.9940980  87.4137500 126.1915524
 116.5394435  78.8358745 117.3064051 115.6520290  79.1208396 117.0884246
 116.9548424  78.6752508 116.4591328 119.8908971  78.8605266 121.0218390
 120.6669361  79.3501718 121.2943007 119.1657105  79.2863320 121.4790260
 122.3281529  79.5732885 122.0792331 122.9226020  79.3328621 121.3685639
 122.4008113  78.8540016 122.7065867 104.5478685  93.4166496 122.3935496
 104.4133153  92.6566897 121.8273494 104.1310747  94.1407396 121.9264285
 115.6837648  88.6003420 111.4012071 116.3873498  88.8053422 112.0169727
 114.9600297  89.1680182 111.6661155 116.5135458  84.3513281 117.5214341
 116.4570660  84.8081832 116.6821974 117.0663801  83.5903966 117.3437184
 120.3240264  80.1403013 118.3464461 120.0677198  79.7399649 119.1772669
 119.6993132  80.8546807 118.2214600 124.6352602  82.8799086 120.8535752
 124.0752160  82.9492275 121.6267314 124.0296105  82.7040071 120.1335249
 117.5924345  89.0385949 113.4510531 118.4269949  88.6067147 113.2688006
 117.4308688  88.8667963 114.3787426 117.2470238  85.5418062 114.8166871
 117.1919041  85.3762334 113.8755315 116.6216293  86.2494095 114.9729060
 102.0362753  80.7786127 128.6428293 102.6821616  80.2685081 129.1315518
 101.8279904  81.5154808 129.2171718 110.5566363  75.0426171 114.3952189
 110.5445033  75.9868011 114.5520460 111.4489785  74.8596317 114.1011650
 114.3718483  71.6368948 118.6498126 113.6050878  71.0827435 118.7954808
 114.7829187  71.7090817 119.5112277 120.7306606  98.2771276 112.8144173
 120.9832127  97.7552797 112.0527636 119.7931165  98.1137421 112.9170856
 122.4339923  94.6699428 113.7176586 122.6014325  95.5379665 114.0847057
 122.2437092  94.8326710 112.7937875 119.0538201  95.4923496 113.9645484
 118.2175513  95.8298183 114.2854759 118.9142970  95.3572476 113.0272621
 121.0291281  90.3360284 118.6724668 120.3755694  90.0209301 118.0481283
 120.9871755  89.7136025 119.3984491 122.1402486 100.6179579 110.5877960
 121.2329548 100.3868833 110.7869109 122.6373518  99.8217198 110.7751942
 116.3825116  97.9661722 116.7758104 115.4522704  97.9046178 116.9928067
 116.4782588  97.4437675 115.9794746 118.9276581  95.3370724 111.1643391
 118.0506047  95.2159524 110.8005637 119.4034334  94.5456802 110.9122279
 113.6555275  96.9312579 116.6056296 113.9508716  96.0223257 116.5523350
 112.7543311  96.9100318 116.2837299 115.3843116  94.6126677 116.7295621
 115.0555823  93.7324055 116.5470727 115.7382487  94.5574345 117.6172011
 120.4853087  93.3974268 115.2964392 121.2061449  93.7755521 114.7928109
 119.8618391  94.1163145 115.3999370 120.6316710  92.9322058 118.1261928
 120.7532621  92.0038705 118.3252816 120.3418752  92.9460744 117.2140244
 116.6295049  96.2769726 114.7225046 115.9364294  96.3514081 114.0665082
 116.3846801  95.5130070 115.2446563 123.4888973  98.3485134 111.0305616
 124.4348077  98.2191342 111.0994034 123.1103218  97.6099796 111.5075044
 121.6731890  96.2735111 110.9660501 120.7663345  95.9768223 111.0423214
 121.9507871  95.9764929 110.0994787 123.2893956  90.8172000 117.1204742
 122.4794684  90.4719085 117.4959988 123.9778373  90.5079544 117.7092354
 120.4430675  93.1322046 111.1072480 121.3049839  93.4576944 111.3668297
 120.6281019  92.3453542 110.5945546 121.3960118  90.3718089 114.3952189
 121.3838787  91.3159929 114.5520460 122.2883539  90.1888234 114.1011650
 125.2112237  86.9660866 118.6498126 124.4444633  86.4119352 118.7954808
 125.6222942  87.0382734 119.5112277  60.0108039  -5.6412297 100.2319953
  59.3369738  -5.3380600 100.8404911  60.3973861  -4.8383217  99.8825410
  58.2099255  -5.4732625 102.4467032  58.3851010  -5.9444582 103.2612655
  57.5232043  -4.8466859 102.6748293  72.0239849  -0.0841866 110.2711015
  72.6618259  -0.2035118 109.5674355  71.9060692   0.8638978 110.3298967
  68.8329556  -0.1314438 110.2072539  68.4948067  -0.2473373 109.3193074
  69.7019324  -0.5323273 110.1873545  64.6916371   1.7221039 106.1969430
  64.1281236   1.6310976 105.4285718  64.5768766   0.9020943 106.6771923
  62.2380803   3.2172230 109.0353651  63.0302095   2.8763055 108.6199950
  62.4777453   3.3267205 109.9555804  70.2715930   5.3892006 101.5083895
  69.6203910   5.9746087 101.1217909  71.0660293   5.9198201 101.5678933
  64.1971557   2.4781144 101.9071030  64.9702433   1.9310131 101.7683905
  64.5496956   3.3425393 102.1185491  66.9612807   1.1834374 111.7039288
  67.5576379   0.9590397 110.9896251  67.0187778   0.4419120 112.3064736
  66.5337835  -1.3626190  99.5389479  66.7863356  -1.8844669  98.7772942
  65.5962394  -1.5260045  99.6416163  71.7491195   3.0782438 102.0452880
  71.1137028   3.1517065 102.7573784  71.4188602   3.6676037 101.3671959
  66.2534124   0.5401916 101.7413854  66.1370382  -0.1353181 102.4094939
  66.3636384   0.0534290 100.9246007  68.5965665   0.0012063 105.4460544
  68.2323872  -0.5257316 106.1573465  69.4532781  -0.3889468 105.2727029
  70.9946485   3.4918941 112.1087723  70.6947208   4.3943980 112.0003530
  70.6497544   3.2251125 112.9608875  64.4458966  -0.0567262 108.1424427
  63.5209463  -0.1891048 108.3502119  64.6943379   0.7226957 108.6394369
  68.2160373  -2.5140380 101.4268559  68.0959998  -2.0683329 102.2654039
  67.5212961  -2.1655062 100.8682097  61.8067777  -0.4133988 108.9768216
  61.9360158  -0.1599509 109.8907628  61.1265229   0.1793720 108.6572871
  65.9767265  10.2563262 105.0758690  65.8991294  11.2071087 105.1547171
  65.3728908   9.9109134 105.7333617  72.5215021   2.9406912 109.6462474
  71.8923883   3.1052626 108.9438542  72.1340683   3.3548521 110.4173439
  76.4004253   3.8761349 107.0006838  75.7155291   4.2560251 106.4503872
  76.4848102   4.4856676 107.7338786  73.6555184   1.5221308 113.6002182
  73.8672080   2.1653068 112.9236563  73.6084933   0.6883625 113.1324112
  68.0742983   2.6781320 106.9112560  68.5381328   2.9569023 106.1217182
  67.8099781   1.7764764 106.7285650  64.9667064   2.2252801 109.8492323
  65.5368421   2.6540070 109.2109807  65.5575176   1.9435386 110.5476509
  67.0111869  -1.1995528 103.7202125  67.7135912  -0.7474484 104.1876051
  66.6792497  -1.8411709 104.3482018  74.7701012   4.3993264 111.7724539
  75.5918456   3.9973451 111.4907221  74.7663415   4.2961498 112.7240655
  62.7051948  -2.5767396 105.9802735  61.9083112  -2.4648702 106.4986231
  62.4777540  -2.2380744 105.1143626  68.5357616   3.9477307 113.9285250
  68.6002048   4.4097714 114.7643421  67.8268540   3.3174672 114.0567559
  68.2505634   5.6145415 103.7964230  68.1151308   6.4596950 104.2249078
  68.7915446   5.8164692 103.0330164  61.7035031   3.1320853 104.3692155
  62.2159551   3.9264103 104.5197720  62.3557744   2.4347143 104.3025757
  63.5129916   6.2486609 106.4514908  63.6896544   7.1704574 106.2635892
  64.3086749   5.9345028 106.8809288  64.6361231   7.7664783 112.4525251
  65.1868656   7.6381846 111.6802244  63.7972707   8.0659672 112.1020143
  71.9755348   6.5171781 115.9545973  71.9573823   7.3380662 115.4626242
  72.8975268   6.3925856 116.1796114  59.6683948   1.4609507 105.1451726
  60.5059170   1.8706515 104.9285433  59.8462215   0.5208949 105.1151919
  71.5648380  -0.8715412 100.8335559  71.0495003  -0.1010808 101.0723946
  71.2925688  -1.5450276 101.4568620  76.5382654   1.8816942 102.7688732
  75.7612097   1.5428102 102.3243894  77.2174135   1.8869565 102.0943697
  69.7981115   3.1601903 104.3088294  69.2702476   2.4254663 103.9961531
  69.2968618   3.9376579 104.0628262  74.7773961   1.3550924 109.4255340
  74.1197635   2.0450185 109.5135469  75.5814360   1.7447356 109.7689326
  73.5879420  -0.2904704 107.4759282  74.1011301   0.3425288 107.9780991
  74.2380644  -0.8903508 107.1102642  64.8569430  -4.1473970 100.6890790
  64.0206742  -3.8099283 101.0100065  64.7174199  -4.2824990  99.7517927
  67.9433715   0.9782113  97.3123267  67.0360777   0.7471367  97.5114416
  68.4404747   0.1819733  97.4997248  70.8501794   9.6879621 100.2319953
  70.1763493   9.9911317 100.8404911  71.2367616  10.4908701  99.8825410
  70.0660251  -2.8155248 109.7217622  69.1482812  -2.5940301 109.5639310
  70.4820394  -2.7408938 108.8629330  70.8495298  -1.4163833 104.8520303
  71.5967117  -0.9042435 104.5427425  71.1186888  -1.7379780 105.7124696
  69.1221948   1.0794708 101.8347257  68.2133168   0.7953741 101.9319727
  69.1517032   1.4993787 100.9750564  74.3541216   4.6901298 105.6038424
  73.9003543   3.8492208 105.6603615  73.7235183   5.3262696 105.9413205
  72.7974155   6.5277794 106.5388243  73.0897129   7.0882852 105.8200608
  73.3072776   6.8206355 107.2941402  59.6910119  -1.1999778 105.8162459
  59.4934519  -1.7930417 105.0913526  59.1356783  -1.5047567 106.5338398
  67.6706842  -1.3076671 107.9357052  67.7255452  -2.2602835 107.8599529
  66.8598045  -1.1517232 108.4198351  68.8198036   2.6203452  99.1735335
  68.3817466   1.9039311  98.7140973  69.5608477   2.8479567  98.6120427
  65.6099202  -2.6899611 105.6947431  64.7967068  -2.3905441 106.1012623
  66.1058197  -3.0843923 106.4121913  67.7607780   7.3058145 107.6281696
  67.7183959   7.5318992 106.6990228  68.6770479   7.0721520 107.7767497
  76.9371151   0.8960649 105.2311654  76.7989050   1.0862245 104.3032843
  76.5807370   1.6580032 105.6879705  76.9640531   2.9637176 110.2422925
  77.3977037   2.8712465 111.0905979  77.6772111   2.9394676 109.6042941
  65.8773581   4.1821175 107.4243658  66.6714180   3.6871495 107.2226233
  65.1665273   3.6539038 107.0611364  70.6968426   6.5639270 111.7756026
  70.7505448   7.1330206 112.5433742  69.8283207   6.7341155 111.4110063
  62.1856345  -1.6735744 103.5003411  61.2553933  -1.7351288 103.7173373
  62.2813817  -2.1959791 102.7040052  62.1041894  -5.1480931 106.0881653
  62.3648711  -4.2335598 105.9790813  62.9259066  -5.6156488 106.2378266
  77.8256080   3.0060877 112.7755811  78.0191970   3.9106687 113.0215086
  77.7256698   2.5468296 113.6094396  69.6556525   0.7299532 113.3342958
  70.5848585   0.8810692 113.1611925  69.2347555   0.8183553 112.4791604
  68.4544857   4.7550196 111.1041496  68.3155943   4.3868981 111.9767434
  67.6659453   5.2697836 110.9325453  69.0493009   9.8559293 102.4467032
  69.2244765   9.3847336 103.2612655  68.3625797  10.4825059 102.6748293
  70.0050072   4.1331799 108.4930333  69.6699905   4.0932569 109.3887983
  69.5054018   3.4676515 108.0200744  72.9409264   1.4787834  98.7667393
  72.3238435   0.7534662  98.6700446  72.4725752   2.2397194  98.4234467
  74.5963396   6.1886742 116.4273173  74.5375942   5.5045962 115.7603756
  74.9982914   6.9305732 115.9753799  63.6154094  13.0048656 109.2206892
  63.8550693  13.6367180 109.8985911  62.7723291  12.6536696 109.5072251
  64.7307810  -4.3026742  97.8888697  63.8537276  -4.4237941  97.5250944
  65.2065563  -5.0940664  97.6367586  74.5980803   4.1526326 114.6587153
  73.7107582   3.8152248 114.7813552  75.1679354   3.4209357 114.8955918
  56.2509950   0.4850418 107.9830204  56.9380990   0.1712148 107.3951220
  56.0958079   1.3891782 107.7097456  68.1281956   8.8127778 111.6248396
  68.0552128   9.6182750 112.1367701  67.6859349   9.0119744 110.7996418
  67.9171736   8.0499548 105.1351218  67.1339258   8.5921228 105.2289442
  68.6164481   8.5673528 105.5345459  70.5880640   8.7114612 113.7806555
  71.3008612   9.3462077 113.7082456  70.0970668   8.8078478 112.9646557
  72.3098167   2.6165865 105.3523847  71.3754445   2.7367327 105.1828551
  72.4874835   1.7138332 105.0883856  65.6392553   6.4609056 114.6012126
  66.3402013   7.0945539 114.7541520  65.1687668   6.8023787 113.8407765
  73.7646949   4.8027005 102.8860033  74.0406793   4.6883600 103.7953907
  72.8951448   4.4044490 102.8472206  73.4393839  -0.9846337 112.4264676
  72.7865289  -0.7370429 111.7717129  73.8174219  -1.7982199 112.0927153
  70.4001013   9.0513356 106.5292846  70.5823408   8.2335012 106.9920599
  71.2233999   9.2681049 106.0917736  70.7343179   7.9781541 103.7907895
  71.2630945   7.4673996 103.1778057  70.9971398   7.6624072 104.6553428
  61.2360271   5.9945411 111.5343228  61.8213708   5.2489099 111.6671133
  61.0385110   6.3049367 112.4179892  64.0898927   9.0296658 106.5505671
  63.4209302   9.5142786 106.0669711  63.9511796   9.2765879 107.4649049
  68.2304195  11.0640402 113.1488329  68.7822503  11.2272023 113.9137414
  68.5710389  11.6544839 112.4768354  59.4586504  -2.7084887 103.3301603
  59.7539945  -3.6174209 103.2768657  58.5574539  -2.7297147 103.0082605
  71.3672582   9.0122377 110.1352011  71.2423722   8.2112117 109.6262957
  72.0251674   9.5068571 109.6465981  73.4307491   6.8131397 111.7631561
  72.4837826   6.6936748 111.6909888  73.7790264   5.9253895 111.8457823
  61.1874345  -5.0270789 103.4540928  60.8587051  -5.9073410 103.2716034
  61.5413716  -5.0823121 104.3417317  70.4353924   6.6084113 107.9635914
  70.2878887   5.6800821 108.1443484  71.2607418   6.6304204 107.4792989
  64.3016168  -4.7397819 103.8216406  64.6412241  -4.2111898 103.0995014
  64.7488289  -4.4017413 104.5974972  74.0388046   7.4312672 109.0500786
  74.9634593   7.2255534 108.9125237  73.8703349   7.1829073 109.9590128
  73.8283362   7.9498340 104.4062878  74.0020240   7.3844762 103.6536730
  74.3212253   8.7499235 104.2242368  74.8158535   7.2665104 101.5059776
  75.5109439   7.8871797 101.7247091  75.1581685   6.4160455 101.7812154
  76.7149958   4.7164810 103.0347107  77.2401282   5.0552082 102.3096427
  76.6272310   3.7811825 102.8510241  68.3770006   8.6298883 115.1636983
  68.6857133   8.3848030 116.0359683  69.1745488   8.8345522 114.6755854
  68.3990618  10.7836793 107.3942360  67.9595609  10.2913172 108.0875217
  69.1498735  10.2409761 107.1534435  60.8782957   6.9748334 107.3966988
  61.7040977   6.6752106 107.0165632  60.5277009   6.2055956 107.8456777
  65.8464491   6.3274802 109.4664662  65.2244500   5.6645507 109.1666890
  66.5169358   6.3535934 108.7838309  59.0791563   4.8934660 108.3555922
  58.2423471   4.4656835 108.1739923  59.0515208   5.0867104 109.2926713
  76.4043864   5.3497713 118.3398305  75.6139408   5.3321852 117.8002804
  76.1677218   5.8886007 119.0947341  76.5241739   2.1990180 115.6531033
  76.5739744   2.0340187 116.5946556  76.4155662   1.3317439 115.2628914
  65.4077998   4.8778725 102.9423122  65.5566118   5.5614190 102.2889795
  66.2144441   4.8583815 103.4572578  78.0259936   4.6187121 115.8973055
  77.7344744   4.9817102 116.7336516  77.4132067   3.9054129 115.7186387
  79.2255618   2.1840001 108.4175625  80.0602509   2.6229805 108.5813185
  79.3614747   1.7078654 107.5983871  76.2747124  -0.2580264 114.3653113
  76.7501246  -0.0652618 113.5571964  75.3512689  -0.2021078 114.1196497
  63.1630631   0.9043903 103.9484191  62.9176672   0.0006233 104.1464401
  63.3326545   0.9061053 103.0063669  62.4326278  -3.3627740 101.4470353
  61.7395523  -3.2883385 100.7910389  62.1878030  -4.1267396 101.9691870
  68.9073403   7.3726856 100.4134870  68.3347370   7.9917043  99.9605342
  69.4806197   7.9226217 100.9474792  72.1270663   7.6564006 101.5443452
  73.0601336   7.5909568 101.7476327  72.0393876   8.4920273 101.0857985
  74.7558680   6.9729876  98.5047400  74.6772311   6.6389740  99.3983157
  75.5768346   7.4651644  98.5038872  69.2920202  -1.2912332  97.7550922
  70.2379306  -1.4206123  97.8239340  68.9134447  -2.0297670  98.2320350
  67.4763119  -3.3662355  97.6905807  66.5694574  -3.6629242  97.7668521
  67.7539100  -3.6632537  96.8240094  60.1766062   1.5065174 107.9863990
  60.1536750   1.6052861 107.0345873  60.4866698   2.3530324 108.3081156
  61.1903668   9.1060948 109.1180803  61.0558136   8.3461349 108.5518801
  60.7735731   9.8301848 108.6509591  72.3262631   4.2897872  98.1257378
  73.0298481   4.4947874  98.7415033  71.6025280   4.8574633  98.3906461
  73.1560442   0.0407733 104.2459648  73.0995643   0.4976284 103.4067280
  73.7088784  -0.7201583 104.0682491  64.3472794  10.0030265 109.3299245
  64.2305178  10.9475698 109.2277935  63.5265240   9.7003827 109.7185044
  74.2349329   4.7280401 100.1755838  75.0694933   4.2961599  99.9933313
  74.0733672   4.5562414 101.1032732  73.8895221   1.2312514 101.5412177
  73.8344025   1.0656786 100.6000621  73.2641276   1.9388547 101.6974367
  65.3727308  10.6558527 112.5455174  66.2754555  10.6882137 112.8621669
  65.1464678   9.7258978 112.5601509  67.1280910   9.4089514 109.2065252
  66.1776541   9.4091375 109.0929625  67.4313396   8.6622248 108.6901287
  82.8633604  15.2450052 110.2711015  83.5012014  15.1256799 109.5674355
  82.7454447  16.1930896 110.3298967  79.6723310  15.1977480 110.2072539
  79.3341822  15.0818545 109.3193074  80.5413078  14.7968645 110.1873545
  75.5310126  17.0512956 106.1969430  74.9674991  16.9602893 105.4285718
  75.4162521  16.2312861 106.6771923  80.1543093  16.3512332 116.1658745
  80.1431734  15.9565130 115.2939249  80.3163733  15.6178404 116.7592516
  73.0774558  18.5464148 109.0353651  73.8695850  18.2054973 108.6199950
  73.3171208  18.6559123 109.9555804  81.1109685  20.7183924 101.5083895
  80.4597664  21.3038005 101.1217909  81.9054047  21.2490119 101.5678933
  75.0365312  17.8073061 101.9071030  75.8096188  17.2602048 101.7683905
  75.3890711  18.6717311 102.1185491  76.8750354  19.1349444 115.1137929
  76.5840220  20.0395074 114.9984595  77.5107339  19.1765971 115.8281998
  77.8006561  16.5126292 111.7039288  78.3970133  16.2882314 110.9896251
  77.8581533  15.7711038 112.3064736  77.3731589  13.9665727  99.5389479
  77.6257110  13.4447249  98.7772942  76.4356149  13.8031873  99.6416163
  82.4174872  12.9701506 107.3464223  83.2037962  12.5520929 106.9954640
  82.6813577  13.8747598 107.5145871  82.5884950  18.4074356 102.0452880
  81.9530783  18.4808983 102.7573784  82.2582356  18.9967955 101.3671959
  87.8183299  12.9076739 108.2497201  88.5508471  12.3375956 108.4835031
  87.0622655  12.5198339 108.6903707  77.0927878  15.8693833 101.7413854
  76.9764136  15.1938737 102.4094939  77.2030138  15.3826207 100.9246007
  79.4359419  15.3303980 105.4460544  79.0717626  14.8034601 106.1573465
  80.2926535  14.9402450 105.2727029  85.3408720   6.6198313 112.7091810
  85.0092045   7.4893724 112.4853025  84.7454333   6.3034597 113.3885840
  79.0764906  10.3593880 100.4421892  79.2439308  11.2274117 100.8092363
  78.8862075  10.5221162  99.5183181  81.8340239  18.8210859 112.1087723
  81.5340962  19.7235898 112.0003530  81.4891299  18.5543042 112.9608875
  75.2852721  15.2724656 108.1424427  74.3603217  15.1400870 108.3502119
  75.5337134  16.0518875 108.6394369  85.2337383  11.3393399 109.7885160
  84.3254260  11.2708808 109.4943921  85.1824979  11.8165344 110.6166985
  79.0554127  12.8151538 101.4268559  78.9353752  13.2608588 102.2654039
  78.3606715  13.1636855 100.8682097  72.6461532  14.9157929 108.9768216
  72.7753913  15.1692408 109.8907628  71.9658983  15.5085637 108.6572871
  76.8161019  25.5855179 105.0758690  76.7385049  26.5363004 105.1547171
  76.2122663  25.2401052 105.7333617  79.3078249  12.7583045 117.7320057
  78.5311583  13.3176965 117.7222922  79.9468812  13.2439828 118.2534927
  87.0999029   9.5409838 111.5663034  86.4573410   9.8342371 110.9202828
  86.5953958   9.4262758 112.3716230  84.7539193  13.2873011 102.2548893
  85.6657049  13.5200398 102.0796591  84.2448840  13.8710055 101.6923972
  77.5624621  15.5668498 117.2938024  78.3039306  16.1053542 117.0172848
  76.8561607  16.1934787 117.4509576  83.0379961  17.7097639 115.8910186
  83.4463317  17.2680049 115.1464818  82.3157222  17.1350266 116.1444379
  79.3911031  12.6470245 113.2643743  80.2372226  13.0709659 113.4078392
  79.3309669  11.9903870 113.9582306  83.3608775  18.2698829 109.6462474
  82.7317638  18.4344543 108.9438542  82.9734438  18.6840439 110.4173439
  87.2398007  19.2053267 107.0006838  86.5549046  19.5852168 106.4503872
  87.3241857  19.8148594 107.7338786  82.5410476  10.3074614 114.9224916
  82.2971408  11.0616674 114.3859192  82.8170407  10.6859961 115.7572163
  84.4948939  16.8513226 113.6002182  84.7065834  17.4944986 112.9236563
  84.4478687  16.0175543 113.1324112  82.0975168   9.4631047 110.5038754
  81.2359647   9.7612300 110.7955492  82.1237603   9.6801446 109.5719787
  78.9136737  18.0073237 106.9112560  79.3775083  18.2860940 106.1217182
  78.6493535  17.1056682 106.7285650  75.8060818  17.5544719 109.8492323
  76.3762175  17.9831987 109.2109807  76.3968930  17.2727304 110.5476509
  77.8505623  14.1296390 103.7202125  78.5529667  14.5817433 104.1876051
  77.5186252  13.4880209 104.3482018  76.2985985  12.7208146 118.0953334
  75.6684646  13.4024427 118.3288731  76.1922073  12.6091228 117.1506472
  71.5930957  12.3879942 109.0219258  70.8030011  12.6437471 108.5459369
  72.0842205  13.2028280 109.1271299  85.6094767  19.7285182 111.7724539
  86.4312211  19.3265369 111.4907221  85.6057170  19.6253416 112.7240655
  73.5445703  12.7524522 105.9802735  72.7476866  12.8643216 106.4986231
  73.3171295  13.0911174 105.1143626  79.3751370  19.2769225 113.9285250
  79.4395803  19.7389632 114.7643421  78.6662294  18.6466590 114.0567559
  69.8768660  12.6410433 111.4534249  70.1276699  13.5257443 111.7191825
  70.4128209  12.4615034 110.6809341  93.7000760  16.0723930 108.1209511
  92.9464468  15.5031328 107.9653515  93.8348301  16.0386595 109.0680145
  79.0899388  20.9437332 103.7964230  78.9545063  21.7888868 104.2249078
  79.6309201  21.1456610 103.0330164  72.5428785  18.4612770 104.3692155
  73.0553306  19.2556021 104.5197720  73.1951498  17.7639061 104.3025757
  74.3523670  21.5778527 106.4514908  74.5290298  22.4996491 106.2635892
  75.1480504  21.2636946 106.8809288  78.4934689   8.4386791 118.0498842
  79.2344402   9.0393944 117.9703304  78.7252611   7.6964429 117.4916884
  73.6376027  13.6243159 116.3277071  73.5229542  12.7228416 116.6284170
  72.7820544  13.8706855 115.9761888  80.7167864  21.5660899 117.9264572
  80.2731719  20.7797277 117.6085477  81.3785078  21.7540049 117.2608463
  75.4754986  23.0956700 112.4525251  76.0262411  22.9673764 111.6802244
  74.6366461  23.3951589 112.1020143  82.8149102  21.8463699 115.9545973
  82.7967578  22.6672580 115.4626242  83.7369023  21.7217774 116.1796114
  79.2722157  19.3607828 116.7969482  79.8050493  18.5996116 116.5668790
  78.7436238  19.0681480 117.5393636  82.4391852   4.4667894 112.3263123
  82.0956121   5.3569536 112.2502234  82.8070814   4.2769552 111.4632708
  70.5077702  16.7901425 105.1451726  71.3452924  17.1998433 104.9285433
  70.6855970  15.8500867 105.1151919  82.4042134  14.4576505 100.8335559
  81.8888758  15.2281110 101.0723946  82.1319443  13.7841642 101.4568620
  79.9889245   9.3026206 105.8920797  79.1330842   8.9133057 105.7126436
  80.4016197   9.3818167 105.0320582  81.5188392   6.8372549 110.2912357
  81.0153188   6.8002685 109.4780162  81.8118999   7.7465292 110.3509013
  77.7631278   6.9211279 109.2978538  78.6284275   6.7254088 108.9384428
  77.8308787   6.6921631 110.2247895  87.3776408  17.2108860 102.7688732
  86.6005851  16.8720019 102.3243894  88.0567889  17.2161483 102.0943697
  82.1928437  12.3303597 102.6595340  81.8878573  12.6449747 103.5105483
  83.1458880  12.4085017 102.7022673  80.6374869  18.4893821 104.3088294
  80.1096231  17.7546580 103.9961531  80.1362372  19.2668497 104.0628262
  85.6167715  16.6842841 109.4255340  84.9591390  17.3742103 109.5135469
  86.4208115  17.0739273 109.7689326  75.3693597   9.1513487 106.6694905
  75.9437349   8.9288669 105.9368098  75.9564579   9.2202182 107.4223507
  84.4273174  15.0387214 107.4759282  84.9405056  15.6717206 107.9780991
  85.0774398  14.4388409 107.1102642  75.6963184  11.1817948 100.6890790
  74.8600496  11.5192635 101.0100065  75.5567954  11.0466928  99.7517927
  77.6716265   6.0254736 105.3969975  77.0180677   5.7103753 104.7726589
  77.6296739   5.4030476 106.1229798  78.7827469  16.3074031  97.3123267
  77.8754531  16.0763284  97.5114416  79.2798501  15.5111650  97.4997248
  81.6895548  25.0171538 100.2319953  81.0157247  25.3203235 100.8404911
  82.0761370  25.8200619  99.8825410  80.9054005  12.5136669 109.7217622
  79.9876566  12.7351616 109.5639310  81.3214149  12.5882980 108.8629330
  81.6889053  13.9128085 104.8520303  82.4360872  14.4249482 104.5427425
  81.9580642  13.5912138 105.7124696  79.9615703  16.4086626 101.8347257
  79.0526922  16.1245659 101.9319727  79.9910787  16.8285704 100.9750564
  85.1934970  20.0193215 105.6038424  84.7397297  19.1784125 105.6603615
  84.5628937  20.6554614 105.9413205  84.1367890  10.9485201 106.8339092
  83.3990647  10.4362588 107.1649334  84.3894663  10.5085583 106.0222369
  83.6367910  21.8569712 106.5388243  83.9290884  22.4174769 105.8200608
  84.1466530  22.1498273 107.2941402  84.2379517   3.7261453 107.4280861
  84.5438394   2.8658817 107.1406776  84.9632122   4.3179074 107.2279855
  70.5303873  14.1292140 105.8162459  70.3328273  13.5361501 105.0913526
  69.9750537  13.8244350 106.5338398  78.5100597  14.0215246 107.9357052
  78.5649207  13.0689083 107.8599529  77.6991799  14.1774686 108.4198351
  79.6591791  17.9495370  99.1735335  79.2211221  17.2331228  98.7140973
  80.4002232  18.1771484  98.6120427  76.4492957  12.6392306 105.6947431
  75.6360822  12.9386477 106.1012623  76.9451951  12.2447995 106.4121913
  78.6001535  22.6350063 107.6281696  78.5577714  22.8610909 106.6990228
  79.5164234  22.4013438 107.7767497  82.0467169  13.1034131 114.5262325
  82.4016556  13.3305604 115.3856791  82.6939300  13.4352507 113.9039580
  87.7764906  16.2252567 105.2311654  87.6382804  16.4154163 104.3032843
  87.4201124  16.9871949 105.6879705  75.9407032  10.2110662 111.3108666
  76.5806411  10.0699421 110.6131629  75.1084562   9.9245175 110.9347268
  87.8034285  18.2929094 110.2422925  88.2370792  18.2004383 111.0905979
  88.5165866  18.2686594 109.6042941  76.7167336  19.5113092 107.4243658
  77.5107934  19.0163412 107.2226233  76.0059028  18.9830955 107.0611364
  81.5362180  21.8931188 111.7756026  81.5899202  22.4622124 112.5433742
  80.6676961  22.0633073 111.4110063  73.0250099  13.6556174 103.5003411
  72.0947687  13.5940629 103.7173373  73.1207571  13.1332127 102.7040052
  72.9435648  10.1810987 106.0881653  73.2042465  11.0956320 105.9790813
  73.7652820   9.7135429 106.2378266  74.4160573  11.5948744 113.2580477
  75.0883627  11.3866106 112.6093126  73.5890360  11.3970830 112.8185710
  88.6649835  18.3352794 112.7755811  88.8585725  19.2398605 113.0215086
  88.5650453  17.8760213 113.6094396  80.3186145   8.2210685 115.2746138
  79.6714060   8.9200634 115.1810615  81.0887161   8.6546829 115.6422386
  83.7264943  18.4859537 118.3496691  83.5750450  18.2570089 117.4326775
  83.7169623  19.4430138 118.3628036  80.4950280  16.0591450 113.3342958
  81.4242340  16.2102609 113.1611925  80.0741310  16.1475471 112.4791604
  79.2938612  20.0842114 111.1041496  79.1549697  19.7160899 111.9767434
  78.5053208  20.5989754 110.9325453  79.8886764  25.1851211 102.4467032
  80.0638519  24.7139254 103.2612655  79.2019552  25.8116977 102.6748293
  80.8443827  19.4623717 108.4930333  80.5093659  19.4224487 109.3887983
  80.3447772  18.7968433 108.0200744  74.8188071  14.8691347 114.0182914
  74.6807869  14.1371586 114.6194454  75.7292994  14.7800247 113.7367102
  83.7803018  16.8079751  98.7667393  83.1632189  16.0826579  98.6700446
  83.3119507  17.5689111  98.4234467  77.4470371  14.5811306 113.5066594
  78.1569990  13.9404498 113.4653213  77.4039679  14.8324201 114.4292775
  85.4357150  21.5178660 116.4273173  85.3769696  20.8337880 115.7603756
  85.8376668  22.2597650 115.9753799  76.1599305  11.5676524 115.3262234
  75.6236662  11.1167263 115.9783830  75.5716014  11.7022433 114.5832698
  74.4547849  28.3340573 109.2206892  74.6944447  28.9659098 109.8985911
  73.6117045  27.9828613 109.5072251  75.5701564  11.0265176  97.8888697
  74.6931031  10.9053976  97.5250944  76.0459317  10.2351254  97.6367586
  85.4374557  19.4818243 114.6587153  84.5501336  19.1444165 114.7813552
  86.0073108  18.7501275 114.8955918  67.0903704  15.8142335 107.9830204
  67.7774744  15.5004065 107.3951220  66.9351833  16.7183700 107.7097456
  71.8938427  10.7032532 112.4115228  71.8096615  10.0958201 111.6765638
  71.0721133  11.1941550 112.4124724  78.9675711  24.1419696 111.6248396
  78.8945882  24.9474667 112.1367701  78.5253104  24.3411662 110.7996418
  78.7565490  23.3791466 105.1351218  77.9733012  23.9213146 105.2289442
  79.4558235  23.8965446 105.5345459  82.0662140   9.1886095 107.7785423
  82.5630840   8.4356058 107.4586493  81.2949122   9.2250412 107.2128632
  89.9191898  14.8926461 109.4203715  89.9081774  15.7751176 109.0497648
  89.0509277  14.5398012 109.2258252  81.4274394  24.0406530 113.7806555
  82.1402366  24.6753995 113.7082456  80.9364423  24.1370396 112.9646557
  83.1491921  17.9457783 105.3523847  82.2148200  18.0659245 105.1828551
  83.3268590  17.0430249 105.0883856  78.6497109  11.3303478 107.5057108
  78.2794897  10.7774519 108.1938013  79.1456202  10.7261612 106.9532108
  86.5364472  13.7875102 105.8873881  87.0024925  14.6203093 105.8134183
  86.9871973  13.3220083 106.5919139  76.4786308  21.7900973 114.6012126
  77.1795767  22.4237456 114.7541520  76.0081423  22.1315705 113.8407765
  84.6040704  20.1318923 102.8860033  84.8800547  20.0175518 103.7953907
  83.7345202  19.7336408 102.8472206  84.5081135   6.1555689 109.9264782
  83.5944215   6.3859916 110.0946989  84.9374237   6.2394133 110.7778814
  84.2787594  14.3445581 112.4264676  83.6259044  14.5921488 111.7717129
  84.6567974  13.5309719 112.0927153  81.2394768  24.3805274 106.5292846
  81.4217162  23.5626930 106.9920599  82.0627754  24.5972966 106.0917736
  81.5736933  23.3073459 103.7907895  82.1024700  22.7965914 103.1778057
  81.8365153  22.9915989 104.6553428  80.3275167  15.0865392 118.9130713
  79.6515804  14.9859521 119.5833088  81.1502801  14.9304606 119.3766710
  72.0754026  21.3237328 111.5343228  72.6607463  20.5781016 111.6671133
  71.8778864  21.6341285 112.4179892  74.9292681  24.3588576 106.5505671
  74.2603056  24.8434703 106.0669711  74.7905551  24.6057796 107.4649049
  66.6671681  13.8942929 110.2547672  66.7055780  13.3606519 111.0484790
  66.1611973  13.3678134 109.6358649  79.0697950  26.3932319 113.1488329
  79.6216258  26.5563941 113.9137414  79.4104143  26.9836757 112.4768354
  74.0462443   8.7407469 113.7510214  74.1103769   9.6022300 113.3387612
  73.9829563   8.1281471 113.0182572  73.5214715  10.8130602 117.3983248
  74.1486754  10.4307679 118.0120772  72.6642634  10.5944804 117.7638941
  83.9208824  21.2193577 119.0036984  84.4648728  21.8323535 118.5091938
  83.3395669  21.7773155 119.5203997  70.2980258  12.6207031 103.3301603
  70.5933699  11.7117709 103.2768657  69.3968294  12.5994770 103.0082605
  82.2066337  24.3414295 110.1352011  82.0817476  23.5404035 109.6262957
  82.8645428  24.8360488 109.6465981  73.8274505  10.6963027 109.3129152
  73.1061091  11.3098995 109.1736625  74.6167761  11.2320792 109.2345797
  84.2701245  22.1423315 111.7631561  83.3231581  22.0228666 111.6909888
  84.6184018  21.2545813 111.8457823  76.6300819   8.0317454 115.5869803
  77.1535220   8.2779750 116.3496113  76.4113152   8.8637489 115.1672941
  72.0268100  10.3021128 103.4540928  71.6980806   9.4218507 103.2716034
  72.3807470  10.2468797 104.3417317  81.2747679  21.9376031 107.9635914
  81.1272641  21.0092739 108.1443484  82.1001172  21.9596122 107.4792989
  75.1409923  10.5894098 103.8216406  75.4805995  11.1180019 103.0995014
  75.5882043  10.9274504 104.5974972  84.8781800  22.7604590 109.0500786
  85.8028348  22.5547451 108.9125237  84.7097104  22.5120991 109.9590128
  77.8353364   8.9731149 113.2719474  77.4950184   8.1738962 113.6740154
  77.1292370   9.2732860 112.6996307  78.4869835   6.0580461 111.7246797
  79.3095905   5.5840940 111.6025687  78.7307899   6.8370945 112.2245483
  77.1278070   9.0868720 102.0209699  77.8486432   9.4649973 101.5173415
  76.5043374   9.8057597 102.1244676  81.2709193   9.7913869 102.9568031
  81.4872807  10.6738507 102.6556859  80.7903260   9.4000082 102.2273673
  76.0108414  12.7499582 109.5338775  75.8652995  13.0639885 110.4263057
  75.5333618  13.3684482 108.9809674  77.8704797   9.7402130 109.5819665
  77.8566366   8.8443223 109.2451963  78.5877225   9.7472794 110.2157951
  79.7230928  10.1739470 111.6272792  79.4648706  11.0956541 111.6257123
  79.1915968   9.7769905 112.3173257  84.6677117  23.2790257 104.4062878
  84.8413994  22.7136680 103.6536730  85.1606008  24.0791152 104.2242368
  70.4854076  15.2904926 112.4726437  69.9407544  16.0664734 112.6046711
  71.3633426  15.6375731 112.3145558  77.2741693   8.6216510 104.8507235
  77.3957604   7.6933156 105.0498123  76.9843735   8.6355196 103.9385551
  80.1432883   6.3071421 107.9873955  80.1654580   6.3710754 107.0325935
  80.5600942   5.4675929 108.1814461  90.5216508  16.0426680 106.0253178
  90.9647654  15.2934005 105.6272301  89.6443018  16.0336817 105.6426910
  85.6552289  22.5957022 101.5059776  86.3503194  23.2163714 101.7247091
  85.9975439  21.7452373 101.7812154  71.2720098  14.4174823 115.3656593
  70.5301834  14.5657458 115.9521224  70.9512843  14.6783088 114.5023343
  87.5543712  20.0456727 103.0347107  88.0795036  20.3844000 102.3096427
  87.4666065  19.1103743 102.8510241  79.2163761  23.9590801 115.1636983
  79.5250887  23.7139948 116.0359683  80.0139243  24.1637439 114.6755854
  79.2384373  26.1128711 107.3942360  78.7989363  25.6205089 108.0875217
  79.9892490  25.5701678 107.1534435  71.7176712  22.3040251 107.3966988
  72.5434732  22.0044023 107.0165632  71.3670764  21.5347874 107.8456777
  76.6858245  21.6566720 109.4664662  76.0638254  20.9937425 109.1666890
  77.3563112  21.6827851 108.7838309  69.9185317  20.2226578 108.3555922
  69.0817225  19.7948752 108.1739923  69.8908962  20.4159021 109.2926713
  76.7582773  10.1348508 119.0597168  76.8070928  11.0110630 118.6774937
  77.3005287   9.5925901 118.4868811  87.2437618  20.6789631 118.3398305
  86.4533162  20.6613770 117.8002804  87.0070973  21.2177925 119.0947341
  87.3635493  17.5282097 115.6531033  87.4133498  17.3632105 116.5946556
  87.2549417  16.6609356 115.2628914  76.2471752  20.2070643 102.9423122
  76.3959872  20.8906107 102.2889795  77.0538195  20.1875733 103.4572578
  84.6539256  13.5113025 116.9690340  85.5549118  13.3719490 116.6774338
  84.7287230  13.6767480 117.9088518  78.9882061  10.8879880 115.8143526
  78.1185370  11.1813446 115.5426115  79.2241541  11.4720325 116.5350790
  88.8653690  19.9479039 115.8973055  88.5738498  20.3109019 116.7336516
  88.2525821  19.2346047 115.7186387  90.0649372  17.5131919 108.4175625
  90.8996264  17.9521723 108.5813185  90.2008501  17.0370572 107.5983871
  87.1140878  15.0711653 114.3653113  87.5895000  15.2639300 113.5571964
  86.1906444  15.1270839 114.1196497  74.0024385  16.2335821 103.9484191
  73.7570427  15.3298151 104.1464401  74.1720300  16.2352971 103.0063669
  81.6921095   7.1059497 113.3308947  82.2103039   7.8420524 113.0055435
  81.3376228   7.4123490 114.1655706  73.2720033  11.9664178 101.4470353
  72.5789277  12.0408533 100.7910389  73.0271784  11.2024522 101.9691870
  81.9433689   3.5259779 108.8509843  82.2235443   2.8582969 109.4770270
  82.7284296   3.7188875 108.3384507  79.7467158  22.7018773 100.4134870
  79.1741125  23.3208961  99.9605342  80.3199951  23.2518135 100.9474792
  85.8142547  11.9477413 112.5981418  86.7659970  12.0475511 112.6193643
  85.6445998  11.1555682 113.1079503  83.8356927   9.0332997 112.7840819
  83.2406859   9.3138009 112.0887308  83.5506624   9.5226898 113.5557561
  82.9664417  22.9855924 101.5443452  83.8995090  22.9201485 101.7476327
  82.8787630  23.8212190 101.0857985  85.5952434  22.3021794  98.5047400
  85.5166066  21.9681657  99.3983157  86.4162101  22.7943562  98.5038872
  88.2930625  15.1683533 111.7123718  88.2606945  14.2299534 111.8983402
  88.9031249  15.2467570 110.9789543  80.1313956  14.0379586  97.7550922
  81.0773061  13.9085794  97.8239340  79.7528201  13.2994248  98.2320350
  88.4425114  11.9594577 111.7582001  87.9264162  11.1753033 111.5711930
  89.3265062  11.6313293 111.9228521  86.1035841   5.7035592 107.7177814
  85.9060662   5.3950680 108.6021146  86.7135546   6.4297231 107.8475744
  94.1107175  16.2299540 110.8529755  94.8410564  15.9684828 111.4137458
  93.5014121  15.4928262 110.8931823  92.1922472  14.3707403 111.4504206
  91.4655636  14.2363368 110.8420698  91.7769759  14.6784231 112.2560924
  80.0152649  18.0897332 119.2151579  80.9355658  18.2675931 119.4091626
  79.9802232  17.1453378 119.0631278  78.3156873  11.9629563  97.6905807
  77.4088329  11.6662675  97.7668521  78.5932854  11.6659381  96.8240094
  69.2334814  13.2835926 108.1404854  68.9137598  12.4301234 107.8479228
  68.6868242  13.4984504 108.8962821  73.0114721  15.9998367 111.8574360
  73.2300731  16.9315475 111.8762394  73.4240495  15.6406341 112.6429164
  79.9318939   6.5066452 103.8450049  79.1219667   6.1613537 104.2205295
  80.6203356   6.1973996 104.4337660  81.8609487   5.5844499 105.4674345
  82.4140526   6.0039952 106.1264368  82.0979574   4.6580247 105.5097301
  77.8842586  11.5731573 121.2477109  77.7839313  12.5225930 121.1789200
  77.6664129  11.2449812 120.3753179  77.0855658   8.8216498  97.8317787
  77.9474822   9.1471396  98.0913604  77.2706002   8.0347994  97.3190852
  69.1023074  16.9038837 110.1097975  68.4086545  16.4892790 109.5967930
  69.8496065  16.9459374 109.5131394  85.2388294   7.6945024 104.9753010
  84.6586963   8.3529828 104.5931062  84.9724227   6.8722369 104.5640427
  83.6891861   7.0950082 107.1774330  84.1891639   7.2066616 106.3688649
  84.3327469   6.7911135 107.8175138  77.7473857  15.0028712 120.0642171
  77.2640938  15.8029072 120.2706060  77.8334796  15.0136656 119.1109615
  71.0159816  16.8357091 107.9863990  70.9930504  16.9344778 107.0345873
  71.3260453  17.6822242 108.3081156  73.6747194  18.8933246 112.1010605
  74.6290448  18.8617189 112.0340536  73.4759718  18.4323870 112.9160831
  74.2646576  17.4634362 114.6681402  75.0839465  17.9578441 114.6916240
  74.5383384  16.5466330 114.6398970  84.0213172   9.8545115 104.0309358
  83.1339027  10.1394765 103.8129553  84.4367161   9.6938878 103.1836635
  87.3727708   9.8791636 107.7463697  88.1488099  10.3688088 108.0188314
  86.6475843  10.3049690 108.2035567  89.8100267  10.5919255 108.8037638
  90.4044758  10.3514991 108.0930946  89.8826851   9.8726385 109.4311174
  72.0297423  24.4352866 109.1180803  71.8951891  23.6753267 108.5518801
  71.6129485  25.1593766 108.6509591  83.1656386  19.6189789  98.1257378
  83.8692236  19.8239792  98.7415033  82.4419035  20.1866551  98.3906461
  83.9954196  15.3699651 104.2459648  83.9389397  15.8268202 103.4067280
  84.5482539  14.6090335 104.0682491  87.8059002  11.1589382 105.0709768
  87.5495936  10.7586018 105.9017975  87.1811870  11.8733176 104.9459907
  92.1171340  13.8985456 107.5781059  91.5570898  13.9678645 108.3512621
  91.5114843  13.7226440 106.8580555  75.1866549  25.3322183 109.3299245
  75.0698933  26.2767615 109.2277935  74.3658995  25.0295744 109.7185044
  85.0743083  20.0572318 100.1755838  85.9088687  19.6253517  99.9933313
  84.9127426  19.8854332 101.1032732  84.7288975  16.5604432 101.5412177
  84.6737779  16.3948703 100.6000621  84.1035031  17.2680465 101.6974367
  69.5181490  11.7972496 115.3673599  70.1640354  11.2871450 115.8560825
  69.3098641  12.5341178 115.9417025  82.0434883  18.8653344 120.8665740
  82.9126042  19.0393996 120.5052375  81.5641634  19.6847760 120.7441469
  78.0385101   6.0612541 101.1197496  78.0263771   7.0054381 101.2765766
  78.9308523   5.8782686 100.8256957  76.2121063  25.9850445 112.5455174
  77.1148309  26.0174055 112.8621669  75.9858433  25.0550896 112.5601509
  77.9674665  24.7381431 109.2065252  77.0170296  24.7383293 109.0929625
  78.2707151  23.9914166 108.6901287  81.8537220   2.6555317 105.3743432
  81.0869616   2.1013804 105.5200115  82.2647925   2.7277186 106.2357584
  93.7027358  30.5741970 110.2711015  94.3405768  30.4548717 109.5674355
  93.5848201  31.5222814 110.3298967  90.5117065  30.5269398 110.2072539
  90.1735576  30.4110462 109.3193074  91.3806833  30.1260563 110.1873545
  86.3703880  32.3804874 106.1969430  85.8068745  32.2894811 105.4285718
  86.2556275  31.5604779 106.6771923  90.9936848  31.6804249 116.1658745
  90.9825488  31.2857048 115.2939249  91.1557487  30.9470322 116.7592516
  83.9168312  33.8756066 109.0353651  84.7089604  33.5346890 108.6199950
  84.1564962  33.9851041 109.9555804  91.9503439  36.0475842 101.5083895
  91.2991419  36.6329922 101.1217909  92.7447802  36.5782037 101.5678933
  85.8759066  33.1364979 101.9071030  86.6489942  32.5893966 101.7683905
  86.2284465  34.0009228 102.1185491  87.7144109  34.4641361 115.1137929
  87.4233975  35.3686992 114.9984595  88.3501093  34.5057889 115.8281998
  88.6400316  31.8418210 111.7039288  89.2363888  31.6174232 110.9896251
  88.6975287  31.1002955 112.3064736  88.2125344  29.2957645  99.5389479
  88.4650865  28.7739166  98.7772942  87.2749903  29.1323791  99.6416163
  93.2568627  28.2993423 107.3464223  94.0431716  27.8812847 106.9954640
  93.5207331  29.2039516 107.5145871  93.4278704  33.7366274 102.0452880
  92.7924537  33.8100900 102.7573784  93.0976111  34.3259873 101.3671959
  98.6577054  28.2368657 108.2497201  99.3902226  27.6667873 108.4835031
  97.9016410  27.8490257 108.6903707  87.9321633  31.1985751 101.7413854
  87.8157891  30.5230654 102.4094939  88.0423893  30.7118125 100.9246007
  90.2753174  30.6595898 105.4460544  89.9111381  30.1326519 106.1573465
  91.1320290  30.2694367 105.2727029  96.1802474  21.9490231 112.7091810
  95.8485799  22.8185642 112.4853025  95.5848088  21.6326515 113.3885840
  89.9158661  25.6885798 100.4421892  90.0833063  26.5566034 100.8092363
  89.7255830  25.8513080  99.5183181  92.6733994  34.1502777 112.1087723
  92.3734717  35.0527816 112.0003530  92.3285053  33.8834960 112.9608875
  86.1246475  30.6016574 108.1424427  85.1996972  30.4692788 108.3502119
  86.3730888  31.3810793 108.6394369  96.0731138  26.6685317 109.7885160
  95.1648015  26.6000725 109.4943921  96.0218733  27.1457262 110.6166985
  89.8947881  28.1443455 101.4268559  89.7747507  28.5900506 102.2654039
  89.2000470  28.4928773 100.8682097  83.4855286  30.2449847 108.9768216
  83.6147667  30.4984326 109.8907628  82.8052738  30.8377555 108.6572871
  87.6554774  40.9147097 105.0758690  87.5778803  41.8654922 105.1547171
  87.0516417  40.5692970 105.7333617  90.1472003  28.0874963 117.7320057
  89.3705337  28.6468883 117.7222922  90.7862566  28.5731745 118.2534927
  97.9392784  24.8701755 111.5663034  97.2967164  25.1634288 110.9202828
  97.4347713  24.7554676 112.3716230  95.5932948  28.6164929 102.2548893
  96.5050804  28.8492315 102.0796591  95.0842595  29.2001973 101.6923972
  88.4018376  30.8960416 117.2938024  89.1433060  31.4345460 117.0172848
  87.6955361  31.5226705 117.4509576  93.8773715  33.0389556 115.8910186
  94.2857071  32.5971967 115.1464818  93.1550977  32.4642184 116.1444379
  90.2304785  27.9762163 113.2643743  91.0765981  28.4001577 113.4078392
  90.1703423  27.3195787 113.9582306  94.2002530  33.5990747 109.6462474
  93.5711392  33.7636461 108.9438542  93.8128192  34.0132357 110.4173439
  98.0791762  34.5345185 107.0006838  97.3942800  34.9144086 106.4503872
  98.1635611  35.1440511 107.7338786  93.3804231  25.6366531 114.9224916
  93.1365163  26.3908592 114.3859192  93.6564161  26.0151879 115.7572163
  95.3342693  32.1805144 113.6002182  95.5459589  32.8236904 112.9236563
  95.2872442  31.3467460 113.1324112  92.9368922  24.7922964 110.5038754
  92.0753401  25.0904218 110.7955492  92.9631357  25.0093363 109.5719787
  89.7530492  33.3365155 106.9112560  90.2168837  33.6152858 106.1217182
  89.4887290  32.4348600 106.7285650  86.6454573  32.8836637 109.8492323
  87.2155930  33.3123905 109.2109807  87.2362685  32.6019221 110.5476509
  88.6899378  29.4588307 103.7202125  89.3923421  29.9109351 104.1876051
  88.3580006  28.8172126 104.3482018  87.1379739  28.0500064 118.0953334
  86.5078400  28.7316345 118.3288731  87.0315827  27.9383146 117.1506472
  82.4324712  27.7171860 109.0219258  81.6423766  27.9729389 108.5459369
  82.9235959  28.5320198 109.1271299  96.4488521  35.0577099 111.7724539
  97.2705965  34.6557287 111.4907221  96.4450924  34.9545333 112.7240655
  84.3839457  28.0816439 105.9802735  83.5870620  28.1935134 106.4986231
  84.1565049  28.4203092 105.1143626  90.2145125  34.6061143 113.9285250
  90.2789557  35.0681550 114.7643421  89.5056049  33.9758507 114.0567559
  80.7162415  27.9702351 111.4534249  80.9670453  28.8549360 111.7191825
  81.2521963  27.7906952 110.6809341 104.5394514  31.4015848 108.1209511
 103.7858223  30.8323246 107.9653515 104.6742056  31.3678512 109.0680145
  89.9293142  36.2729250 103.7964230  89.7938817  37.1180786 104.2249078
  90.4702955  36.4748528 103.0330164  86.4160482  22.3520830 120.4578585
  86.0227428  21.7987028 121.1326229  87.2326622  22.6631408 120.8485103
  83.3822540  33.7904688 104.3692155  83.8947060  34.5847938 104.5197720
  84.0345253  33.0930979 104.3025757  85.1917425  36.9070444 106.4514908
  85.3684053  37.8288409 106.2635892  85.9874258  36.5928864 106.8809288
  89.3328443  23.7678709 118.0498842  90.0738157  24.3685862 117.9703304
  89.5646366  23.0256347 117.4916884  84.4769781  28.9535076 116.3277071
  84.3623296  28.0520333 116.6284170  83.6214299  29.1998773 115.9761888
  91.5561619  36.8952817 117.9264572  91.1125473  36.1089195 117.6085477
  92.2178832  37.0831967 117.2608463  86.3148740  38.4248618 112.4525251
  86.8656165  38.2965681 111.6802244  85.4760216  38.7243507 112.1020143
  93.6542857  37.1755616 115.9545973  93.6361332  37.9964498 115.4626242
  94.5762777  37.0509692 116.1796114  90.1115911  34.6899746 116.7969482
  90.6444248  33.9288034 116.5668790  89.5829992  34.3973398 117.5393636
  93.2785606  19.7959812 112.3263123  92.9349875  20.6861454 112.2502234
  93.6464569  19.6061470 111.4632708  81.3471457  32.1193342 105.1451726
  82.1846679  32.5290351 104.9285433  81.5249724  31.1792785 105.1151919
  93.2435889  29.7868423 100.8335559  92.7282512  30.5573028 101.0723946
  92.9713197  29.1133559 101.4568620  90.8283000  24.6318124 105.8920797
  89.9724596  24.2424974 105.7126436  91.2409952  24.7110085 105.0320582
  92.3582146  22.1664467 110.2912357  91.8546942  22.1294602 109.4780162
  92.6512753  23.0757210 110.3509013  88.6025032  22.2503197 109.2978538
  89.4678029  22.0546005 108.9384428  88.6702541  22.0213549 110.2247895
  98.2170163  32.5400778 102.7688732  97.4399606  32.2011937 102.3243894
  98.8961644  32.5453401 102.0943697  93.0322192  27.6595515 102.6595340
  92.7272328  27.9741664 103.5105483  93.9852634  27.7376935 102.7022673
  91.4768624  33.8185738 104.3088294  90.9489985  33.0838498 103.9961531
  90.9756127  34.5960415 104.0628262  96.4561470  32.0134759 109.4255340
  95.7985144  32.7034020 109.5135469  97.2601869  32.4031191 109.7689326
  86.2087351  24.4805405 106.6694905  86.7831103  24.2580586 105.9368098
  86.7958334  24.5494099 107.4223507  95.2666929  30.3679132 107.4759282
  95.7798810  31.0009123 107.9780991  95.9168153  29.7680327 107.1102642
  86.5356939  26.5109866 100.6890790  85.6994251  26.8484552 101.0100065
  86.3961708  26.3758846  99.7517927  88.5110019  21.3546654 105.3969975
  87.8574431  21.0395671 104.7726589  88.4690493  20.7322394 106.1229798
  89.6221224  31.6365949  97.3123267  88.7148286  31.4055202  97.5114416
  90.1192256  30.8403568  97.4997248  92.5289303  40.3463456 100.2319953
  91.8551002  40.6495153 100.8404911  92.9155125  41.1492536  99.8825410
  91.7447759  27.8428587 109.7217622  90.8270321  28.0643534 109.5639310
  92.1607903  27.9174898 108.8629330  92.5282807  29.2420003 104.8520303
  93.2754626  29.7541400 104.5427425  92.7974397  28.9204056 105.7124696
  90.8009457  31.7378544 101.8347257  89.8920677  31.4537576 101.9319727
  90.8304541  32.1577622 100.9750564  96.0328725  35.3485133 105.6038424
  95.5791052  34.5076043 105.6603615  95.4022692  35.9846531 105.9413205
  94.9761644  26.2777119 106.8339092  94.2384401  25.7654505 107.1649334
  95.2288418  25.8377501 106.0222369  94.4761664  37.1861630 106.5388243
  94.7684638  37.7466687 105.8200608  94.9860285  37.4790191 107.2941402
  95.0773272  19.0553371 107.4280861  95.3832149  18.1950735 107.1406776
  95.8025877  19.6470991 107.2279855  81.3697628  29.4584058 105.8162459
  81.1722028  28.8653418 105.0913526  80.8144292  29.1536268 106.5338398
  89.3494351  29.3507164 107.9357052  89.4042961  28.3981001 107.8599529
  88.5385553  29.5066603 108.4198351  90.4985545  33.2787287  99.1735335
  90.0604975  32.5623146  98.7140973  91.2395986  33.5063402  98.6120427
  87.2886711  27.9684224 105.6947431  86.4754577  28.2678394 106.1012623
  87.7845706  27.5739913 106.4121913  89.4395289  37.9641981 107.6281696
  89.3971468  38.1902827 106.6990228  90.3557988  37.7305355 107.7767497
  92.8860923  28.4326048 114.5262325  93.2410311  28.6597522 115.3856791
  93.5333054  28.7644425 113.9039580  98.6158660  31.5544484 105.2311654
  98.4776559  31.7446080 104.3032843  98.2594879  32.3163867 105.6879705
  86.7800786  25.5402579 111.3108666  87.4200165  25.3991339 110.6131629
  85.9478317  25.2537093 110.9347268  98.6428040  33.6221011 110.2422925
  99.0764546  33.5296300 111.0905979  99.3559620  33.5978512 109.6042941
  87.5561090  34.8405010 107.4243658  88.3501689  34.3455330 107.2226233
  86.8452782  34.3122873 107.0611364  92.3755935  37.2223105 111.7756026
  92.4292957  37.7914042 112.5433742  91.5070716  37.3924990 111.4110063
  83.8643854  28.9848092 103.5003411  82.9341442  28.9232547 103.7173373
  83.9601326  28.4624044 102.7040052  83.7829403  25.5102904 106.0881653
  84.0436220  26.4248238 105.9790813  84.6046575  25.0427347 106.2378266
  85.2554328  26.9240662 113.2580477  85.9277381  26.7158024 112.6093126
  84.4284114  26.7262748 112.8185710  99.5043589  33.6644712 112.7755811
  99.6979479  34.5690522 113.0215086  99.4044207  33.2052131 113.6094396
  91.1579900  23.5502603 115.2746138  90.5107815  24.2492552 115.1810615
  91.9280915  23.9838746 115.6422386  94.5658698  33.8151455 118.3496691
  94.4144204  33.5862006 117.4326775  94.5563377  34.7722056 118.3628036
  91.3344034  31.3883367 113.3342958  92.2636094  31.5394527 113.1611925
  90.9135064  31.4767388 112.4791604  90.1332366  35.4134032 111.1041496
  89.9943452  35.0452816 111.9767434  89.3446962  35.9281671 110.9325453
  90.7280518  40.5143128 102.4467032  90.9032274  40.0431172 103.2612655
  90.0413306  41.1408895 102.6748293  91.6837581  34.7915635 108.4930333
  91.3487414  34.7516405 109.3887983  91.1841527  34.1260350 108.0200744
  85.6581825  30.1983265 114.0182914  85.5201623  29.4663503 114.6194454
  86.5686749  30.1092165 113.7367102  94.6196773  32.1371669  98.7667393
  94.0025943  31.4118497  98.6700446  94.1513261  32.8981029  98.4234467
  88.2864126  29.9103224 113.5066594  88.9963744  29.2696416 113.4653213
  88.2433434  30.1616119 114.4292775  96.2750905  36.8470577 116.4273173
  96.2163451  36.1629797 115.7603756  96.6770423  37.5889567 115.9753799
  86.9993060  26.8968442 115.3262234  86.4630417  26.4459180 115.9783830
  86.4109768  27.0314351 114.5832698  85.2941603  43.6632491 109.2206892
  85.5338202  44.2951015 109.8985911  84.4510800  43.3120531 109.5072251
  86.4095319  26.3557093  97.8888697  85.5324785  26.2345894  97.5250944
  86.8853072  25.5643171  97.6367586  96.2768312  34.8110161 114.6587153
  95.3895091  34.4736083 114.7813552  96.8466863  34.0793192 114.8955918
  77.9297459  31.1434253 107.9830204  78.6168499  30.8295983 107.3951220
  77.7745588  32.0475618 107.7097456  82.7332181  26.0324449 112.4115228
  82.6490370  25.4250119 111.6765638  81.9114887  26.5233468 112.4124724
  89.8069465  39.4711614 111.6248396  89.7339637  40.2766585 112.1367701
  89.3646858  39.6703579 110.7996418  89.5959245  38.7083384 105.1351218
  88.8126767  39.2505064 105.2289442  90.2951990  39.2257363 105.5345459
  92.9055895  24.5178013 107.7785423  93.4024594  23.7647975 107.4586493
  92.1342876  24.5542330 107.2128632 100.7585652  30.2218379 109.4203715
 100.7475529  31.1043094 109.0497648  99.8903032  29.8689929 109.2258252
  92.2668149  39.3698448 113.7806555  92.9796121  40.0045912 113.7082456
  91.7758177  39.4662314 112.9646557  93.9885676  33.2749700 105.3523847
  93.0541954  33.3951163 105.1828551  94.1662344  32.3722167 105.0883856
  89.4890864  26.6595396 107.5057108  89.1188651  26.1066436 108.1938013
  89.9849956  26.0553529 106.9532108  97.3758227  29.1167020 105.8873881
  97.8418679  29.9495011 105.8134183  97.8265727  28.6512001 106.5919139
  87.3180062  37.1192891 114.6012126  88.0189522  37.7529374 114.7541520
  86.8475177  37.4607623 113.8407765  95.4434458  35.4610841 102.8860033
  95.7194302  35.3467435 103.7953907  94.5738957  35.0628326 102.8472206
  95.3474890  21.4847606 109.9264782  94.4337969  21.7151833 110.0946989
  95.7767991  21.5686051 110.7778814  95.1181348  29.6737498 112.4264676
  94.4652798  29.9213406 111.7717129  95.4961728  28.8601637 112.0927153
  92.0788522  39.7097192 106.5292846  92.2610917  38.8918848 106.9920599
  92.9021508  39.9264884 106.0917736  92.4130688  38.6365377 103.7907895
  92.9418454  38.1257831 103.1778057  92.6758907  38.3207907 104.6553428
  91.1668921  30.4157310 118.9130713  90.4909558  30.3151439 119.5833088
  91.9896555  30.2596523 119.3766710  82.9147780  36.6529246 111.5343228
  83.5001217  35.9072934 111.6671133  82.7172619  36.9633203 112.4179892
  85.7686436  39.6880493 106.5505671  85.0996811  40.1726621 106.0669711
  85.6299305  39.9349714 107.4649049  77.5065435  29.2234846 110.2547672
  77.5449535  28.6898437 111.0484790  77.0005728  28.6970052 109.6358649
  89.9091704  41.7224237 113.1488329  90.4610012  41.8855858 113.9137414
  90.2497898  42.3128675 112.4768354  84.8856197  24.0699387 113.7510214
  84.9497524  24.9314218 113.3387612  84.8223318  23.4573388 113.0182572
  84.3608470  26.1422519 117.3983248  84.9880509  25.7599597 118.0120772
  83.5036389  25.9236721 117.7638941  94.7602578  36.5485494 119.0036984
  95.3042482  37.1615453 118.5091938  94.1789423  37.1065073 119.5203997
  81.1374013  27.9498948 103.3301603  81.4327454  27.0409627 103.2768657
  80.2362048  27.9286688 103.0082605  93.0460091  39.6706212 110.1352011
  92.9211231  38.8695952 109.6262957  93.7039182  40.1652406 109.6465981
  84.6668260  26.0254945 109.3129152  83.9454845  26.6390913 109.1736625
  85.4561515  26.5612710 109.2345797  95.1095000  37.4715233 111.7631561
  94.1625335  37.3520584 111.6909888  95.4577773  36.5837731 111.8457823
  87.4694573  23.3609372 115.5869803  87.9928975  23.6071668 116.3496113
  87.2506906  24.1929406 115.1672941  82.8661854  25.6313046 103.4540928
  82.5374560  24.7510425 103.2716034  83.2201225  25.5760715 104.3417317
  92.1141433  37.2667949 107.9635914  91.9666395  36.3384656 108.1443484
  92.9394927  37.2888040 107.4792989  85.9803677  25.9186016 103.8216406
  86.3199750  26.4471937 103.0995014  86.4275798  26.2566422 104.5974972
  95.7175555  38.0896508 109.0500786  96.6422102  37.8839369 108.9125237
  95.5490858  37.8412909 109.9590128  88.6747118  24.3023067 113.2719474
  88.3343939  23.5030880 113.6740154  87.9686124  24.6024777 112.6996307
  89.3263590  21.3872379 111.7246797  90.1489659  20.9132857 111.6025687
  89.5701654  22.1662863 112.2245483  87.9671824  24.4160637 102.0209699
  88.6880187  24.7941890 101.5173415  87.3437129  25.1349514 102.1244676
  92.1102947  25.1205786 102.9568031  92.3266562  26.0030424 102.6556859
  91.6297015  24.7292000 102.2273673  86.8502169  28.0791500 109.5338775
  86.7046749  28.3931803 110.4263057  86.3727372  28.6976400 108.9809674
  88.7098552  25.0694048 109.5819665  88.6960120  24.1735141 109.2451963
  89.4270980  25.0764711 110.2157951  90.5624682  25.5031388 111.6272792
  90.3042460  26.4248459 111.6257123  90.0309723  25.1061822 112.3173257
  95.5070871  38.6082175 104.4062878  95.6807749  38.0428597 103.6536730
  95.9999762  39.4083070 104.2242368  81.3247831  30.6196844 112.4726437
  80.7801299  31.3956652 112.6046711  82.2027181  30.9667649 112.3145558
  88.1135448  23.9508428 104.8507235  88.2351359  23.0225074 105.0498123
  87.8237490  23.9647114 103.9385551  90.9826638  21.6363338 107.9873955
  91.0048335  21.7002671 107.0325935  91.3994697  20.7967847 108.1814461
 101.3610262  31.3718598 106.0253178 101.8041408  30.6225923 105.6272301
 100.4836773  31.3628734 105.6426910  96.4946044  37.9248939 101.5059776
  97.1896948  38.5455632 101.7247091  96.8369194  37.0744291 101.7812154
  82.1113853  29.7466740 115.3656593  81.3695589  29.8949376 115.9521224
  81.7906597  30.0075006 114.5023343  98.3937467  35.3748645 103.0347107
  98.9188791  35.7135918 102.3096427  98.3059819  34.4395660 102.8510241
  90.0557515  39.2882719 115.1636983  90.3644642  39.0431865 116.0359683
  90.8532997  39.4929357 114.6755854  90.0778127  41.4420628 107.3942360
  89.6383118  40.9497007 108.0875217  90.8286244  40.8993596 107.1534435
  82.5570466  37.6332169 107.3966988  83.3828486  37.3335941 107.0165632
  82.2064518  36.8639791 107.8456777  87.5252000  36.9858637 109.4664662
  86.9032009  36.3229342 109.1666890  88.1956867  37.0119769 108.7838309
  80.7579071  35.5518496 108.3555922  79.9210980  35.1240670 108.1739923
  80.7302717  35.7450939 109.2926713  87.5976527  25.4640425 119.0597168
  87.6464683  26.3402548 118.6774937  88.1399041  24.9217818 118.4868811
  98.0831373  36.0081549 118.3398305  97.2926916  35.9905687 117.8002804
  97.8464727  36.5469842 119.0947341  98.2029248  32.8574015 115.6531033
  98.2527253  32.6924022 116.5946556  98.0943171  31.9901274 115.2628914
  87.0865507  35.5362561 102.9423122  87.2353627  36.2198025 102.2889795
  87.8931950  35.5167651 103.4572578  95.4933010  28.8404943 116.9690340
  96.3942873  28.7011408 116.6774338  95.5680985  29.0059398 117.9088518
  89.8275816  26.2171798 115.8143526  88.9579125  26.5105364 115.5426115
  90.0635296  26.8012243 116.5350790  99.7047445  35.2770956 115.8973055
  99.4132253  35.6400937 116.7336516  99.0919576  34.5637965 115.7186387
 100.9043127  32.8423836 108.4175625 101.7390018  33.2813640 108.5813185
 101.0402256  32.3662489 107.5983871  97.9534633  30.4003571 114.3653113
  98.4288754  30.5931217 113.5571964  97.0300198  30.4562757 114.1196497
  84.8418140  31.5627738 103.9484191  84.5964181  30.6590068 104.1464401
  85.0114054  31.5644889 103.0063669  92.5314849  22.4351415 113.3308947
  93.0496793  23.1712442 113.0055435  92.1769982  22.7415408 114.1655706
  84.1113787  27.2956096 101.4470353  83.4183032  27.3700451 100.7910389
  83.8665539  26.5316439 101.9691870  92.7827444  18.8551697 108.8509843
  93.0629197  18.1874886 109.4770270  93.5678050  19.0480793 108.3384507
  90.5860912  38.0310691 100.4134870  90.0134879  38.6500878  99.9605342
  91.1593706  38.5810053 100.9474792  96.6536302  27.2769331 112.5981418
  97.6053725  27.3767429 112.6193643  96.4839752  26.4847600 113.1079503
  94.6750681  24.3624914 112.7840819  94.0800613  24.6429927 112.0887308
  94.3900378  24.8518815 113.5557561  93.8058172  38.3147841 101.5443452
  94.7388845  38.2493403 101.7476327  93.7181385  39.1504108 101.0857985
  96.4346189  37.6313712  98.5047400  96.3559820  37.2973575  99.3983157
  97.2555855  38.1235479  98.5038872  99.1324380  30.4975451 111.7123718
  99.1000700  29.5591452 111.8983402  99.7425003  30.5759488 110.9789543
  90.9707711  29.3671504  97.7550922  91.9166815  29.2377712  97.8239340
  90.5921955  28.6286166  98.2320350  99.2818868  27.2886494 111.7582001
  98.7657917  26.5044951 111.5711930 100.1658817  26.9605211 111.9228521
  96.9429595  21.0327510 107.7177814  96.7454416  20.7242598 108.6021146
  97.5529301  21.7589149 107.8475744 104.9500930  31.5591458 110.8529755
 105.6804318  31.2976746 111.4137458 104.3407875  30.8220180 110.8931823
 103.0316227  29.6999320 111.4504206 102.3049390  29.5655285 110.8420698
 102.6163514  30.0076149 112.2560924  90.8546403  33.4189250 119.2151579
  91.7749413  33.5967849 119.4091626  90.8195986  32.4745295 119.0631278
  89.1550628  27.2921480  97.6905807  88.2482083  26.9954593  97.7668521
  89.4326609  26.9951298  96.8240094  80.0728568  28.6127844 108.1404854
  79.7531352  27.7593152 107.8479228  79.5261996  28.8276422 108.8962821
  83.8508476  31.3290285 111.8574360  84.0694485  32.2607392 111.8762394
  84.2634249  30.9698259 112.6429164  90.7712693  21.8358370 103.8450049
  89.9613422  21.4905455 104.2205295  91.4597110  21.5265914 104.4337660
  92.7003242  20.9136417 105.4674345  93.2534280  21.3331870 106.1264368
  92.9373328  19.9872165 105.5097301  88.7236341  26.9023490 121.2477109
  88.6233068  27.8517847 121.1789200  88.5057883  26.5741729 120.3753179
  87.9249412  24.1508415  97.8317787  88.7868576  24.4763314  98.0913604
  88.1099756  23.3639911  97.3190852  79.9416828  32.2330755 110.1097975
  79.2480300  31.8184708 109.5967930  80.6889819  32.2751292 109.5131394
  96.0782049  23.0236942 104.9753010  95.4980718  23.6821746 104.5931062
  95.8117981  22.2014286 104.5640427  94.5285615  22.4242000 107.1774330
  95.0285394  22.5358534 106.3688649  95.1721223  22.1203052 107.8175138
  88.5867611  30.3320629 120.0642171  88.1034693  31.1320989 120.2706060
  88.6728550  30.3428574 119.1109615  81.8553571  32.1649009 107.9863990
  81.8324259  32.2636696 107.0345873  82.1654207  33.0114160 108.3081156
  84.5140948  34.2225164 112.1010605  85.4684202  34.1909106 112.0340536
  84.3153472  33.7615788 112.9160831  85.1040331  32.7926280 114.6681402
  85.9233220  33.2870359 114.6916240  85.3777138  31.8758248 114.6398970
  94.8606927  25.1837032 104.0309358  93.9732782  25.4686683 103.8129553
  95.2760916  25.0230796 103.1836635  98.2121463  25.2083553 107.7463697
  98.9881853  25.6980006 108.0188314  97.4869597  25.6341607 108.2035567
 100.6494022  25.9211172 108.8037638 101.2438512  25.6806908 108.0930946
 100.7220605  25.2018303 109.4311174  82.8691177  39.7644783 109.1180803
  82.7345645  39.0045184 108.5518801  82.4523240  40.4885683 108.6509591
  94.0050140  34.9481707  98.1257378  94.7085990  35.1531709  98.7415033
  93.2812789  35.5158469  98.3906461  94.8347951  30.6991568 104.2459648
  94.7783152  31.1560120 103.4067280  95.3876293  29.9382253 104.0682491
  98.6452756  26.4881300 105.0709768  98.3889691  26.0877936 105.9017975
  98.0205625  27.2025094 104.9459907 102.9565094  29.2277373 107.5781059
 102.3964652  29.2970563 108.3512621 102.3508598  29.0518358 106.8580555
  86.0260303  40.6614100 109.3299245  85.9092687  41.6059533 109.2277935
  85.2052749  40.3587662 109.7185044  95.9136838  35.3864236 100.1755838
  96.7482442  34.9545435  99.9933313  95.7521181  35.2146250 101.1032732
  95.5682730  31.8896349 101.5412177  95.5131534  31.7240621 100.6000621
  94.9428785  32.5972382 101.6974367  80.3575245  27.1264414 115.3673599
  81.0034108  26.6163368 115.8560825  80.1492396  27.8633095 115.9417025
  92.8828637  34.1945261 120.8665740  93.7519797  34.3685914 120.5052375
  92.4035389  35.0139678 120.7441469  88.8778855  21.3904458 101.1197496
  88.8657525  22.3346298 101.2765766  89.7702277  21.2074604 100.8256957
  87.0514817  41.3142362 112.5455174  87.9542064  41.3465973 112.8621669
  86.8252187  40.3842813 112.5601509  88.8068419  40.0673349 109.2065252
  87.8564050  40.0675210 109.0929625  89.1100905  39.3206083 108.6901287
  92.6930975  17.9847235 105.3743432  91.9263371  17.4305722 105.5200115
  93.1041680  18.0569104 106.2357584  84.6972736  24.2732031 119.4648614
  85.5604197  23.9168836 119.6751938  84.1238147  23.9345926 120.1524018
 104.5421113  45.9033887 110.2711015 105.1799523  45.7840635 109.5674355
 104.4241956  46.8514731 110.3298967 101.3510819  45.8561315 110.2072539
 101.0129331  45.7402380 109.3193074 102.2200587  45.4552480 110.1873545
  97.2097635  47.7096792 106.1969430  96.6462500  47.6186729 105.4285718
  97.0950030  46.8896696 106.6771923 101.8330602  47.0096167 116.1658745
 101.8219243  46.6148965 115.2939249 101.9951242  46.2762240 116.7592516
  94.7562067  49.2047983 109.0353651  95.5483359  48.8638808 108.6199950
  94.9958717  49.3142958 109.9555804 102.7897193  51.3767759 101.5083895
 102.1385173  51.9621840 101.1217909 103.5841556  51.9073954 101.5678933
  96.7152821  48.4656897 101.9071030  97.4883697  47.9185884 101.7683905
  97.0678220  49.3301146 102.1185491  98.5537863  49.7933279 115.1137929
  98.2627729  50.6978910 114.9984595  99.1894848  49.8349807 115.8281998
  99.4794070  47.1710127 111.7039288 100.0757642  46.9466150 110.9896251
  99.5369042  46.4294873 112.3064736  99.0519098  44.6249563  99.5389479
  99.3044619  44.1031084  98.7772942  98.1143658  44.4615708  99.6416163
 104.0962381  43.6285341 107.3464223 104.8825470  43.2104764 106.9954640
 104.3601086  44.5331433 107.5145871 104.2672459  49.0658191 102.0452880
 103.6318292  49.1392818 102.7573784 103.9369865  49.6551790 101.3671959
 109.4970808  43.5660574 108.2497201 110.2295980  42.9959791 108.4835031
 108.7410164  43.1782175 108.6903707  98.7715387  46.5277669 101.7413854
  98.6551645  45.8522572 102.4094939  98.8817647  46.0410043 100.9246007
 101.1146928  45.9887816 105.4460544 100.7505135  45.4618437 106.1573465
 101.9714044  45.5986285 105.2727029 107.0196229  37.2782148 112.7091810
 106.6879554  38.1477559 112.4853025 106.4241842  36.9618432 113.3885840
 100.7552415  41.0177715 100.4421892 100.9226817  41.8857952 100.8092363
 100.5649584  41.1804997  99.5183181 103.5127748  49.4794694 112.1087723
 103.2128471  50.3819733 112.0003530 103.1678808  49.2126878 112.9608875
  96.9640230  45.9308491 108.1424427  96.0390726  45.7984705 108.3502119
  97.2124643  46.7102710 108.6394369 106.9124892  41.9977235 109.7885160
 106.0041769  41.9292643 109.4943921 106.8612488  42.4749180 110.6166985
 100.7341636  43.4735373 101.4268559 100.6141261  43.9192424 102.2654039
 100.0394224  43.8220691 100.8682097  94.3249041  45.5741765 108.9768216
  94.4541422  45.8276244 109.8907628  93.6446492  46.1669473 108.6572871
  98.4948528  56.2439015 105.0758690  98.4172558  57.1946840 105.1547171
  97.8910172  55.8984887 105.7333617 100.9865758  43.4166880 117.7320057
 100.2099092  43.9760800 117.7222922 101.6256321  43.9023663 118.2534927
 108.7786538  40.1993673 111.5663034 108.1360919  40.4926206 110.9202828
 108.2741467  40.0846593 112.3716230 106.4326702  43.9456846 102.2548893
 107.3444558  44.1784233 102.0796591 105.9236349  44.5293890 101.6923972
  99.2412130  46.2252334 117.2938024  99.9826815  46.7637378 117.0172848
  98.5349116  46.8518622 117.4509576 104.7167470  48.3681474 115.8910186
 105.1250826  47.9263885 115.1464818 103.9944731  47.7934102 116.1444379
 101.0698540  43.3054081 113.2643743 101.9159735  43.7293494 113.4078392
 101.0097178  42.6487705 113.9582306 105.0396284  48.9282665 109.6462474
 104.4105147  49.0928379 108.9438542 104.6521947  49.3424274 110.4173439
 108.9185516  49.8637102 107.0006838 108.2336554  50.2436004 106.4503872
 109.0029366  50.4732429 107.7338786 104.2197985  40.9658449 114.9224916
 103.9758917  41.7200510 114.3859192 104.4957916  41.3443797 115.7572163
 106.1736448  47.5097062 113.6002182 106.3853343  48.1528821 112.9236563
 106.1266196  46.6759378 113.1324112 103.7762677  40.1214882 110.5038754
 102.9147156  40.4196136 110.7955492 103.8025112  40.3385281 109.5719787
 100.5924246  48.6657073 106.9112560 101.0562592  48.9444776 106.1217182
 100.3281044  47.7640517 106.7285650  97.4848327  48.2128554 109.8492323
  98.0549684  48.6415823 109.2109807  98.0756439  47.9311139 110.5476509
  99.5293132  44.7880225 103.7202125 100.2317176  45.2401269 104.1876051
  99.1973761  44.1464044 104.3482018  97.9773494  43.3791982 118.0953334
  97.3472154  44.0608263 118.3288731  97.8709582  43.2675063 117.1506472
  93.2718466  43.0463778 109.0219258  92.4817520  43.3021306 108.5459369
  93.7629714  43.8612116 109.1271299 107.2882276  50.3869017 111.7724539
 108.1099720  49.9849204 111.4907221 107.2844679  50.2837251 112.7240655
  95.2233212  43.4108357 105.9802735  94.4264375  43.5227051 106.4986231
  94.9958804  43.7495009 105.1143626 101.0538879  49.9353060 113.9285250
 101.1183312  50.3973467 114.7643421 100.3449803  49.3050425 114.0567559
  91.5556169  43.2994268 111.4534249  91.8064208  44.1841278 111.7191825
  92.0915718  43.1198870 110.6809341 115.3788269  46.7307765 108.1209511
 114.6251977  46.1615163 107.9653515 115.5135810  46.6970430 109.0680145
 100.7686897  51.6021168 103.7964230 100.6332572  52.4472703 104.2249078
 101.3096709  51.8040445 103.0330164  97.2554237  37.6812748 120.4578585
  96.8621182  37.1278946 121.1326229  98.0720377  37.9923326 120.8485103
  94.2216294  49.1196606 104.3692155  94.7340815  49.9139856 104.5197720
  94.8739007  48.4222896 104.3025757  96.0311179  52.2362362 106.4514908
  96.2077807  53.1580327 106.2635892  96.8268013  51.9220781 106.8809288
 100.1722198  39.0970627 118.0498842 100.9131911  39.6977780 117.9703304
 100.4040120  38.3548264 117.4916884  95.3163536  44.2826994 116.3277071
  95.2017051  43.3812251 116.6284170  94.4608053  44.5290691 115.9761888
 102.3955373  52.2244734 117.9264572 101.9519228  51.4381113 117.6085477
 103.0572587  52.4123885 117.2608463  97.1542495  53.7540536 112.4525251
  97.7049920  53.6257599 111.6802244  96.3153970  54.0535425 112.1020143
 104.4936611  52.5047534 115.9545973 104.4755087  53.3256415 115.4626242
 105.4156531  52.3801609 116.1796114 100.9509666  50.0191664 116.7969482
 101.4838002  49.2579952 116.5668790 100.4223747  49.7265315 117.5393636
 104.1179361  35.1251730 112.3263123 103.7743630  36.0153371 112.2502234
 104.4858323  34.9353387 111.4632708  92.1865211  47.4485260 105.1451726
  93.0240433  47.8582268 104.9285433  92.3643479  46.5084702 105.1151919
 104.0829643  45.1160341 100.8335559 103.5676267  45.8864945 101.0723946
 103.8106952  44.4425477 101.4568620 101.6676754  39.9610041 105.8920797
 100.8118351  39.5716892 105.7126436 102.0803706  40.0402002 105.0320582
 103.1975901  37.4956385 110.2912357 102.6940697  37.4586520 109.4780162
 103.4906508  38.4049127 110.3509013  99.4418787  37.5795114 109.2978538
 100.3071784  37.3837923 108.9384428  99.5096296  37.3505466 110.2247895
 109.0563917  47.8692695 102.7688732 108.2793360  47.5303855 102.3243894
 109.7355398  47.8745319 102.0943697 103.8715946  42.9887433 102.6595340
 103.5666082  43.3033582 103.5105483 104.8246389  43.0668853 102.7022673
 102.3162378  49.1477656 104.3088294 101.7883740  48.4130416 103.9961531
 101.8149881  49.9252332 104.0628262 107.2955224  47.3426677 109.4255340
 106.6378899  48.0325938 109.5135469 108.0995624  47.7323109 109.7689326
  97.0481106  39.8097322 106.6694905  97.6224858  39.5872504 105.9368098
  97.6352088  39.8786017 107.4223507 106.1060683  45.6971049 107.4759282
 106.6192565  46.3301041 107.9780991 106.7561907  45.0972245 107.1102642
  97.3750693  41.8401783 100.6890790  96.5388005  42.1776470 101.0100065
  97.2355463  41.7050763  99.7517927  99.3503774  36.6838571 105.3969975
  98.6968186  36.3687588 104.7726589  99.3084248  36.0614312 106.1229798
 100.4614978  46.9657866  97.3123267  99.5542040  46.7347120  97.5114416
 100.9586010  46.1695486  97.4997248 103.3683057  55.6755374 100.2319953
 102.6944756  55.9787070 100.8404911 103.7548879  56.4784454  99.8825410
 102.5841514  43.1720505 109.7217622 101.6664075  43.3935452 109.5639310
 103.0001658  43.2466815 108.8629330 103.3676562  44.5711921 104.8520303
 104.1148381  45.0833318 104.5427425 103.6368151  44.2495973 105.7124696
 101.6403212  47.0670461 101.8347257 100.7314431  46.7829494 101.9319727
 101.6698296  47.4869540 100.9750564 106.8722479  50.6777051 105.6038424
 106.4184806  49.8367961 105.6603615 106.2416446  51.3138449 105.9413205
 105.8155399  41.6069037 106.8339092 105.0778156  41.0946423 107.1649334
 106.0682172  41.1669418 106.0222369 105.3155419  52.5153547 106.5388243
 105.6078393  53.0758605 105.8200608 105.8254039  52.8082108 107.2941402
 105.9167026  34.3845289 107.4280861 106.2225903  33.5242652 107.1406776
 106.6419631  34.9762909 107.2279855  92.2091382  44.7875975 105.8162459
  92.0115782  44.1945336 105.0913526  91.6538046  44.4828186 106.5338398
 100.1888106  44.6799082 107.9357052 100.2436716  43.7272918 107.8599529
  99.3779308  44.8358521 108.4198351 101.3379300  48.6079205  99.1735335
 100.8998730  47.8915064  98.7140973 102.0789741  48.8355320  98.6120427
  98.1280466  43.2976142 105.6947431  97.3148331  43.5970312 106.1012623
  98.6239460  42.9031830 106.4121913 100.2789044  53.2933899 107.6281696
 100.2365223  53.5194745 106.6990228 101.1951743  53.0597273 107.7767497
 103.7254678  43.7617966 114.5262325 104.0804065  43.9889439 115.3856791
 104.3726809  44.0936343 113.9039580 109.4552415  46.8836402 105.2311654
 109.3170313  47.0737998 104.3032843 109.0988633  47.6455785 105.6879705
  97.6194541  40.8694497 111.3108666  98.2593920  40.7283256 110.6131629
  96.7872071  40.5829011 110.9347268 109.4821794  48.9512929 110.2422925
 109.9158301  48.8588218 111.0905979 110.1953375  48.9270429 109.6042941
  98.3954845  50.1696928 107.4243658  99.1895443  49.6747248 107.2226233
  97.6846537  49.6414791 107.0611364 103.2149689  52.5515023 111.7756026
 103.2686711  53.1205959 112.5433742 102.3464470  52.7216908 111.4110063
  94.7037608  44.3140009 103.5003411  93.7735196  44.2524465 103.7173373
  94.7995080  43.7915962 102.7040052  94.6223157  40.8394822 106.0881653
  94.8829974  41.7540155 105.9790813  95.4440329  40.3719265 106.2378266
  96.0948082  42.2532579 113.2580477  96.7671136  42.0449941 112.6093126
  95.2677869  42.0554665 112.8185710 110.3437344  48.9936630 112.7755811
 110.5373234  49.8982440 113.0215086 110.2437962  48.5344049 113.6094396
 101.9973654  38.8794520 115.2746138 101.3501569  39.5784470 115.1810615
 102.7674670  39.3130664 115.6422386 105.4052452  49.1443372 118.3496691
 105.2537959  48.9153924 117.4326775 105.3957132  50.1013974 118.3628036
 102.1737789  46.7175285 113.3342958 103.1029849  46.8686445 113.1611925
 101.7528819  46.8059306 112.4791604 100.9726121  50.7425950 111.1041496
 100.8337206  50.3744734 111.9767434 100.1840717  51.2573589 110.9325453
 101.5674273  55.8435046 102.4467032 101.7426028  55.3723089 103.2612655
 100.8807061  56.4700812 102.6748293 102.5231336  50.1207552 108.4930333
 102.1881168  50.0808322 109.3887983 102.0235281  49.4552268 108.0200744
  96.4975580  45.5275182 114.0182914  96.3595378  44.7955421 114.6194454
  97.4080503  45.4384082 113.7367102 105.4590527  47.4663587  98.7667393
 104.8419698  46.7410415  98.6700446 104.9907016  48.2272947  98.4234467
  99.1257880  45.2395142 113.5066594  99.8357499  44.5988334 113.4653213
  99.0827188  45.4908036 114.4292775 107.1144659  52.1762495 116.4273173
 107.0557205  51.4921715 115.7603756 107.5164177  52.9181485 115.9753799
  97.8386814  42.2260359 115.3262234  97.3024171  41.7751098 115.9783830
  97.2503523  42.3606268 114.5832698  96.1335358  58.9924409 109.2206892
  96.3731956  59.6242933 109.8985911  95.2904554  58.6412449 109.5072251
  97.2489073  41.6849011  97.8888697  96.3718540  41.5637812  97.5250944
  97.7246826  40.8935089  97.6367586 107.1162066  50.1402079 114.6587153
 106.2288845  49.8028001 114.7813552 107.6860617  49.4085110 114.8955918
  88.7691213  46.4726171 107.9830204  89.4562253  46.1587901 107.3951220
  88.6139342  47.3767535 107.7097456  93.5725936  41.3616367 112.4115228
  93.4884124  40.7542037 111.6765638  92.7508642  41.8525385 112.4124724
 100.6463220  54.8003531 111.6248396 100.5733391  55.6058503 112.1367701
 100.2040613  54.9995497 110.7996418 100.4352999  54.0375301 105.1351218
  99.6520521  54.5796981 105.2289442 101.1345744  54.5549281 105.5345459
 103.7449649  39.8469931 107.7785423 104.2418349  39.0939893 107.4586493
 102.9736631  39.8834247 107.2128632 111.5979407  45.5510296 109.4203715
 111.5869283  46.4335012 109.0497648 110.7296786  45.1981847 109.2258252
 103.1061903  54.6990365 113.7806555 103.8189875  55.3337830 113.7082456
 102.6151932  54.7954231 112.9646557 104.8279430  48.6041618 105.3523847
 103.8935709  48.7243080 105.1828551 105.0056099  47.7014085 105.0883856
 100.3284618  41.9887314 107.5057108  99.9582406  41.4358354 108.1938013
 100.8243711  41.3845447 106.9532108 108.2151981  44.4458937 105.8873881
 108.6812434  45.2786929 105.8134183 108.6659482  43.9803919 106.5919139
  98.1573817  52.4484809 114.6012126  98.8583276  53.0821292 114.7541520
  97.6868932  52.7899540 113.8407765 106.2828213  50.7902758 102.8860033
 106.5588056  50.6759353 103.7953907 105.4132711  50.3920243 102.8472206
 106.1868644  36.8139524 109.9264782 105.2731724  37.0443751 110.0946989
 106.6161746  36.8977968 110.7778814 105.9575103  45.0029416 112.4264676
 105.3046553  45.2505324 111.7717129 106.3355483  44.1893554 112.0927153
 102.9182277  55.0389109 106.5292846 103.1004671  54.2210765 106.9920599
 103.7415263  55.2556802 106.0917736 103.2524442  53.9657294 103.7907895
 103.7812208  53.4549749 103.1778057 103.5152662  53.6499825 104.6553428
 102.0062676  45.7449227 118.9130713 101.3303313  45.6443357 119.5833088
 102.8290310  45.5888441 119.3766710  93.7541535  51.9821164 111.5343228
  94.3394972  51.2364852 111.6671133  93.5566373  52.2925120 112.4179892
  96.6080190  55.0172411 106.5505671  95.9390565  55.5018539 106.0669711
  96.4693060  55.2641632 107.4649049  88.3459190  44.5526764 110.2547672
  88.3843289  44.0190355 111.0484790  87.8399482  44.0261969 109.6358649
 100.7485459  57.0516155 113.1488329 101.3003767  57.2147776 113.9137414
 101.0891652  57.6420592 112.4768354  95.7249952  39.3991304 113.7510214
  95.7891278  40.2606135 113.3387612  95.6617072  38.7865306 113.0182572
  95.2002224  41.4714437 117.3983248  95.8274263  41.0891514 118.0120772
  94.3430143  41.2528639 117.7638941 105.5996333  51.8777412 119.0036984
 106.1436237  52.4907370 118.5091938 105.0183178  52.4356991 119.5203997
  91.9767767  43.2790866 103.3301603  92.2721208  42.3701545 103.2768657
  91.0755803  43.2578606 103.0082605 103.8853846  54.9998130 110.1352011
 103.7604985  54.1987870 109.6262957 104.5432937  55.4944324 109.6465981
  95.5062014  41.3546863 109.3129152  94.7848600  41.9682830 109.1736625
  96.2955270  41.8904628 109.2345797 105.9488754  52.8007150 111.7631561
 105.0019090  52.6812501 111.6909888 106.2971527  51.9129648 111.8457823
  98.3088328  38.6901289 115.5869803  98.8322729  38.9363586 116.3496113
  98.0900661  39.5221324 115.1672941  93.7055609  40.9604964 103.4540928
  93.3768315  40.0802343 103.2716034  94.0594979  40.9052632 104.3417317
 102.9535188  52.5959866 107.9635914 102.8060150  51.6676574 108.1443484
 103.7788681  52.6179957 107.4792989  96.8197432  41.2477934 103.8216406
  97.1593504  41.7763855 103.0995014  97.2669552  41.5858340 104.5974972
 106.5569309  53.4188425 109.0500786 107.4815857  53.2131287 108.9125237
 106.3884613  53.1704826 109.9590128  99.5140873  39.6314984 113.2719474
  99.1737693  38.8322797 113.6740154  98.8079879  39.9316695 112.6996307
 100.1657344  36.7164297 111.7246797 100.9883414  36.2424775 111.6025687
 100.4095408  37.4954780 112.2245483  98.8065579  39.7452555 102.0209699
  99.5273941  40.1233808 101.5173415  98.1830883  40.4641432 102.1244676
 102.9496702  40.4497704 102.9568031 103.1660316  41.3322342 102.6556859
 102.4690769  40.0583918 102.2273673  97.6895923  43.4083417 109.5338775
  97.5440504  43.7223720 110.4263057  97.2121127  44.0268318 108.9809674
  99.5492306  40.3985965 109.5819665  99.5353875  39.5027059 109.2451963
 100.2664734  40.4056629 110.2157951 101.4018437  40.8323306 111.6272792
 101.1436215  41.7540376 111.6257123 100.8703477  40.4353740 112.3173257
 106.3464626  53.9374093 104.4062878 106.5201503  53.3720515 103.6536730
 106.8393517  54.7374988 104.2242368  92.1641585  45.9488762 112.4726437
  91.6195053  46.7248570 112.6046711  93.0420935  46.2959566 112.3145558
  98.9529202  39.2800346 104.8507235  99.0745113  38.3516992 105.0498123
  98.6631244  39.2939032 103.9385551 101.8220392  36.9655256 107.9873955
 101.8442089  37.0294589 107.0325935 102.2388451  36.1259765 108.1814461
 112.2004017  46.7010516 106.0253178 112.6435163  45.9517841 105.6272301
 111.3230527  46.6920652 105.6426910 107.3339798  53.2540857 101.5059776
 108.0290703  53.8747550 101.7247091 107.6762948  52.4036208 101.7812154
  92.9507607  45.0758658 115.3656593  92.2089343  45.2241293 115.9521224
  92.6300352  45.3366924 114.5023343 109.2331221  50.7040563 103.0347107
 109.7582545  51.0427835 102.3096427 109.1453574  49.7687578 102.8510241
 100.8951270  54.6174636 115.1636983 101.2038396  54.3723783 116.0359683
 101.6926752  54.8221275 114.6755854 100.9171882  56.7712546 107.3942360
 100.4776872  56.2788925 108.0875217 101.6679999  56.2285514 107.1534435
  93.3964221  52.9624087 107.3966988  94.2222241  52.6627859 107.0165632
  93.0458273  52.1931709 107.8456777  98.3645754  52.3150555 109.4664662
  97.7425763  51.6521260 109.1666890  99.0350621  52.3411687 108.7838309
  91.5972826  50.8810413 108.3555922  90.7604734  50.4532588 108.1739923
  91.5696471  51.0742857 109.2926713  98.4370282  40.7932343 119.0597168
  98.4858437  41.6694466 118.6774937  98.9792796  40.2509736 118.4868811
 108.9225127  51.3373466 118.3398305 108.1320671  51.3197605 117.8002804
 108.6858482  51.8761760 119.0947341 109.0423002  48.1865933 115.6531033
 109.0921007  48.0215940 116.5946556 108.9336926  47.3193192 115.2628914
  97.9259261  50.8654478 102.9423122  98.0747381  51.5489943 102.2889795
  98.7325704  50.8459568 103.4572578 106.3326765  44.1696861 116.9690340
 107.2336627  44.0303325 116.6774338 106.4074739  44.3351315 117.9088518
 100.6669570  41.5463715 115.8143526  99.7972879  41.8397281 115.5426115
 100.9029050  42.1304160 116.5350790 110.5441199  50.6062874 115.8973055
 110.2526007  50.9692855 116.7336516 109.9313330  49.8929882 115.7186387
 111.7436881  48.1715754 108.4175625 112.5783773  48.6105558 108.5813185
 111.8796010  47.6954407 107.5983871 108.7928387  45.7295489 114.3653113
 109.2682509  45.9223135 113.5571964 107.8693953  45.7854675 114.1196497
  95.6811894  46.8919656 103.9484191  95.4357936  45.9881986 104.1464401
  95.8507809  46.8936806 103.0063669 103.3708604  37.7643332 113.3308947
 103.8890548  38.5004359 113.0055435 103.0163737  38.0707326 114.1655706
  94.9507542  42.6248014 101.4470353  94.2576786  42.6992368 100.7910389
  94.7059293  41.8608357 101.9691870 103.6221198  34.1843615 108.8509843
 103.9022952  33.5166804 109.4770270 104.4071805  34.3772710 108.3384507
 101.4254667  53.3602609 100.4134870 100.8528634  53.9792796  99.9605342
 101.9987460  53.9101970 100.9474792 107.4930056  42.6061249 112.5981418
 108.4447479  42.7059347 112.6193643 107.3233507  41.8139517 113.1079503
 105.5144436  39.6916832 112.7840819 104.9194368  39.9721845 112.0887308
 105.2294133  40.1810733 113.5557561 104.6451926  53.6439759 101.5443452
 105.5782599  53.5785321 101.7476327 104.5575139  54.4796026 101.0857985
 107.2739943  52.9605629  98.5047400 107.1953575  52.6265493  99.3983157
 108.0949610  53.4527397  98.5038872 109.9718134  45.8267369 111.7123718
 109.9394454  44.8883369 111.8983402 110.5818758  45.9051405 110.9789543
 101.8101465  44.6963422  97.7550922 102.7560570  44.5669630  97.8239340
 101.4315710  43.9578083  98.2320350 110.1212623  42.6178412 111.7582001
 109.6051671  41.8336869 111.5711930 111.0052571  42.2897129 111.9228521
 107.7823350  36.3619428 107.7177814 107.5848171  36.0534516 108.6021146
 108.3923055  37.0881066 107.8475744 115.7894684  46.8883375 110.8529755
 116.5198073  46.6268664 111.4137458 115.1801630  46.1512097 110.8931823
 113.8709981  45.0291238 111.4504206 113.1443145  44.8947203 110.8420698
 113.4557268  45.3368067 112.2560924 101.6940158  48.7481168 119.2151579
 102.6143167  48.9259767 119.4091626 101.6589741  47.8037213 119.0631278
  99.9944382  42.6213398  97.6905807  99.0875838  42.3246511  97.7668521
 100.2720363  42.3243216  96.8240094  90.9122323  43.9419761 108.1404854
  90.5925107  43.0885069 107.8479228  90.3655751  44.1568339 108.8962821
  94.6902230  46.6582202 111.8574360  94.9088240  47.5899310 111.8762394
  95.1028004  46.2990177 112.6429164 101.6106448  37.1650288 103.8450049
 100.8007176  36.8197373 104.2205295 102.2990865  36.8557831 104.4337660
 103.5396996  36.2428334 105.4674345 104.0928035  36.6623788 106.1264368
 103.7767083  35.3164083 105.5097301  99.5630095  42.2315408 121.2477109
  99.4626822  43.1809765 121.1789200  99.3451637  41.9033647 120.3753179
  98.7643167  39.4800333  97.8317787  99.6262331  39.8055231  98.0913604
  98.9493511  38.6931829  97.3190852  90.7810583  47.5622673 110.1097975
  90.0874054  47.1476626 109.5967930  91.5283574  47.6043209 109.5131394
 106.9175803  38.3528860 104.9753010 106.3374472  39.0113664 104.5931062
 106.6511736  37.5306204 104.5640427 105.3679370  37.7533917 107.1774330
 105.8679148  37.8650452 106.3688649 106.0114978  37.4494970 107.8175138
  99.4261365  45.6612547 120.0642171  98.9428447  46.4612907 120.2706060
  99.5122305  45.6720492 119.1109615  92.6947325  47.4940927 107.9863990
  92.6718013  47.5928614 107.0345873  93.0047962  48.3406077 108.3081156
  95.3534703  49.5517082 112.1010605  96.3077957  49.5201024 112.0340536
  95.1547227  49.0907705 112.9160831  95.9434085  48.1218198 114.6681402
  96.7626974  48.6162276 114.6916240  96.2170893  47.2050166 114.6398970
 105.7000681  40.5128950 104.0309358 104.8126536  40.7978601 103.8129553
 106.1154670  40.3522713 103.1836635 109.0515217  40.5375471 107.7463697
 109.8275608  41.0271923 108.0188314 108.3263352  40.9633525 108.2035567
 111.4887776  41.2503090 108.8037638 112.0832267  41.0098826 108.0930946
 111.5614360  40.5310221 109.4311174  93.7084932  55.0936701 109.1180803
  93.5739400  54.3337102 108.5518801  93.2916994  55.8177601 108.6509591
 104.8443895  50.2773625  98.1257378 105.5479745  50.4823627  98.7415033
 104.1206544  50.8450387  98.3906461 105.6741705  46.0283486 104.2459648
 105.6176906  46.4852037 103.4067280 106.2270048  45.2674170 104.0682491
 109.4846511  41.8173218 105.0709768 109.2283445  41.4169853 105.9017975
 108.8599379  42.5317012 104.9459907 113.7958849  44.5569291 107.5781059
 113.2358407  44.6262480 108.3512621 113.1902352  44.3810276 106.8580555
  96.8654058  55.9906018 109.3299245  96.7486442  56.9351451 109.2277935
  96.0446504  55.6879580 109.7185044 106.7530592  50.7156154 100.1755838
 107.5876196  50.2837352  99.9933313 106.5914935  50.5438168 101.1032732
 106.4076484  47.2188267 101.5412177 106.3525288  47.0532539 100.6000621
 105.7822540  47.9264300 101.6974367  91.1968999  42.4556332 115.3673599
  91.8427863  41.9455285 115.8560825  90.9886150  43.1925013 115.9417025
 103.7222392  49.5237179 120.8665740 104.5913551  49.6977831 120.5052375
 103.2429143  50.3431596 120.7441469  99.7172610  36.7196376 101.1197496
  99.7051280  37.6638216 101.2765766 100.6096032  36.5366522 100.8256957
  97.8908572  56.6434280 112.5455174  98.7935818  56.6757890 112.8621669
  97.6645942  55.7134731 112.5601509  99.6462174  55.3965267 109.2065252
  98.6957805  55.3967128 109.0929625  99.9494660  54.6498001 108.6901287
 103.5324729  33.3139153 105.3743432 102.7657125  32.7597639 105.5200115
 103.9435434  33.3861022 106.2357584  95.5366490  39.6023949 119.4648614
  96.3997952  39.2460753 119.6751938  94.9631901  39.2637843 120.1524018
 115.3814867  61.2325805 110.2711015 116.0193277  61.1132552 109.5674355
 115.2635710  62.1806649 110.3298967 112.1904574  61.1853233 110.2072539
 111.8523085  61.0694298 109.3193074 113.0594342  60.7844398 110.1873545
 108.0491389  63.0388709 106.1969430 107.4856254  62.9478646 105.4285718
 107.9343784  62.2188614 106.6771923 112.6724357  62.3388085 116.1658745
 112.6612997  61.9440883 115.2939249 112.8344996  61.6054157 116.7592516
 105.5955821  64.5339901 109.0353651 106.3877113  64.1930726 108.6199950
 105.8352471  64.6434876 109.9555804 113.6290948  66.7059677 101.5083895
 112.9778928  67.2913758 101.1217909 114.4235311  67.2365872 101.5678933
 107.5546575  63.7948814 101.9071030 108.3277451  63.2477801 101.7683905
 107.9071974  64.6593064 102.1185491 109.3931618  65.1225197 115.1137929
 109.1021484  66.0270827 114.9984595 110.0288602  65.1641724 115.8281998
 110.3187825  62.5002045 111.7039288 110.9151397  62.2758067 110.9896251
 110.3762796  61.7586791 112.3064736 109.8912853  59.9541480  99.5389479
 110.1438374  59.4323002  98.7772942 108.9537412  59.7907626  99.6416163
 114.9356136  58.9577259 107.3464223 115.7219225  58.5396682 106.9954640
 115.1994840  59.8623351 107.5145871 115.1066213  64.3950109 102.0452880
 114.4712046  64.4684736 102.7573784 114.7763620  64.9843708 101.3671959
 120.3364563  58.8952492 108.2497201 121.0689735  58.3251709 108.4835031
 119.5803919  58.5074092 108.6903707 109.6109142  61.8569586 101.7413854
 109.4945400  61.1814490 102.4094939 109.7211402  61.3701960 100.9246007
 111.9540683  61.3179733 105.4460544 111.5898890  60.7910354 106.1573465
 112.8107799  60.9278203 105.2727029 117.8589983  52.6074066 112.7091810
 117.5273308  53.4769477 112.4853025 117.2635597  52.2910350 113.3885840
 111.5946170  56.3469633 100.4421892 111.7620572  57.2149870 100.8092363
 111.4043339  56.5096915  99.5183181 114.3521503  64.8086612 112.1087723
 114.0522226  65.7111651 112.0003530 114.0072562  64.5418795 112.9608875
 107.8033984  61.2600409 108.1424427 106.8784481  61.1276623 108.3502119
 108.0518397  62.0394628 108.6394369 117.7518647  57.3269152 109.7885160
 116.8435524  57.2584561 109.4943921 117.7006242  57.8041097 110.6166985
 111.5735390  58.8027291 101.4268559 111.4535016  59.2484341 102.2654039
 110.8787979  59.1512608 100.8682097 105.1642795  60.9033682 108.9768216
 105.2935176  61.1568161 109.8907628 104.4840247  61.4961390 108.6572871
 109.3342283  71.5730932 105.0758690 109.2566312  72.5238758 105.1547171
 108.7303926  71.2276805 105.7333617 111.8259512  58.7458798 117.7320057
 111.0492846  59.3052718 117.7222922 112.4650075  59.2315581 118.2534927
 119.6180293  55.5285591 111.5663034 118.9754673  55.8218124 110.9202828
 119.1135221  55.4138511 112.3716230 117.2720457  59.2748764 102.2548893
 118.1838313  59.5076151 102.0796591 116.7630104  59.8585808 101.6923972
 110.0805885  61.5544251 117.2938024 110.8220569  62.0929295 117.0172848
 109.3742870  62.1810540 117.4509576 115.5561224  63.6973392 115.8910186
 115.9644580  63.2555802 115.1464818 114.8338486  63.1226019 116.1444379
 111.9092294  58.6345998 113.2643743 112.7553490  59.0585412 113.4078392
 111.8490932  57.9779623 113.9582306 115.8790039  64.2574582 109.6462474
 115.2498901  64.4220296 108.9438542 115.4915701  64.6716192 110.4173439
 119.7579271  65.1929020 107.0006838 119.0730309  65.5727922 106.4503872
 119.8423120  65.8024347 107.7338786 115.0591740  56.2950367 114.9224916
 114.8152672  57.0492427 114.3859192 115.3351670  56.6735714 115.7572163
 117.0130202  62.8388979 113.6002182 117.2247098  63.4820739 112.9236563
 116.9659951  62.0051296 113.1324112 114.6156431  55.4506800 110.5038754
 113.7540910  55.7488053 110.7955492 114.6418866  55.6677199 109.5719787
 111.4318001  63.9948990 106.9112560 111.8956346  64.2736693 106.1217182
 111.1674799  63.0932435 106.7285650 108.3242082  63.5420472 109.8492323
 108.8943439  63.9707740 109.2109807 108.9150194  63.2603057 110.5476509
 110.3686887  60.1172143 103.7202125 111.0710930  60.5693186 104.1876051
 110.0367515  59.4755962 104.3482018 108.8167248  58.7083899 118.0953334
 108.1865909  59.3900180 118.3288731 108.7103336  58.5966981 117.1506472
 104.1112221  58.3755695 109.0219258 103.3211275  58.6313224 108.5459369
 104.6023468  59.1904033 109.1271299 118.1276030  65.7160935 111.7724539
 118.9493474  65.3141122 111.4907221 118.1238433  65.6129169 112.7240655
 106.0626966  58.7400275 105.9802735 105.2658129  58.8518969 106.4986231
 105.8352558  59.0786927 105.1143626 111.8932634  65.2644978 113.9285250
 111.9577066  65.7265385 114.7643421 111.1843558  64.6342343 114.0567559
 102.3949924  58.6286186 111.4534249 102.6457962  59.5133196 111.7191825
 102.9309472  58.4490787 110.6809341 126.2182023  62.0599683 108.1209511
 125.4645732  61.4907081 107.9653515 126.3529565  62.0262348 109.0680145
 111.6080651  66.9313085 103.7964230 111.4726326  67.7764621 104.2249078
 112.1490464  67.1332363 103.0330164 108.0947991  53.0104665 120.4578585
 107.7014937  52.4570864 121.1326229 108.9114131  53.3215244 120.8485103
 105.0610049  64.4488523 104.3692155 105.5734569  65.2431774 104.5197720
 105.7132762  63.7514814 104.3025757 106.8704934  67.5654280 106.4514908
 107.0471562  68.4872244 106.2635892 107.6661767  67.2512699 106.8809288
 111.0115952  54.4262544 118.0498842 111.7525665  55.0269697 117.9703304
 111.2433875  53.6840182 117.4916884 106.1557290  59.6118912 116.3277071
 106.0410805  58.7104169 116.6284170 105.3001808  59.8582608 115.9761888
 113.2349128  67.5536652 117.9264572 112.7912982  66.7673030 117.6085477
 113.8966341  67.7415802 117.2608463 107.9936249  69.0832453 112.4525251
 108.5443674  68.9549517 111.6802244 107.1547725  69.3827343 112.1020143
 115.3330366  67.8339452 115.9545973 115.3148841  68.6548333 115.4626242
 116.2550286  67.7093527 116.1796114 111.7903420  65.3483581 116.7969482
 112.3231757  64.5871869 116.5668790 111.2617501  65.0557233 117.5393636
 114.9573115  50.4543647 112.3263123 114.6137384  51.3445289 112.2502234
 115.3252078  50.2645305 111.4632708 103.0258966  62.7777178 105.1451726
 103.8634188  63.1874186 104.9285433 103.2037233  61.8376620 105.1151919
 114.9223398  60.4452258 100.8335559 114.4070021  61.2156863 101.0723946
 114.6500706  59.7717395 101.4568620 112.5070509  55.2901959 105.8920797
 111.6512105  54.9008810 105.7126436 112.9197461  55.3693920 105.0320582
 114.0369655  52.8248302 110.2912357 113.5334451  52.7878438 109.4780162
 114.3300262  53.7341045 110.3509013 110.2812541  52.9087032 109.2978538
 111.1465538  52.7129841 108.9384428 110.3490050  52.6797384 110.2247895
 119.8957672  63.1984613 102.7688732 119.1187115  62.8595773 102.3243894
 120.5749153  63.2037236 102.0943697 114.7109701  58.3179350 102.6595340
 114.4059837  58.6325500 103.5105483 115.6640143  58.3960770 102.7022673
 113.1556133  64.4769574 104.3088294 112.6277494  63.7422333 103.9961531
 112.6543636  65.2544250 104.0628262 118.1348979  62.6718594 109.4255340
 117.4772653  63.3617856 109.5135469 118.9389378  63.0615026 109.7689326
 107.8874860  55.1389240 106.6694905 108.4618612  54.9164422 105.9368098
 108.4745843  55.2077935 107.4223507 116.9454438  61.0262967 107.4759282
 117.4586319  61.6592959 107.9780991 117.5955661  60.4264162 107.1102642
 108.2144448  57.1693701 100.6890790 107.3781760  57.5068388 101.0100065
 108.0749217  57.0342681  99.7517927 110.1897528  52.0130489 105.3969975
 109.5361940  51.6979506 104.7726589 110.1478002  51.3906229 106.1229798
 111.3008733  62.2949784  97.3123267 110.3935795  62.0639038  97.5114416
 111.7979765  61.4987403  97.4997248 114.2076812  71.0047291 100.2319953
 113.5338511  71.3078988 100.8404911 114.5942634  71.8076372  99.8825410
 113.4235268  58.5012423 109.7217622 112.5057830  58.7227370 109.5639310
 113.8395412  58.5758733 108.8629330 114.2070316  59.9003838 104.8520303
 114.9542135  60.4125235 104.5427425 114.4761906  59.5787891 105.7124696
 112.4796966  62.3962379 101.8347257 111.5708186  62.1121412 101.9319727
 112.5092050  62.8161457 100.9750564 117.7116234  66.0068968 105.6038424
 117.2578561  65.1659878 105.6603615 117.0810201  66.6430367 105.9413205
 116.6549153  56.9360954 106.8339092 115.9171910  56.4238341 107.1649334
 116.9075927  56.4961336 106.0222369 116.1549173  67.8445465 106.5388243
 116.4472147  68.4050522 105.8200608 116.6647794  68.1374026 107.2941402
 116.7560781  49.7137206 107.4280861 117.0619658  48.8534570 107.1406776
 117.4813386  50.3054827 107.2279855 103.0485137  60.1167893 105.8162459
 102.8509537  59.5237254 105.0913526 102.4931801  59.8120103 106.5338398
 111.0281860  60.0091000 107.9357052 111.0830470  59.0564836 107.8599529
 110.2173062  60.1650439 108.4198351 112.1773054  63.9371123  99.1735335
 111.7392484  63.2206982  98.7140973 112.9183495  64.1647237  98.6120427
 108.9674220  58.6268059 105.6947431 108.1542086  58.9262230 106.1012623
 109.4633215  58.2323748 106.4121913 111.1182798  68.6225816 107.6281696
 111.0758977  68.8486663 106.6990228 112.0345497  68.3889191 107.7767497
 114.5648432  59.0909884 114.5262325 114.9197820  59.3181357 115.3856791
 115.2120563  59.4228261 113.9039580 120.2946169  62.2128320 105.2311654
 120.1564068  62.4029916 104.3032843 119.9382388  62.9747702 105.6879705
 108.4588295  56.1986415 111.3108666 109.0987674  56.0575174 110.6131629
 107.6265826  55.9120928 110.9347268 120.3215549  64.2804847 110.2422925
 120.7552055  64.1880136 111.0905979 121.0347129  64.2562347 109.6042941
 109.2348599  65.4988845 107.4243658 110.0289198  65.0039165 107.2226233
 108.5240291  64.9706708 107.0611364 114.0543444  67.8806941 111.7756026
 114.1080466  68.4497877 112.5433742 113.1858225  68.0508826 111.4110063
 105.5431362  59.6431927 103.5003411 104.6128951  59.5816382 103.7173373
 105.6388834  59.1207880 102.7040052 105.4616912  56.1686740 106.0881653
 105.7223729  57.0832073 105.9790813 106.2834084  55.7011182 106.2378266
 106.9341837  57.5824497 113.2580477 107.6064890  57.3741859 112.6093126
 106.1071623  57.3846583 112.8185710 121.1831098  64.3228547 112.7755811
 121.3766988  65.2274358 113.0215086 121.0831716  63.8635966 113.6094396
 112.8367409  54.2086438 115.2746138 112.1895324  54.9076388 115.1810615
 113.6068424  54.6422582 115.6422386 116.2446207  64.4735290 118.3496691
 116.0931713  64.2445842 117.4326775 116.2350886  65.4305891 118.3628036
 113.0131543  62.0467203 113.3342958 113.9423603  62.1978362 113.1611925
 112.5922573  62.1351224 112.4791604 111.8119875  66.0717867 111.1041496
 111.6730961  65.7036652 111.9767434 111.0234471  66.5865507 110.9325453
 112.4068027  71.1726964 102.4467032 112.5819783  70.7015007 103.2612655
 111.7200815  71.7992730 102.6748293 113.3625090  65.4499470 108.4930333
 113.0274923  65.4100240 109.3887983 112.8629036  64.7844186 108.0200744
 107.3369334  60.8567100 114.0182914 107.1989132  60.1247339 114.6194454
 108.2474258  60.7676000 113.7367102 116.2984282  62.7955504  98.7667393
 115.6813452  62.0702332  98.6700446 115.8300770  63.5564865  98.4234467
 109.9651635  60.5687059 113.5066594 110.6751253  59.9280251 113.4653213
 109.9220943  60.8199954 114.4292775 117.9538413  67.5054413 116.4273173
 117.8950960  66.8213633 115.7603756 118.3557932  68.2473403 115.9753799
 108.6780569  57.5552277 115.3262234 108.1417926  57.1043016 115.9783830
 108.0897277  57.6898186 114.5832698 106.9729112  74.3216326 109.2206892
 107.2125711  74.9534851 109.8985911 106.1298309  73.9704366 109.5072251
 108.0882828  57.0140929  97.8888697 107.2112294  56.8929729  97.5250944
 108.5640581  56.2227007  97.6367586 117.9555821  65.4693997 114.6587153
 117.0682600  65.1319918 114.7813552 118.5254372  64.7377028 114.8955918
  99.6084968  61.8018088 107.9830204 100.2956008  61.4879818 107.3951220
  99.4533097  62.7059453 107.7097456 104.4119690  56.6908285 112.4115228
 104.3277879  56.0833954 111.6765638 103.5902396  57.1817303 112.4124724
 111.4856974  70.1295449 111.6248396 111.4127146  70.9350420 112.1367701
 111.0434367  70.3287415 110.7996418 111.2746754  69.3667219 105.1351218
 110.4914276  69.9088899 105.2289442 111.9739499  69.8841199 105.5345459
 114.5843404  55.1761848 107.7785423 115.0812103  54.4231811 107.4586493
 113.8130385  55.2126165 107.2128632 122.4373161  60.8802214 109.4203715
 122.4263038  61.7626929 109.0497648 121.5690541  60.5273765 109.2258252
 113.9455658  70.0282283 113.7806555 114.6583630  70.6629748 113.7082456
 113.4545686  70.1246149 112.9646557 115.6673185  63.9333536 105.3523847
 114.7329463  64.0534998 105.1828551 115.8449853  63.0306002 105.0883856
 111.1678373  57.3179231 107.5057108 110.7976160  56.7650272 108.1938013
 111.6637465  56.7137365 106.9532108 119.0545736  59.7750855 105.8873881
 119.5206188  60.6078846 105.8134183 119.5053236  59.3095836 106.5919139
 108.9967571  67.7776726 114.6012126 109.6977031  68.4113209 114.7541520
 108.5262686  68.1191458 113.8407765 117.1221967  66.1194676 102.8860033
 117.3981811  66.0051271 103.7953907 116.2526466  65.7212161 102.8472206
 117.0262399  52.1431442 109.9264782 116.1125478  52.3735669 110.0946989
 117.4555500  52.2269886 110.7778814 116.7968857  60.3321334 112.4264676
 116.1440307  60.5797241 111.7717129 117.1749237  59.5185472 112.0927153
 113.7576031  70.3681027 106.5292846 113.9398426  69.5502683 106.9920599
 114.5809017  70.5848719 106.0917736 114.0918197  69.2949212 103.7907895
 114.6205963  68.7841667 103.1778057 114.3546416  68.9791742 104.6553428
 112.8456430  61.0741145 118.9130713 112.1697067  60.9735274 119.5833088
 113.6684064  60.9180359 119.3766710 104.5935289  67.3113081 111.5343228
 105.1788726  66.5656769 111.6671133 104.3960128  67.6217038 112.4179892
 107.4473944  70.3464329 106.5505671 106.7784320  70.8310456 106.0669711
 107.3086814  70.5933549 107.4649049  99.1852944  59.8818682 110.2547672
  99.2237044  59.3482272 111.0484790  98.6793237  59.3553887 109.6358649
 111.5879213  72.3808072 113.1488329 112.1397521  72.5439694 113.9137414
 111.9285407  72.9712510 112.4768354 106.5643706  54.7283222 113.7510214
 106.6285033  55.5898053 113.3387612 106.5010827  54.1157224 113.0182572
 106.0395979  56.8006355 117.3983248 106.6668018  56.4183432 118.0120772
 105.1823898  56.5820557 117.7638941 116.4390087  67.2069330 119.0036984
 116.9829991  67.8199288 118.5091938 115.8576932  67.7648908 119.5203997
 102.8161522  58.6082784 103.3301603 103.1114963  57.6993462 103.2768657
 101.9149557  58.5870523 103.0082605 114.7247600  70.3290048 110.1352011
 114.5998740  69.5279788 109.6262957 115.3826691  70.8236241 109.6465981
 106.3455769  56.6838780 109.3129152 105.6242354  57.2974748 109.1736625
 107.1349024  57.2196545 109.2345797 116.7882509  68.1299068 111.7631561
 115.8412844  68.0104419 111.6909888 117.1365282  67.2421566 111.8457823
 109.1482082  54.0193207 115.5869803 109.6716484  54.2655503 116.3496113
 108.9294415  54.8513242 115.1672941 104.5449363  56.2896881 103.4540928
 104.2162069  55.4094260 103.2716034 104.8988734  56.2344550 104.3417317
 113.7928942  67.9251784 107.9635914 113.6453904  66.9968492 108.1443484
 114.6182436  67.9471875 107.4792989 107.6591186  56.5769851 103.8216406
 107.9987259  57.1055772 103.0995014 108.1063307  56.9150257 104.5974972
 117.3963064  68.7480343 109.0500786 118.3209611  68.5423204 108.9125237
 117.2278367  68.4996744 109.9590128 110.3534627  54.9606902 113.2719474
 110.0131448  54.1614715 113.6740154 109.6473633  55.2608613 112.6996307
 111.0051099  52.0456214 111.7246797 111.8277168  51.5716693 111.6025687
 111.2489163  52.8246698 112.2245483 109.6459333  55.0744473 102.0209699
 110.3667696  55.4525726 101.5173415 109.0224638  55.7933350 102.1244676
 113.7890456  55.7789622 102.9568031 114.0054071  56.6614260 102.6556859
 113.3084523  55.3875835 102.2273673 108.5289678  58.7375335 109.5338775
 108.3834258  59.0515638 110.4263057 108.0514881  59.3560235 108.9809674
 110.3886061  55.7277883 109.5819665 110.3747629  54.8318976 109.2451963
 111.1058489  55.7348547 110.2157951 112.2412191  56.1615223 111.6272792
 111.9829969  57.0832294 111.6257123 111.7097232  55.7645658 112.3173257
 117.1858380  69.2666010 104.4062878 117.3595258  68.7012433 103.6536730
 117.6787271  70.0666905 104.2242368 103.0035340  61.2780679 112.4726437
 102.4588808  62.0540487 112.6046711 103.8814690  61.6251484 112.3145558
 109.7922957  54.6092263 104.8507235 109.9138868  53.6808909 105.0498123
 109.5024999  54.6230949 103.9385551 112.6614147  52.2947174 107.9873955
 112.6835844  52.3586507 107.0325935 113.0782206  51.4551682 108.1814461
 123.0397771  62.0302433 106.0253178 123.4828917  61.2809758 105.6272301
 122.1624282  62.0212570 105.6426910 118.1733553  68.5832775 101.5059776
 118.8684457  69.2039467 101.7247091 118.5156703  67.7328126 101.7812154
 103.7901362  60.4050576 115.3656593 103.0483098  60.5533211 115.9521224
 103.4694106  60.6658841 114.5023343 120.0724976  66.0332480 103.0347107
 120.5976300  66.3719753 102.3096427 119.9847328  65.0979496 102.8510241
 111.7345024  69.9466554 115.1636983 112.0432151  69.7015701 116.0359683
 112.5320506  70.1513192 114.6755854 111.7565636  72.1004464 107.3942360
 111.3170627  71.6080842 108.0875217 112.5073753  71.5577431 107.1534435
 104.2357975  68.2916004 107.3966988 105.0615995  67.9919776 107.0165632
 103.8852027  67.5223627 107.8456777 109.2039509  67.6442473 109.4664662
 108.5819518  66.9813178 109.1666890 109.8744375  67.6703605 108.7838309
 102.4366580  66.2102331 108.3555922 101.5998489  65.7824505 108.1739923
 102.4090226  66.4034774 109.2926713 109.2764036  56.1224261 119.0597168
 109.3252192  56.9986383 118.6774937 109.8186550  55.5801654 118.4868811
 119.7618882  66.6665384 118.3398305 118.9714425  66.6489523 117.8002804
 119.5252236  67.2053678 119.0947341 119.8816757  63.5157850 115.6531033
 119.9314762  63.3507858 116.5946556 119.7730680  62.6485109 115.2628914
 108.7653015  66.1946396 102.9423122 108.9141136  66.8781860 102.2889795
 109.5719459  66.1751486 103.4572578 117.1720519  59.4988778 116.9690340
 118.0730382  59.3595243 116.6774338 117.2468494  59.6643233 117.9088518
 111.5063325  56.8755633 115.8143526 110.6366634  57.1689199 115.5426115
 111.7422805  57.4596078 116.5350790 121.3834954  65.9354792 115.8973055
 121.0919762  66.2984772 116.7336516 120.7707085  65.2221800 115.7186387
 122.5830636  63.5007672 108.4175625 123.4177527  63.9397476 108.5813185
 122.7189765  63.0246325 107.5983871 119.6322142  61.0587406 114.3653113
 120.1076263  61.2515053 113.5571964 118.7087707  61.1146592 114.1196497
 106.5205648  62.2211574 103.9484191 106.2751690  61.3173904 104.1464401
 106.6901563  62.2228724 103.0063669 114.2102358  53.0935250 113.3308947
 114.7284302  53.8296277 113.0055435 113.8557491  53.3999243 114.1655706
 105.7901296  57.9539931 101.4470353 105.0970541  58.0284286 100.7910389
 105.5453048  57.1900275 101.9691870 114.4614953  49.5135533 108.8509843
 114.7416706  48.8458722 109.4770270 115.2465559  49.7064628 108.3384507
 112.2648421  68.6894526 100.4134870 111.6922388  69.3084714  99.9605342
 112.8381215  69.2393888 100.9474792 118.3323811  57.9353167 112.5981418
 119.2841234  58.0351264 112.6193643 118.1627261  57.1431435 113.1079503
 116.3538190  55.0208750 112.7840819 115.7588122  55.3013762 112.0887308
 116.0687887  55.5102651 113.5557561 115.4845681  68.9731677 101.5443452
 116.4176354  68.9077238 101.7476327 115.3968894  69.8087943 101.0857985
 118.1133697  68.2897547  98.5047400 118.0347329  67.9557411  99.3983157
 118.9343364  68.7819315  98.5038872 120.8111889  61.1559286 111.7123718
 120.7788209  60.2175287 111.8983402 121.4212512  61.2343323 110.9789543
 112.6495220  60.0255339  97.7550922 113.5954324  59.8961547  97.8239340
 112.2709464  59.2870001  98.2320350 120.9606377  57.9470330 111.7582001
 120.4445426  57.1628786 111.5711930 121.8446326  57.6189046 111.9228521
 118.6217104  51.6911345 107.7177814 118.4241925  51.3826433 108.6021146
 119.2316810  52.4172984 107.8475744 126.6288439  62.2175293 110.8529755
 127.3591827  61.9560581 111.4137458 126.0195384  61.4804015 110.8931823
 124.7103736  60.3583156 111.4504206 123.9836899  60.2239121 110.8420698
 124.2951023  60.6659984 112.2560924 112.5333912  64.0773085 119.2151579
 113.4536922  64.2551684 119.4091626 112.4983495  63.1329131 119.0631278
 110.8338137  57.9505316  97.6905807 109.9269592  57.6538428  97.7668521
 111.1114118  57.6535134  96.8240094 101.7516077  59.2711679 108.1404854
 101.4318861  58.4176987 107.8479228 101.2049505  59.4860257 108.8962821
 105.5295985  61.9874120 111.8574360 105.7481994  62.9191228 111.8762394
 105.9421758  61.6282094 112.6429164 112.4500202  52.4942205 103.8450049
 111.6400931  52.1489290 104.2205295 113.1384619  52.1849749 104.4337660
 114.3790751  51.5720252 105.4674345 114.9321789  51.9915706 106.1264368
 114.6160837  50.6456000 105.5097301 110.4023850  57.5607326 121.2477109
 110.3020577  58.5101683 121.1789200 110.1845392  57.2325565 120.3753179
 109.6036921  54.8092251  97.8317787 110.4656085  55.1347149  98.0913604
 109.7887265  54.0223747  97.3190852 101.6204337  62.8914590 110.1097975
 100.9267808  62.4768543 109.5967930 102.3677328  62.9335127 109.5131394
 117.7569558  53.6820777 104.9753010 117.1768227  54.3405581 104.5931062
 117.4905490  52.8598122 104.5640427 116.2073124  53.0825835 107.1774330
 116.7072903  53.1942369 106.3688649 116.8508732  52.7786888 107.8175138
 110.2655120  60.9904465 120.0642171 109.7822202  61.7904825 120.2706060
 110.3516059  61.0012409 119.1109615 103.5341080  62.8232844 107.9863990
 103.5111768  62.9220532 107.0345873 103.8441716  63.6697995 108.3081156
 106.1928457  64.8808999 112.1010605 107.1471711  64.8492942 112.0340536
 105.9940981  64.4199623 112.9160831 106.7827840  63.4510115 114.6681402
 107.6020729  63.9454194 114.6916240 107.0564647  62.5342083 114.6398970
 116.5394436  55.8420868 104.0309358 115.6520291  56.1270518 103.8129553
 116.9548425  55.6814631 103.1836635 119.8908972  55.8667389 107.7463697
 120.6669362  56.3563841 108.0188314 119.1657106  56.2925443 108.2035567
 122.3281531  56.5795008 108.8037638 122.9226021  56.3390744 108.0930946
 122.4008114  55.8602138 109.4311174 104.5478686  70.4228619 109.1180803
 104.4133154  69.6629020 108.5518801 104.1310749  71.1469519 108.6509591
 115.6837649  65.6065542  98.1257378 116.3873499  65.8115545  98.7415033
 114.9600298  66.1742304  98.3906461 116.5135460  61.3575404 104.2459648
 116.4570661  61.8143955 103.4067280 117.0663802  60.5966088 104.0682491
 120.3240265  57.1465135 105.0709768 120.0677200  56.7461771 105.9017975
 119.6993133  57.8608929 104.9459907 124.6352603  59.8861209 107.5781059
 124.0752161  59.9554398 108.3512621 124.0296107  59.7102193 106.8580555
 107.7047812  71.3197936 109.3299245 107.5880196  72.2643368 109.2277935
 106.8840258  71.0171497 109.7185044 117.5924347  66.0448072 100.1755838
 118.4269951  65.6129270  99.9933313 117.4308690  65.8730085 101.1032732
 117.2470239  62.5480185 101.5412177 117.1919043  62.3824456 100.6000621
 116.6216294  63.2556218 101.6974367 102.0362754  57.7848249 115.3673599
 102.6821617  57.2747203 115.8560825 101.8279905  58.5216931 115.9417025
 114.5616146  64.8529097 120.8665740 115.4307306  65.0269749 120.5052375
 114.0822898  65.6723513 120.7441469 110.5566364  52.0488294 101.1197496
 110.5445034  52.9930134 101.2765766 111.4489786  51.8658439 100.8256957
 108.7302326  71.9726198 112.5455174 109.6329573  72.0049808 112.8621669
 108.5039696  71.0426649 112.5601509 110.4855928  70.7257184 109.2065252
 109.5351559  70.7259046 109.0929625 110.7888414  69.9789919 108.6901287
 114.3718484  48.6431070 105.3743432 113.6050880  48.0889557 105.5200115
 114.7829189  48.7152939 106.2357584 106.3760245  54.9315866 119.4648614
 107.2391706  54.5752671 119.6751938 105.8025655  54.5929761 120.1524018
 126.2208622  76.5617723 110.2711015 126.8587032  76.4424470 109.5674355
 126.1029465  77.5098567 110.3298967 123.0298328  76.5145151 110.2072539
 122.6916840  76.3986215 109.3193074 123.8988096  76.1136316 110.1873545
 118.8885144  78.3680627 106.1969430 118.3250009  78.2770564 105.4285718
 118.7737539  77.5480532 106.6771923 123.5118111  77.6680002 116.1658745
 123.5006752  77.2732801 115.2939249 123.6738751  76.9346075 116.7592516
 116.4349576  79.8631819 109.0353651 117.2270868  79.5222643 108.6199950
 116.6746226  79.9726794 109.9555804 124.4684702  82.0351595 101.5083895
 123.8172682  82.6205675 101.1217909 125.2629065  82.5657790 101.5678933
 118.3940330  79.1240732 101.9071030 119.1671206  78.5769719 101.7683905
 118.7465728  79.9884981 102.1185491 120.2325372  80.4517114 115.1137929
 119.9415238  81.3562745 114.9984595 120.8682357  80.4933642 115.8281998
 121.1581579  77.8293963 111.7039288 121.7545151  77.6049985 110.9896251
 121.2156551  77.0878708 112.3064736 120.7306607  75.2833398  99.5389479
 120.9832128  74.7614919  98.7772942 119.7931167  75.1199544  99.6416163
 125.7749890  74.2869176 107.3464223 126.5612979  73.8688600 106.9954640
 126.0388595  75.1915269 107.5145871 125.9459968  79.7242027 102.0452880
 125.3105801  79.7976653 102.7573784 125.6157374  80.3135626 101.3671959
 131.1758317  74.2244410 108.2497201 131.9083489  73.6543626 108.4835031
 130.4197673  73.8366010 108.6903707 120.4502896  77.1861504 101.7413854
 120.3339154  76.5106407 102.4094939 120.5605156  76.6993878 100.9246007
 122.7934437  76.6471651 105.4460544 122.4292644  76.1202272 106.1573465
 123.6501553  76.2570120 105.2727029 128.6983738  67.9365984 112.7091810
 128.3667063  68.8061395 112.4853025 128.1029351  67.6202268 113.3885840
 122.4339924  71.6761551 100.4421892 122.6014326  72.5441787 100.8092363
 122.2437093  71.8388833  99.5183181 125.1915257  80.1378530 112.1087723
 124.8915980  81.0403569 112.0003530 124.8466317  79.8710713 112.9608875
 118.6427739  76.5892327 108.1424427 117.7178235  76.4568541 108.3502119
 118.8912152  77.3686546 108.6394369 128.5912401  72.6561070 109.7885160
 127.6829278  72.5876478 109.4943921 128.5399997  73.1333015 110.6166985
 122.4129145  74.1319208 101.4268559 122.2928770  74.5776259 102.2654039
 121.7181733  74.4804526 100.8682097 116.0036550  76.2325600 108.9768216
 116.1328931  76.4860079 109.8907628 115.3234001  76.8253308 108.6572871
 120.1736037  86.9022850 105.0758690 120.0960067  87.8530675 105.1547171
 119.5697681  86.5568723 105.7333617 122.6653267  74.0750716 117.7320057
 121.8886601  74.6344636 117.7222922 123.3043830  74.5607499 118.2534927
 130.4574047  70.8577508 111.5663034 129.8148428  71.1510042 110.9202828
 129.9528976  70.7430429 112.3716230 128.1114211  74.6040682 102.2548893
 129.0232067  74.8368068 102.0796591 127.6023858  75.1877726 101.6923972
 120.9199639  76.8836169 117.2938024 121.6614324  77.4221213 117.0172848
 120.2136625  77.5102458 117.4509576 126.3954979  79.0265309 115.8910186
 126.8038335  78.5847720 115.1464818 125.6732240  78.4517937 116.1444379
 122.7486049  73.9637916 113.2643743 123.5947244  74.3877330 113.4078392
 122.6884686  73.3071540 113.9582306 126.7183793  79.5866500 109.6462474
 126.0892656  79.7512214 108.9438542 126.3309456  80.0008110 110.4173439
 130.5973025  80.5220938 107.0006838 129.9124063  80.9019839 106.4503872
 130.6816875  81.1316264 107.7338786 125.8985494  71.6242284 114.9224916
 125.6546426  72.3784345 114.3859192 126.1745425  72.0027632 115.7572163
 127.8523957  78.1680897 113.6002182 128.0640852  78.8112657 112.9236563
 127.8053705  77.3343213 113.1324112 125.4550186  70.7798718 110.5038754
 124.5934665  71.0779971 110.7955492 125.4812621  70.9969116 109.5719787
 122.2711755  79.3240908 106.9112560 122.7350101  79.6028611 106.1217182
 122.0068553  78.4224353 106.7285650 119.1635836  78.8712390 109.8492323
 119.7337193  79.2999658 109.2109807 119.7543948  78.5894974 110.5476509
 121.2080641  75.4464060 103.7202125 121.9104685  75.8985104 104.1876051
 120.8761270  74.8047879 104.3482018 119.6561003  74.0375817 118.0953334
 119.0259663  74.7192098 118.3288731 119.5497091  73.9258899 117.1506472
 114.9505975  73.7047613 109.0219258 114.1605029  73.9605142 108.5459369
 115.4417223  74.5195951 109.1271299 128.9669785  81.0452852 111.7724539
 129.7887229  80.6433040 111.4907221 128.9632188  80.9421086 112.7240655
 116.9020721  74.0692192 105.9802735 116.1051884  74.1810887 106.4986231
 116.6746313  74.4078845 105.1143626 122.7326388  80.5936896 113.9285250
 122.7970821  81.0557303 114.7643421 122.0237312  79.9634260 114.0567559
 113.2343678  73.9578104 111.4534249 113.4851717  74.8425113 111.7191825
 113.7703227  73.7782705 110.6809341 137.0575778  77.3891601 108.1209511
 136.3039486  76.8198999 107.9653515 137.1923319  77.3554265 109.0680145
 122.4474406  82.2605003 103.7964230 122.3120081  83.1056539 104.2249078
 122.9884218  82.4624281 103.0330164 118.9341746  68.3396583 120.4578585
 118.5408691  67.7862781 121.1326229 119.7507886  68.6507161 120.8485103
 115.9003803  79.7780441 104.3692155 116.4128324  80.5723691 104.5197720
 116.5526516  79.0806732 104.3025757 117.7098688  82.8946197 106.4514908
 117.8865316  83.8164162 106.2635892 118.5055522  82.5804617 106.8809288
 121.8509707  69.7554462 118.0498842 122.5919420  70.3561615 117.9703304
 122.0827629  69.0132100 117.4916884 116.9951045  74.9410829 116.3277071
 116.8804560  74.0396087 116.6284170 116.1395562  75.1874526 115.9761888
 124.0742882  82.8828570 117.9264572 123.6306737  82.0964948 117.6085477
 124.7360096  83.0707720 117.2608463 118.8330004  84.4124371 112.4525251
 119.3837429  84.2841435 111.6802244 117.9941479  84.7119260 112.1020143
 126.1724120  83.1631370 115.9545973 126.1542596  83.9840251 115.4626242
 127.0944040  83.0385445 116.1796114 122.6297175  80.6775499 116.7969482
 123.1625511  79.9163787 116.5668790 122.1011256  80.3849151 117.5393636
 125.7966870  65.7835565 112.3263123 125.4531139  66.6737207 112.2502234
 126.1645832  65.5937223 111.4632708 113.8652720  78.1069095 105.1451726
 114.7027942  78.5166104 104.9285433 114.0430988  77.1668538 105.1151919
 125.7617152  75.7744176 100.8335559 125.2463776  76.5448781 101.0723946
 125.4894461  75.1009312 101.4568620 123.3464263  70.6193877 105.8920797
 122.4905860  70.2300727 105.7126436 123.7591215  70.6985838 105.0320582
 124.8763410  68.1540220 110.2912357 124.3728206  68.1170355 109.4780162
 125.1694017  69.0632963 110.3509013 121.1206296  68.2378950 109.2978538
 121.9859293  68.0421759 108.9384428 121.1883805  68.0089302 110.2247895
 130.7351426  78.5276531 102.7688732 129.9580869  78.1887690 102.3243894
 131.4142907  78.5329154 102.0943697 125.5503455  73.6471268 102.6595340
 125.2453591  73.9617417 103.5105483 126.5033898  73.7252688 102.7022673
 123.9949887  79.8061491 104.3088294 123.4671249  79.0714251 103.9961531
 123.4937390  80.5836168 104.0628262 128.9742733  78.0010512 109.4255340
 128.3166408  78.6909773 109.5135469 129.7783133  78.3906944 109.7689326
 118.7268615  70.4681158 106.6694905 119.3012367  70.2456339 105.9368098
 119.3139597  70.5369852 107.4223507 127.7848192  76.3554885 107.4759282
 128.2980074  76.9884876 107.9780991 128.4349416  75.7556080 107.1102642
 119.0538202  72.4985619 100.6890790 118.2175514  72.8360305 101.0100065
 118.9142972  72.3634599  99.7517927 121.0291283  67.3422407 105.3969975
 120.3755695  67.0271424 104.7726589 120.9871757  66.7198147 106.1229798
 122.1402487  77.6241702  97.3123267 121.2329549  77.3930955  97.5114416
 122.6373519  76.8279321  97.4997248 125.0470566  86.3339209 100.2319953
 124.3732265  86.6370906 100.8404911 125.4336388  87.1368289  99.8825410
 124.2629023  73.8304340 109.7217622 123.3451584  74.0519287 109.5639310
 124.6789167  73.9050651 108.8629330 125.0464071  75.2295756 104.8520303
 125.7935890  75.7417153 104.5427425 125.3155660  74.9079809 105.7124696
 123.3190721  77.7254297 101.8347257 122.4101940  77.4413329 101.9319727
 123.3485805  78.1453375 100.9750564 128.5509988  81.3360886 105.6038424
 128.0972315  80.4951796 105.6603615 127.9203955  81.9722284 105.9413205
 127.4942908  72.2652872 106.8339092 126.7565665  71.7530258 107.1649334
 127.7469681  71.8253254 106.0222369 126.9942928  83.1737383 106.5388243
 127.2865902  83.7342440 105.8200608 127.5041548  83.4665944 107.2941402
 127.5954535  65.0429124 107.4280861 127.9013412  64.1826488 107.1406776
 128.3207140  65.6346744 107.2279855 113.8878891  75.4459811 105.8162459
 113.6903291  74.8529171 105.0913526 113.3325555  75.1412021 106.5338398
 121.8675615  75.3382917 107.9357052 121.9224225  74.3856754 107.8599529
 121.0566817  75.4942356 108.4198351 123.0166809  79.2663040  99.1735335
 122.5786239  78.5498899  98.7140973 123.7577250  79.4939155  98.6120427
 119.8067975  73.9559977 105.6947431 118.9935840  74.2554147 106.1012623
 120.3026969  73.5615666 106.4121913 121.9576553  83.9517734 107.6281696
 121.9152732  84.1778580 106.6990228 122.8739252  83.7181108 107.7767497
 125.4042187  74.4201801 114.5262325 125.7591574  74.6473275 115.3856791
 126.0514318  74.7520178 113.9039580 131.1339923  77.5420237 105.2311654
 130.9957822  77.7321833 104.3032843 130.7776142  78.3039620 105.6879705
 119.2982050  71.5278332 111.3108666 119.9381429  71.3867092 110.6131629
 118.4659580  71.2412846 110.9347268 131.1609303  79.6096764 110.2422925
 131.5945810  79.5172053 111.0905979 131.8740884  79.5854265 109.6042941
 120.0742354  80.8280763 107.4243658 120.8682952  80.3331083 107.2226233
 119.3634046  80.2998626 107.0611364 124.8937198  83.2098858 111.7756026
 124.9474220  83.7789795 112.5433742 124.0251979  83.3800743 111.4110063
 116.3825117  74.9723845 103.5003411 115.4522705  74.9108300 103.7173373
 116.4782589  74.4499797 102.7040052 116.3010666  71.4978657 106.0881653
 116.5617483  72.4123991 105.9790813 117.1227838  71.0303100 106.2378266
 117.7735591  72.9116415 113.2580477 118.4458645  72.7033777 112.6093126
 116.9465378  72.7138501 112.8185710 132.0224853  79.6520465 112.7755811
 132.2160743  80.5566275 113.0215086 131.9225471  79.1927884 113.6094396
 123.6761163  69.5378356 115.2746138 123.0289078  70.2368305 115.1810615
 124.4462179  69.9714499 115.6422386 127.0839961  79.8027208 118.3496691
 126.9325468  79.5737759 117.4326775 127.0744641  80.7597809 118.3628036
 123.8525298  77.3759120 113.3342958 124.7817358  77.5270280 113.1611925
 123.4316328  77.4643141 112.4791604 122.6513630  81.4009785 111.1041496
 122.5124715  81.0328569 111.9767434 121.8628226  81.9157424 110.9325453
 123.2461781  86.5018881 102.4467032 123.4213537  86.0306925 103.2612655
 122.5594570  87.1284648 102.6748293 124.2018845  80.7791388 108.4930333
 123.8668677  80.7392158 109.3887983 123.7022790  80.1136103 108.0200744
 118.1763089  76.1859018 114.0182914 118.0382887  75.4539256 114.6194454
 119.0868012  76.0967918 113.7367102 127.1378036  78.1247422  98.7667393
 126.5207207  77.3994250  98.6700446 126.6694525  78.8856782  98.4234467
 120.8045389  75.8978977 113.5066594 121.5145008  75.2572169 113.4653213
 120.7614697  76.1491872 114.4292775 128.7932168  82.8346330 116.4273173
 128.7344714  82.1505550 115.7603756 129.1951686  83.5765320 115.9753799
 119.5174323  72.8844195 115.3262234 118.9811680  72.4334933 115.9783830
 118.9291032  73.0190104 114.5832698 117.8122867  89.6508244 109.2206892
 118.0519465  90.2826768 109.8985911 116.9692063  89.2996284 109.5072251
 118.9276582  72.3432846  97.8888697 118.0506049  72.2221647  97.5250944
 119.4034335  71.5518925  97.6367586 128.7949575  80.7985914 114.6587153
 127.9076354  80.4611836 114.7813552 129.3648126  80.0668945 114.8955918
 110.4478722  77.1310006 107.9830204 111.1349762  76.8171736 107.3951220
 110.2926851  78.0351371 107.7097456 115.2513445  72.0200203 112.4115228
 115.1671633  71.4125872 111.6765638 114.4296151  72.5109221 112.4124724
 122.3250729  85.4587367 111.6248396 122.2520900  86.2642338 112.1367701
 121.8828122  85.6579332 110.7996418 122.1140508  84.6959137 105.1351218
 121.3308030  85.2380817 105.2289442 122.8133253  85.2133116 105.5345459
 125.4237158  70.5053766 107.7785423 125.9205858  69.7523728 107.4586493
 124.6524140  70.5418083 107.2128632 133.2766916  76.2094132 109.4203715
 133.2656792  77.0918847 109.0497648 132.4084295  75.8565682 109.2258252
 124.7849412  85.3574201 113.7806555 125.4977384  85.9921665 113.7082456
 124.2939441  85.4538067 112.9646557 126.5066939  79.2625453 105.3523847
 125.5723218  79.3826916 105.1828551 126.6843608  78.3597920 105.0883856
 122.0072127  72.6471149 107.5057108 121.6369915  72.0942189 108.1938013
 122.5031220  72.0429283 106.9532108 129.8939490  75.1042773 105.8873881
 130.3599943  75.9370764 105.8134183 130.3446991  74.6387754 106.5919139
 119.8361326  83.1068644 114.6012126 120.5370785  83.7405127 114.7541520
 119.3656441  83.4483376 113.8407765 127.9615722  81.4486594 102.8860033
 128.2375565  81.3343188 103.7953907 127.0920220  81.0504079 102.8472206
 127.8656153  67.4723360 109.9264782 126.9519233  67.7027586 110.0946989
 128.2949255  67.5561804 110.7778814 127.6362612  75.6613251 112.4264676
 126.9834062  75.9089159 111.7717129 128.0142992  74.8477390 112.0927153
 124.5969786  85.6972945 106.5292846 124.7792180  84.8794601 106.9920599
 125.4202772  85.9140637 106.0917736 124.9311951  84.6241130 103.7907895
 125.4599717  84.1133584 103.1778057 125.1940171  84.3083660 104.6553428
 123.6850185  76.4033063 118.9130713 123.0090822  76.3027192 119.5833088
 124.5077819  76.2472276 119.3766710 115.4329044  82.6404999 111.5343228
 116.0182481  81.8948687 111.6671133 115.2353882  82.9508956 112.4179892
 118.2867699  85.6756246 106.5505671 117.6178074  86.1602374 106.0669711
 118.1480569  85.9225467 107.4649049 110.0246698  75.2110599 110.2547672
 110.0630798  74.6774190 111.0484790 109.5186991  74.6845805 109.6358649
 122.4272968  87.7099990 113.1488329 122.9791276  87.8731612 113.9137414
 122.7679161  88.3004428 112.4768354 117.4037461  70.0575140 113.7510214
 117.4678787  70.9189971 113.3387612 117.3404581  69.4449141 113.0182572
 116.8789733  72.1298272 117.3983248 117.5061772  71.7475350 118.0120772
 116.0217652  71.9112474 117.7638941 127.2783842  82.5361248 119.0036984
 127.8223746  83.1491206 118.5091938 126.6970687  83.0940826 119.5203997
 113.6555276  73.9374701 103.3301603 113.9508717  73.0285380 103.2768657
 112.7543312  73.9162441 103.0082605 125.5641355  85.6581966 110.1352011
 125.4392494  84.8571705 109.6262957 126.2220446  86.1528159 109.6465981
 117.1849523  72.0130698 109.3129152 116.4636109  72.6266666 109.1736625
 117.9742779  72.5488463 109.2345797 127.6276263  83.4590986 111.7631561
 126.6806599  83.3396337 111.6909888 127.9759036  82.5713484 111.8457823
 119.9875837  69.3485125 115.5869803 120.5110238  69.5947421 116.3496113
 119.7688170  70.1805159 115.1672941 115.3843118  71.6188799 103.4540928
 115.0555824  70.7386178 103.2716034 115.7382488  71.5636468 104.3417317
 124.6322697  83.2543702 107.9635914 124.4847659  82.3260409 108.1443484
 125.4576190  83.2763793 107.4792989 118.4984941  71.9061769 103.8216406
 118.8381013  72.4347690 103.0995014 118.9457061  72.2442175 104.5974972
 128.2356818  84.0772261 109.0500786 129.1603366  83.8715122 108.9125237
 128.0672122  83.8288662 109.9590128 121.1928382  70.2898820 113.2719474
 120.8525202  69.4906633 113.6740154 120.4867388  70.5900530 112.6996307
 121.8444853  67.3748132 111.7246797 122.6670923  66.9008610 111.6025687
 122.0882917  68.1538616 112.2245483 120.4853088  70.4036391 102.0209699
 121.2061450  70.7817643 101.5173415 119.8618392  71.1225267 102.1244676
 124.6284211  71.1081539 102.9568031 124.8447825  71.9906177 102.6556859
 124.1478278  70.7167753 102.2273673 119.3683432  74.0667253 109.5338775
 119.2228013  74.3807556 110.4263057 118.8908636  74.6852153 108.9809674
 121.2279815  71.0569801 109.5819665 121.2141384  70.1610894 109.2451963
 121.9452243  71.0640464 110.2157951 123.0805946  71.4907141 111.6272792
 122.8223724  72.4124212 111.6257123 122.5490986  71.0937575 112.3173257
 128.0252135  84.5957928 104.4062878 128.1989012  84.0304350 103.6536730
 128.5181026  85.3958823 104.2242368 113.8429094  76.6072597 112.4726437
 113.2982562  77.3832405 112.6046711 114.7208444  76.9543402 112.3145558
 120.6316711  69.9384181 104.8507235 120.7532622  69.0100827 105.0498123
 120.3418753  69.9522867 103.9385551 123.5007901  67.6239091 107.9873955
 123.5229598  67.6878424 107.0325935 123.9175960  66.7843600 108.1814461
 133.8791526  77.3594351 106.0253178 134.3222672  76.6101676 105.6272301
 133.0018036  77.3504487 105.6426910 129.0127307  83.9124692 101.5059776
 129.7078212  84.5331385 101.7247091 129.3550457  83.0620044 101.7812154
 114.6295116  75.7342493 115.3656593 113.8876852  75.8825129 115.9521224
 114.3087861  75.9950759 114.5023343 130.9118730  81.3624398 103.0347107
 131.4370054  81.7011671 102.3096427 130.8241083  80.4271413 102.8510241
 122.5738779  85.2758472 115.1636983 122.8825905  85.0307618 116.0359683
 123.3714261  85.4805110 114.6755854 122.5959391  87.4296381 107.3942360
 122.1564381  86.9372760 108.0875217 123.3467508  86.8869349 107.1534435
 115.0751730  83.6207922 107.3966988 115.9009750  83.3211694 107.0165632
 114.7245782  82.8515545 107.8456777 120.0433263  82.9734390 109.4664662
 119.4213272  82.3105095 109.1666890 120.7138130  82.9995522 108.7838309
 113.2760335  81.5394249 108.3555922 112.4392243  81.1116423 108.1739923
 113.2483980  81.7326692 109.2926713 120.1157791  71.4516178 119.0597168
 120.1645946  72.3278301 118.6774937 120.6580305  70.9093571 118.4868811
 130.6012636  81.9957302 118.3398305 129.8108180  81.9781440 117.8002804
 130.3645991  82.5345595 119.0947341 130.7210511  78.8449768 115.6531033
 130.7708516  78.6799775 116.5946556 130.6124435  77.9777027 115.2628914
 119.6046770  81.5238314 102.9423122 119.7534890  82.2073778 102.2889795
 120.4113213  81.5043404 103.4572578 128.0114274  74.8280696 116.9690340
 128.9124136  74.6887161 116.6774338 128.0862248  74.9935151 117.9088518
 122.3457079  72.2047551 115.8143526 121.4760388  72.4981117 115.5426115
 122.5816559  72.7887996 116.5350790 132.2228708  81.2646709 115.8973055
 131.9313516  81.6276690 116.7336516 131.6100839  80.5513718 115.7186387
 133.4224390  78.8299589 108.4175625 134.2571282  79.2689393 108.5813185
 133.5583519  78.3538242 107.5983871 130.4715896  76.3879324 114.3653113
 130.9470018  76.5806970 113.5571964 129.5481462  76.4438510 114.1196497
 117.3599403  77.5503491 103.9484191 117.1145445  76.6465821 104.1464401
 117.5295318  77.5520642 103.0063669 125.0496113  68.4227168 113.3308947
 125.5678057  69.1588195 113.0055435 124.6951246  68.7291161 114.1655706
 116.6295051  73.2831849 101.4470353 115.9364295  73.3576204 100.7910389
 116.3846802  72.5192193 101.9691870 125.3008707  64.8427450 108.8509843
 125.5810461  64.1750639 109.4770270 126.0859314  65.0356546 108.3384507
 123.1042176  84.0186444 100.4134870 122.5316143  84.6376631  99.9605342
 123.6774969  84.5685806 100.9474792 129.1717565  73.2645084 112.5981418
 130.1234988  73.3643182 112.6193643 129.0021016  72.4723353 113.1079503
 127.1931945  70.3500667 112.7840819 126.5981877  70.6305680 112.0887308
 126.9081642  70.8394568 113.5557561 126.3239435  84.3023594 101.5443452
 127.2570108  84.2369156 101.7476327 126.2362648  85.1379861 101.0857985
 128.9527452  83.6189465  98.5047400 128.8741084  83.2849328  99.3983157
 129.7737119  84.1111232  98.5038872 131.6505643  76.4851204 111.7123718
 131.6181963  75.5467205 111.8983402 132.2606267  76.5635241 110.9789543
 123.4888974  75.3547257  97.7550922 124.4348079  75.2253465  97.8239340
 123.1103219  74.6161919  98.2320350 131.8000132  73.2762247 111.7582001
 131.2839180  72.4920704 111.5711930 132.6840080  72.9480964 111.9228521
 129.4610859  67.0203263 107.7177814 129.2635680  66.7118351 108.6021146
 130.0710564  67.7464902 107.8475744 135.5497490  75.6875073 111.4504206
 134.8230654  75.5531038 110.8420698 135.1344777  75.9951902 112.2560924
 123.3727667  79.4065003 119.2151579 124.2930676  79.5843602 119.4091626
 123.3377250  78.4621048 119.0631278 121.6731891  73.2797233  97.6905807
 120.7663347  72.9830346  97.7668521 121.9507872  72.9827051  96.8240094
 112.5909832  74.6003597 108.1404854 112.2712616  73.7468905 107.8479228
 112.0443260  74.8152175 108.8962821 116.3689739  77.3166038 111.8574360
 116.5875749  78.2483145 111.8762394 116.7815513  76.9574012 112.6429164
 123.2893957  67.8234123 103.8450049 122.4794685  67.4781208 104.2205295
 123.9778374  67.5141667 104.4337660 125.2184505  66.9012170 105.4674345
 125.7715544  67.3207623 106.1264368 125.4554592  65.9747918 105.5097301
 121.2417604  72.8899243 121.2477109 121.1414331  73.8393600 121.1789200
 121.0239146  72.5617482 120.3753179 120.4430676  70.1384168  97.8317787
 121.3049840  70.4639067  98.0913604 120.6281020  69.3515664  97.3190852
 112.4598092  78.2206508 110.1097975 111.7661563  77.8060461 109.5967930
 113.2071083  78.2627045 109.5131394 128.5963312  69.0112695 104.9753010
 128.0161981  69.6697499 104.5931062 128.3299245  68.1890040 104.5640427
 127.0466879  68.4117753 107.1774330 127.5466657  68.5234287 106.3688649
 127.6902487  68.1078805 107.8175138 121.1048874  76.3196382 120.0642171
 120.6215956  77.1196742 120.2706060 121.1909814  76.3304327 119.1109615
 114.3734834  78.1524762 107.9863990 114.3505522  78.2512449 107.0345873
 114.6835471  78.9989913 108.3081156 117.0322212  80.2100917 112.1010605
 117.9865466  80.1784859 112.0340536 116.8334736  79.7491541 112.9160831
 117.6221594  78.7802033 114.6681402 118.4414483  79.2746112 114.6916240
 117.8958402  77.8634001 114.6398970 127.3788190  71.1712785 104.0309358
 126.4914045  71.4562436 103.8129553 127.7942179  71.0106549 103.1836635
 130.7302726  71.1959306 107.7463697 131.5063117  71.6855759 108.0188314
 130.0050861  71.6217360 108.2035567 133.1675285  71.9086926 108.8037638
 133.7619776  71.6682661 108.0930946 133.2401869  71.1894056 109.4311174
 115.3872441  85.7520536 109.1180803 115.2526909  84.9920937 108.5518801
 114.9704503  86.4761436 108.6509591 126.5231404  80.9357460  98.1257378
 127.2267254  81.1407462  98.7415033 125.7994053  81.5034222  98.3906461
 127.3529214  76.6867321 104.2459648 127.2964415  77.1435873 103.4067280
 127.9057556  75.9258006 104.0682491 131.1634020  72.4757053 105.0709768
 130.9070954  72.0753689 105.9017975 130.5386888  73.1900847 104.9459907
 135.4746358  75.2153126 107.5781059 134.9145916  75.2846316 108.3512621
 134.8689861  75.0394111 106.8580555 118.5441567  86.6489853 109.3299245
 118.4273951  87.5935286 109.2277935 117.7234013  86.3463415 109.7185044
 128.4318101  81.3739989 100.1755838 129.2663705  80.9421188  99.9933313
 128.2702444  81.2022003 101.1032732 128.0863993  77.8772102 101.5412177
 128.0312797  77.7116374 100.6000621 127.4610049  78.5848135 101.6974367
 112.8756508  73.1140167 115.3673599 113.5215372  72.6039121 115.8560825
 112.6673659  73.8508849 115.9417025 125.4009901  80.1821014 120.8665740
 126.2701060  80.3561667 120.5052375 124.9216652  81.0015431 120.7441469
 121.3960119  67.3780211 101.1197496 121.3838789  68.3222051 101.2765766
 122.2883541  67.1950357 100.8256957 119.5696081  87.3018115 112.5455174
 120.4723327  87.3341726 112.8621669 119.3433451  86.3718566 112.5601509
 121.3249683  86.0549102 109.2065252 120.3745314  86.0550964 109.0929625
 121.6282169  85.3081836 108.6901287 125.2112238  63.9722988 105.3743432
 124.4444634  63.4181475 105.5200115 125.6222943  64.0444857 106.2357584
 117.2153999  70.2607784 119.4648614 118.0785461  69.9044589 119.6751938
 116.6419410  69.9221679 120.1524018 133.8692083  91.8437068 110.2072539
 133.5310594  91.7278133 109.3193074 134.7381851  91.4428233 110.1873545
 129.7278898  93.6972545 106.1969430 129.1643763  93.6062482 105.4285718
 129.6131293  92.8772449 106.6771923 127.2743330  95.1923736 109.0353651
 128.0664622  94.8514561 108.6199950 127.5139980  95.3018711 109.9555804
 135.3078457  97.3643513 101.5083895 134.6566437  97.9497593 101.1217909
 136.1022820  97.8949707 101.5678933 129.2334084  94.4532650 101.9071030
 130.0064960  93.9061637 101.7683905 129.5859483  95.3176899 102.1185491
 131.9975334  93.1585880 111.7039288 132.5938906  92.9341903 110.9896251
 132.0550305  92.4170626 112.3064736 131.5700362  90.6125316  99.5389479
 131.8225883  90.0906837  98.7772942 130.6324921  90.4491461  99.6416163
 136.6143645  89.6161094 107.3464223 137.4006734  89.1980517 106.9954640
 136.8782349  90.5207186 107.5145871 136.7853722  95.0533944 102.0452880
 136.1499555  95.1268571 102.7573784 136.4551129  95.6427543 101.3671959
 131.2896651  92.5153422 101.7413854 131.1732909  91.8398325 102.4094939
 131.3998911  92.0285796 100.9246007 133.6328192  91.9763569 105.4460544
 133.2686399  91.4494190 106.1573465 134.4895308  91.5862038 105.2727029
 133.2733679  87.0053469 100.4421892 133.4408081  87.8733705 100.8092363
 133.0830848  87.1680750  99.5183181 129.4821493  91.9184244 108.1424427
 128.5571990  91.7860458 108.3502119 129.7305906  92.6978464 108.6394369
 133.2522899  89.4611126 101.4268559 133.1322525  89.9068177 102.2654039
 132.5575488  89.8096444 100.8682097 126.8430304  91.5617518 108.9768216
 126.9722685  91.8151997 109.8907628 126.1627756  92.1545226 108.6572871
 131.0129792 102.2314768 105.0758690 130.9353821 103.1822593 105.1547171
 130.4091435 101.8860640 105.7333617 133.5879803  89.2929834 113.2643743
 134.4340999  89.7169247 113.4078392 133.5278441  88.6363458 113.9582306
 136.2943940  86.1090635 110.5038754 135.4328419  86.4071889 110.7955492
 136.3206375  86.3261034 109.5719787 133.1105510  94.6532826 106.9112560
 133.5743855  94.9320529 106.1217182 132.8462308  93.7516270 106.7285650
 130.0029591  94.2004307 109.8492323 130.5730948  94.6291576 109.2109807
 130.5937703  93.9186892 110.5476509 132.0474396  90.7755978 103.7202125
 132.7498439  91.2277022 104.1876051 131.7155024  90.1339797 104.3482018
 125.7899730  89.0339531 109.0219258 124.9998784  89.2897059 108.5459369
 126.2810977  89.8487869 109.1271299 127.7414475  89.3984110 105.9802735
 126.9445638  89.5102804 106.4986231 127.5140067  89.7370762 105.1143626
 124.0737433  89.2870021 111.4534249 124.3245471  90.1717031 111.7191825
 124.6096981  89.1074623 110.6809341 133.2868160  97.5896921 103.7964230
 133.1513835  98.4348456 104.2249078 133.8277973  97.7916198 103.0330164
 126.7397558  95.1072359 104.3692155 127.2522078  95.9015609 104.5197720
 127.3920271  94.4098649 104.3025757 128.5492443  98.2238115 106.4514908
 128.7259071  99.1456080 106.2635892 129.3449276  97.9096534 106.8809288
 127.8344799  90.2702747 116.3277071 127.7198314  89.3688004 116.6284170
 126.9789317  90.5166444 115.9761888 136.6360624  81.1127483 112.3263123
 136.2924893  82.0029124 112.2502234 137.0039587  80.9229140 111.4632708
 124.7046475  93.4361013 105.1451726 125.5421697  93.8458021 104.9285433
 124.8824742  92.4960455 105.1151919 136.6010907  91.1036094 100.8335559
 136.0857530  91.8740698 101.0723946 136.3288215  90.4301230 101.4568620
 134.1858018  85.9485795 105.8920797 133.3299614  85.5592645 105.7126436
 134.5984970  86.0277755 105.0320582 135.7157164  83.4832138 110.2912357
 135.2121960  83.4462273 109.4780162 136.0087771  84.3924880 110.3509013
 131.9600050  83.5670867 109.2978538 132.8253047  83.3713676 108.9384428
 132.0277559  83.3381219 110.2247895 136.3897210  88.9763186 102.6595340
 136.0847345  89.2909335 103.5105483 137.3427652  89.0544606 102.7022673
 134.8343642  95.1353409 104.3088294 134.3065003  94.4006169 103.9961531
 134.3331144  95.9128085 104.0628262 129.5662369  85.7973075 106.6694905
 130.1406121  85.5748257 105.9368098 130.1533352  85.8661770 107.4223507
 129.8931956  87.8277536 100.6890790 129.0569269  88.1652223 101.0100065
 129.7536726  87.6926516  99.7517927 131.8685037  82.6714324 105.3969975
 131.2149449  82.3563342 104.7726589 131.8265511  82.0490065 106.1229798
 132.9796242  92.9533619  97.3123267 132.0723304  92.7222873  97.5114416
 133.4767274  92.1571239  97.4997248 135.8864321 101.6631127 100.2319953
 135.2126020 101.9662823 100.8404911 136.2730143 102.4660207  99.8825410
 135.1022777  89.1596258 109.7217622 134.1845339  89.3811205 109.5639310
 135.5182921  89.2342568 108.8629330 135.8857825  90.5587674 104.8520303
 136.6329644  91.0709071 104.5427425 136.1549415  90.2371726 105.7124696
 134.1584475  93.0546214 101.8347257 133.2495695  92.7705247 101.9319727
 134.1879559  93.4745293 100.9750564 124.7272646  90.7751728 105.8162459
 124.5297046  90.1821089 105.0913526 124.1719310  90.4703939 106.5338398
 132.7069369  90.6674835 107.9357052 132.7617979  89.7148671 107.8599529
 131.8960571  90.8234274 108.4198351 133.8560563  94.5954958  99.1735335
 133.4179993  93.8790817  98.7140973 134.5971004  94.8231073  98.6120427
 130.6461729  89.2851895 105.6947431 129.8329595  89.5846065 106.1012623
 131.1420724  88.8907583 106.4121913 132.7970307  99.2809652 107.6281696
 132.7546486  99.5070498 106.6990228 133.7133006  99.0473026 107.7767497
 130.1375804  86.8570250 111.3108666 130.7775183  86.7159009 110.6131629
 129.3053335  86.5704764 110.9347268 130.9136108  96.1572681 107.4243658
 131.7076707  95.6623001 107.2226233 130.2027800  95.6290544 107.0611364
 127.2218871  90.3015762 103.5003411 126.2916460  90.2400218 103.7173373
 127.3176343  89.7791715 102.7040052 127.1404421  86.8270575 106.0881653
 127.4011238  87.7415908 105.9790813 127.9621593  86.3595018 106.2378266
 128.6129346  88.2408332 113.2580477 129.2852399  88.0325694 112.6093126
 127.7859132  88.0430418 112.8185710 134.5154918  84.8670273 115.2746138
 133.8682833  85.5660223 115.1810615 135.2855933  85.3006417 115.6422386
 134.0855536 101.8310799 102.4467032 134.2607292 101.3598842 103.2612655
 133.3988324 102.4576565 102.6748293 135.0412599  96.1083305 108.4930333
 134.7062432  96.0684075 109.3887983 134.5416545  95.4428021 108.0200744
 129.0156843  91.5150935 114.0182914 128.8776641  90.7831174 114.6194454
 129.9261767  91.4259835 113.7367102 131.6439144  91.2270895 113.5066594
 132.3538762  90.5864087 113.4653213 131.6008452  91.4783789 114.4292775
 130.3568078  88.2136112 115.3262234 129.8205435  87.7626851 115.9783830
 129.7684786  88.3482021 114.5832698 129.7670337  87.6724764  97.8888697
 128.8899803  87.5513565  97.5250944 130.2428090  86.8810842  97.6367586
 121.2872477  92.4601924 107.9830204 121.9743517  92.1463654 107.3951220
 121.1320606  93.3643288 107.7097456 126.0907199  87.3492120 112.4115228
 126.0065388  86.7417790 111.6765638 125.2689905  87.8401138 112.4124724
 132.9534263 100.0251054 105.1351218 132.1701785 100.5672734 105.2289442
 133.6527008 100.5425034 105.5345459 136.2630913  85.8345684 107.7785423
 136.7599612  85.0815646 107.4586493 135.4917894  85.8710000 107.2128632
 137.3460694  94.5917371 105.3523847 136.4116972  94.7118833 105.1828551
 137.5237362  93.6889838 105.0883856 132.8465882  87.9763067 107.5057108
 132.4763669  87.4234107 108.1938013 133.3424974  87.3721200 106.9532108
 135.4363540 101.0264862 106.5292846 135.6185935 100.2086518 106.9920599
 136.2596526 101.2432555 106.0917736 135.7705706  99.9533047 103.7907895
 136.2993472  99.4425502 103.1778057 136.0333925  99.6375578 104.6553428
 126.2722798  97.9696917 111.5343228 126.8576235  97.2240605 111.6671133
 126.0747637  98.2800873 112.4179892 129.1261453 101.0048164 106.5505671
 128.4571829 101.4894292 106.0669711 128.9874323 101.2517385 107.4649049
 120.8640453  90.5402517 110.2547672 120.9024552  90.0066108 111.0484790
 120.3580746  90.0137722 109.6358649 128.2431215  85.3867057 113.7510214
 128.3072542  86.2481888 113.3387612 128.1798336  84.7741059 113.0182572
 127.7183488  87.4590190 117.3983248 128.3455527  87.0767267 118.0120772
 126.8611407  87.2404392 117.7638941 124.4949031  89.2666619 103.3301603
 124.7902472  88.3577298 103.2768657 123.5937066  89.2454359 103.0082605
 128.0243278  87.3422616 109.3129152 127.3029863  87.9558583 109.1736625
 128.8136533  87.8780381 109.2345797 130.8269591  84.6777042 115.5869803
 131.3503993  84.9239339 116.3496113 130.6081924  85.5097077 115.1672941
 126.2236872  86.9480717 103.4540928 125.8949578  86.0678096 103.2716034
 126.5776243  86.8928385 104.3417317 135.4716451  98.5835620 107.9635914
 135.3241413  97.6552327 108.1443484 136.2969945  98.6055710 107.4792989
 129.3378695  87.2353687 103.8216406 129.6774768  87.7639608 103.0995014
 129.7850816  87.5734093 104.5974972 132.0322136  85.6190737 113.2719474
 131.6918956  84.8198550 113.6740154 131.3261142  85.9192448 112.6996307
 132.6838608  82.7040050 111.7246797 133.5064677  82.2300528 111.6025687
 132.9276671  83.4830533 112.2245483 131.3246842  85.7328308 102.0209699
 132.0455205  86.1109561 101.5173415 130.7012147  86.4517185 102.1244676
 135.4677965  86.4373457 102.9568031 135.6841580  87.3198095 102.6556859
 134.9872032  86.0459671 102.2273673 130.2077187  89.3959170 109.5338775
 130.0621767  89.7099473 110.4263057 129.7302390  90.0144071 108.9809674
 132.0673570  86.3861718 109.5819665 132.0535138  85.4902812 109.2451963
 132.7845998  86.3932382 110.2157951 133.9199700  86.8199059 111.6272792
 133.6617478  87.7416129 111.6257123 133.3884741  86.4229493 112.3173257
 124.6822849  91.9364515 112.4726437 124.1376317  92.7124323 112.6046711
 125.5602199  92.2835319 112.3145558 131.4710466  85.2676099 104.8507235
 131.5926377  84.3392745 105.0498123 131.1812508  85.2814785 103.9385551
 134.3401656  82.9531009 107.9873955 134.3623353  83.0170342 107.0325935
 134.7569715  82.1135518 108.1814461 125.4688871  91.0634411 115.3656593
 124.7270607  91.2117046 115.9521224 125.1481615  91.3242677 114.5023343
 125.9145484  98.9499840 107.3966988 126.7403504  98.6503612 107.0165632
 125.5639536  98.1807462 107.8456777 130.8827018  98.3026308 109.4664662
 130.2607027  97.6397013 109.1666890 131.5531884  98.3287440 108.7838309
 124.1154089  96.8686166 108.3555922 123.2785998  96.4408341 108.1739923
 124.0877735  97.0618610 109.2926713 130.4440524  96.8530231 102.9423122
 130.5928645  97.5365696 102.2889795 131.2506968  96.8335321 103.4572578
 128.1993157  92.8795409 103.9484191 127.9539199  91.9757739 104.1464401
 128.3689072  92.8812559 103.0063669 135.8889867  83.7519085 113.3308947
 136.4071811  84.4880112 113.0055435 135.5345000  84.0583079 114.1655706
 127.4688805  88.6123767 101.4470353 126.7758050  88.6868122 100.7910389
 127.2240557  87.8484110 101.9691870 136.1402462  80.1719368 108.8509843
 136.4204215  79.5042557 109.4770270 136.9253068  80.3648463 108.3384507
 133.9435930  99.3478362 100.4134870 133.3709897  99.9668549  99.9605342
 134.5168724  99.8977723 100.9474792 134.3282729  90.6839175  97.7550922
 135.2741833  90.5545383  97.8239340 133.9496973  89.9453836  98.2320350
 132.5125646  88.6089151  97.6905807 131.6057101  88.3122264  97.7668521
 132.7901627  88.3118969  96.8240094 123.4303586  89.9295514 108.1404854
 123.1106370  89.0760823 107.8479228 122.8837014  90.1444092 108.8962821
 127.2083494  92.6457955 111.8574360 127.4269503  93.5775063 111.8762394
 127.6209267  92.2865930 112.6429164 134.1287711  83.1526041 103.8450049
 133.3188440  82.8073126 104.2205295 134.8172128  82.8433584 104.4337660
 136.0578260  82.2304087 105.4674345 136.6109298  82.6499541 106.1264368
 136.2948346  81.3039836 105.5097301 131.2824430  85.4676086  97.8317787
 132.1443594  85.7930984  98.0913604 131.4674774  84.6807582  97.3190852
 123.2991846  93.5498426 110.1097975 122.6055317  93.1352379 109.5967930
 124.0464837  93.5918962 109.5131394 125.2128589  93.4816680 107.9863990
 125.1899277  93.5804367 107.0345873 125.5229225  94.3281830 108.3081156
 127.8715966  95.5392835 112.1010605 128.8259220  95.5076777 112.0340536
 127.6728490  95.0783458 112.9160831 126.2266195 101.0812454 109.1180803
 126.0920663 100.3212855 108.5518801 125.8098258 101.8053354 108.6509591
 123.7150263  88.4432085 115.3673599 124.3609126  87.9331039 115.8560825
 123.5067414  89.1800766 115.9417025 132.2353873  82.7072129 101.1197496
 132.2232543  83.6513969 101.2765766 133.1277295  82.5242275 100.8256957
 136.0505993  79.3014906 105.3743432 135.2838389  78.7473393 105.5200115
 136.4616698  79.3736775 106.2357584 135.3342785 104.5958537 103.3301603
 135.6296226 103.6869215 103.2768657 134.4330821 104.5746276 103.0082605
 137.0630627 102.2772634 103.4540928 136.7343333 101.3970013 103.2716034
 137.4169997 102.2220303 104.3417317  76.8161020   2.5917302  91.8003997
  76.7385050   3.5425127  91.8792477  76.2122664   2.2463174  92.4578923
  75.4754987   0.1018823  99.1770557  76.0262412  -0.0264114  98.4047551
  74.6366463   0.4013712  98.8265450  81.6895550   2.0233661  86.9565260
  81.0157248   2.3265358  87.5650217  82.0761372   2.8262741  86.6070717
  79.8886765   2.1913333  89.1712339  80.0638520   1.7201376  89.9857961
  79.2019553   2.8179099  89.3993599  74.4547850   5.3402696  95.9452199
  74.6944448   5.9721220  96.6231217  73.6117047   4.9890736  96.2317558
  78.9675712   1.1481818  98.3493703  78.8945883   1.9536790  98.8613007
  78.5253105   1.3473784  97.5241724  78.7565492   0.3853588  91.8596524
  77.9733013   0.9275269  91.9534749  79.4558237   0.9027568  92.2590766
  81.4274395   1.0468652 100.5051862  82.1402368   1.6816117 100.4327763
  80.9364424   1.1432518  99.6891863  72.0754027  -1.6700549  98.2588535
  72.6607464  -2.4156861  98.3916439  71.8778866  -1.3596592  99.1425199
  74.9292682   1.3650698  93.2750977  74.2603058   1.8496826  92.7915017
  74.7905552   1.6119919  94.1894356  79.0697951   3.3994442  99.8733636
  79.6216259   3.5626063 100.6382721  79.4104144   3.9898880  99.2013661
  79.2163762   0.9652923 101.8882290  79.5250889   0.7202070 102.7604990
  80.0139244   1.1699562 101.4001160  79.2384374   3.1190833  94.1187667
  78.7989365   2.6267212  94.8120523  79.9892491   2.5763801  93.8779742
  71.7176713  -0.6897626  94.1212295  72.5434733  -0.9893854  93.7410938
  71.3670765  -1.4590004  94.5702083  69.9185318  -2.7711300  95.0801228
  69.0817227  -3.1989125  94.8985230  69.8908964  -2.5778856  96.0172020
  72.0297424   1.4414988  95.8426109  71.8951892   0.6815389  95.2764107
  71.6129486   2.1655888  95.3754898  75.1866550   2.3384305  96.0544552
  75.0698934   3.2829738  95.9523242  74.3658996   2.0357867  96.4430351
  76.2121064   2.9912567  99.2700480  77.1148311   3.0236178  99.5866975
  75.9858434   2.0613018  99.2846816  77.9674666   1.7443554  95.9310559
  77.0170297   1.7445415  95.8174931  78.2707152   0.9976288  95.4146594
  93.7027360   7.5804092  96.9956321  94.3405770   7.4610840  96.2919661
  93.5848202   8.5284936  97.0544273  90.5117066   7.5331520  96.9317846
  90.1735577   7.4172585  96.0438381  91.3806834   7.1322685  96.9118852
  86.3703882   9.3866997  92.9214737  85.8068747   9.2956934  92.1531025
  86.2556277   8.5666901  93.4017229  90.9936849   8.6866372 102.8904051
  90.9825490   8.2919170 102.0184555  91.1557488   7.9532445 103.4837823
  83.9168313  10.8818188  95.7598957  84.7089605  10.5409013  95.3445257
  84.1564964  10.9913163  96.6801111  91.9503440  13.0537964  88.2329202
  91.2991420  13.6392045  87.8463216  92.7447803  13.5844159  88.2924239
  85.8759067  10.1427102  88.6316336  86.6489943   9.5956089  88.4929212
  86.2284466  11.0071351  88.8430798  87.7144110  11.4703484 101.8383235
  87.4233976  12.3749115 101.7229902  88.3501094  11.5120011 102.5527305
  88.6400317   8.8480332  98.4284595  89.2363889   8.6236355  97.7141558
  88.6975288   8.1065078  99.0310043  88.2125345   6.3019768  86.2634786
  88.4650866   5.7801289  85.5018249  87.2749904   6.1385913  86.3661470
  93.4278705  10.7428396  88.7698186  92.7924538  10.8163023  89.4819091
  93.0976112  11.3321995  88.0917265  87.9321634   8.2047874  88.4659161
  87.8157892   7.5292777  89.1340245  88.0423894   7.7180248  87.6491314
  90.2753175   7.6658021  92.1705850  89.9111382   7.1388642  92.8818772
  91.1320291   7.2756490  91.9972336  92.6733995  11.1564899  98.8333029
  92.3734718  12.0589938  98.7248836  92.3285055  10.8897083  99.6854182
  86.1246477   7.6078696  94.8669734  85.1996973   7.4754910  95.0747425
  86.3730890   8.3872915  95.3639676  89.8947883   5.1505578  88.1513866
  89.7747508   5.5962629  88.9899346  89.2000471   5.4990896  87.5927404
  83.4855288   7.2511970  95.7013523  83.6147669   7.5046449  96.6152934
  82.8052739   7.8439678  95.3818178  87.6554775  17.9209220  91.8003997
  87.5778805  18.8717045  91.8792477  87.0516418  17.5755092  92.4578923
  90.1472005   5.0937085 104.4565364  89.3705339   5.6531005 104.4468228
  90.7862568   5.5793868 104.9780234  88.4018377   7.9022538 104.0183331
  89.1433061   8.4407582 103.7418154  87.6955362   8.5288827 104.1754883
  93.8773717  10.0451679 102.6155492  94.2857073   9.6034089 101.8710125
  93.1550978   9.4704306 102.8689685  90.2304787   4.9824286  99.9889049
  91.0765982   5.4063699 100.1323698  90.1703424   4.3257910 100.6827612
  94.2002531  10.6052870  96.3707781  93.5711394  10.7698584  95.6683849
  93.8128193  11.0194479  97.1418745  98.0791763  11.5407307  93.7252145
  97.3942801  11.9206209  93.1749178  98.1635612  12.1502634  94.4584093
  95.3342695   9.1867266 100.3247488  95.5459590   9.8299026  99.6481869
  95.2872443   8.3529583  99.8569418  89.7530493  10.3427278  93.6357866
  90.2168839  10.6214981  92.8462489  89.4887291   9.4410722  93.4530957
  86.6454574   9.8898759  96.5737629  87.2155931  10.3186028  95.9355114
  87.2362686   9.6081344  97.2721815  88.6899379   6.4650430  90.4447431
  89.3923422   6.9171474  90.9121358  88.3580008   5.8234249  91.0727324
  87.1379741   5.0562187 104.8198641  86.5078401   5.7378467 105.0534038
  87.0315829   4.9445268 103.8751779  82.4324713   4.7233983  95.7464565
  81.6423767   4.9791511  95.2704676  82.9235960   5.5382321  95.8516605
  96.4488523  12.0639222  98.4969846  97.2705966  11.6619409  98.2152527
  96.4450926  11.9607456  99.4485962  84.3839458   5.0878562  92.7048042
  83.5870622   5.1997256  93.2231537  84.1565051   5.4265214  91.8388932
  90.2145126  11.6123265 100.6530556  90.2789559  12.0743672 101.4888728
  89.5056050  10.9820630 100.7812866  80.7162416   4.9764473  98.1779556
  80.9670454   5.8611483  98.4437132  81.2521964   4.7969075  97.4054648
  89.9293144  13.2791373  90.5209537  89.7938819  14.1242908  90.9494384
  90.4702956  13.4810650  89.7575470  83.3822541  10.7966811  91.0937462
  83.8947062  11.5910061  91.2443026  84.0345254  10.0993101  91.0271063
  85.1917426  13.9132567  93.1760215  85.3684054  14.8350532  92.9881199
  85.9874259  13.5990986  93.6054595  84.4769782   5.9597199 103.0522378
  84.3623298   5.0582456 103.3529477  83.6214300   6.2060896 102.7007195
  91.5561620  13.9014939 104.6509879  91.1125474  13.1151318 104.3330783
  92.2178834  14.0894090 103.9853769  86.3148741  15.4310741  99.1770557
  86.8656166  15.3027804  98.4047551  85.4760217  15.7305630  98.8265450
  93.6542858  14.1817739 102.6791280  93.6361334  15.0026620 102.1871549
  94.5762778  14.0571814 102.9041421  90.1115912  11.6961869 103.5214788
  90.6444249  10.9350157 103.2914096  89.5829993  11.4035520 104.2638943
  81.3471458   9.1255465  91.8697032  82.1846680   9.5352473  91.6530740
  81.5249726   8.1854907  91.8397226  93.2435890   6.7930546  87.5580865
  92.7282513   7.5635150  87.7969253  92.9713198   6.1195682  88.1813927
  98.2170164   9.5462900  89.4934039  97.4399607   9.2074060  89.0489201
  98.8961645   9.5515523  88.8189004  91.4768625  10.8247861  91.0333600
  90.9489987  10.0900621  90.7206838  90.9756128  11.6022537  90.7873569
  96.4561471   9.0196882  96.1500647  95.7985146   9.7096143  96.2380775
  97.2601870   9.4093313  96.4934633  95.2666930   7.3741254  94.2004588
  95.7798812   8.0071246  94.7026298  95.9168154   6.7742450  93.8347948
  86.5356940   3.5171988  87.4136097  85.6994252   3.8546675  87.7345372
  86.3961709   3.3820968  86.4763234  89.6221225   8.6428071  84.0368573
  88.7148287   8.4117325  84.2359722  90.1192257   7.8465691  84.2242555
  92.5289304  17.3525578  86.9565260  91.8551003  17.6557275  87.5650217
  92.9155126  18.1554659  86.6070717  91.7447761   4.8490710  96.4462929
  90.8270322   5.0705657  96.2884617  92.1607904   4.9237020  95.5874636
  92.5282809   6.2482125  91.5765609  93.2754627   6.7603523  91.2672731
  92.7974398   5.9266178  92.4370003  90.8009459   8.7440666  88.5592563
  89.8920678   8.4599699  88.6565033  90.8304542   9.1639745  87.6995870
  96.0328726  12.3547256  92.3283731  95.5791053  11.5138166  92.3848921
  95.4022693  12.9908654  92.6658511  94.4761665  14.1923752  93.2633549
  94.7684640  14.7528809  92.5445915  94.9860286  14.4852313  94.0186708
  81.3697629   6.4646180  92.5407766  81.1722029   5.8715541  91.8158832
  80.8144293   6.1598390  93.2583704  89.3494353   6.3569287  94.6602359
  89.4042963   5.4043123  94.5844835  88.5385555   6.5128726  95.1443657
  90.4985546  10.2849410  85.8980642  90.0604976   9.5685269  85.4386279
  91.2395987  10.5125525  85.3365733  87.2886713   4.9746347  92.4192738
  86.4754578   5.2740517  92.8257930  87.7845707   4.5802035  93.1367220
  89.4395291  14.9704103  94.3527002  89.3971469  15.1964950  93.4235534
  90.3557989  14.7367478  94.5012804  92.8860924   5.4388171 101.2507632
  93.2410312   5.6659644 102.1102097  93.5333056   5.7706548 100.6284887
  98.6158661   8.5606607  91.9556961  98.4776560   8.7508203  91.0278150
  98.2594880   9.3225990  92.4125012  98.6428041  10.6283134  96.9668232
  99.0764548  10.5358423  97.8151286  99.3559622  10.6040634  96.3288248
  87.5561091  11.8467132  94.1488965  88.3501690  11.3517453  93.9471540
  86.8452784  11.3184996  93.7856671  92.3755936  14.2285228  98.5001333
  92.4292958  14.7976164  99.2679049  91.5070717  14.3987113  98.1355370
  83.8643855   5.9910214  90.2248718  82.9341443   5.9294670  90.4418680
  83.9601327   5.4686167  89.4285359  83.7829404   2.5165027  92.8126959
  84.0436221   3.4310360  92.7036120  84.6046576   2.0489470  92.9623572
  85.2554329   3.9302784  99.9825784  85.9277383   3.7220146  99.3338433
  84.4284116   3.7324870  99.5431016  99.5043590  10.6706835  99.5001118
  99.6979481  11.5752645  99.7460392  99.4044209  10.2114254 100.3339703
  94.5658699  10.8213577 105.0741998  94.4144206  10.5924129 104.1572082
  94.5563379  11.7784179 105.0873343  91.3344036   8.3945490 100.0588265
  92.2636096   8.5456650  99.8857232  90.9135066   8.4829511  99.2036911
  90.1332367  12.4196154  97.8286802  89.9943453  12.0514939  98.7012740
  89.3446964  12.9343794  97.6570760  90.7280519  17.5205251  89.1712339
  90.9032275  17.0493294  89.9857961  90.0413307  18.1471017  89.3993599
  91.6837582  11.7977757  95.2175640  91.3487415  11.7578527  96.1133290
  91.1841528  11.1322473  94.7446050  85.6581826   7.2045387 100.7428221
  85.5201624   6.4725626 101.3439760  86.5686750   7.1154287 100.4612409
  94.6196774   9.1433791  85.4912700  94.0025945   8.4180620  85.3945752
  94.1513263   9.9043152  85.1479774  88.2864127   6.9165346 100.2311901
  88.9963746   6.2758539 100.1898519  88.2433435   7.1678241 101.1538082
  96.2750906  13.8532700 103.1518480  96.2163452  13.1691920 102.4849063
  96.6770424  14.5951690 102.6999106  86.9993061   3.9030564 102.0507540
  86.4630418   3.4521303 102.7029137  86.4109770   4.0376473 101.3078005
  85.2941605  20.6694614  95.9452199  85.5338203  21.3013138  96.6231217
  84.4510801  20.3182654  96.2317558  86.4095320   3.3619216  84.6134004
  85.5324786   3.2408017  84.2496251  86.8853073   2.5705294  84.3612893
  96.2768313  11.8172284 101.3832460  95.3895092  11.4798206 101.5058859
  96.8466864  11.0855315 101.6201225  77.9297460   8.1496376  94.7075511
  78.6168500   7.8358106  94.1196526  77.7745589   9.0537740  94.4342762
  82.7332182   3.0386572  99.1360535  82.6490371   2.4312242  98.4010945
  81.9114889   3.5295590  99.1370031  89.8069466  16.4773736  98.3493703
  89.7339638  17.2828708  98.8613007  89.3646860  16.6765702  97.5241724
  89.5959246  15.7145506  91.8596524  88.8126768  16.2567186  91.9534749
  90.2951991  16.2319486  92.2590766  92.2668150  16.3760570 100.5051862
  92.9796122  17.0108035 100.4327763  91.7758179  16.4724436  99.6891863
  93.9885677  10.2811823  92.0769153  93.0541956  10.4013285  91.9073858
  94.1662345   9.3784290  91.8129163  87.3180063  14.1255014 101.3257432
  88.0189523  14.7591497 101.4786827  86.8475178  14.4669745 100.5653072
  95.4434459  12.4672963  89.6105339  95.7194303  12.3529558  90.5199213
  94.5738958  12.0690448  89.5717512  95.1181349   6.6799621  99.1509983
  94.4652800   6.9275529  98.4962435  95.4961729   5.8663759  98.8172460
  92.0788523  16.7159314  93.2538153  92.2610918  15.8980970  93.7165905
  92.9021509  16.9327006  92.8163043  92.4130689  15.6427499  90.5153201
  92.9418455  15.1319954  89.9023364  92.6758908  15.3270030  91.3798734
  91.1668922   7.4219432 105.6376020  90.4909559   7.3213561 106.3078395
  91.9896556   7.2658646 106.1012017  82.9147782  13.6591369  98.2588535
  83.5001218  12.9135057  98.3916439  82.7172620  13.9695325  99.1425199
  85.7686437  16.6942616  93.2750977  85.0996812  17.1788744  92.7915017
  85.6299306  16.9411836  94.1894356  77.5065436   6.2296969  96.9792978
  77.5449536   5.6960560  97.7730096  77.0005729   5.7032174  96.3603955
  89.9091705  18.7286360  99.8733636  90.4610013  18.8917981 100.6382721
  90.2497899  19.3190797  99.2013661  84.3608471   3.1484642 104.1228555
  84.9880510   2.7661719 104.7366079  83.5036390   2.9298844 104.4884247
  94.7602580  13.5547617 105.7282290  95.3042484  14.1677575 105.2337245
  94.1789425  14.1127195 106.2449303  81.1374014   4.9561071  90.0546910
  81.4327455   4.0471749  90.0013963  80.2362050   4.9348810  89.7327912
  93.0460093  16.6768335  96.8597318  92.9211232  15.8758075  96.3508263
  93.7039184  17.1714528  96.3711288  84.6668261   3.0317068  96.0374458
  83.9454847   3.6453035  95.8981931  85.4561517   3.5674832  95.9591104
  95.1095001  14.4777355  98.4876868  94.1625337  14.3582706  98.4155195
  95.4577774  13.5899853  98.5703129  82.8661855   2.6375169  90.1786235
  82.5374562   1.7572548  89.9961341  83.2201226   2.5822837  91.0662624
  92.1141434  14.2730071  94.6881220  91.9666397  13.3446779  94.8688790
  92.9394928  14.2950162  94.2038295  85.9803679   2.9248138  90.5461712
  86.3199751   3.4534060  89.8240321  86.4275799   3.2628545  91.3220279
  95.7175556  15.0958630  95.7746093  96.6422104  14.8901491  95.6370544
  95.5490860  14.8475031  96.6835434  86.8502170   5.0853622  96.2584082
  86.7046751   5.3993925  97.1508364  86.3727374   5.7038523  95.7054981
  95.5070872  15.6144298  91.1308184  95.6807750  15.0490720  90.3782037
  95.9999764  16.4145192  90.9487674  81.3247832   7.6258967  99.1971743
  80.7801300   8.4018775  99.3292018  82.2027182   7.9729771  99.0390865
  96.4946045  14.9311062  88.2305083  97.1896949  15.5517755  88.4492397
  96.8369195  14.0806413  88.5057461  82.1113854   6.7528863 102.0901900
  81.3695590   6.9011498 102.6766531  81.7906598   7.0137129 101.2268650
  98.3937468  12.3810768  89.7592413  98.9188792  12.7198040  89.0341734
  98.3059821  11.4457783  89.5755548  90.0557517  16.2944841 101.8882290
  90.3644643  16.0493988 102.7604990  90.8532999  16.4991480 101.4001160
  90.0778129  18.4482751  94.1187667  89.6383119  17.9559129  94.8120523
  90.8286246  17.9055718  93.8779742  82.5570468  14.6394292  94.1212295
  83.3828488  14.3398064  93.7410938  82.2064520  13.8701914  94.5702083
  87.5252001  13.9920760  96.1909968  86.9032010  13.3291465  95.8912196
  88.1956868  14.0181892  95.5083616  80.7579073  12.5580618  95.0801228
  79.9210981  12.1302792  94.8985230  80.7302718  12.7513061  96.0172020
  98.0831374  13.0143671 105.0643611  97.2926918  12.9967810 104.5248111
  97.8464729  13.5531965 105.8192648  98.2029249   9.8636138 102.3776340
  98.2527254   9.6986145 103.3191863  98.0943172   8.9963397 101.9874221
  87.0865508  12.5424683  89.6668429  87.2353628  13.2260148  89.0135102
  87.8931951  12.5229773  90.1817885  99.7047446  12.2833079 102.6218362
  99.4132254  12.6463060 103.4581822  99.0919577  11.5700087 102.4431694
 100.9043128   9.8485959  95.1420932 101.7390020  10.2875763  95.3058492
 101.0402257   9.3724612  94.3229178  97.9534634   7.4065694 101.0898420
  98.4288756   7.5993340 100.2817271  97.0300200   7.4624880 100.8441803
  84.8418141   8.5689861  90.6729498  84.5964183   7.6652191  90.8709708
  85.0114055   8.5707011  89.7308976  84.1113788   4.3018218  88.1715659
  83.4183033   4.3762573  87.5155695  83.8665540   3.5378562  88.6937176
  90.5860913  15.0372814  87.1380176  90.0134880  15.6563001  86.6850648
  91.1593707  15.5872175  87.6720098  93.8058173  15.3209964  88.2688759
  94.7388846  15.2555525  88.4721634  93.7181386  16.1566231  87.8103291
  96.4346190  14.6375834  85.2292706  96.3559821  14.3035698  86.1228464
  97.2555857  15.1297602  85.2284178  90.9707712   6.3733626  84.4796229
  91.9166817   6.2439835  84.5484647  90.5921957   5.6348288  84.9565657
  90.8546404  10.4251373 105.9396886  91.7749414  10.6029972 106.1336932
  90.8195987   9.4807418 105.7876585  89.1550629   4.2983603  84.4151114
  88.2482084   4.0016716  84.4913828  89.4326610   4.0013421  83.5485400
  80.0728569   5.6189966  94.8650160  79.7531354   4.7655274  94.5724534
  79.5261998   5.8338544  95.6208128  83.8508477   8.3352407  98.5819667
  84.0694487   9.2669515  98.6007701  84.2634251   7.9760382  99.3674471
  88.7236342   3.9085613 107.9722416  88.6233069   4.8579970 107.9034507
  88.5057884   3.5803852 107.0998486  79.9416829   9.2392878  96.8343282
  79.2480301   8.8246831  96.3213236  80.6889820   9.2813414  96.2376701
  88.5867612   7.3382752 106.7887478  88.1034694   8.1383112 106.9951367
  88.6728551   7.3490697 105.8354922  81.8553572   9.1711131  94.7109297
  81.8324260   9.2698819  93.7591180  82.1654208  10.0176282  95.0326463
  84.5140950  11.2287287  98.8255911  85.4684203  11.1971229  98.7585843
  84.3153473  10.7677910  99.6406137  85.1040332   9.7988403 101.3926709
  85.9233221  10.2932481 101.4161546  85.3777140   8.8820371 101.3644276
  82.8691179  16.7706906  95.8426109  82.7345646  16.0107307  95.2764107
  82.4523241  17.4947806  95.3754898  94.0050142  11.9543830  84.8502684
  94.7085992  12.1593832  85.4660340  93.2812790  12.5220591  85.1151768
  94.8347952   7.7053691  90.9704955  94.7783153   8.1622242  90.1312587
  95.3876294   6.9444375  90.7927797  86.0260304  17.6676223  96.0544552
  85.9092689  18.6121656  95.9523242  85.2052751  17.3649785  96.4430351
  95.9136839  12.3926359  86.9001145  96.7482443  11.9607557  86.7178619
  95.7521182  12.2208372  87.8278039  95.5682731   8.8958472  88.2657484
  95.5131535   8.7302743  87.3245928  94.9428786   9.6034505  88.4219674
  80.3575246   4.1326536 102.0918906  81.0034110   3.6225490 102.5806131
  80.1492397   4.8695218 102.6662331  92.8828638  11.2007384 107.5911047
  93.7519798  11.3748036 107.2297682  92.4035390  12.0201801 107.4686776
  87.0514819  18.3204485  99.2700480  87.9542065  18.3528095  99.5866975
  86.8252189  17.3904936  99.2846816  88.8068421  17.0735471  95.9310559
  87.8564052  17.0737333  95.8174931  89.1100907  16.3268206  95.4146594
 104.5421114  22.9096010  96.9956321 105.1799524  22.7902757  96.2919661
 104.4241957  23.8576854  97.0544273 101.3510820  22.8623438  96.9317846
 101.0129332  22.7464503  96.0438381 102.2200589  22.4614603  96.9118852
  97.2097636  24.7158914  92.9214737  96.6462501  24.6248851  92.1531025
  97.0950031  23.8958819  93.4017229 101.8330603  24.0158290 102.8904051
 101.8219244  23.6211088 102.0184555 101.9951243  23.2824362 103.4837823
  94.7562068  26.2110106  95.7598957  95.5483360  25.8700931  95.3445257
  94.9958718  26.3205081  96.6801111 102.7897195  28.3829882  88.2329202
 102.1385174  28.9683962  87.8463216 103.5841558  28.9136077  88.2924239
  96.7152822  25.4719019  88.6316336  97.4883698  24.9248006  88.4929212
  97.0678221  26.3363269  88.8430798  98.5537864  26.7995401 101.8383235
  98.2627730  27.7041032 101.7229902  99.1894849  26.8411929 102.5527305
  99.4794071  24.1772250  98.4284595 100.0757644  23.9528272  97.7141558
  99.5369043  23.4356995  99.0310043  99.0519100  21.6311685  86.2634786
  99.3044620  21.1093207  85.5018249  98.1143659  21.4677831  86.3661470
 104.0962383  20.6347464  94.0709529 104.8825472  20.2166887  93.7199946
 104.3601087  21.5393556  94.2391178 104.2672460  26.0720314  88.7698186
 103.6318293  26.1454941  89.4819091 103.9369866  26.6613913  88.0917265
 109.4970810  20.5722697  94.9742508 110.2295982  20.0021914  95.2080337
 108.7410165  20.1844297  95.4149013  98.7715388  23.5339791  88.4659161
  98.6551647  22.8584695  89.1340245  98.8817648  23.0472165  87.6491314
 101.1146929  22.9949938  92.1705850 100.7505137  22.4680559  92.8818772
 101.9714045  22.6048407  91.9972336 107.0196230  14.2844271  99.4337116
 106.6879555  15.1539682  99.2098331 106.4241843  13.9680555 100.1131147
 100.7552416  18.0239838  87.1667199 100.9226819  18.8920075  87.5337670
 100.5649585  18.1867120  86.2428488 103.5127750  26.4856817  98.8333029
 103.2128473  27.3881856  98.7248836 103.1678809  26.2189000  99.6854182
  96.9640231  22.9370614  94.8669734  96.0390727  22.8046828  95.0747425
  97.2124644  23.7164833  95.3639676 106.9124893  19.0039357  96.5130466
 106.0041771  18.9354766  96.2189227 106.8612489  19.4811302  97.3412292
 100.7341637  20.4797496  88.1513866 100.6141262  20.9254546  88.9899346
 100.0394226  20.8282813  87.5927404  94.3249042  22.5803887  95.7013523
  94.4541423  22.8338366  96.6152934  93.6446493  23.1731595  95.3818178
  98.4948529  33.2501137  91.8003997  98.4172559  34.2008962  91.8792477
  97.8910173  32.9047010  92.4578923 100.9865759  20.4229003 104.4565364
 100.2099093  20.9822923 104.4468228 101.6256322  20.9085786 104.9780234
 108.7786540  17.2055796  98.2908340 108.1360920  17.4988329  97.6448135
 108.2741468  17.0908716  99.0961537 106.4326703  20.9518969  88.9794200
 107.3444560  21.1846356  88.8041897 105.9236350  21.5356013  88.4169278
  99.2412131  23.2314456 104.0183331  99.9826816  23.7699500 103.7418154
  98.5349117  23.8580745 104.1754883 104.7167471  25.3743597 102.6155492
 105.1250827  24.9326007 101.8710125 103.9944733  24.7996224 102.8689685
 101.0698541  20.3116203  99.9889049 101.9159736  20.7355617 100.1323698
 101.0097179  19.6549828 100.6827612 105.0396286  25.9344787  96.3707781
 104.4105148  26.0990501  95.6683849 104.6521948  26.3486397  97.1418745
 108.9185518  26.8699225  93.7252145 108.2336556  27.2498126  93.1749178
 109.0029367  27.4794552  94.4584093 104.2197986  17.9720572 101.6470223
 103.9758918  18.7262632 101.1104499 104.4957917  18.3505919 102.4817470
 106.1736449  24.5159184 100.3247488 106.3853344  25.1590944  99.6481869
 106.1266197  23.6821501  99.8569418 103.7762678  17.1277005  97.2284061
 102.9147157  17.4258258  97.5200798 103.8025113  17.3447404  96.2965093
 100.5924248  25.6719195  93.6357866 101.0562593  25.9506898  92.8462489
 100.3281046  24.7702640  93.4530957  97.4848329  25.2190677  96.5737629
  98.0549686  25.6477945  95.9355114  98.0756440  24.9373262  97.2721815
  99.5293134  21.7942348  90.4447431 100.2317177  22.2463391  90.9121358
  99.1973762  21.1526167  91.0727324  97.9773495  20.3854104 104.8198641
  97.3472156  21.0670385 105.0534038  97.8709583  20.2737186 103.8751779
  93.2718468  20.0525900  95.7464565  92.4817522  20.3083429  95.2704676
  93.7629715  20.8674238  95.8516605 107.2882277  27.3931140  98.4969846
 108.1099721  26.9911327  98.2152527 107.2844680  27.2899374  99.4485962
  95.2233213  20.4170480  92.7048042  94.4264376  20.5289174  93.2231537
  94.9958805  20.7557132  91.8388932 101.0538881  26.9415183 100.6530556
 101.1183313  27.4035590 101.4888728 100.3449804  26.3112548 100.7812866
  91.5556171  20.3056391  98.1779556  91.8064209  21.1903401  98.4437132
  92.0915719  20.1260992  97.4054648 115.3788270  23.7369888  94.8454817
 114.6251979  23.1677286  94.6898822 115.5135811  23.7032553  95.7925452
 100.7686898  28.6083290  90.5209537 100.6332573  29.4534826  90.9494384
 101.3096711  28.8102568  89.7575470  97.2554238  14.6874870 107.1823892
  96.8621183  14.1341069 107.8571536  98.0720378  14.9985449 107.5730409
  94.2216296  26.1258728  91.0937462  94.7340816  26.9201979  91.2443026
  94.8739008  25.4285019  91.0271063  96.0311180  29.2424485  93.1760215
  96.2077809  30.1642449  92.9881199  96.8268014  28.9282904  93.6054595
 100.1722199  16.1032749 104.7744148 100.9131912  16.7039902 104.6948611
 100.4040122  15.3610387 104.2162191  95.3163537  21.2889117 103.0522378
  95.2017052  20.3874374 103.3529477  94.4608055  21.5352813 102.7007195
 102.3955375  29.2306857 104.6509879 101.9519229  28.4443235 104.3330783
 103.0572588  29.4186007 103.9853769  97.1542496  30.7602658  99.1770557
  97.7049921  30.6319722  98.4047551  96.3153972  31.0597547  98.8265450
 104.4936613  29.5109657 102.6791280 104.4755088  30.3318538 102.1871549
 105.4156533  29.3863732 102.9041421 100.9509667  27.0253786 103.5214788
 101.4838004  26.2642074 103.2914096 100.4223748  26.7327438 104.2638943
 104.1179362  12.1313852  99.0508430 103.7743631  13.0215494  98.9747541
 104.4858324  11.9415510  98.1878015  92.1865212  24.4547383  91.8697032
  93.0240434  24.8644391  91.6530740  92.3643480  23.5146825  91.8397226
 104.0829645  22.1222463  87.5580865 103.5676268  22.8927068  87.7969253
 103.8106953  21.4487599  88.1813927 101.6676756  16.9672164  92.6166104
 100.8118352  16.5779014  92.4371742 102.0803707  17.0464125  91.7565889
 103.1975902  14.5018507  97.0157663 102.6940698  14.4648643  96.2025469
 103.4906509  15.4111250  97.0754320  99.4418788  14.5857237  96.0223845
 100.3071785  14.3900046  95.6629735  99.5096297  14.3567589  96.9493202
 109.0563919  24.8754818  89.4934039 108.2793361  24.5365977  89.0489201
 109.7355400  24.8807441  88.8189004 103.8715948  19.9949555  89.3840646
 103.5666083  20.3095705  90.2350790 104.8246390  20.0730975  89.4267979
 102.3162380  26.1539779  91.0333600 101.7883741  25.4192538  90.7206838
 101.8149882  26.9314455  90.7873569 107.2955226  24.3488799  96.1500647
 106.6378900  25.0388061  96.2380775 108.0995625  24.7385231  96.4934633
  97.0481107  16.8159445  93.3940212  97.6224859  16.5934626  92.6613405
  97.6352090  16.8848140  94.1468813 106.1060684  22.7033172  94.2004588
 106.6192566  23.3363164  94.7026298 106.7561908  22.1034367  93.8347948
  97.3750694  18.8463906  87.4136097  96.5388007  19.1838593  87.7345372
  97.2355464  18.7112886  86.4763234  99.3503775  13.6900694  92.1215281
  98.6968187  13.3749711  91.4971896  99.3084249  13.0676434  92.8475104
 100.4614980  23.9719989  84.0368573  99.5542041  23.7409242  84.2359722
 100.9586012  23.1757608  84.2242555 103.3683059  32.6817496  86.9565260
 102.6944757  32.9849193  87.5650217 103.7548881  33.4846577  86.6070717
 102.5841515  20.1782627  96.4462929 101.6664077  20.3997574  96.2884617
 103.0001659  20.2528938  95.5874636 103.3676563  21.5774043  91.5765609
 104.1148382  22.0895440  91.2672731 103.6368153  21.2558096  92.4370003
 101.6403213  24.0732584  88.5592563 100.7314432  23.7891617  88.6565033
 101.6698297  24.4931662  87.6995870 106.8722481  27.6839173  92.3283731
 106.4184808  26.8430083  92.3848921 106.2416447  28.3200572  92.6658511
 105.8155400  18.6131159  93.5584398 105.0778157  18.1008546  93.8894641
 106.0682174  18.1731541  92.7467675 105.3155420  29.5215670  93.2633549
 105.6078394  30.0820727  92.5445915 105.8254040  29.8144231  94.0186708
 105.9167027  11.3907411  94.1526168 106.2225904  10.5304775  93.8652083
 106.6419632  11.9825032  93.9525162  92.2091384  21.7938098  92.5407766
  92.0115783  21.2007459  91.8158832  91.6538048  21.4890308  93.2583704
 100.1888107  21.6861204  94.6602359 100.2436717  20.7335041  94.5844835
  99.3779309  21.8420644  95.1443657 101.3379301  25.6141328  85.8980642
 100.8998731  24.8977186  85.4386279 102.0789742  25.8417442  85.3365733
  98.1280467  20.3038264  92.4192738  97.3148333  20.6032435  92.8257930
  98.6239461  19.9093953  93.1367220 100.2789045  30.2996021  94.3527002
 100.2365224  30.5256867  93.4235534 101.1951744  30.0659396  94.5012804
 103.7254679  20.7680089 101.2507632 104.0804067  20.9951562 102.1102097
 104.3726810  21.0998465 100.6284887 109.4552416  23.8898525  91.9556961
 109.3170314  24.0800121  91.0278150 109.0988635  24.6517907  92.4125012
  97.6194542  17.8756620  98.0353973  98.2593921  17.7345379  97.3376936
  96.7872072  17.5891133  97.6592575 109.4821795  25.9575052  96.9668232
 109.9158302  25.8650341  97.8151286 110.1953376  25.9332552  96.3288248
  98.3954846  27.1759050  94.1488965  99.1895444  26.6809370  93.9471540
  97.6846538  26.6476913  93.7856671 103.2149690  29.5577146  98.5001333
 103.2686713  30.1268082  99.2679049 102.3464472  29.7279031  98.1355370
  94.7037609  21.3202132  90.2248718  93.7735197  21.2586587  90.4418680
  94.7995081  20.7978085  89.4285359  94.6223158  17.8456945  92.8126959
  94.8829976  18.7602278  92.7036120  95.4440331  17.3781387  92.9623572
  96.0948084  19.2594702  99.9825784  96.7671137  19.0512064  99.3338433
  95.2677870  19.0616788  99.5431016 110.3437345  25.9998752  99.5001118
 110.5373235  26.9044563  99.7460392 110.2437963  25.5406171 100.3339703
 101.9973656  15.8856643 101.9991445 101.3501571  16.5846592 101.9055921
 102.7674671  16.3192787 102.3667693 105.4052454  26.1505495 105.0741998
 105.2537960  25.9216047 104.1572082 105.3957133  27.1076096 105.0873343
 102.1737790  23.7237408 100.0588265 103.1029850  23.8748567  99.8857232
 101.7528820  23.8121428  99.2036911 100.9726122  27.7488072  97.8286802
 100.8337207  27.3806857  98.7012740 100.1840718  28.2635712  97.6570760
 101.5674274  32.8497169  89.1712339 101.7426029  32.3785212  89.9857961
 100.8807062  33.4762935  89.3993599 102.5231337  27.1269675  95.2175640
 102.1881170  27.0870445  96.1133290 102.0235283  26.4614391  94.7446050
  96.4975581  22.5337305 100.7428221  96.3595379  21.8017544 101.3439760
  97.4080504  22.4446205 100.4612409 105.4590529  24.4725709  85.4912700
 104.8419699  23.7472537  85.3945752 104.9907017  25.2335069  85.1479774
  99.1257882  22.2457264 100.2311901  99.8357500  21.6050456 100.1898519
  99.0827190  22.4970159 101.1538082 107.1144660  29.1824618 103.1518480
 107.0557206  28.4983838 102.4849063 107.5164179  29.9243608 102.6999106
  97.8386816  19.2322482 102.0507540  97.3024173  18.7813221 102.7029137
  97.2503524  19.3668391 101.3078005  96.1335359  35.9986531  95.9452199
  96.3731957  36.6305056  96.6231217  95.2904556  35.6474571  96.2317558
  97.2489075  18.6911133  84.6134004  96.3718541  18.5699934  84.2496251
  97.7246828  17.8997212  84.3612893 107.1162068  27.1464201 101.3832460
 106.2288846  26.8090123 101.5058859 107.6860619  26.4147233 101.6201225
  88.7691215  23.4788293  94.7075511  89.4562254  23.1650023  94.1196526
  88.6139343  24.3829658  94.4342762  93.5725937  18.3678490  99.1360535
  93.4884126  17.7604159  98.4010945  92.7508643  18.8587508  99.1370031
 100.6463221  31.8065654  98.3493703 100.5733392  32.6120625  98.8613007
 100.2040614  32.0057620  97.5241724 100.4353001  31.0437424  91.8596524
  99.6520522  31.5859104  91.9534749 101.1345746  31.5611403  92.2590766
 103.7449651  16.8532053  94.5030730 104.2418350  16.1002016  94.1831800
 102.9736632  16.8896370  93.9373939 111.5979408  22.5572419  96.1449021
 111.5869284  23.4397134  95.7742954 110.7296787  22.2043970  95.9503558
 103.1061904  31.7052488 100.5051862 103.8189877  32.3399953 100.4327763
 102.6151933  31.8016354  99.6891863 104.8279431  25.6103741  92.0769153
 103.8935710  25.7305203  91.9073858 105.0056100  24.7076207  91.8129163
 100.3284619  18.9949436  94.2302414  99.9582407  18.4420477  94.9183320
 100.8243712  18.3907570  93.6777414 108.2151983  21.4521060  92.6119187
 108.6812435  22.2849051  92.5379490 108.6659483  20.9866041  93.3164446
  98.1573818  29.4546931 101.3257432  98.8583277  30.0883414 101.4786827
  97.6868933  29.7961663 100.5653072 106.2828214  27.7964881  89.6105339
 106.5588058  27.6821476  90.5199213 105.4132713  27.3982366  89.5717512
 106.1868645  13.8201647  96.6510089 105.2731725  14.0505874  96.8192296
 106.6161747  13.9040091  97.5024121 105.9575104  22.0091539  99.1509983
 105.3046554  22.2567446  98.4962435 106.3355484  21.1955677  98.8172460
 102.9182278  32.0451232  93.2538153 103.1004672  31.2272888  93.7165905
 103.7415264  32.2618924  92.8163043 103.2524443  30.9719417  90.5153201
 103.7812210  30.4611872  89.9023364 103.5152663  30.6561947  91.3798734
 102.0062677  22.7511350 105.6376020 101.3303314  22.6505479 106.3078395
 102.8290311  22.5950564 106.1012017  93.7541536  28.9883286  98.2588535
  94.3394973  28.2426974  98.3916439  93.5566374  29.2987243  99.1425199
  96.6080191  32.0234534  93.2750977  95.9390567  32.5080661  92.7915017
  96.4693061  32.2703754  94.1894356  88.3459191  21.5588887  96.9792978
  88.3843290  21.0252477  97.7730096  87.8399484  21.0324092  96.3603955
 100.7485460  34.0578277  99.8733636 101.3003768  34.2209899 100.6382721
 101.0891653  34.6482715  99.2013661  95.7249953  16.4053427 100.4755520
  95.7891280  17.2668258 100.0632918  95.6617073  15.7927429  99.7427879
  95.2002226  18.4776560 104.1228555  95.8274264  18.0953637 104.7366079
  94.3430144  18.2590762 104.4884247 105.5996334  28.8839535 105.7282290
 106.1436238  29.4969493 105.2337245 105.0183179  29.4419113 106.2449303
  91.9767768  20.2852989  90.0546910  92.2721209  19.3763667  90.0013963
  91.0755804  20.2640728  89.7327912 103.8853847  32.0060253  96.8597318
 103.7604987  31.2049993  96.3508263 104.5432938  32.5006446  96.3711288
  95.5062015  18.3608985  96.0374458  94.7848601  18.9744953  95.8981931
  96.2955271  18.8966750  95.9591104 105.9488755  29.8069273  98.4876868
 105.0019091  29.6874624  98.4155195 106.2971529  28.9191771  98.5703129
  98.3088329  15.6963412 102.3115110  98.8322731  15.9425708 103.0741419
  98.0900662  16.5283447 101.8918247  93.7055610  17.9667086  90.1786235
  93.3768316  17.0864465  89.9961341  94.0594981  17.9114755  91.0662624
 102.9535189  29.6021989  94.6881220 102.8060151  28.6738696  94.8688790
 103.7788682  29.6242080  94.2038295  96.8197433  18.2540056  90.5461712
  97.1593506  18.7825977  89.8240321  97.2669554  18.5920462  91.3220279
 106.5569311  30.4250548  95.7746093 107.4815858  30.2193409  95.6370544
 106.3884614  30.1766949  96.6835434  99.5140874  16.6377107  99.9964780
  99.1737694  15.8384920 100.3985460  98.8079880  16.9378818  99.4241614
 100.1657346  13.7226419  98.4492103 100.9883415  13.2486898  98.3270994
 100.4095409  14.5016903  98.9490790  98.8065580  16.7514678  88.7455005
  99.5273943  17.1295931  88.2418722  98.1830884  17.4703555  88.8489983
 102.9496703  17.4559827  89.6813337 103.1660318  18.3384465  89.3802166
 102.4690770  17.0646040  88.9518979  97.6895924  20.4145540  96.2584082
  97.5440505  20.7285843  97.1508364  97.2121128  21.0330440  95.7054981
  99.5492307  17.4048088  96.3064972  99.5353876  16.5089181  95.9697270
 100.2664735  17.4118752  96.9403258 101.4018438  17.8385428  98.3518099
 101.1436216  18.7602499  98.3502429 100.8703478  17.4415863  99.0418563
 106.3464627  30.9436215  91.1308184 106.5201504  30.3782638  90.3782037
 106.8393518  31.7437110  90.9487674  92.1641587  22.9550884  99.1971743
  91.6195055  23.7310692  99.3292018  93.0420937  23.3021689  99.0390865
  98.9529203  16.2862468  91.5752542  99.0745115  15.3579114  91.7743429
  98.6631246  16.3001154  90.6630857 101.8220394  13.9717379  94.7119262
 101.8442091  14.0356712  93.7571241 102.2388453  13.1321887  94.9059768
 112.2004018  23.7072638  92.7498484 112.6435164  22.9579963  92.3517607
 111.3230528  23.6982775  92.3672216 107.3339799  30.2602980  88.2305083
 108.0290704  30.8809672  88.4492397 107.6762949  29.4098331  88.5057461
  92.9507609  22.0820781 102.0901900  92.2089345  22.2303416 102.6766531
  92.6300353  22.3429046 101.2268650 109.2331222  27.7102685  89.7592413
 109.7582547  28.0489958  89.0341734 109.1453575  26.7749701  89.5755548
 100.8951271  31.6236759 101.8882290 101.2038398  31.3785906 102.7604990
 101.6926753  31.8283397 101.4001160 100.9171883  33.7774668  94.1187667
 100.4776874  33.2851047  94.8120523 101.6680000  33.2347636  93.8779742
  93.3964222  29.9686209  94.1212295  94.2222242  29.6689981  93.7410938
  93.0458274  29.1993832  94.5702083  98.3645755  29.3212678  96.1909968
  97.7425765  28.6583383  95.8912196  99.0350622  29.3473809  95.5083616
  91.5972827  27.8872536  95.0801228  90.7604736  27.4594710  94.8985230
  91.5696473  28.0804979  96.0172020  98.4370283  17.7994466 105.7842474
  98.4858438  18.6756588 105.4020244  98.9792797  17.2571859 105.2114118
 108.9225129  28.3435589 105.0643611 108.1320672  28.3259728 104.5248111
 108.6858483  28.8823883 105.8192648 109.0423004  25.1928055 102.3776340
 109.0921009  25.0278063 103.3191863 108.9336927  24.3255314 101.9874221
  97.9259262  27.8716601  89.6668429  98.0747383  28.5552065  89.0135102
  98.7325706  27.8521691  90.1817885 106.3326766  21.1758983 103.6935647
 107.2336629  21.0365448 103.4019644 106.4074740  21.3413438 104.6333824
 100.6669571  18.5525838 102.5388833  99.7972881  18.8459404 102.2671422
 100.9029052  19.1366283 103.2596097 110.5441200  27.6124997 102.6218362
 110.2526009  27.9754977 103.4581822 109.9313332  26.8992005 102.4431694
 111.7436883  25.1777877  95.1420932 112.5783774  25.6167681  95.3058492
 111.8796012  24.7016530  94.3229178 108.7928389  22.7357611 101.0898420
 109.2682510  22.9285258 100.2817271 107.8693954  22.7916797 100.8441803
  95.6811895  23.8981779  90.6729498  95.4357937  22.9944109  90.8709708
  95.8507810  23.8998929  89.7308976 103.3708605  14.7705455 100.0554253
 103.8890549  15.5066482  99.7300742 103.0163738  15.0769448 100.8901013
  94.9507543  19.6310136  88.1715659  94.2576788  19.7054491  87.5155695
  94.7059295  18.8670480  88.6937176 103.6221199  11.1905737  95.5755150
 103.9022953  10.5228927  96.2015577 104.4071806  11.3834833  95.0629814
 101.4254668  30.3664731  87.1380176 100.8528635  30.9854918  86.6850648
 101.9987461  30.9164093  87.6720098 107.4930058  19.6123371  99.3226725
 108.4447481  19.7121469  99.3438949 107.3233508  18.8201640  99.8324809
 105.5144437  16.6978955  99.5086126 104.9194369  16.9783967  98.8132615
 105.2294134  17.1872856 100.2802867 104.6451928  30.6501881  88.2688759
 105.5782601  30.5847443  88.4721634 104.5575140  31.4858148  87.8103291
 107.2739944  29.9667752  85.2292706 107.1953576  29.6327615  86.1228464
 108.0949611  30.4589520  85.2284178 109.9718135  22.8329491  98.4369025
 109.9394456  21.8945492  98.6228709 110.5818759  22.9113528  97.7034850
 101.8101466  21.7025544  84.4796229 102.7560571  21.5731752  84.5484647
 101.4315711  20.9640206  84.9565657 110.1212624  19.6240535  98.4827308
 109.6051673  18.8398991  98.2957237 111.0052572  19.2959251  98.6473827
 107.7823351  13.3681550  94.4423121 107.5848172  13.0596638  95.3266453
 108.3923056  14.0943189  94.5721050 115.7894685  23.8945498  97.5775062
 116.5198074  23.6330786  98.1382765 115.1801631  23.1574220  97.6177130
 113.8709982  22.0353361  98.1749513 113.1443146  21.9009325  97.5666004
 113.4557269  22.3430189  98.9806231 101.6940159  25.7543290 105.9396886
 102.6143168  25.9321889 106.1336932 101.6589742  24.8099336 105.7876585
  99.9944383  19.6275520  84.4151114  99.0875839  19.3308633  84.4913828
 100.2720364  19.3305339  83.5485400  90.9122324  20.9481884  94.8650160
  90.5925108  20.0947192  94.5724534  90.3655752  21.1630462  95.6208128
  94.6902231  23.6644325  98.5819667  94.9088241  24.5961433  98.6007701
  95.1028005  23.3052299  99.3674471 101.6106449  14.1712410  90.5695355
 100.8007177  13.8259495  90.9450601 102.2990866  13.8619954  91.1582967
 103.5396997  13.2490457  92.1919652 104.0928036  13.6685910  92.8509675
 103.7767084  12.3226205  92.2342608  99.5630097  19.2377531 107.9722416
  99.4626824  20.1871888 107.9034507  99.3451639  18.9095770 107.0998486
  98.7643168  16.4862456  84.5563093  99.6262332  16.8117354  84.8158911
  98.9493512  15.6993952  84.0436159  90.7810584  24.5684795  96.8343282
  90.0874055  24.1538748  96.3213236  91.5283575  24.6105332  96.2376701
 106.9175805  15.3590982  91.6998316 106.3374474  16.0175786  91.3176369
 106.6511737  14.5368327  91.2885734 105.3679371  14.7596040  93.9019637
 105.8679149  14.8712574  93.0933955 106.0114979  14.4557093  94.5420445
  99.4261367  22.6674669 106.7887478  98.9428448  23.4675030 106.9951367
  99.5122306  22.6782614 105.8354922  92.6947326  24.5003049  94.7109297
  92.6718014  24.5990736  93.7591180  93.0047963  25.3468200  95.0326463
  95.3534704  26.5579204  98.8255911  96.3077958  26.5263147  98.7585843
  95.1547228  26.0969828  99.6406137  95.9434086  25.1280320 101.3926709
  96.7626975  25.6224399 101.4161546  96.2170894  24.2112288 101.3644276
 105.7000683  17.5191073  90.7554665 104.8126538  17.8040723  90.5374859
 106.1154672  17.3584836  89.9081941 109.0515219  17.5437594  94.4709004
 109.8275609  18.0334046  94.7433621 108.3263353  17.9695648  94.9280873
 111.4887777  18.2565213  95.5282944 112.0832268  18.0160949  94.8176253
 111.5614361  17.5372343  96.1556481  93.7084933  32.0998824  95.8426109
  93.5739401  31.3399225  95.2764107  93.2916995  32.8239724  95.3754898
 104.8443896  27.2835747  84.8502684 105.5479746  27.4885750  85.4660340
 104.1206545  27.8512509  85.1151768 105.6741706  23.0345608  90.9704955
 105.6176908  23.4914160  90.1312587 106.2270049  22.2736293  90.7927797
 109.4846512  18.8235340  91.7955074 109.2283446  18.4231976  92.6263282
 108.8599380  19.5379134  91.6705213 113.7958850  21.5631414  94.3026366
 113.2358408  21.6324603  95.0757928 113.1902353  21.3872398  93.5825862
  96.8654059  32.9968141  96.0544552  96.7486443  33.9413573  95.9523242
  96.0446505  32.6941702  96.4430351 106.7530593  27.7218276  86.9001145
 107.5876197  27.2899475  86.7178619 106.5914936  27.5500290  87.8278039
 106.4076486  24.2250390  88.2657484 106.3525289  24.0594661  87.3245928
 105.7822541  24.9326423  88.4219674  91.1969001  19.4618454 102.0918906
  91.8427864  18.9517408 102.5806131  90.9886152  20.1987136 102.6662331
 103.7222393  26.5299302 107.5911047 104.5913552  26.7039954 107.2297682
 103.2429144  27.3493718 107.4686776  99.7172611  13.7258499  87.8442802
  99.7051281  14.6700339  88.0011073 100.6096033  13.5428644  87.5502263
  97.8908573  33.6496403  99.2700480  98.7935820  33.6820013  99.5866975
  97.6645943  32.7196854  99.2846816  99.6462175  32.4027389  95.9310559
  98.6957806  32.4029251  95.8174931  99.9494661  31.6560124  95.4146594
 103.5324731  10.3201275  92.0988739 102.7657126   9.7659762  92.2445421
 103.9435436  10.3923144  92.9602891  95.5366492  16.6086071 106.1893920
  96.3997953  16.2522876 106.3997245  94.9631902  16.2699966 106.8769325
 115.3814869  38.2387928  96.9956321 116.0193278  38.1194675  96.2919661
 115.2635711  39.1868771  97.0544273 112.1904575  38.1915356  96.9317846
 111.8523086  38.0756420  96.0438381 113.0594343  37.7906521  96.9118852
 108.0491391  40.0450832  92.9214737 107.4856256  39.9540769  92.1531025
 107.9343786  39.2250737  93.4017229 112.6724358  39.3450207 102.8904051
 112.6612999  38.9503006 102.0184555 112.8344997  38.6116280 103.4837823
 105.5955822  41.5402024  95.7598957 106.3877114  41.1992848  95.3445257
 105.8352473  41.6496999  96.6801111 113.6290949  43.7121800  88.2329202
 112.9778929  44.2975880  87.8463216 114.4235312  44.2427995  88.2924239
 107.5546576  40.8010937  88.6316336 108.3277452  40.2539924  88.4929212
 107.9071975  41.6655186  88.8430798 109.3931619  42.1287319 101.8383235
 109.1021485  43.0332950 101.7229902 110.0288603  42.1703847 102.5527305
 110.3187826  39.5064168  98.4284595 110.9151398  39.2820190  97.7141558
 110.3762797  38.7648913  99.0310043 109.8912854  36.9603603  86.2634786
 110.1438375  36.4385124  85.5018249 108.9537413  36.7969748  86.3661470
 114.9356137  35.9639381  94.0709529 115.7219226  35.5458805  93.7199946
 115.1994841  36.8685474  94.2391178 115.1066214  41.4012232  88.7698186
 114.4712047  41.4746858  89.4819091 114.7763621  41.9905831  88.0917265
 120.3364564  35.9014615  94.9742508 121.0689736  35.3313831  95.2080337
 119.5803920  35.5136215  95.4149013 109.6109143  38.8631709  88.4659161
 109.4945401  38.1876612  89.1340245 109.7211403  38.3764083  87.6491314
 111.9540684  38.3241856  92.1705850 111.5898891  37.7972477  92.8818772
 112.8107800  37.9340325  91.9972336 117.8589984  29.6136189  99.4337116
 117.5273309  30.4831600  99.2098331 117.2635598  29.2972473 100.1131147
 111.5946171  33.3531756  87.1667199 111.7620573  34.2211992  87.5337670
 111.4043340  33.5159037  86.2428488 114.3521504  41.8148735  98.8333029
 114.0522227  42.7173773  98.7248836 114.0072564  41.5480918  99.6854182
 107.8033985  38.2662532  94.8669734 106.8784482  38.1338746  95.0747425
 108.0518399  39.0456751  95.3639676 117.7518648  34.3331275  96.5130466
 116.8435525  34.2646683  96.2189227 117.7006244  34.8103220  97.3412292
 111.5735392  35.8089413  88.1513866 111.4535017  36.2546464  88.9899346
 110.8787980  36.1574731  87.5927404 105.1642797  37.9095805  95.7013523
 105.2935178  38.1630284  96.6152934 104.4840248  38.5023513  95.3818178
 109.3342284  48.5793055  91.8003997 109.2566314  49.5300880  91.8792477
 108.7303927  48.2338928  92.4578923 111.8259514  35.7520920 104.4565364
 111.0492848  36.3114841 104.4468228 112.4650077  36.2377703 104.9780234
 119.6180294  32.5347713  98.2908340 118.9754674  32.8280246  97.6448135
 119.1135223  32.4200634  99.0961537 117.2720458  36.2810886  88.9794200
 118.1838314  36.5138273  88.8041897 116.7630105  36.8647931  88.4169278
 110.0805886  38.5606374 104.0183331 110.8220570  39.0991418 103.7418154
 109.3742871  39.1872663 104.1754883 115.5561226  40.7035514 102.6155492
 115.9644582  40.2617925 101.8710125 114.8338487  40.1288142 102.8689685
 111.9092296  35.6408121  99.9889049 112.7553491  36.0647535 100.1323698
 111.8490933  34.9841745 100.6827612 115.8790040  41.2636705  96.3707781
 115.2498903  41.4282419  95.6683849 115.4915702  41.6778314  97.1418745
 119.7579272  42.1991143  93.7252145 119.0730310  42.5790044  93.1749178
 119.8423121  42.8086469  94.4584093 115.0591741  33.3012489 101.6470223
 114.8152673  34.0554550 101.1104499 115.3351671  33.6797837 102.4817470
 117.0130204  39.8451102 100.3247488 117.2247099  40.4882862  99.6481869
 116.9659952  39.0113418  99.8569418 114.6156433  32.4568922  97.2284061
 113.7540912  32.7550176  97.5200798 114.6418867  32.6739321  96.2965093
 111.4318002  41.0011113  93.6357866 111.8956348  41.2798816  92.8462489
 111.1674800  40.0994558  93.4530957 108.3242083  40.5482595  96.5737629
 108.8943440  40.9769863  95.9355114 108.9150195  40.2665179  97.2721815
 110.3686888  37.1234265  90.4447431 111.0710931  37.5755309  90.9121358
 110.0367517  36.4818084  91.0727324 108.8167250  35.7146022 104.8198641
 108.1865910  36.3962303 105.0534038 108.7103338  35.6029104 103.8751779
 104.1112222  35.3817818  95.7464565 103.3211276  35.6375347  95.2704676
 104.6023469  36.1966156  95.8516605 118.1276032  42.7223057  98.4969846
 118.9493475  42.3203244  98.2152527 118.1238435  42.6191291  99.4485962
 106.0626967  35.7462397  92.7048042 105.2658131  35.8581092  93.2231537
 105.8352560  36.0849049  91.8388932 111.8932635  42.2707100 100.6530556
 111.9577068  42.7327508 101.4888728 111.1843559  41.6404465 100.7812866
 102.3949925  35.6348308  98.1779556 102.6457963  36.5195318  98.4437132
 102.9309473  35.4552910  97.4054648 126.2182025  39.0661806  94.8454817
 125.4645733  38.4969204  94.6898822 126.3529566  39.0324470  95.7925452
 111.6080653  43.9375208  90.5209537 111.4726328  44.7826744  90.9494384
 112.1490465  44.1394486  89.7575470 108.0947992  30.0166788 107.1823892
 107.7014938  29.4632986 107.8571536 108.9114133  30.3277366 107.5730409
 105.0610050  41.4550646  91.0937462 105.5734571  42.2493896  91.2443026
 105.7132763  40.7576936  91.0271063 106.8704935  44.5716402  93.1760215
 107.0471563  45.4934367  92.9881199 107.6661768  44.2574822  93.6054595
 111.0115953  31.4324667 104.7744148 111.7525667  32.0331820 104.6948611
 111.2433876  30.6902305 104.2162191 106.1557291  36.6181034 103.0522378
 106.0410807  35.7166291 103.3529477 105.3001809  36.8644731 102.7007195
 113.2349129  44.5598774 104.6509879 112.7912983  43.7735153 104.3330783
 113.8966343  44.7477925 103.9853769 107.9936250  46.0894576  99.1770557
 108.5443675  45.9611639  98.4047551 107.1547726  46.3889465  98.8265450
 115.3330367  44.8401574 102.6791280 115.3148843  45.6610455 102.1871549
 116.2550287  44.7155650 102.9041421 111.7903421  42.3545704 103.5214788
 112.3231758  41.5933992 103.2914096 111.2617502  42.0619356 104.2638943
 114.9573116  27.4605770  99.0508430 114.6137386  28.3507412  98.9747541
 115.3252079  27.2707428  98.1878015 103.0258967  39.7839300  91.8697032
 103.8634189  40.1936309  91.6530740 103.2037235  38.8438742  91.8397226
 114.9223399  37.4514381  87.5580865 114.4070022  38.2218986  87.7969253
 114.6500707  36.7779517  88.1813927 112.5070510  32.2964082  92.6166104
 111.6512106  31.9070932  92.4371742 112.9197462  32.3756043  91.7565889
 114.0369657  29.8310425  97.0157663 113.5334452  29.7940560  96.2025469
 114.3300264  30.7403168  97.0754320 110.2812543  29.9149155  96.0223845
 111.1465539  29.7191963  95.6629735 110.3490051  29.6859507  96.9493202
 119.8957673  40.2046736  89.4934039 119.1187116  39.8657895  89.0489201
 120.5749154  40.2099359  88.8189004 114.7109702  35.3241473  89.3840646
 114.4059838  35.6387622  90.2350790 115.6640144  35.4022893  89.4267979
 113.1556134  41.4831696  91.0333600 112.6277496  40.7484456  90.7206838
 112.6543637  42.2606373  90.7873569 118.1348980  39.6780717  96.1500647
 117.4772655  40.3679978  96.2380775 118.9389379  40.0677149  96.4934633
 107.8874862  32.1451363  93.3940212 108.4618614  31.9226544  92.6613405
 108.4745844  32.2140057  94.1468813 116.9454439  38.0325090  94.2004588
 117.4586321  38.6655081  94.7026298 117.5955663  37.4326285  93.8347948
 108.2144449  34.1755824  87.4136097 107.3781761  34.5130510  87.7345372
 108.0749218  34.0404803  86.4763234 110.1897529  29.0192612  92.1215281
 109.5361942  28.7041629  91.4971896 110.1478004  28.3968352  92.8475104
 111.3008734  39.3011907  84.0368573 110.3935796  39.0701160  84.2359722
 111.7979766  38.5049526  84.2242555 114.2076813  48.0109414  86.9565260
 113.5338512  48.3141111  87.5650217 114.5942635  48.8138494  86.6070717
 113.4235270  35.5074545  96.4462929 112.5057831  35.7289492  96.2884617
 113.8395413  35.5820856  95.5874636 114.2070317  36.9065961  91.5765609
 114.9542136  37.4187358  91.2672731 114.4761907  36.5850014  92.4370003
 112.4796968  39.4024502  88.5592563 111.5708187  39.1183534  88.6565033
 112.5092051  39.8223580  87.6995870 117.7116235  43.0131091  92.3283731
 117.2578562  42.1722001  92.3848921 117.0810202  43.6492489  92.6658511
 116.6549155  33.9423077  93.5584398 115.9171911  33.4300463  93.8894641
 116.9075928  33.5023459  92.7467675 116.1549174  44.8507588  93.2633549
 116.4472149  45.4112645  92.5445915 116.6647795  45.1436149  94.0186708
 116.7560782  26.7199329  94.1526168 117.0619659  25.8596692  93.8652083
 117.4813387  27.3116949  93.9525162 103.0485138  37.1230016  92.5407766
 102.8509538  36.5299376  91.8158832 102.4931802  36.8182226  93.2583704
 111.0281862  37.0153122  94.6602359 111.0830471  36.0626959  94.5844835
 110.2173064  37.1712561  95.1443657 112.1773055  40.9433245  85.8980642
 111.7392485  40.2269104  85.4386279 112.9183496  41.1709360  85.3365733
 108.9674222  35.6330182  92.4192738 108.1542087  35.9324352  92.8257930
 109.4633216  35.2385871  93.1367220 111.1182800  45.6287939  94.3527002
 111.0758978  45.8548785  93.4235534 112.0345498  45.3951313  94.5012804
 114.5648433  36.0972006 101.2507632 114.9197821  36.3243479 102.1102097
 115.2120565  36.4290383 100.6284887 120.2946170  39.2190442  91.9556961
 120.1564069  39.4092038  91.0278150 119.9382389  39.9809825  92.4125012
 108.4588296  33.2048537  98.0353973 109.0987676  33.0637296  97.3376936
 107.6265827  32.9183051  97.6592575 120.3215550  41.2866969  96.9668232
 120.7552057  41.1942258  97.8151286 121.0347131  41.2624470  96.3288248
 109.2348600  42.5050968  94.1488965 110.0289199  42.0101288  93.9471540
 108.5240293  41.9768831  93.7856671 114.0543445  44.8869063  98.5001333
 114.1080467  45.4560000  99.2679049 113.1858226  45.0570948  98.1355370
 105.5431364  36.6494050  90.2248718 104.6128952  36.5878505  90.4418680
 105.6388836  36.1270002  89.4285359 105.4616913  33.1748862  92.8126959
 105.7223730  34.0894196  92.7036120 106.2834085  32.7073305  92.9623572
 106.9341838  34.5886620  99.9825784 107.6064892  34.3803982  99.3338433
 106.1071625  34.3908706  99.5431016 121.1831099  41.3290670  99.5001118
 121.3766990  42.2336480  99.7460392 121.0831718  40.8698089 100.3339703
 112.8367410  31.2148560 101.9991445 112.1895325  31.9138510 101.9055921
 113.6068426  31.6484704 102.3667693 116.2446208  41.4797413 105.0741998
 116.0931715  41.2507964 104.1572082 116.2350888  42.4368014 105.0873343
 113.0131545  39.0529325 100.0588265 113.9423605  39.2040485  99.8857232
 112.5922575  39.1413346  99.2036911 111.8119876  43.0779990  97.8286802
 111.6730962  42.7098774  98.7012740 111.0234473  43.5927629  97.6570760
 112.4068028  48.1789086  89.1712339 112.5819784  47.7077129  89.9857961
 111.7200816  48.8054852  89.3993599 113.3625091  42.4561592  95.2175640
 113.0274924  42.4162362  96.1133290 112.8629037  41.7906308  94.7446050
 107.3369335  37.8629223 100.7428221 107.1989133  37.1309461 101.3439760
 108.2474259  37.7738123 100.4612409 116.2984283  39.8017627  85.4912700
 115.6813454  39.0764455  85.3945752 115.8300772  40.5626987  85.1479774
 109.9651636  37.5749182 100.2311901 110.6751255  36.9342374 100.1898519
 109.9220944  37.8262077 101.1538082 117.9538415  44.5116535 103.1518480
 117.8950961  43.8275755 102.4849063 118.3557933  45.2535525 102.6999106
 108.6780570  34.5614400 102.0507540 108.1417927  34.1105138 102.7029137
 108.0897278  34.6960309 101.3078005 106.9729114  51.3278449  95.9452199
 107.2125712  51.9596973  96.6231217 106.1298310  50.9766489  96.2317558
 108.0882829  34.0203051  84.6134004 107.2112295  33.8991852  84.2496251
 108.5640582  33.2289129  84.3612893 117.9555822  42.4756119 101.3832460
 117.0682601  42.1382041 101.5058859 118.5254373  41.7439150 101.6201225
  99.6084969  38.8080211  94.7075511 100.2956009  38.4941941  94.1196526
  99.4533098  39.7121576  94.4342762 104.4119691  33.6970407  99.1360535
 104.3277880  33.0896077  98.4010945 103.5902398  34.1879426  99.1370031
 111.4856975  47.1357571  98.3493703 111.4127147  47.9412543  98.8613007
 111.0434369  47.3349537  97.5241724 111.2746755  46.3729341  91.8596524
 110.4914277  46.9151022  91.9534749 111.9739500  46.8903321  92.2590766
 114.5843405  32.1823971  94.5030730 115.0812105  31.4293933  94.1831800
 113.8130387  32.2188288  93.9373939 122.4373163  37.8864336  96.1449021
 122.4263039  38.7689052  95.7742954 121.5690542  37.5335887  95.9503558
 113.9455659  47.0344405 100.5051862 114.6583631  47.6691870 100.4327763
 113.4545688  47.1308271  99.6891863 115.6673186  40.9395658  92.0769153
 114.7329465  41.0597121  91.9073858 115.8449854  40.0368125  91.8129163
 111.1678374  34.3241354  94.2302414 110.7976161  33.7712394  94.9183320
 111.6637466  33.7199487  93.6777414 119.0545737  36.7812977  92.6119187
 119.5206189  37.6140969  92.5379490 119.5053238  36.3157959  93.3164446
 108.9967572  44.7838849 101.3257432 109.6977032  45.4175332 101.4786827
 108.5262687  45.1253581 100.5653072 117.1221968  43.1256799  89.6105339
 117.3981812  43.0113393  90.5199213 116.2526467  42.7274284  89.5717512
 117.0262400  29.1493564  96.6510089 116.1125480  29.3797791  96.8192296
 117.4555501  29.2332009  97.5024121 116.7968858  37.3383456  99.1509983
 116.1440309  37.5859364  98.4962435 117.1749238  36.5247595  98.8172460
 113.7576032  47.3743150  93.2538153 113.9398427  46.5564806  93.7165905
 114.5809018  47.5910842  92.8163043 114.0918198  46.3011335  90.5153201
 114.6205964  45.7903789  89.9023364 114.3546417  45.9853865  91.3798734
 112.8456431  38.0803267 105.6376020 112.1697068  37.9797397 106.3078395
 113.6684065  37.9242481 106.1012017 104.5935291  44.3175204  98.2588535
 105.1788727  43.5718892  98.3916439 104.3960129  44.6279161  99.1425199
 107.4473946  47.3526451  93.2750977 106.7784321  47.8372579  92.7915017
 107.3086815  47.5995672  94.1894356  99.1852945  36.8880804  96.9792978
  99.2237045  36.3544395  97.7730096  98.6793238  36.3616010  96.3603955
 111.5879214  49.3870195  99.8733636 112.1397522  49.5501816 100.6382721
 111.9285408  49.9774633  99.2013661 106.5643708  31.7345345 100.4755520
 106.6285034  32.5960176 100.0632918 106.5010828  31.1219346  99.7427879
 106.0395980  33.8068477 104.1228555 106.6668019  33.4245555 104.7366079
 105.1823899  33.5882679 104.4884247 116.4390089  44.2131452 105.7282290
 116.9829993  44.8261411 105.2337245 115.8576934  44.7711031 106.2449303
 102.8161523  35.6144906  90.0546910 103.1114964  34.7055585  90.0013963
 101.9149559  35.5932646  89.7327912 114.7247602  47.3352170  96.8597318
 114.5998741  46.5341910  96.3508263 115.3826693  47.8298364  96.3711288
 106.3455770  33.6900903  96.0374458 105.6242356  34.3036871  95.8981931
 107.1349026  34.2258668  95.9591104 116.7882510  45.1361191  98.4876868
 115.8412846  45.0166542  98.4155195 117.1365283  44.2483689  98.5703129
 109.1482083  31.0255329 102.3115110 109.6716485  31.2717626 103.0741419
 108.9294417  31.8575364 101.8918247 104.5449364  33.2959004  90.1786235
 104.2162071  32.4156383  89.9961341 104.8988735  33.2406673  91.0662624
 113.7928943  44.9313907  94.6881220 113.6453906  44.0030614  94.8688790
 114.6182437  44.9533997  94.2038295 107.6591188  33.5831974  90.5461712
 107.9987260  34.1117895  89.8240321 108.1063308  33.9212380  91.3220279
 117.3963065  45.7542465  95.7746093 118.3209613  45.5485327  95.6370544
 117.2278369  45.5058867  96.6835434 110.3534628  31.9669025  99.9964780
 110.0131449  31.1676838 100.3985460 109.6473635  32.2670735  99.4241614
 111.0051100  29.0518337  98.4492103 111.8277170  28.5778815  98.3270994
 111.2489164  29.8308821  98.9490790 109.6459335  32.0806595  88.7455005
 110.3667697  32.4587848  88.2418722 109.0224639  32.7995472  88.8489983
 113.7890458  32.7851744  89.6813337 114.0054072  33.6676382  89.3802166
 113.3084525  32.3937958  88.9518979 108.5289679  35.7437458  96.2584082
 108.3834260  36.0577761  97.1508364 108.0514883  36.3622358  95.7054981
 110.3886062  32.7340006  96.3064972 110.3747631  31.8381099  95.9697270
 111.1058490  32.7410669  96.9403258 112.2412193  33.1677346  98.3518099
 111.9829970  34.0894416  98.3502429 111.7097233  32.7707780  99.0418563
 117.1858381  46.2728133  91.1308184 117.3595259  45.7074555  90.3782037
 117.6787273  47.0729028  90.9487674 103.0035341  38.2842802  99.1971743
 102.4588809  39.0602610  99.3292018 103.8814691  38.6313606  99.0390865
 109.7922958  31.6154386  91.5752542 109.9138869  30.6871032  91.7743429
 109.5025000  31.6293072  90.6630857 112.6614148  29.3009296  94.7119262
 112.6835845  29.3648629  93.7571241 113.0782207  28.4613805  94.9059768
 123.0397773  39.0364556  92.7498484 123.4828919  38.2871881  92.3517607
 122.1624283  39.0274692  92.3672216 118.1733554  45.5894897  88.2305083
 118.8684458  46.2101590  88.4492397 118.5156704  44.7390249  88.5057461
 103.7901363  37.4112698 102.0901900 103.0483099  37.5595334 102.6766531
 103.4694107  37.6720964 101.2268650 120.0724977  43.0394603  89.7592413
 120.5976301  43.3781876  89.0341734 119.9847330  42.1041618  89.5755548
 111.7345026  46.9528677 101.8882290 112.0432152  46.7077823 102.7604990
 112.5320508  47.1575315 101.4001160 111.7565638  49.1066586  94.1187667
 111.3170628  48.6142965  94.8120523 112.5073755  48.5639554  93.8779742
 104.2357977  45.2978127  94.1212295 105.0615997  44.9981899  93.7410938
 103.8852029  44.5285749  94.5702083 109.2039510  44.6504595  96.1909968
 108.5819519  43.9875300  95.8912196 109.8744377  44.6765727  95.5083616
 102.4366582  43.2164453  95.0801228 101.5998490  42.7886628  94.8985230
 102.4090227  43.4096897  96.0172020 109.2764037  33.1286383 105.7842474
 109.3252193  34.0048506 105.4020244 109.8186552  32.5863776 105.2114118
 119.7618883  43.6727507 105.0643611 118.9714427  43.6551645 104.5248111
 119.5252238  44.2115800 105.8192648 119.8816758  40.5219973 102.3776340
 119.9314763  40.3569980 103.3191863 119.7730681  39.6547232 101.9874221
 108.7653017  43.2008519  89.6668429 108.9141137  43.8843983  89.0135102
 109.5719460  43.1813609  90.1817885 117.1720520  36.5050901 103.6935647
 118.0730383  36.3657366 103.4019644 117.2468495  36.6705356 104.6333824
 111.5063326  33.8817756 102.5388833 110.6366635  34.1751322 102.2671422
 111.7422806  34.4658201 103.2596097 121.3834955  42.9416914 102.6218362
 121.0919763  43.3046895 103.4581822 120.7707086  42.2283923 102.4431694
 122.5830637  40.5069794  95.1420932 123.4177529  40.9459598  95.3058492
 122.7189766  40.0308447  94.3229178 119.6322143  38.0649529 101.0898420
 120.1076265  38.2577175 100.2817271 118.7087709  38.1208715 100.8441803
 106.5205650  39.2273696  90.6729498 106.2751692  38.3236026  90.8709708
 106.6901564  39.2290847  89.7308976 114.2102360  30.0997373 100.0554253
 114.7284303  30.8358400  99.7300742 113.8557492  30.4061366 100.8901013
 105.7901297  34.9602054  88.1715659 105.0970542  35.0346409  87.5155695
 105.5453049  34.1962397  88.6937176 114.4614954  26.5197655  95.5755150
 114.7416708  25.8520844  96.2015577 115.2465561  26.7126751  95.0629814
 112.2648422  45.6956649  87.1380176 111.6922389  46.3146836  86.6850648
 112.8381216  46.2456011  87.6720098 118.3323812  34.9415289  99.3226725
 119.2841235  35.0413387  99.3438949 118.1627263  34.1493558  99.8324809
 116.3538192  32.0270872  99.5086126 115.7588124  32.3075885  98.8132615
 116.0687888  32.5164773 100.2802867 115.4845682  45.9793799  88.2688759
 116.4176355  45.9139361  88.4721634 115.3968895  46.8150066  87.8103291
 118.1133699  45.2959669  85.2292706 118.0347330  44.9619533  86.1228464
 118.9343366  45.7881437  85.2284178 120.8111890  38.1621409  98.4369025
 120.7788210  37.2237410  98.6228709 121.4212514  38.2405446  97.7034850
 112.6495221  37.0317462  84.4796229 113.5954326  36.9023670  84.5484647
 112.2709466  36.2932124  84.9565657 120.9606378  34.9532452  98.4827308
 120.4445427  34.1690909  98.2957237 121.8446327  34.6251169  98.6473827
 118.6217105  28.6973468  94.4423121 118.4241926  28.3888556  95.3266453
 119.2316811  29.4235107  94.5721050 126.6288440  39.2237416  97.5775062
 127.3591828  38.9622704  98.1382765 126.0195385  38.4866138  97.6177130
 124.7103737  37.3645278  98.1749513 123.9836900  37.2301243  97.5666004
 124.2951024  37.6722107  98.9806231 112.5333913  41.0835208 105.9396886
 113.4536923  41.2613807 106.1336932 112.4983496  40.1391253 105.7876585
 110.8338138  34.9567438  84.4151114 109.9269593  34.6600551  84.4913828
 111.1114119  34.6597256  83.5485400 101.7516078  36.2773802  94.8650160
 101.4318863  35.4239110  94.5724534 101.2049507  36.4922380  95.6208128
 105.5295986  38.9936243  98.5819667 105.7481996  39.9253350  98.6007701
 105.9421760  38.6344217  99.3674471 112.4500204  29.5004328  90.5695355
 111.6400932  29.1551413  90.9450601 113.1384621  29.1911872  91.1582967
 114.3790752  28.5782375  92.1919652 114.9321791  28.9977828  92.8509675
 114.6160838  27.6518123  92.2342608 110.4023851  34.5669448 107.9722416
 110.3020578  35.5163805 107.9034507 110.1845393  34.2387687 107.0998486
 109.6036923  31.8154373  84.5563093 110.4656087  32.1409272  84.8158911
 109.7887267  31.0285869  84.0436159 101.6204338  39.8976713  96.8343282
 100.9267810  39.4830666  96.3213236 102.3677329  39.9397250  96.2376701
 117.7569559  30.6882900  91.6998316 117.1768228  31.3467704  91.3176369
 117.4905492  29.8660244  91.2885734 116.2073125  30.0887958  93.9019637
 116.7072904  30.2004492  93.0933955 116.8508733  29.7849010  94.5420445
 110.2655121  37.9966587 106.7887478 109.7822203  38.7966947 106.9951367
 110.3516060  38.0074532 105.8354922 103.5341081  39.8294967  94.7109297
 103.5111769  39.9282654  93.7591180 103.8441717  40.6760118  95.0326463
 106.1928459  41.8871122  98.8255911 107.1471712  41.8555064  98.7585843
 105.9940982  41.4261746  99.6406137 106.7827841  40.4572238 101.3926709
 107.6020730  40.9516317 101.4161546 107.0564649  39.5404206 101.3644276
 116.5394437  32.8482990  90.7554665 115.6520292  33.1332641  90.5374859
 116.9548426  32.6876754  89.9081941 119.8908973  32.8729511  94.4709004
 120.6669363  33.3625964  94.7433621 119.1657107  33.2987565  94.9280873
 122.3281532  33.5857130  95.5282944 122.9226023  33.3452866  94.8176253
 122.4008116  32.8664261  96.1556481 104.5478688  47.4290741  95.8426109
 104.4133155  46.6691142  95.2764107 104.1310750  48.1531641  95.3754898
 115.6837651  42.6127665  84.8502684 116.3873501  42.8177667  85.4660340
 114.9600299  43.1804427  85.1151768 116.5135461  38.3637526  90.9704955
 116.4570662  38.8206078  90.1312587 117.0663803  37.6028211  90.7927797
 120.3240267  34.1527258  91.7955074 120.0677201  33.7523894  92.6263282
 119.6993135  34.8671052  91.6705213 124.6352605  36.8923331  94.3026366
 124.0752163  36.9616521  95.0757928 124.0296108  36.7164316  93.5825862
 107.7047813  48.3260058  96.0544552 107.5880198  49.2705491  95.9523242
 106.8840260  48.0233620  96.4430351 117.5924348  43.0510194  86.9001145
 118.4269952  42.6191393  86.7178619 117.4308691  42.8792208  87.8278039
 117.2470240  39.5542307  88.2657484 117.1919044  39.3886579  87.3245928
 116.6216295  40.2618340  88.4219674 102.0362755  34.7910372 102.0918906
 102.6821619  34.2809326 102.5806131 101.8279906  35.5279053 102.6662331
 114.5616147  41.8591219 107.5911047 115.4307307  42.0331872 107.2297682
 114.0822899  42.6785636 107.4686776 110.5566366  29.0550416  87.8442802
 110.5445035  29.9992256  88.0011073 111.4489787  28.8720562  87.5502263
 108.7302328  48.9788320  99.2700480 109.6329574  49.0111931  99.5866975
 108.5039698  48.0488771  99.2846816 110.4855930  47.7319307  95.9310559
 109.5351561  47.7321168  95.8174931 110.7888416  46.9852041  95.4146594
 114.3718485  25.6493193  92.0988739 113.6050881  25.0951680  92.2445421
 114.7829190  25.7215062  92.9602891 106.3760246  31.9377989 106.1893920
 107.2391708  31.5814794 106.3997245 105.8025657  31.5991884 106.8769325
 126.2208623  53.5679845  96.9956321 126.8587033  53.4486593  96.2919661
 126.1029466  54.5160689  97.0544273 123.0298329  53.5207273  96.9317846
 122.6916841  53.4048338  96.0438381 123.8988097  53.1198438  96.9118852
 118.8885145  55.3742750  92.9214737 118.3250010  55.2832687  92.1531025
 118.7737540  54.5542654  93.4017229 123.5118112  54.6742125 102.8904051
 123.5006753  54.2794923 102.0184555 123.6738752  53.9408198 103.4837823
 116.4349577  56.8693941  95.7598957 117.2270869  56.5284766  95.3445257
 116.6746227  56.9788916  96.6801111 124.4684704  59.0413717  88.2329202
 123.8172683  59.6267798  87.8463216 125.2629067  59.5719912  88.2924239
 118.3940331  56.1302855  88.6316336 119.1671207  55.5831842  88.4929212
 118.7465730  56.9947104  88.8430798 120.2325373  57.4579237 101.8383235
 119.9415239  58.3624868 101.7229902 120.8682358  57.4995764 102.5527305
 121.1581580  54.8356085  98.4284595 121.7545153  54.6112108  97.7141558
 121.2156552  54.0940831  99.0310043 120.7306609  52.2895521  86.2634786
 120.9832129  51.7677042  85.5018249 119.7931168  52.1261666  86.3661470
 125.7749892  51.2931299  94.0709529 126.5612981  50.8750722  93.7199946
 126.0388596  52.1977391  94.2391178 125.9459969  56.7304149  88.7698186
 125.3105802  56.8038776  89.4819091 125.6157375  57.3197748  88.0917265
 131.1758319  51.2306532  94.9742508 131.9083491  50.6605749  95.2080337
 130.4197674  50.8428133  95.4149013 120.4502897  54.1923627  88.4659161
 120.3339156  53.5168530  89.1340245 120.5605157  53.7056001  87.6491314
 122.7934438  53.6533774  92.1705850 122.4292646  53.1264395  92.8818772
 123.6501554  53.2632243  91.9972336 128.6983739  44.9428106  99.4337116
 128.3667064  45.8123517  99.2098331 128.1029352  44.6264390 100.1131147
 122.4339925  48.6823673  87.1667199 122.6014328  49.5503910  87.5337670
 122.2437094  48.8450955  86.2428488 125.1915259  57.1440652  98.8333029
 124.8915982  58.0465691  98.7248836 124.8466318  56.8772836  99.6854182
 118.6427740  53.5954449  94.8669734 117.7178236  53.4630663  95.0747425
 118.8912153  54.3748668  95.3639676 128.5912402  49.6623193  96.5130466
 127.6829280  49.5938601  96.2189227 128.5399998  50.1395137  97.3412292
 122.4129146  51.1381331  88.1513866 122.2928771  51.5838382  88.9899346
 121.7181735  51.4866649  87.5927404 116.0036551  53.2387723  95.7013523
 116.1328932  53.4922202  96.6152934 115.3234002  53.8315431  95.3818178
 120.1736038  63.9084973  91.8003997 120.0960068  64.8592798  91.8792477
 119.5697682  63.5630845  92.4578923 122.6653268  51.0812838 104.4565364
 121.8886602  51.6406758 104.4468228 123.3043831  51.5669621 104.9780234
 130.4574049  47.8639631  98.2908340 129.8148429  48.1572164  97.6448135
 129.9528977  47.7492551  99.0961537 128.1114212  51.6102804  88.9794200
 129.0232068  51.8430191  88.8041897 127.6023859  52.1939848  88.4169278
 120.9199640  53.8898291 104.0183331 121.6614325  54.4283335 103.7418154
 120.2136626  54.5164580 104.1754883 126.3954980  56.0327432 102.6155492
 126.8038336  55.5909842 101.8710125 125.6732242  55.4580059 102.8689685
 122.7486050  50.9700039  99.9889049 123.5947245  51.3939452 100.1323698
 122.6884688  50.3133663 100.6827612 126.7183795  56.5928623  96.3707781
 126.0892657  56.7574337  95.6683849 126.3309457  57.0070232  97.1418745
 130.5973027  57.5283060  93.7252145 129.9124065  57.9081962  93.1749178
 130.6816876  58.1378387  94.4584093 125.8985495  48.6304407 101.6470223
 125.6546427  49.3846468 101.1104499 126.1745426  49.0089755 102.4817470
 127.8523958  55.1743019 100.3247488 128.0640853  55.8174779  99.6481869
 127.8053706  54.3405336  99.8569418 125.4550187  47.7860840  97.2284061
 124.5934666  48.0842094  97.5200798 125.4812622  48.0031239  96.2965093
 122.2711757  56.3303031  93.6357866 122.7350102  56.6090734  92.8462489
 122.0068555  55.4286475  93.4530957 119.1635838  55.8774512  96.5737629
 119.7337195  56.3061781  95.9355114 119.7543949  55.5957097  97.2721815
 121.2080643  52.4526183  90.4447431 121.9104686  52.9047227  90.9121358
 120.8761271  51.8110002  91.0727324 119.6561004  51.0437940 104.8198641
 119.0259665  51.7254221 105.0534038 119.5497092  50.9321021 103.8751779
 114.9505977  50.7109736  95.7464565 114.1605031  50.9667264  95.2704676
 115.4417224  51.5258074  95.8516605 128.9669786  58.0514975  98.4969846
 129.7887230  57.6495162  98.2152527 128.9632189  57.9483209  99.4485962
 116.9020722  51.0754315  92.7048042 116.1051885  51.1873009  93.2231537
 116.6746314  51.4140967  91.8388932 122.7326390  57.5999018 100.6530556
 122.7970822  58.0619425 101.4888728 122.0237313  56.9696383 100.7812866
 113.2343680  50.9640226  98.1779556 113.4851718  51.8487236  98.4437132
 113.7703228  50.7844828  97.4054648 137.0575779  54.3953723  94.8454817
 136.3039488  53.8261121  94.6898822 137.1923320  54.3616388  95.7925452
 122.4474407  59.2667126  90.5209537 122.3120082  60.1118661  90.9494384
 122.9884220  59.4686403  89.7575470 118.9341747  45.3458706 107.1823892
 118.5408692  44.7924904 107.8571536 119.7507887  45.6569284 107.5730409
 115.9003805  56.7842564  91.0937462 116.4128325  57.5785814  91.2443026
 116.5526517  56.0868854  91.0271063 117.7098689  59.9008320  93.1760215
 117.8865318  60.8226285  92.9881199 118.5055523  59.5866739  93.6054595
 121.8509708  46.7616585 104.7744148 122.5919421  47.3623738 104.6948611
 122.0827631  46.0194222 104.2162191 116.9951046  51.9472952 103.0522378
 116.8804561  51.0458209 103.3529477 116.1395564  52.1936649 102.7007195
 124.0742884  59.8890692 104.6509879 123.6306738  59.1027071 104.3330783
 124.7360097  60.0769843 103.9853769 118.8330005  61.4186494  99.1770557
 119.3837430  61.2903557  98.4047551 117.9941481  61.7181383  98.8265450
 126.1724122  60.1693492 102.6791280 126.1542597  60.9902373 102.1871549
 127.0944042  60.0447567 102.9041421 122.6297176  57.6837622 103.5214788
 123.1625513  56.9225910 103.2914096 122.1011257  57.3911273 104.2638943
 125.7966871  42.7897688  99.0508430 125.4531140  43.6799329  98.9747541
 126.1645833  42.5999345  98.1878015 113.8652721  55.1131218  91.8697032
 114.7027943  55.5228226  91.6530740 114.0430989  54.1730660  91.8397226
 125.7617154  52.7806299  87.5580865 125.2463777  53.5510903  87.7969253
 125.4894462  52.1071435  88.1813927 123.3464265  47.6255999  92.6166104
 122.4905861  47.2362850  92.4371742 123.7591216  47.7047960  91.7565889
 124.8763411  45.1602343  97.0157663 124.3728207  45.1232478  96.2025469
 125.1694018  46.0695085  97.0754320 121.1206297  45.2441072  96.0223845
 121.9859294  45.0483881  95.6629735 121.1883806  45.0151424  96.9493202
 130.7351428  55.5338653  89.4934039 129.9580870  55.1949813  89.0489201
 131.4142909  55.5391276  88.8189004 125.5503457  50.6533391  89.3840646
 125.2453592  50.9679540  90.2350790 126.5033899  50.7314811  89.4267979
 123.9949889  56.8123614  91.0333600 123.4671250  56.0776374  90.7206838
 123.4937391  57.5898290  90.7873569 128.9742735  55.0072635  96.1500647
 128.3166409  55.6971896  96.2380775 129.7783134  55.3969066  96.4934633
 118.7268616  47.4743280  93.3940212 119.3012368  47.2518462  92.6613405
 119.3139599  47.5431975  94.1468813 127.7848193  53.3617007  94.2004588
 128.2980075  53.9946999  94.7026298 128.4349417  52.7618203  93.8347948
 119.0538203  49.5047741  87.4136097 118.2175516  49.8422428  87.7345372
 118.9142973  49.3696721  86.4763234 121.0291284  44.3484529  92.1215281
 120.3755696  44.0333546  91.4971896 120.9871758  43.7260270  92.8475104
 122.1402489  54.6303824  84.0368573 121.2329550  54.3993078  84.2359722
 122.6373521  53.8341444  84.2242555 125.0470568  63.3401332  86.9565260
 124.3732266  63.6433028  87.5650217 125.4336390  64.1430412  86.6070717
 124.2629024  50.8366463  96.4462929 123.3451586  51.0581410  96.2884617
 124.6789168  50.9112773  95.5874636 125.0464072  52.2357878  91.5765609
 125.7935891  52.7479276  91.2672731 125.3155662  51.9141931  92.4370003
 123.3190722  54.7316419  88.5592563 122.4101941  54.4475452  88.6565033
 123.3485806  55.1515498  87.6995870 128.5509990  58.3423009  92.3283731
 128.0972317  57.5013919  92.3848921 127.9203956  58.9784407  92.6658511
 127.4942909  49.2714995  93.5584398 126.7565666  48.7592381  93.8894641
 127.7469683  48.8315376  92.7467675 126.9942929  60.1799505  93.2633549
 127.2865903  60.7404562  92.5445915 127.5041549  60.4728066  94.0186708
 127.5954536  42.0491247  94.1526168 127.9013413  41.1888610  93.8652083
 128.3207141  42.6408867  93.9525162 113.8878893  52.4521933  92.5407766
 113.6903292  51.8591294  91.8158832 113.3325557  52.1474144  93.2583704
 121.8675616  52.3445040  94.6602359 121.9224226  51.3918876  94.5844835
 121.0566818  52.5004479  95.1443657 123.0166810  56.2725163  85.8980642
 122.5786240  55.5561022  85.4386279 123.7577251  56.5001278  85.3365733
 119.8067976  50.9622100  92.4192738 118.9935842  51.2616270  92.8257930
 120.3026970  50.5677788  93.1367220 121.9576554  60.9579856  94.3527002
 121.9152733  61.1840703  93.4235534 122.8739253  60.7243231  94.5012804
 125.4042188  51.4263924 101.2507632 125.7591576  51.6535397 102.1102097
 126.0514319  51.7582301 100.6284887 131.1339925  54.5482360  91.9556961
 130.9957823  54.7383956  91.0278150 130.7776144  55.3101743  92.4125012
 119.2982051  48.5340455  98.0353973 119.9381430  48.3929214  97.3376936
 118.4659581  48.2474968  97.6592575 131.1609304  56.6158887  96.9668232
 131.5945811  56.5234176  97.8151286 131.8740885  56.5916387  96.3288248
 120.0742355  57.8342885  94.1488965 120.8682953  57.3393206  93.9471540
 119.3634047  57.3060749  93.7856671 124.8937199  60.2160981  98.5001333
 124.9474222  60.7851917  99.2679049 124.0251981  60.3862866  98.1355370
 116.3825118  51.9785967  90.2248718 115.4522706  51.9170423  90.4418680
 116.4782590  51.4561920  89.4285359 116.3010667  48.5040780  92.8126959
 116.5617485  49.4186113  92.7036120 117.1227840  48.0365223  92.9623572
 117.7735593  49.9178537  99.9825784 118.4458646  49.7095899  99.3338433
 116.9465379  49.7200623  99.5431016 132.0224854  56.6582588  99.5001118
 132.2160744  57.5628398  99.7460392 131.9225472  56.1990007 100.3339703
 123.6761165  46.5440478 101.9991445 123.0289080  47.2430428 101.9055921
 124.4462180  46.9776622 102.3667693 127.0839963  56.8089330 105.0741998
 126.9325469  56.5799882 104.1572082 127.0744642  57.7659932 105.0873343
 123.8525299  54.3821243 100.0588265 124.7817359  54.5332403  99.8857232
 123.4316329  54.4705264  99.2036911 122.6513631  58.4071907  97.8286802
 122.5124716  58.0390692  98.7012740 121.8628227  58.9219547  97.6570760
 123.2461783  63.5081004  89.1712339 123.4213538  63.0369047  89.9857961
 122.5594571  64.1346770  89.3993599 124.2018846  57.7853510  95.2175640
 123.8668679  57.7454280  96.1133290 123.7022792  57.1198226  94.7446050
 118.1763090  53.1921140 100.7428221 118.0382888  52.4601379 101.3439760
 119.0868013  53.1030040 100.4612409 127.1378038  55.1309545  85.4912700
 126.5207208  54.4056373  85.3945752 126.6694526  55.8918905  85.1479774
 120.8045391  52.9041100 100.2311901 121.5145009  52.2634292 100.1898519
 120.7614699  53.1553994 101.1538082 128.7932169  59.8408453 103.1518480
 128.7344715  59.1567673 102.4849063 129.1951688  60.5827443 102.6999106
 119.5174325  49.8906317 102.0507540 118.9811682  49.4397056 102.7029137
 118.9291033  50.0252226 101.3078005 117.8122868  66.6570367  95.9452199
 118.0519466  67.2888891  96.6231217 116.9692065  66.3058407  96.2317558
 118.9276583  49.3494969  84.6134004 118.0506050  49.2283770  84.2496251
 119.4034337  48.5581047  84.3612893 128.7949577  57.8048037 101.3832460
 127.9076355  57.4673959 101.5058859 129.3648128  57.0731068 101.6201225
 110.4478724  54.1372129  94.7075511 111.1349763  53.8233859  94.1196526
 110.2926852  55.0413493  94.4342762 115.2513446  49.0262325  99.1360535
 115.1671634  48.4187995  98.4010945 114.4296152  49.5171343  99.1370031
 122.3250730  62.4649489  98.3493703 122.2520901  63.2704461  98.8613007
 121.8828123  62.6641455  97.5241724 122.1140510  61.7021259  91.8596524
 121.3308031  62.2442939  91.9534749 122.8133255  62.2195239  92.2590766
 125.4237160  47.5115889  94.5030730 125.9205859  46.7585851  94.1831800
 124.6524141  47.5480205  93.9373939 133.2766917  53.2156254  96.1449021
 133.2656793  54.0980970  95.7742954 132.4084296  52.8627805  95.9503558
 124.7849413  62.3636323 100.5051862 125.4977386  62.9983788 100.4327763
 124.2939442  62.4600189  99.6891863 126.5066940  56.2687576  92.0769153
 125.5723219  56.3889038  91.9073858 126.6843609  55.3660043  91.8129163
 122.0072128  49.6533272  94.2302414 121.6369916  49.1004312  94.9183320
 122.5031221  49.0491405  93.6777414 129.8939492  52.1104895  92.6119187
 130.3599944  52.9432887  92.5379490 130.3446992  51.6449877  93.3164446
 119.8361327  60.1130767 101.3257432 120.5370786  60.7467250 101.4786827
 119.3656442  60.4545498 100.5653072 127.9615723  58.4548716  89.6105339
 128.2375567  58.3405311  90.5199213 127.0920222  58.0566201  89.5717512
 127.8656154  44.4785482  96.6510089 126.9519234  44.7089709  96.8192296
 128.2949256  44.5623926  97.5024121 127.6362613  52.6675374  99.1509983
 126.9834063  52.9151282  98.4962435 128.0142993  51.8539512  98.8172460
 124.5969787  62.7035067  93.2538153 124.7792181  61.8856723  93.7165905
 125.4202773  62.9202760  92.8163043 124.9311952  61.6303252  90.5153201
 125.4599719  61.1195707  89.9023364 125.1940172  61.3145783  91.3798734
 123.6850186  53.4095185 105.6376020 123.0090823  53.3089314 106.3078395
 124.5077820  53.2534399 106.1012017 115.4329045  59.6467122  98.2588535
 116.0182482  58.9010810  98.3916439 115.2353883  59.9571078  99.1425199
 118.2867700  62.6818369  93.2750977 117.6178075  63.1664497  92.7915017
 118.1480570  62.9287590  94.1894356 110.0246700  52.2172722  96.9792978
 110.0630799  51.6836313  97.7730096 109.5186993  51.6907927  96.3603955
 122.4272969  64.7162113  99.8733636 122.9791277  64.8793734 100.6382721
 122.7679162  65.3066550  99.2013661 117.4037462  47.0637262 100.4755520
 117.4678789  47.9252093 100.0632918 117.3404582  46.4511264  99.7427879
 116.8789735  49.1360395 104.1228555 117.5061773  48.7537472 104.7366079
 116.0217653  48.9174597 104.4884247 127.2783843  59.5423370 105.7282290
 127.8223747  60.1553328 105.2337245 126.6970688  60.1002949 106.2449303
 113.6555277  50.9436824  90.0546910 113.9508718  50.0347502  90.0013963
 112.7543313  50.9224564  89.7327912 125.5641356  62.6644088  96.8597318
 125.4392496  61.8633828  96.3508263 126.2220447  63.1590281  96.3711288
 117.1849524  49.0192821  96.0374458 116.4636110  49.6328788  95.8981931
 117.9742780  49.5550585  95.9591104 127.6276264  60.4653108  98.4876868
 126.6806600  60.3458459  98.4155195 127.9759038  59.5775606  98.5703129
 119.9875838  46.3547247 102.3115110 120.5110240  46.6009544 103.0741419
 119.7688171  47.1867282 101.8918247 115.3843119  48.6250922  90.1786235
 115.0555825  47.7448301  89.9961341 115.7382490  48.5698590  91.0662624
 124.6322698  60.2605824  94.6881220 124.4847660  59.3322532  94.8688790
 125.4576191  60.2825915  94.2038295 118.4984942  48.9123892  90.5461712
 118.8381015  49.4409813  89.8240321 118.9457063  49.2504298  91.3220279
 128.2356820  61.0834383  95.7746093 129.1603367  60.8777244  95.6370544
 128.0672123  60.8350784  96.6835434 121.1928383  47.2960942  99.9964780
 120.8525203  46.4968755 100.3985460 120.4867389  47.5962653  99.4241614
 121.8444855  44.3810255  98.4492103 122.6670924  43.9070733  98.3270994
 122.0882918  45.1600738  98.9490790 120.4853089  47.4098513  88.7455005
 121.2061452  47.7879766  88.2418722 119.8618393  48.1287390  88.8489983
 124.6284212  48.1143662  89.6813337 124.8447826  48.9968300  89.3802166
 124.1478279  47.7229875  88.9518979 119.3683433  51.0729375  96.2584082
 119.2228014  51.3869678  97.1508364 118.8908637  51.6914276  95.7054981
 121.2279816  48.0631923  96.3064972 121.2141385  47.1673017  95.9697270
 121.9452244  48.0702587  96.9403258 123.0805947  48.4969263  98.3518099
 122.8223725  49.4186334  98.3502429 122.5490987  48.0999698  99.0418563
 128.0252136  61.6020051  91.1308184 128.1989013  61.0366473  90.3782037
 128.5181027  62.4020945  90.9487674 113.8429096  53.6134720  99.1971743
 113.2982564  54.3894528  99.3292018 114.7208446  53.9605524  99.0390865
 120.6316712  46.9446304  91.5752542 120.7532623  46.0162950  91.7743429
 120.3418755  46.9584990  90.6630857 123.5007903  44.6301214  94.7119262
 123.5229600  44.6940547  93.7571241 123.9175962  43.7905723  94.9059768
 133.8791527  54.3656474  92.7498484 134.3222673  53.6163799  92.3517607
 133.0018037  54.3566610  92.3672216 129.0127308  60.9186815  88.2305083
 129.7078213  61.5393508  88.4492397 129.3550458  60.0682166  88.5057461
 114.6295118  52.7404616 102.0901900 113.8876854  52.8887251 102.6766531
 114.3087862  53.0012882 101.2268650 130.9118731  58.3686521  89.7592413
 131.4370056  58.7073793  89.0341734 130.8241084  57.4333536  89.5755548
 122.5738780  62.2820594 101.8882290 122.8825907  62.0369741 102.7604990
 123.3714262  62.4867233 101.4001160 122.5959392  64.4358504  94.1187667
 122.1564382  63.9434883  94.8120523 123.3467509  63.8931471  93.8779742
 115.0751731  60.6270045  94.1212295 115.9009751  60.3273817  93.7410938
 114.7245783  59.8577667  94.5702083 120.0433264  59.9796513  96.1909968
 119.4213274  59.3167218  95.8912196 120.7138131  60.0057645  95.5083616
 113.2760336  58.5456371  95.0801228 112.4392245  58.1178545  94.8985230
 113.2483982  58.7388814  96.0172020 120.1157792  48.4578301 105.7842474
 120.1645947  49.3340424 105.4020244 120.6580306  47.9155694 105.2114118
 130.6012638  59.0019424 105.0643611 129.8108181  58.9843563 104.5248111
 130.3645992  59.5407718 105.8192648 130.7210513  55.8511891 102.3776340
 130.7708517  55.6861898 103.3191863 130.6124436  54.9839150 101.9874221
 119.6046771  58.5300436  89.6668429 119.7534892  59.2135901  89.0135102
 120.4113215  58.5105526  90.1817885 128.0114275  51.8342819 103.6935647
 128.9124138  51.6949283 103.4019644 128.0862249  51.9997273 104.6333824
 122.3457080  49.2109673 102.5388833 121.4760390  49.5043239 102.2671422
 122.5816561  49.7950118 103.2596097 132.2228709  58.2708832 102.6218362
 131.9313518  58.6338813 103.4581822 131.6100841  57.5575840 102.4431694
 133.4224392  55.8361712  95.1420932 134.2571283  56.2751516  95.3058492
 133.5583520  55.3600365  94.3229178 130.4715898  53.3941447 101.0898420
 130.9470019  53.5869093 100.2817271 129.5481463  53.4500633 100.8441803
 117.3599404  54.5565614  90.6729498 117.1145446  53.6527944  90.8709708
 117.5295319  54.5582764  89.7308976 125.0496114  45.4289290 100.0554253
 125.5678058  46.1650317  99.7300742 124.6951247  45.7353284 100.8901013
 116.6295052  50.2893971  88.1715659 115.9364297  50.3638326  87.5155695
 116.3846804  49.5254315  88.6937176 125.3008708  41.8489573  95.5755150
 125.5810462  41.1812762  96.2015577 126.0859315  42.0418668  95.0629814
 123.1042177  61.0248567  87.1380176 122.5316144  61.6438754  86.6850648
 123.6774970  61.5747928  87.6720098 129.1717567  50.2707207  99.3226725
 130.1234990  50.3705304  99.3438949 129.0021017  49.4785475  99.8324809
 127.1931946  47.3562790  99.5086126 126.5981878  47.6367803  98.8132615
 126.9081643  47.8456691 100.2802867 126.3239437  61.3085717  88.2688759
 127.2570110  61.2431279  88.4721634 126.2362649  62.1441984  87.8103291
 128.9527453  60.6251587  85.2292706 128.8741085  60.2911451  86.1228464
 129.7737120  61.1173355  85.2284178 131.6505644  53.4913326  98.4369025
 131.6181965  52.5529327  98.6228709 132.2606268  53.5697363  97.7034850
 123.4888975  52.3609379  84.4796229 124.4348080  52.2315588  84.5484647
 123.1103220  51.6224041  84.9565657 131.8000133  50.2824370  98.4827308
 131.2839182  49.4982827  98.2957237 132.6840081  49.9543087  98.6473827
 129.4610860  44.0265385  94.4423121 129.2635681  43.7180474  95.3266453
 130.0710565  44.7527024  94.5721050 135.5497491  52.6937196  98.1749513
 134.8230655  52.5593161  97.5666004 135.1344778  53.0014025  98.9806231
 123.3727668  56.4127126 105.9396886 124.2930677  56.5905725 106.1336932
 123.3377251  55.4683171 105.7876585 121.6731892  50.2859356  84.4151114
 120.7663348  49.9892469  84.4913828 121.9507873  49.9889174  83.5485400
 112.5909833  51.6065719  94.8650160 112.2712617  50.7531027  94.5724534
 112.0443261  51.8214297  95.6208128 116.3689740  54.3228160  98.5819667
 116.5875750  55.2545268  98.6007701 116.7815514  53.9636135  99.3674471
 123.2893958  44.8296246  90.5695355 122.4794686  44.4843331  90.9450601
 123.9778375  44.5203789  91.1582967 125.2184506  43.9074292  92.1919652
 125.7715545  44.3269746  92.8509675 125.4554593  42.9810040  92.2342608
 121.2417606  49.8961366 107.9722416 121.1414333  50.8455723 107.9034507
 121.0239148  49.5679605 107.0998486 120.4430677  47.1446291  84.5563093
 121.3049841  47.4701189  84.8158911 120.6281021  46.3577787  84.0436159
 112.4598093  55.2268631  96.8343282 111.7661564  54.8122584  96.3213236
 113.2071084  55.2689167  96.2376701 128.5963314  46.0174818  91.6998316
 128.0161983  46.6759622  91.3176369 128.3299246  45.1952162  91.2885734
 127.0466880  45.4179875  93.9019637 127.5466658  45.5296410  93.0933955
 127.6902488  45.1140928  94.5420445 121.1048876  53.3258505 106.7887478
 120.6215957  54.1258865 106.9951367 121.1909815  53.3366450 105.8354922
 114.3734835  55.1586885  94.7109297 114.3505523  55.2574572  93.7591180
 114.6835472  56.0052035  95.0326463 117.0322213  57.2163040  98.8255911
 117.9865467  57.1846982  98.7585843 116.8334737  56.7553663  99.6406137
 117.6221595  55.7864156 101.3926709 118.4414484  56.2808234 101.4161546
 117.8958403  54.8696124 101.3644276 127.3788192  48.1774908  90.7554665
 126.4914047  48.4624559  90.5374859 127.7942181  48.0168671  89.9081941
 130.7302728  48.2021429  94.4709004 131.5063118  48.6917881  94.7433621
 130.0050862  48.6279483  94.9280873 133.1675286  48.9149048  95.5282944
 133.7619777  48.6744784  94.8176253 133.2401870  48.1956179  96.1556481
 115.3872442  62.7582659  95.8426109 115.2526910  61.9983060  95.2764107
 114.9704504  63.4823559  95.3754898 126.5231405  57.9419583  84.8502684
 127.2267255  58.1469585  85.4660340 125.7994054  58.5096344  85.1151768
 127.3529215  53.6929444  90.9704955 127.2964417  54.1497995  90.1312587
 127.9057558  52.9320128  90.7927797 131.1634021  49.4819176  91.7955074
 130.9070955  49.0815811  92.6263282 130.5386889  50.1962970  91.6705213
 135.4746359  52.2215249  94.3026366 134.9145917  52.2908438  95.0757928
 134.8689862  52.0456234  93.5825862 118.5441568  63.6551976  96.0544552
 118.4273952  64.5997409  95.9523242 117.7234014  63.3525538  96.4430351
 128.4318102  58.3802112  86.9001145 129.2663706  57.9483310  86.7178619
 128.2702445  58.2084125  87.8278039 128.0863995  54.8834225  88.2657484
 128.0312798  54.7178497  87.3245928 127.4610050  55.5910258  88.4219674
 112.8756510  50.1202289 102.0918906 113.5215373  49.6101243 102.5806131
 112.6673661  50.8570971 102.6662331 125.4009902  57.1883137 107.5911047
 126.2701061  57.3623789 107.2297682 124.9216653  58.0077554 107.4686776
 121.3960120  44.3842334  87.8442802 121.3838790  45.3284174  88.0011073
 122.2883542  44.2012479  87.5502263 119.5696082  64.3080238  99.2700480
 120.4723329  64.3403848  99.5866975 119.3433452  63.3780689  99.2846816
 121.3249684  63.0611224  95.9310559 120.3745315  63.0613086  95.8174931
 121.6282170  62.3143959  95.4146594 125.2112240  40.9785111  92.0988739
 124.4444635  40.4243597  92.2445421 125.6222944  41.0506979  92.9602891
 117.2154001  47.2669907 106.1893920 118.0785462  46.9106711 106.3997245
 116.6419411  46.9283801 106.8769325 133.8692084  68.8499191  96.9317846
 133.5310595  68.7340256  96.0438381 134.7381852  68.4490356  96.9118852
 129.7278899  70.7034667  92.9214737 129.1643765  70.6124604  92.1531025
 129.6131295  69.8834572  93.4017229 134.3511867  70.0034043 102.8904051
 134.3400508  69.6086841 102.0184555 134.5132506  69.2700115 103.4837823
 127.2743331  72.1985859  95.7598957 128.0664623  71.8576684  95.3445257
 127.5139982  72.3080834  96.6801111 135.3078458  74.3705635  88.2329202
 134.6566438  74.9559716  87.8463216 136.1022821  74.9011830  88.2924239
 129.2334085  71.4594772  88.6316336 130.0064961  70.9123759  88.4929212
 129.5859484  72.3239022  88.8430798 131.0719128  72.7871155 101.8383235
 130.7808994  73.6916785 101.7229902 131.7076112  72.8287682 102.5527305
 131.9975335  70.1648003  98.4284595 132.5938907  69.9404025  97.7141558
 132.0550306  69.4232749  99.0310043 131.5700363  67.6187438  86.2634786
 131.8225884  67.0968960  85.5018249 130.6324922  67.4553584  86.3661470
 136.6143646  66.6223217  94.0709529 137.4006735  66.2042640  93.7199946
 136.8782350  67.5269309  94.2391178 136.7853723  72.0596067  88.7698186
 136.1499556  72.1330694  89.4819091 136.4551130  72.6489666  88.0917265
 131.2896652  69.5215544  88.4659161 131.1732910  68.8460448  89.1340245
 131.3998912  69.0347918  87.6491314 133.6328193  68.9825691  92.1705850
 133.2686400  68.4556312  92.8818772 134.4895309  68.5924160  91.9972336
 133.2733680  64.0115591  87.1667199 133.4408082  64.8795828  87.5337670
 133.0830849  64.1742873  86.2428488 136.0309013  72.4732570  98.8333029
 135.7309736  73.3757609  98.7248836 135.6860073  72.2064753  99.6854182
 129.4821494  68.9246367  94.8669734 128.5571991  68.7922581  95.0747425
 129.7305908  69.7040586  95.3639676 133.2522901  66.4673249  88.1513866
 133.1322526  66.9130299  88.9899346 132.5575489  66.8158566  87.5927404
 126.8430306  68.5679640  95.7013523 126.9722687  68.8214119  96.6152934
 126.1627757  69.1607348  95.3818178 131.0129793  79.2376890  91.8003997
 130.9353823  80.1884715  91.8792477 130.4091436  78.8922763  92.4578923
 133.5047023  66.4104756 104.4565364 132.7280357  66.9698676 104.4468228
 134.1437586  66.8961539 104.9780234 131.7593395  69.2190209 104.0183331
 132.5008079  69.7575253 103.7418154 131.0530380  69.8456498 104.1754883
 137.2348735  71.3619350 102.6155492 137.6432091  70.9201760 101.8710125
 136.5125996  70.7871977 102.8689685 133.5879805  66.2991956  99.9889049
 134.4341000  66.7231370 100.1323698 133.5278442  65.6425581 100.6827612
 137.5577549  71.9220540  96.3707781 136.9286412  72.0866254  95.6683849
 137.1703211  72.3362150  97.1418745 136.7379250  63.9596325 101.6470223
 136.4940182  64.7138385 101.1104499 137.0139180  64.3381672 102.4817470
 136.2943942  63.1152758  97.2284061 135.4328421  63.4134011  97.5200798
 136.3206376  63.3323157  96.2965093 133.1105511  71.6594948  93.6357866
 133.5743857  71.9382651  92.8462489 132.8462309  70.7578393  93.4530957
 130.0029592  71.2066430  96.5737629 130.5730949  71.6353698  95.9355114
 130.5937704  70.9249015  97.2721815 132.0474397  67.7818101  90.4447431
 132.7498440  68.2339144  90.9121358 131.7155026  67.1401920  91.0727324
 130.4954759  66.3729857 104.8198641 129.8653419  67.0546138 105.0534038
 130.3890847  66.2612939 103.8751779 125.7899731  66.0401653  95.7464565
 124.9998785  66.2959182  95.2704676 126.2810978  66.8549991  95.8516605
 127.7414476  66.4046233  92.7048042 126.9445640  66.5164927  93.2231537
 127.5140069  66.7432885  91.8388932 133.5720144  72.9290936 100.6530556
 133.6364577  73.3911343 101.4888728 132.8631068  72.2988301 100.7812866
 124.0737434  66.2932144  98.1779556 124.3245472  67.1779154  98.4437132
 124.6096982  66.1136745  97.4054648 133.2868162  74.5959043  90.5209537
 133.1513837  75.4410579  90.9494384 133.8277974  74.7978321  89.7575470
 129.7735501  60.6750623 107.1823892 129.3802447  60.1216822 107.8571536
 130.5901642  60.9861202 107.5730409 126.7397559  72.1134481  91.0937462
 127.2522080  72.9077732  91.2443026 127.3920272  71.4160772  91.0271063
 128.5492444  75.2300238  93.1760215 128.7259072  76.1518202  92.9881199
 129.3449277  74.9158657  93.6054595 132.6903462  62.0908502 104.7744148
 133.4313176  62.6915655 104.6948611 132.9221385  61.3486140 104.2162191
 127.8344800  67.2764870 103.0522378 127.7198315  66.3750127 103.3529477
 126.9789318  67.5228566 102.7007195 134.9136638  75.2182610 104.6509879
 134.4700492  74.4318988 104.3330783 135.5753852  75.4061760 103.9853769
 129.6723759  76.7478411  99.1770557 130.2231184  76.6195475  98.4047551
 128.8335235  77.0473300  98.8265450 133.4690930  73.0129539 103.5214788
 134.0019267  72.2517827 103.2914096 132.9405011  72.7203191 104.2638943
 136.6360625  58.1189605  99.0508430 136.2924895  59.0091247  98.9747541
 137.0039588  57.9291263  98.1878015 124.7046476  70.4423136  91.8697032
 125.5421698  70.8520144  91.6530740 124.8824744  69.5022578  91.8397226
 136.6010908  68.1098216  87.5580865 136.0857531  68.8802821  87.7969253
 136.3288216  67.4363352  88.1813927 134.1858019  62.9547917  92.6166104
 133.3299615  62.5654767  92.4371742 134.5984971  63.0339878  91.7565889
 135.7157166  60.4894260  97.0157663 135.2121961  60.4524396  96.2025469
 136.0087773  61.3987003  97.0754320 131.9600052  60.5732990  96.0223845
 132.8253048  60.3775799  95.6629735 132.0277560  60.3443342  96.9493202
 136.3897211  65.9825308  89.3840646 136.0847347  66.2971458  90.2350790
 137.3427653  66.0606728  89.4267979 134.8343643  72.1415532  91.0333600
 134.3065005  71.4068291  90.7206838 134.3331146  72.9190208  90.7873569
 129.5662371  62.8035198  93.3940212 130.1406123  62.5810380  92.6613405
 130.1533353  62.8723893  94.1468813 129.8931958  64.8339659  87.4136097
 129.0569270  65.1714346  87.7345372 129.7536727  64.6988639  86.4763234
 131.8685038  59.6776447  92.1215281 131.2149451  59.3625464  91.4971896
 131.8265512  59.0552187  92.8475104 132.9796243  69.9595742  84.0368573
 132.0723305  69.7284995  84.2359722 133.4767275  69.1633361  84.2242555
 135.8864322  78.6693249  86.9565260 135.2126021  78.9724946  87.5650217
 136.2730144  79.4722330  86.6070717 135.1022779  66.1658380  96.4462929
 134.1845340  66.3873327  96.2884617 135.5182922  66.2404691  95.5874636
 135.8857826  67.5649796  91.5765609 136.6329645  68.0771193  91.2672731
 136.1549416  67.2433849  92.4370003 134.1584477  70.0608337  88.5592563
 133.2495696  69.7767370  88.6565033 134.1879560  70.4807415  87.6995870
 124.7272647  67.7813851  92.5407766 124.5297047  67.1883212  91.8158832
 124.1719311  67.4766061  93.2583704 132.7069371  67.6736957  94.6602359
 132.7617980  66.7210794  94.5844835 131.8960573  67.8296397  95.1443657
 133.8560564  71.6017081  85.8980642 133.4179994  70.8852939  85.4386279
 134.5971005  71.8293195  85.3365733 130.6461731  66.2914017  92.4192738
 129.8329596  66.5908188  92.8257930 131.1420725  65.8969706  93.1367220
 132.7970308  76.2871774  94.3527002 132.7546487  76.5132620  93.4235534
 133.7133007  76.0535149  94.5012804 136.2435942  66.7555842 101.2507632
 136.5985330  66.9827315 102.1102097 136.8908074  67.0874218 100.6284887
 130.1375805  63.8632373  98.0353973 130.7775185  63.7221132  97.3376936
 129.3053336  63.5766886  97.6592575 130.9136109  73.1634803  94.1488965
 131.7076708  72.6685123  93.9471540 130.2027802  72.6352666  93.7856671
 135.7330954  75.5452899  98.5001333 135.7867976  76.1143835  99.2679049
 134.8645735  75.7154784  98.1355370 127.2218873  67.3077885  90.2248718
 126.2916461  67.2462340  90.4418680 127.3176345  66.7853838  89.4285359
 127.1404422  63.8332698  92.8126959 127.4011239  64.7478031  92.7036120
 127.9621594  63.3657140  92.9623572 128.6129347  65.2470455  99.9825784
 129.2852401  65.0387817  99.3338433 127.7859134  65.0492541  99.5431016
 134.5154919  61.8732396 101.9991445 133.8682834  62.5722345 101.9055921
 135.2855935  62.3068540 102.3667693 134.6919053  69.7113161 100.0588265
 135.6211113  69.8624320  99.8857232 134.2710083  69.7997182  99.2036911
 133.4907385  73.7363825  97.8286802 133.3518471  73.3682610  98.7012740
 132.7021981  74.2511465  97.6570760 134.0855537  78.8372922  89.1712339
 134.2607293  78.3660965  89.9857961 133.3988325  79.4638688  89.3993599
 135.0412600  73.1145428  95.2175640 134.7062433  73.0746198  96.1133290
 134.5416546  72.4490144  94.7446050 129.0156844  68.5213058 100.7428221
 128.8776642  67.7893297 101.3439760 129.9261768  68.4321958 100.4612409
 131.6439145  68.2333017 100.2311901 132.3538764  67.5926209 100.1898519
 131.6008453  68.4845912 101.1538082 130.3568079  65.2198235 102.0507540
 129.8205436  64.7688974 102.7029137 129.7684787  65.3544144 101.3078005
 128.6516623  81.9862284  95.9452199 128.8913221  82.6180809  96.6231217
 127.8085819  81.6350324  96.2317558 129.7670338  64.6786886  84.6134004
 128.8899804  64.5575687  84.2496251 130.2428091  63.8872965  84.3612893
 121.2872478  69.4664046  94.7075511 121.9743518  69.1525776  94.1196526
 121.1320607  70.3705411  94.4342762 126.0907200  64.3554243  99.1360535
 126.0065389  63.7479912  98.4010945 125.2689907  64.8463261  99.1370031
 133.1644484  77.7941407  98.3493703 133.0914656  78.5996378  98.8613007
 132.7221877  77.9933373  97.5241724 132.9534264  77.0313177  91.8596524
 132.1701786  77.5734857  91.9534749 133.6527009  77.5487156  92.2590766
 136.2630914  62.8407806  94.5030730 136.7599614  62.0877769  94.1831800
 135.4917896  62.8772123  93.9373939 135.6243168  77.6928241 100.5051862
 136.3371140  78.3275706 100.4327763 135.1333197  77.7892107  99.6891863
 137.3460695  71.5979494  92.0769153 136.4116974  71.7180956  91.9073858
 137.5237363  70.6951960  91.8129163 132.8465883  64.9825189  94.2302414
 132.4763670  64.4296230  94.9183320 133.3424975  64.3783323  93.6777414
 130.6755081  75.4422684 101.3257432 131.3764541  76.0759167 101.4786827
 130.2050196  75.7837416 100.5653072 135.4363541  78.0326985  93.2538153
 135.6185936  77.2148641  93.7165905 136.2596527  78.2494677  92.8163043
 135.7705707  76.9595170  90.5153201 136.2993473  76.4487625  89.9023364
 136.0333926  76.6437700  91.3798734 134.5243940  68.7387103 105.6376020
 133.8484577  68.6381232 106.3078395 135.3471574  68.5826317 106.1012017
 126.2722800  74.9759039  98.2588535 126.8576236  74.2302727  98.3916439
 126.0747638  75.2862996  99.1425199 129.1261455  78.0110287  93.2750977
 128.4571830  78.4956414  92.7915017 128.9874324  78.2579507  94.1894356
 120.8640454  67.5464640  96.9792978 120.9024554  67.0128230  97.7730096
 120.3580747  67.0199845  96.3603955 133.2666723  80.0454030  99.8733636
 133.8185031  80.2085652 100.6382721 133.6072917  80.6358468  99.2013661
 128.2431217  62.3929180 100.4755520 128.3072543  63.2544011 100.0632918
 128.1798337  61.7803182  99.7427879 127.7183489  64.4652313 104.1228555
 128.3455528  64.0829390 104.7366079 126.8611408  64.2466515 104.4884247
 124.4949032  66.2728742  90.0546910 124.7902473  65.3639420  90.0013963
 123.5937068  66.2516481  89.7327912 136.4035111  77.9936006  96.8597318
 136.2786250  77.1925746  96.3508263 137.0614202  78.4882199  96.3711288
 128.0243279  64.3484738  96.0374458 127.3029865  64.9620706  95.8981931
 128.8136535  64.8842503  95.9591104 130.8269592  61.6839165 102.3115110
 131.3503994  61.9301461 103.0741419 130.6081926  62.5159200 101.8918247
 126.2236873  63.9542839  90.1786235 125.8949580  63.0740218  89.9961341
 126.5776244  63.8990508  91.0662624 135.4716452  75.5897742  94.6881220
 135.3241415  74.6614450  94.8688790 136.2969946  75.6117833  94.2038295
 129.3378697  64.2415809  90.5461712 129.6774769  64.7701730  89.8240321
 129.7850817  64.5796215  91.3220279 132.0322137  62.6252860  99.9964780
 131.6918958  61.8260673 100.3985460 131.3261144  62.9254571  99.4241614
 132.6838609  59.7102172  98.4492103 133.5064679  59.2362651  98.3270994
 132.9276673  60.4892656  98.9490790 131.3246844  62.7390431  88.7455005
 132.0455206  63.1171684  88.2418722 130.7012148  63.4579308  88.8489983
 135.4677967  63.4435580  89.6813337 135.6841581  64.3260218  89.3802166
 134.9872034  63.0521793  88.9518979 130.2077188  66.4021293  96.2584082
 130.0621769  66.7161596  97.1508364 129.7302392  67.0206193  95.7054981
 132.0673571  63.3923841  96.3064972 132.0535140  62.4964934  95.9697270
 132.7845999  63.3994505  96.9403258 133.9199702  63.8261181  98.3518099
 133.6617479  64.7478252  98.3502429 133.3884742  63.4291616  99.0418563
 124.6822850  68.9426637  99.1971743 124.1376318  69.7186445  99.3292018
 125.5602200  69.2897442  99.0390865 131.4710467  62.2738221  91.5752542
 131.5926378  61.3454867  91.7743429 131.1812509  62.2876907  90.6630857
 134.3401657  59.9593132  94.7119262 134.3623354  60.0232465  93.7571241
 134.7569716  59.1197640  94.9059768 125.4688872  68.0696534 102.0901900
 124.7270608  68.2179169 102.6766531 125.1481616  68.3304799 101.2268650
 133.4132535  77.6112512 101.8882290 133.7219661  77.3661659 102.7604990
 134.2108017  77.8159150 101.4001160 133.4353147  79.7650421  94.1187667
 132.9958137  79.2726800  94.8120523 134.1861264  79.2223389  93.8779742
 125.9145486  75.9561962  94.1212295 126.7403506  75.6565734  93.7410938
 125.5639538  75.1869585  94.5702083 130.8827019  75.3088431  96.1909968
 130.2607028  74.6459136  95.8912196 131.5531886  75.3349562  95.5083616
 124.1154091  73.8748289  95.0801228 123.2785999  73.4470463  94.8985230
 124.0877736  74.0680732  96.0172020 130.9551546  63.7870219 105.7842474
 131.0039702  64.6632341 105.4020244 131.4974061  63.2447612 105.2114118
 130.4440526  73.8592354  89.6668429 130.5928646  74.5427818  89.0135102
 131.2506969  73.8397444  90.1817885 133.1850835  64.5401591 102.5388833
 132.3154144  64.8335157 102.2671422 133.4210315  65.1242036 103.2596097
 128.1993159  69.8857532  90.6729498 127.9539201  68.9819862  90.8709708
 128.3689073  69.8874682  89.7308976 135.8889869  60.7581208 100.0554253
 136.4071812  61.4942235  99.7300742 135.5345001  61.0645201 100.8901013
 127.4688806  65.6185889  88.1715659 126.7758051  65.6930244  87.5155695
 127.2240558  64.8546233  88.6937176 136.1402463  57.1781490  95.5755150
 136.4204217  56.5104680  96.2015577 136.9253070  57.3710586  95.0629814
 133.9435931  76.3540484  87.1380176 133.3709898  76.9730672  86.6850648
 134.5168725  76.9039846  87.6720098 134.3282730  67.6901297  84.4796229
 135.2741834  67.5607505  84.5484647 133.9496975  66.9515959  84.9565657
 134.2121422  71.7419043 105.9396886 135.1324432  71.9197642 106.1336932
 134.1771005  70.7975089 105.7876585 132.5125647  65.6151274  84.4151114
 131.6057102  65.3184386  84.4913828 132.7901628  65.3181092  83.5485400
 123.4303587  66.9357637  94.8650160 123.1106372  66.0822945  94.5724534
 122.8837015  67.1506215  95.6208128 127.2083495  69.6520078  98.5819667
 127.4269505  70.5837186  98.6007701 127.6209269  69.2928052  99.3674471
 134.1287713  60.1588163  90.5695355 133.3188441  59.8135248  90.9450601
 134.8172130  59.8495707  91.1582967 136.0578261  59.2366210  92.1919652
 136.6109300  59.6561663  92.8509675 136.2948347  58.3101958  92.2342608
 132.0811360  65.2253284 107.9722416 131.9808087  66.1747641 107.9034507
 131.8632902  64.8971523 107.0998486 131.2824432  62.4738209  84.5563093
 132.1443596  62.7993107  84.8158911 131.4674776  61.6869705  84.0436159
 123.2991847  70.5560548  96.8343282 122.6055319  70.1414501  96.3213236
 124.0464838  70.5981085  96.2376701 131.9442630  68.6550423 106.7887478
 131.4609712  69.4550783 106.9951367 132.0303569  68.6658367 105.8354922
 125.2128590  70.4878802  94.7109297 125.1899278  70.5866489  93.7591180
 125.5229226  71.3343953  95.0326463 127.8715968  72.5454957  98.8255911
 128.8259221  72.5138900  98.7585843 127.6728491  72.0845581  99.6406137
 128.4615350  71.1156073 101.3926709 129.2808239  71.6100152 101.4161546
 128.7352158  70.1988041 101.3644276 126.2266196  78.0874577  95.8426109
 126.0920664  77.3274978  95.2764107 125.8098259  78.8115477  95.3754898
 129.3835322  78.9843894  96.0544552 129.2667707  79.9289326  95.9523242
 128.5627769  78.6817455  96.4430351 123.7150264  65.4494207 102.0918906
 124.3609128  64.9393161 102.5806131 123.5067415  66.1862889 102.6662331
 136.2403656  72.5175055 107.5911047 137.1094816  72.6915707 107.2297682
 135.7610408  73.3369471 107.4686776 132.2353875  59.7134252  87.8442802
 132.2232544  60.6576092  88.0011073 133.1277296  59.5304397  87.5502263
 130.4089836  79.6372156  99.2700480 131.3117083  79.6695766  99.5866975
 130.1827207  78.7072607  99.2846816 132.1643439  78.3903142  95.9310559
 131.2139070  78.3905004  95.8174931 132.4675925  77.6435877  95.4146594
 136.0505994  56.3077028  92.0988739 135.2838390  55.7535515  92.2445421
 136.4616699  56.3798897  92.9602891 128.0547755  62.5961824 106.1893920
 128.9179217  62.2398629 106.3997245 127.4813166  62.2575719 106.8769325
 136.6293486  81.3693571  95.7464565 135.8392540  81.6251100  95.2704676
 137.1204733  82.1841909  95.8516605 134.9131189  81.6224061  98.1779556
 135.1639227  82.5071071  98.4437132 135.4490737  81.4428663  97.4054648
 135.5440230  85.7715053  91.8697032 136.3815452  86.1812062  91.6530740
 135.7218498  84.8314496  91.8397226 135.5666402  83.1105769  92.5407766
 135.3690801  82.5175129  91.8158832 135.0113066  82.8057979  93.2583704
 132.1266233  84.7955964  94.7075511 132.8137272  84.4817694  94.1196526
 131.9714361  85.6997329  94.4342762 136.9300955  79.6846160  99.1360535
 136.8459143  79.0771830  98.4010945 136.1083661  80.1755179  99.1370031
 131.7034209  82.8756557  96.9792978 131.7418308  82.3420148  97.7730096
 131.1974502  82.3491763  96.3603955 135.3342786  81.6020659  90.0546910
 135.6296227  80.6931338  90.0013963 134.4330822  81.5808399  89.7327912
 137.0630628  79.2834757  90.1786235 136.7343334  78.4032136  89.9961341
 137.4169999  79.2282426  91.0662624 135.5216605  84.2718555  99.1971743
 134.9770073  85.0478363  99.3292018 136.3995954  84.6189360  99.0390865
 136.3082626  83.3988451 102.0901900 135.5664363  83.5471087 102.6766531
 135.9875371  83.6596717 101.2268650 136.7539240  91.2853880  94.1212295
 137.5797260  90.9857652  93.7410938 136.4033292  90.5161502  94.5702083
 134.9547845  89.2040206  95.0801228 134.1179754  88.7762381  94.8985230
 134.9271491  89.3972650  96.0172020 134.2697342  82.2649555  94.8650160
 133.9500126  81.4114863  94.5724534 133.7230770  82.4798133  95.6208128
 134.1385602  85.8852466  96.8343282 133.4449073  85.4706419  96.3213236
 134.8858593  85.9273003  96.2376701 136.0522344  85.8170720  94.7109297
 136.0293032  85.9158407  93.7591180 136.3622981  86.6635871  95.0326463
 137.0659951  93.4166494  95.8426109 136.9314419  92.6566895  95.2764107
 136.6492013  94.1407394  95.3754898 134.5544019  80.7786125 102.0918906
 135.2002882  80.2685079 102.5806131 134.3461170  81.5154806 102.6662331
  98.4948531  10.2563260  78.5249304  98.4172560  11.2071085  78.6037784
  97.8910174   9.9109132  79.1824230  97.1542497   7.7664781  85.9015864
  97.7049922   7.6381844  85.1292858  96.3153973   8.0659670  85.5510757
 103.3683060   9.6879619  73.6810566 102.6944759   9.9911316  74.2895524
 103.7548882  10.4908699  73.3316023 101.5674275   9.8559291  75.8957645
 101.7426031   9.3847334  76.7103268 100.8807063  10.4825057  76.1238906
  96.1335360  13.0048654  82.6697506  96.3731959  13.6367178  83.3476524
  95.2904557  12.6536694  82.9562865 100.6463222   8.8127776  85.0739010
 100.5733394   9.6182748  85.5858314 100.2040615   9.0119742  84.2487031
 100.4353002   8.0499546  78.5841831  99.6520524   8.5921227  78.6780056
 101.1345747   8.5673526  78.9836072 103.1061906   8.7114610  87.2297168
 103.8189878   9.3462075  87.1573070 102.6151934   8.8078476  86.4137170
  93.7541537   5.9945409  84.9833842  94.3394974   5.2489097  85.1161746
  93.5566376   6.3049366  85.8670506  96.6080193   9.0296656  79.9996284
  95.9390568   9.5142784  79.5160324  96.4693062   9.2765877  80.9139663
 100.7485461  11.0640400  86.5978942 101.3003769  11.2272021  87.3628028
 101.0891655  11.6544838  85.9258967 100.8951272   8.6298881  88.6127597
 101.2038399   8.3848028  89.4850296 101.6926754   8.8345520  88.1246467
 100.9171884  10.7836791  80.8432973 100.4776875  10.2913170  81.5365830
 101.6680001  10.2409759  80.6025049  93.3964223   6.9748332  80.8457601
  94.2222243   6.6752104  80.4656245  93.0458275   6.2055954  81.2947390
  91.5972828   4.8934658  81.8046535  90.7604737   4.4656833  81.6230536
  91.5696474   5.0867102  82.7417326  93.7084934   9.1060946  82.5671416
  93.5739402   8.3461347  82.0009414  93.2916997   9.8301846  82.1000205
  96.8654060  10.0030263  82.7789858  96.7486444  10.9475696  82.6768549
  96.0446506   9.7003825  83.1675658  97.8908574  10.6558525  85.9945787
  98.7935821  10.6882135  86.3112282  97.6645944   9.7258976  86.0092123
  99.6462176   9.4089512  82.6555866  98.6957807   9.4091373  82.5420238
  99.9494662   8.6622246  82.1391900 115.3814870  15.2450050  83.7201628
 116.0193280  15.1256797  83.0164968 115.2635713  16.1930894  83.7789580
 112.1904576  15.1977478  83.6563153 111.8523088  15.0818543  82.7683687
 113.0594344  14.7968643  83.6364159 108.0491392  17.0512955  79.6460044
 107.4856257  16.9602892  78.8776331 107.9343787  16.2312859  80.1262536
 112.6724359  16.3512330  89.6149358 112.6613000  15.9565128  88.7429862
 112.8344999  15.6178403  90.2083130 105.5955824  18.5464146  82.4844264
 106.3877116  18.2054971  82.0690563 105.8352474  18.6559121  83.4046417
 113.6290950  20.7183922  74.9574508 112.9778930  21.3038003  74.5708522
 114.4235313  21.2490117  75.0169546 107.5546578  17.8073059  75.3561643
 108.3277454  17.2602047  75.2174519 107.9071977  18.6717309  75.5676104
 109.3931620  19.1349442  88.5628542 109.1021486  20.0395073  88.4475208
 110.0288605  19.1765969  89.2772612 110.3187827  16.5126290  85.1529902
 110.9151399  16.2882313  84.4386865 110.3762799  15.7711036  85.7555350
 109.8912855  13.9665726  72.9880093 110.1438376  13.4447247  72.2263556
 108.9537415  13.8031871  73.0906776 115.1066216  18.4074354  75.4943493
 114.4712049  18.4808981  76.2064397 114.7763622  18.9967953  74.8162572
 109.6109144  15.8693832  75.1904468 109.4945402  15.1938735  75.8585552
 109.7211404  15.3826206  74.3736621 111.9540685  15.3303979  78.8951157
 111.5898892  14.8034600  79.6064078 112.8107801  14.9402448  78.7217642
 114.3521505  18.8210857  85.5578336 114.0522228  19.7235896  85.4494143
 114.0072565  18.5543040  86.4099489 107.8033987  15.2724654  81.5915040
 106.8784483  15.1400868  81.7992732 108.0518400  16.0518873  82.0884983
 111.5735393  12.8151536  74.8759172 111.4535018  13.2608587  75.7144653
 110.8787981  13.1636854  74.3172710 105.1642798  14.9157928  82.4258829
 105.2935179  15.1692407  83.3398241 104.4840249  15.5085636  82.1063484
 109.3342285  25.5855178  78.5249304 109.2566315  26.5363003  78.6037784
 108.7303929  25.2401050  79.1824230 111.8259515  12.7583043  91.1810670
 111.0492849  13.3176963  91.1713535 112.4650078  13.2439826  91.7025541
 110.0805887  15.5668496  90.7428637 110.8220572  16.1053540  90.4663461
 109.3742873  16.1934785  90.9000189 115.5561227  17.7097637  89.3400799
 115.9644583  17.2680047  88.5955431 114.8338488  17.1350264  89.5934992
 111.9092297  12.6470244  86.7134356 112.7553492  13.0709657  86.8569005
 111.8490935  11.9903868  87.4072919 115.8790041  18.2698828  83.0953088
 115.2498904  18.4344542  82.3929156 115.4915704  18.6840437  83.8664052
 119.7579273  19.2053265  80.4497452 119.0730311  19.5852167  79.8994485
 119.8423123  19.8148592  81.1829399 117.0130205  16.8513224  87.0492795
 117.2247100  17.4944984  86.3727176 116.9659953  16.0175541  86.5814725
 111.4318003  18.0073236  80.3603173 111.8956349  18.2860939  79.5707795
 111.1674801  17.1056680  80.1776264 108.3242084  17.5544717  83.2982936
 108.8943441  17.9831986  82.6600421 108.9150196  17.2727302  83.9967122
 110.3686889  14.1296388  77.1692738 111.0710933  14.5817432  77.6366664
 110.0367518  13.4880207  77.7972631 108.8167251  12.7208145  91.5443947
 108.1865911  13.4024425  91.7779344 108.7103339  12.6091226  90.5997086
 104.1112223  12.3879941  82.4709872 103.3211277  12.6437469  81.9949982
 104.6023471  13.2028278  82.5761912 118.1276033  19.7285180  85.2215152
 118.9493477  19.3265367  84.9397834 118.1238436  19.6253414  86.1731268
 106.0626969  12.7524520  79.4293348 105.2658132  12.8643214  79.9476844
 105.8352561  13.0911172  78.5634239 111.8932636  19.2769223  87.3775863
 111.9577069  19.7389630  88.2134035 111.1843560  18.6466588  87.5058173
 102.3949926  12.6410431  84.9024862 102.6457965  13.5257441  85.1682438
 102.9309475  12.4615033  84.1299954 111.6080654  20.9437331  77.2454843
 111.4726329  21.7888866  77.6739691 112.1490467  21.1456608  76.4820777
 105.0610051  18.4612769  77.8182768 105.5734572  19.2556019  77.9688333
 105.7132764  17.7639059  77.7516370 106.8704936  21.5778525  79.9005521
 107.0471564  22.4996490  79.7126505 107.6661770  21.2636944  80.3299901
 106.1557293  13.6243157  89.7767685 106.0410808  12.7228414  90.0774784
 105.3001810  13.8706854  89.4252501 113.2349130  21.5660897  91.3755185
 112.7912985  20.7797276  91.0576090 113.8966344  21.7540048  90.7099076
 107.9936252  23.0956699  85.9015864 108.5443677  22.9673762  85.1292858
 107.1547727  23.3951588  85.5510757 115.3330368  21.8463697  89.4036587
 115.3148844  22.6672578  88.9116856 116.2550288  21.7217772  89.6286728
 111.7903423  19.3607827  90.2460095 112.3231759  18.5996115  90.0159403
 111.2617504  19.0681478  90.9884249 103.0258968  16.7901423  78.5942339
 103.8634190  17.1998431  78.3776047 103.2037236  15.8500865  78.5642533
 114.9223400  14.4576504  74.2826172 114.4070024  15.2281108  74.5214559
 114.6500709  13.7841640  74.9059233 119.8957674  17.2108858  76.2179345
 119.1187117  16.8720018  75.7734507 120.5749155  17.2161481  75.5434310
 113.1556135  18.4893819  77.7578907 112.6277497  17.7546579  77.4452144
 112.6543638  19.2668495  77.5118875 118.1348981  16.6842839  82.8745953
 117.4772656  17.3742101  82.9626082 118.9389381  17.0739271  83.2179940
 116.9454440  15.0387212  80.9249895 117.4586322  15.6717204  81.4271605
 117.5955664  14.4388408  80.5593255 108.2144450  11.1817946  74.1381404
 107.3781762  11.5192633  74.4590678 108.0749220  11.0466926  73.2008541
 111.3008735  16.3074029  70.7613880 110.3935797  16.0763283  70.9605029
 111.7979767  15.5111649  70.9487862 114.2076814  25.0171536  73.6810566
 113.5338513  25.3203233  74.2895524 114.5942636  25.8200617  73.3316023
 113.4235271  12.5136668  83.1708236 112.5057832  12.7351615  83.0129924
 113.8395415  12.5882978  82.3119943 114.2070319  13.9128083  78.3010916
 114.9542138  14.4249481  77.9918038 114.4761908  13.5912136  79.1615309
 112.4796969  16.4086624  75.2837870 111.5708188  16.1245657  75.3810340
 112.5092053  16.8285703  74.4241177 117.7116236  20.0193214  79.0529038
 117.2578563  19.1784123  79.1094228 117.0810203  20.6554612  79.3903818
 116.1549176  21.8569710  79.9878856 116.4472150  22.4174767  79.2691221
 116.6647796  22.1498271  80.7432015 103.0485139  14.1292138  79.2653072
 102.8509539  13.5361499  78.5404139 102.4931803  13.8244348  79.9829011
 111.0281863  14.0215245  81.3847665 111.0830473  13.0689081  81.3090142
 110.2173065  14.1774684  81.8688964 112.1773057  17.9495368  72.6225949
 111.7392487  17.2331227  72.1631586 112.9183498  18.1771483  72.0611040
 108.9674223  12.6392304  79.1438044 108.1542088  12.9386475  79.5503236
 109.4633217  12.2447993  79.8612527 111.1182801  22.6350061  81.0772309
 111.0758980  22.8610908  80.1480841 112.0345500  22.4013436  81.2258110
 114.5648435  13.1034129  87.9752938 114.9197822  13.3305602  88.8347404
 115.2120566  13.4352506  87.3530194 120.2946172  16.2252565  78.6802267
 120.1564070  16.4154161  77.7523456 119.9382390  16.9871948  79.1370318
 120.3215551  18.2929092  83.6913539 120.7552058  18.2004381  84.5396593
 121.0347132  18.2686592  83.0533555 109.2348602  19.5113090  80.8734272
 110.0289200  19.0163411  80.6716847 108.5240294  18.9830954  80.5101977
 114.0543446  21.8931186  85.2246639 114.1080468  22.4622122  85.9924355
 113.1858227  22.0633071  84.8600676 105.5431365  13.6556172  76.9494024
 104.6128953  13.5940628  77.1663987 105.6388837  13.1332125  76.1530666
 105.4616914  10.1810985  79.5372266 105.7223731  11.0956318  79.4281427
 106.2834086   9.7135428  79.6868879 106.9341839  11.5948742  86.7071091
 107.6064893  11.3866104  86.0583740 106.1071626  11.3970828  86.2676323
 121.1831101  18.3352792  86.2246424 121.3766991  19.2398603  86.4705699
 121.0831719  17.8760212  87.0585009 116.2446209  18.4859535  91.7987305
 116.0931716  18.2570087  90.8817388 116.2350889  19.4430137  91.8118650
 113.0131546  16.0591448  86.7833571 113.9423606  16.2102608  86.6102539
 112.5922576  16.1475469  85.9282218 111.8119878  20.0842112  84.5532109
 111.6730963  19.7160897  85.4258047 111.0234474  20.5989752  84.3816067
 112.4068030  25.1851209  75.8957645 112.5819785  24.7139252  76.7103268
 111.7200818  25.8116975  76.1238906 113.3625093  19.4623715  81.9420947
 113.0274925  19.4224485  82.8378596 112.8629038  18.7968431  81.4691357
 107.3369337  14.8691345  87.4673528 107.1989135  14.1371584  88.0685067
 108.2474260  14.7800245  87.1857716 116.2984284  16.8079749  72.2158006
 115.6813455  16.0826578  72.1191059 115.8300773  17.5689110  71.8725081
 109.9651637  14.5811304  86.9557207 110.6751256  13.9404497  86.9143826
 109.9220945  14.8324199  87.8783388 117.9538416  21.5178658  89.8763787
 117.8950962  20.8337878  89.2094370 118.3557934  22.2597648  89.4244413
 108.6780571  11.5676522  88.7752847 108.1417928  11.1167261  89.4274443
 108.0897280  11.7022431  88.0323311 106.9729115  28.3340572  82.6697506
 107.2125713  28.9659096  83.3476524 106.1298311  27.9828612  82.9562865
 108.0882830  11.0265174  71.3379311 107.2112297  10.9053975  70.9741557
 108.5640583  10.2351252  71.0858199 117.9555823  19.4818242  88.1077766
 117.0682602  19.1444164  88.2304165 118.5254374  18.7501273  88.3446532
  99.6084970  15.8142333  81.4320818 100.2956010  15.5004063  80.8441833
  99.4533099  16.7183698  81.1588069 104.4119693  10.7032530  85.8605841
 104.3277881  10.0958200  85.1256251 103.5902399  11.1941548  85.8615338
 111.4856977  24.1419694  85.0739010 111.4127148  24.9474666  85.5858314
 111.0434370  24.3411660  84.2487031 111.2746756  23.3791464  78.5841831
 110.4914278  23.9213144  78.6780056 111.9739501  23.8965444  78.9836072
 113.9455660  24.0406528  87.2297168 114.6583632  24.6753993  87.1573070
 113.4545689  24.1370394  86.4137170 115.6673187  17.9457781  78.8014460
 114.7329466  18.0659243  78.6319164 115.8449856  17.0430248  78.5374470
 108.9967574  21.7900972  88.0502739 109.6977033  22.4237455  88.2032133
 108.5262689  22.1315703  87.2898378 117.1221970  20.1318921  76.3350646
 117.3981813  20.0175516  77.2444520 116.2526468  19.7336406  76.2962819
 116.7968860  14.3445579  85.8755289 116.1440310  14.5921486  85.2207742
 117.1749240  13.5309717  85.5417767 113.7576034  24.3805272  79.9783460
 113.9398428  23.5626928  80.4411212 114.5809020  24.5972964  79.5408350
 114.0918199  23.3073457  77.2398508 114.6205965  22.7965912  76.6268670
 114.3546419  22.9915988  78.1044041 112.8456433  15.0865390  92.3621326
 112.1697070  14.9859519  93.0323702 113.6684067  14.9304604  92.8257324
 104.5935292  21.3237327  84.9833842 105.1788729  20.5781015  85.1161746
 104.3960130  21.6341283  85.8670506 107.4473947  24.3588574  79.9996284
 106.7784322  24.8434702  79.5160324 107.3086817  24.6057794  80.9139663
  99.1852947  13.8942927  83.7038285  99.2237046  13.3606518  84.4975403
  98.6793239  13.3678132  83.0849262 111.5879216  26.3932318  86.5978942
 112.1397524  26.5563939  87.3628028 111.9285409  26.9836755  85.9258967
 106.0395981  10.8130600  90.8473861 106.6668020  10.4307677  91.4611386
 105.1823900  10.5944802  91.2129554 116.4390090  21.2193575  92.4527597
 116.9829994  21.8323533  91.9582552 115.8576935  21.7773153  92.9694610
 102.8161524  12.6207029  76.7792216 103.1114965  11.7117707  76.7259270
 101.9149560  12.5994768  76.4573219 114.7247603  24.3414293  83.5842625
 114.5998742  23.5404033  83.0753570 115.3826694  24.8360486  83.0956595
 106.3455771  10.6963026  82.7619765 105.6242357  11.3098993  82.6227238
 107.1349027  11.2320790  82.6836411 116.7882511  22.1423313  85.2122175
 115.8412847  22.0228664  85.1400501 117.1365284  21.2545811  85.2948436
 104.5449366  10.3021127  76.9031541 104.2162072   9.4218506  76.7206647
 104.8988736  10.2468795  77.7907931 113.7928945  21.9376029  81.4126527
 113.6453907  21.0092737  81.5934097 114.6182438  21.9596120  80.9283602
 107.6591189  10.5894096  77.2707019 107.9987261  11.1180018  76.5485627
 108.1063309  10.9274503  78.0465586 117.3963066  22.7604588  82.4991400
 118.3209614  22.5547449  82.3615851 117.2278370  22.5120989  83.4080741
 108.5289680  12.7499580  82.9829389 108.3834261  13.0639883  83.8753670
 108.0514884  13.3684481  82.4300287 117.1858383  23.2790256  77.8553491
 117.3595260  22.7136678  77.1027344 117.6787274  24.0791150  77.6732981
 103.0035342  15.2904925  85.9217050 102.4588810  16.0664733  86.0537324
 103.8814692  15.6375729  85.7636171 118.1733555  22.5957020  74.9550389
 118.8684460  23.2163713  75.1737704 118.5156705  21.7452371  75.2302767
 103.7901364  14.4174821  88.8147207 103.0483100  14.5657456  89.4011837
 103.4694109  14.6783086  87.9513956 120.0724978  20.0456725  76.4837720
 120.5976302  20.3843998  75.7587040 119.9847331  19.1103741  76.3000855
 111.7345027  23.9590799  88.6127597 112.0432153  23.7139946  89.4850296
 112.5320509  24.1637438  88.1246467 111.7565639  26.1128709  80.8432973
 111.3170629  25.6205087  81.5365830 112.5073756  25.5701676  80.6025049
 104.2357978  22.3040250  80.8457601 105.0615998  22.0044021  80.4656245
 103.8852030  21.5347872  81.2947390 109.2039511  21.6566718  82.9155275
 108.5819520  20.9937423  82.6157503 109.8744378  21.6827850  82.2328923
 102.4366583  20.2226576  81.8046535 101.5998491  19.7948750  81.6230536
 102.4090228  20.4159019  82.7417326 119.7618884  20.6789629  91.7888918
 118.9714428  20.6613768  91.2493418 119.5252239  21.2177923  92.5437955
 119.8816759  17.5282095  89.1021647 119.9314764  17.3632103  90.0437169
 119.7730683  16.6609355  88.7119527 108.7653018  20.2070641  76.3913736
 108.9141138  20.8906106  75.7380408 109.5719461  20.1875731  76.9063191
 121.3834956  19.9479037  89.3463668 121.0919764  20.3109018  90.1827129
 120.7707087  19.2346045  89.1677000 122.5830638  17.5131917  81.8666238
 123.4177530  17.9521721  82.0303799 122.7189767  17.0370570  81.0474484
 119.6322144  15.0711652  87.8143726 120.1076266  15.2639298  87.0062578
 118.7087710  15.1270837  87.5687110 106.5205651  16.2335819  77.3974804
 106.2751693  15.3298149  77.5955015 106.6901566  16.2352969  76.4554282
 105.7901299  11.9664176  74.8960966 105.0970543  12.0408531  74.2401002
 105.5453050  11.2024520  75.4182483 112.2648424  22.7018772  73.8625483
 111.6922391  23.3208959  73.4095955 112.8381217  23.2518133  74.3965405
 115.4845683  22.9855922  74.9934065 116.4176356  22.9201483  75.1966941
 115.3968896  23.8212189  74.5348598 118.1133700  22.3021792  71.9538013
 118.0347332  21.9681656  72.8473771 118.9343367  22.7943560  71.9529485
 112.6495222  14.0379584  71.2041535 113.5954327  13.9085792  71.2729953
 112.2709467  13.2994246  71.6810964 112.5333915  18.0897330  92.6642192
 113.4536924  18.2675930  92.8582239 112.4983498  17.1453376  92.5121892
 110.8338139  11.9629561  71.1396421 109.9269595  11.6662673  71.2159134
 111.1114120  11.6659379  70.2730707 101.7516080  13.2835924  81.5895467
 101.4318864  12.4301232  81.2969841 101.2049508  13.4984502  82.3453434
 105.5295987  15.9998365  85.3064974 105.7481997  16.9315473  85.3253007
 105.9421761  15.6406340  86.0919777 110.4023852  11.5731571  94.6967723
 110.3020579  12.5225928  94.6279814 110.1845394  11.2449810  93.8243793
 101.6204340  16.9038836  83.5588589 100.9267811  16.4892788  83.0458543
 102.3677331  16.9459372  82.9622008 110.2655122  15.0028710  93.5132784
 109.7822204  15.8029070  93.7196673 110.3516062  15.0136655  92.5600228
 103.5341082  16.8357089  81.4354604 103.5111770  16.9344777  80.4836487
 103.8441719  17.6822240  81.7571770 106.1928460  18.8933244  85.5501218
 107.1471714  18.8617187  85.4831150 105.9940984  18.4323868  86.3651444
 106.7827842  17.4634361  88.1172016 107.6020731  17.9578439  88.1406853
 107.0564650  16.5466329  88.0889583 104.5478689  24.4352864  82.5671416
 104.4133157  23.6753265  82.0009414 104.1310751  25.1593764  82.1000205
 115.6837652  19.6189787  71.5747991 116.3873502  19.8239790  72.1905647
 114.9600301  20.1866549  71.8397075 116.5135462  15.3699649  77.6950261
 116.4570663  15.8268200  76.8557894 117.0663805  14.6090333  77.5173104
 107.7047815  25.3322181  82.7789858 107.5880199  26.2767613  82.6768549
 106.8840261  25.0295743  83.1675658 117.5924349  20.0572317  73.6246451
 118.4269953  19.6253515  73.4423926 117.4308692  19.8854330  74.5523346
 117.2470241  16.5604430  74.9902790 117.1919045  16.3948701  74.0491235
 116.6216297  17.2680463  75.1464980 102.0362756  11.7972494  88.8164213
 102.6821620  11.2871448  89.3051438 101.8279907  12.5341176  89.3907638
 114.5616149  18.8653342  94.3156353 115.4307308  19.0393994  93.9542988
 114.0822900  19.6847759  94.1932083 108.7302329  25.9850443  85.9945787
 109.6329575  26.0174053  86.3112282 108.5039699  25.0550894  86.0092123
 110.4855931  24.7381429  82.6555866 109.5351562  24.7383291  82.5420238
 110.7888417  23.9914164  82.1391900 126.2208624  30.5741968  83.7201628
 126.8587034  30.4548715  83.0164968 126.1029467  31.5222812  83.7789580
 123.0298331  30.5269396  83.6563153 122.6916842  30.4110461  82.7683687
 123.8988099  30.1260561  83.6364159 118.8885146  32.3804872  79.6460044
 118.3250011  32.2894809  78.8776331 118.7737541  31.5604777  80.1262536
 123.5118114  31.6804248  89.6149358 123.5006754  31.2857046  88.7429862
 123.6738753  30.9470320  90.2083130 116.4349578  33.8756064  82.4844264
 117.2270870  33.5346889  82.0690563 116.6746228  33.9851039  83.4046417
 124.4684705  36.0475840  74.9574508 123.8172685  36.6329920  74.5708522
 125.2629068  36.5782035  75.0169546 118.3940332  33.1364977  75.3561643
 119.1671208  32.5893964  75.2174519 118.7465731  34.0009226  75.5676104
 120.2325375  34.4641359  88.5628542 119.9415241  35.3686990  88.4475208
 120.8682359  34.5057887  89.2772612 121.1581582  31.8418208  85.1529902
 121.7545154  31.6174230  84.4386865 121.2156553  31.1002953  85.7555350
 120.7306610  29.2957643  72.9880093 120.9832131  28.7739165  72.2263556
 119.7931169  29.1323789  73.0906776 125.7749893  28.2993422  80.7954836
 126.5612982  27.8812845  80.4445253 126.0388597  29.2039514  80.9636484
 125.9459970  33.7366272  75.4943493 125.3105803  33.8100898  76.2064397
 125.6157377  34.3259871  74.8162572 131.1758320  28.2368655  81.6987814
 131.9083492  27.6667872  81.9325644 130.4197676  27.8490255  82.1394320
 120.4502899  31.1985749  75.1904468 120.3339157  30.5230653  75.8585552
 120.5605159  30.7118123  74.3736621 122.7934440  30.6595896  78.8951157
 122.4292647  30.1326517  79.6064078 123.6501556  30.2694365  78.7217642
 128.6983740  21.9490229  86.1582423 128.3667065  22.8185640  85.9343638
 128.1029354  21.6326513  86.8376453 122.4339927  25.6885796  73.8912505
 122.6014329  26.5566032  74.2582976 122.2437096  25.8513078  72.9673795
 125.1915260  34.1502775  85.5578336 124.8915983  35.0527814  85.4494143
 124.8466319  33.8834958  86.4099489 118.6427741  30.6016572  81.5915040
 117.7178238  30.4692786  81.7992732 118.8912154  31.3810791  82.0884983
 128.5912404  26.6685315  83.2375773 127.6829281  26.6000724  82.9434534
 128.5399999  27.1457260  84.0657599 122.4129147  28.1443454  74.8759172
 122.2928773  28.5900504  75.7144653 121.7181736  28.4928771  74.3172710
 116.0036552  30.2449845  82.4258829 116.1328933  30.4984324  83.3398241
 115.3234004  30.8377553  82.1063484 120.1736040  40.9147095  78.5249304
 120.0960069  41.8654920  78.6037784 119.5697683  40.5692968  79.1824230
 122.6653269  28.0874961  91.1810670 121.8886603  28.6468881  91.1713535
 123.3043832  28.5731744  91.7025541 130.4574050  24.8701754  85.0153647
 129.8148430  25.1634287  84.3693442 129.9528978  24.7554674  85.8206844
 128.1114214  28.6164927  75.7039506 129.0232070  28.8492313  75.5287204
 127.6023861  29.2001971  75.1414585 120.9199642  30.8960414  90.7428637
 121.6614326  31.4345458  90.4663461 120.2136627  31.5226703  90.9000189
 126.3954981  33.0389555  89.3400799 126.8038337  32.5971965  88.5955431
 125.6732243  32.4642182  89.5934992 122.7486051  27.9762161  86.7134356
 123.5947247  28.4001575  86.8569005 122.6884689  27.3195786  87.4072919
 126.7183796  33.5990745  83.0953088 126.0892658  33.7636459  82.3929156
 126.3309458  34.0132355  83.8664052 130.5973028  34.5345183  80.4497452
 129.9124066  34.9144084  79.8994485 130.6816877  35.1440510  81.1829399
 125.8985497  25.6366530  88.3715529 125.6546429  26.3908590  87.8349805
 126.1745427  26.0151877  89.2062777 127.8523959  32.1805142  87.0492795
 128.0640855  32.8236902  86.3727176 127.8053708  31.3467459  86.5814725
 125.4550188  24.7922963  83.9529367 124.5934667  25.0904216  84.2446105
 125.4812623  25.0093362  83.0210400 122.2711758  33.3365153  80.3603173
 122.7350103  33.6152856  79.5707795 122.0068556  32.4348598  80.1776264
 119.1635839  32.8836635  83.2982936 119.7337196  33.3123903  82.6600421
 119.7543951  32.6019220  83.9967122 121.2080644  29.4588306  77.1692738
 121.9104687  29.9109349  77.6366664 120.8761272  28.8172124  77.7972631
 119.6561005  28.0500062  91.5443947 119.0259666  28.7316343  91.7779344
 119.5497093  27.9383144  90.5997086 114.9505978  27.7171858  82.4709872
 114.1605032  27.9729387  81.9949982 115.4417225  28.5320196  82.5761912
 128.9669787  35.0577097  85.2215152 129.7887231  34.6557285  84.9397834
 128.9632190  34.9545332  86.1731268 116.9020723  28.0816438  79.4293348
 116.1051886  28.1935132  79.9476844 116.6746315  28.4203090  78.5634239
 122.7326391  34.6061141  87.3775863 122.7970823  35.0681548  88.2134035
 122.0237315  33.9758506  87.5058173 113.2343681  27.9702349  84.9024862
 113.4851719  28.8549359  85.1682438 113.7703229  27.7906950  84.1299954
 137.0575780  31.4015846  81.5700124 136.3039489  30.8323244  81.4144128
 137.1923322  31.3678510  82.5170759 122.4474408  36.2729248  77.2454843
 122.3120083  37.1180784  77.6739691 122.9884221  36.4748526  76.4820777
 118.9341748  22.3520828  93.9069198 118.5408694  21.7987027  94.5816843
 119.7507888  22.6631407  94.2975716 115.9003806  33.7904686  77.8182768
 116.4128326  34.5847937  77.9688333 116.5526519  33.0930977  77.7516370
 117.7098691  36.9070443  79.9005521 117.8865319  37.8288407  79.7126505
 118.5055524  36.5928862  80.3299901 121.8509709  23.7678707  91.4989455
 122.5919422  24.3685860  91.4193917 122.0827632  23.0256345  90.9407498
 116.9951047  28.9535074  89.7767685 116.8804562  28.0520332  90.0774784
 116.1395565  29.1998771  89.4252501 124.0742885  36.8952815  91.3755185
 123.6306739  36.1089193  91.0576090 124.7360098  37.0831965  90.7099076
 118.8330006  38.4248616  85.9015864 119.3837431  38.2965680  85.1292858
 117.9941482  38.7243505  85.5510757 126.1724123  37.1755615  89.4036587
 126.1542598  37.9964496  88.9116856 127.0944043  37.0509690  89.6286728
 122.6297177  34.6899744  90.2460095 123.1625514  33.9288032  90.0159403
 122.1011258  34.3973396  90.9884249 125.7966872  19.7959810  85.7753737
 125.4531141  20.6861452  85.6992847 126.1645835  19.6061468  84.9123322
 113.8652723  32.1193341  78.5942339 114.7027945  32.5290349  78.3776047
 114.0430990  31.1792783  78.5642533 125.7617155  29.7868421  74.2826172
 125.2463778  30.5573026  74.5214559 125.4894463  29.1133557  74.9059233
 123.3464266  24.6318122  79.3411410 122.4905862  24.2424972  79.1617049
 123.7591218  24.7110083  78.4811196 124.8763412  22.1664465  83.7402970
 124.3728208  22.1294600  82.9270775 125.1694019  23.0757208  83.7999627
 121.1206298  22.2503195  82.7469152 121.9859295  22.0546004  82.3875041
 121.1883807  22.0213547  83.6738508 130.7351429  32.5400776  76.2179345
 129.9580872  32.2011935  75.7734507 131.4142910  32.5453399  75.5434310
 125.5503458  27.6595513  76.1085953 125.2453594  27.9741663  76.9596096
 126.5033900  27.7376933  76.1513286 123.9949890  33.8185737  77.7578907
 123.4671251  33.0838496  77.4452144 123.4937393  34.5960413  77.5118875
 128.9742736  32.0134757  82.8745953 128.3166410  32.7034019  82.9626082
 129.7783135  32.4031189  83.2179940 118.7268617  24.4805403  80.1185518
 119.3012369  24.2580584  79.3858711 119.3139600  24.5494097  80.8714120
 127.7848195  30.3679130  80.9249895 128.2980076  31.0009122  81.4271605
 128.4349419  29.7680325  80.5593255 119.0538205  26.5109864  74.1381404
 118.2175517  26.8484551  74.4590678 118.9142974  26.3758844  73.2008541
 121.0291285  21.3546652  78.8460588 120.3755697  21.0395669  78.2217203
 120.9871759  20.7322392  79.5720411 122.1402490  31.6365947  70.7613880
 121.2329552  31.4055200  70.9605029 122.6373522  30.8403566  70.9487862
 125.0470569  40.3463454  73.6810566 124.3732268  40.6495151  74.2895524
 125.4336391  41.1492534  73.3316023 124.2629025  27.8428585  83.1708236
 123.3451587  28.0643532  83.0129924 124.6789169  27.9174896  82.3119943
 125.0464073  29.2420001  78.3010916 125.7935892  29.7541398  77.9918038
 125.3155663  28.9204054  79.1615309 123.3190723  31.7378542  75.2837870
 122.4101943  31.4537575  75.3810340 123.3485807  32.1577620  74.4241177
 128.5509991  35.3485131  79.0529038 128.0972318  34.5076041  79.1094228
 127.9203958  35.9846530  79.3903818 127.4942910  26.2777117  80.2829705
 126.7565667  25.7654504  80.6139948 127.7469684  25.8377499  79.4712982
 126.9942930  37.1861628  79.9878856 127.2865904  37.7466685  79.2691221
 127.5041551  37.4790189  80.7432015 127.5954538  19.0553369  80.8771474
 127.9013415  18.1950733  80.5897389 128.3207143  19.6470990  80.6770468
 113.8878894  29.4584056  79.2653072 113.6903294  28.8653417  78.5404139
 113.3325558  29.1536266  79.9829011 121.8675617  29.3507162  81.3847665
 121.9224227  28.3980999  81.3090142 121.0566819  29.5066601  81.8688964
 123.0166811  33.2787285  72.6225949 122.5786241  32.5623144  72.1631586
 123.7577252  33.5063400  72.0611040 119.8067977  27.9684222  79.1438044
 118.9935843  28.2678393  79.5503236 120.3026972  27.5739911  79.8612527
 121.9576555  37.9641979  81.0772309 121.9152734  38.1902825  80.1480841
 122.8739254  37.7305354  81.2258110 125.4042189  28.4326047  87.9752938
 125.7591577  28.6597520  88.8347404 126.0514320  28.7644423  87.3530194
 131.1339926  31.5544482  78.6802267 130.9957825  31.7446078  77.7523456
 130.7776145  32.3163865  79.1370318 119.2982052  25.5402578  84.7599279
 119.9381431  25.3991337  84.0622243 118.4659583  25.2537091  84.3837881
 131.1609306  33.6221009  83.6913539 131.5945812  33.5296299  84.5396593
 131.8740886  33.5978510  83.0533555 120.0742356  34.8405008  80.8734272
 120.8682955  34.3455328  80.6716847 119.3634048  34.3122871  80.5101977
 124.8937201  37.2223104  85.2246639 124.9474223  37.7914040  85.9924355
 124.0251982  37.3924989  84.8600676 116.3825120  28.9848090  76.9494024
 115.4522708  28.9232545  77.1663987 116.4782591  28.4624043  76.1530666
 116.3010669  25.5102903  79.5372266 116.5617486  26.4248236  79.4281427
 117.1227841  25.0427345  79.6868879 117.7735594  26.9240660  86.7071091
 118.4458647  26.7158022  86.0583740 116.9465380  26.7262746  86.2676323
 132.0224855  33.6644710  86.2246424 132.2160745  34.5690521  86.4705699
 131.9225473  33.2052129  87.0585009 123.6761166  23.5502601  88.7236751
 123.0289081  24.2492550  88.6301228 124.4462181  23.9838745  89.0913000
 127.0839964  33.8151453  91.7987305 126.9325470  33.5862005  90.8817388
 127.0744643  34.7722054  91.8118650 123.8525300  31.3883366  86.7833571
 124.7817360  31.5394525  86.6102539 123.4316330  31.4767386  85.9282218
 122.6513632  35.4134030  84.5532109 122.5124718  35.0452814  85.4258047
 121.8628228  35.9281669  84.3816067 123.2461784  40.5143127  75.8957645
 123.4213540  40.0431170  76.7103268 122.5594572  41.1408893  76.1238906
 124.2018847  34.7915633  81.9420947 123.8668680  34.7516403  82.8378596
 123.7022793  34.1260349  81.4691357 118.1763091  30.1983263  87.4673528
 118.0382889  29.4663502  88.0685067 119.0868015  30.1092163  87.1857716
 127.1378039  32.1371667  72.2158006 126.5207209  31.4118495  72.1191059
 126.6694527  32.8981027  71.8725081 120.8045392  29.9103222  86.9557207
 121.5145010  29.2696414  86.9143826 120.7614700  30.1616117  87.8783388
 128.7932170  36.8470575  89.8763787 128.7344717  36.1629796  89.2094370
 129.1951689  37.5889565  89.4244413 119.5174326  26.8968440  88.7752847
 118.9811683  26.4459178  89.4274443 118.9291034  27.0314349  88.0323311
 117.8122869  43.6632489  82.6697506 118.0519468  44.2951013  83.3476524
 116.9692066  43.3120529  82.9562865 118.9276585  26.3557091  71.3379311
 118.0506051  26.2345892  70.9741557 119.4034338  25.5643170  71.0858199
 128.7949578  34.8110159  88.1077766 127.9076357  34.4736081  88.2304165
 129.3648129  34.0793191  88.3446532 110.4478725  31.1434251  81.4320818
 111.1349765  30.8295981  80.8441833 110.2926854  32.0475616  81.1588069
 115.2513447  26.0324448  85.8605841 115.1671636  25.4250117  85.1256251
 114.4296153  26.5233466  85.8615338 122.3250731  39.4711612  85.0739010
 122.2520903  40.2766583  85.5858314 121.8828124  39.6703578  84.2487031
 122.1140511  38.7083382  78.5841831 121.3308033  39.2505062  78.6780056
 122.8133256  39.2257361  78.9836072 125.4237161  24.5178011  81.2276036
 125.9205860  23.7647974  80.9077107 124.6524142  24.5542328  80.6619246
 133.2766918  30.2218377  82.8694328 133.2656795  31.1043092  82.4988261
 132.4084298  29.8689928  82.6748865 124.7849415  39.3698446  87.2297168
 125.4977387  40.0045911  87.1573070 124.2939443  39.4662312  86.4137170
 126.5066942  33.2749698  78.8014460 125.5723220  33.3951161  78.6319164
 126.6843610  32.3722165  78.5374470 122.0072130  26.6595394  80.9547721
 121.6369917  26.1066435  81.6428627 122.5031222  26.0553528  80.4022721
 129.8939493  29.1167018  79.3364494 130.3599945  29.9495009  79.2624797
 130.3446993  28.6511999  80.0409752 119.8361328  37.1192889  88.0502739
 120.5370788  37.7529372  88.2032133 119.3656443  37.4607621  87.2898378
 127.9615724  35.4610839  76.3350646 128.2375568  35.3467434  77.2444520
 127.0920223  35.0628324  76.2962819 127.8656156  21.4847605  83.3755395
 126.9519235  21.7151832  83.5437602 128.2949257  21.5686049  84.2269428
 127.6362614  29.6737497  85.8755289 126.9834064  29.9213404  85.2207742
 128.0142994  28.8601635  85.5417767 124.5969788  39.7097190  79.9783460
 124.7792183  38.8918846  80.4411212 125.4202774  39.9264882  79.5408350
 124.9311954  38.6365375  77.2398508 125.4599720  38.1257830  76.6268670
 125.1940173  38.3207905  78.1044041 123.6850187  30.4157308  92.3621326
 123.0090824  30.3151437  93.0323702 124.5077821  30.2596521  92.8257324
 115.4329046  36.6529244  84.9833842 116.0182483  35.9072932  85.1161746
 115.2353885  36.9633201  85.8670506 118.2867701  39.6880492  79.9996284
 117.6178077  40.1726619  79.5160324 118.1480571  39.9349712  80.9139663
 110.0246701  29.2234844  83.7038285 110.0630801  28.6898435  84.4975403
 109.5186994  28.6970050  83.0849262 122.4272970  41.7224235  86.5978942
 122.9791278  41.8855857  87.3628028 122.7679164  42.3128673  85.9258967
 117.4037463  24.0699385  87.2000827 117.4678790  24.9314216  86.7878225
 117.3404584  23.4573387  86.4673186 116.8789736  26.1422518  90.8473861
 117.5061775  25.7599595  91.4611386 116.0217655  25.9236719  91.2129554
 127.2783844  36.5485493  92.4527597 127.8223748  37.1615451  91.9582552
 126.6970689  37.1065071  92.9694610 113.6555279  27.9498947  76.7792216
 113.9508720  27.0409625  76.7259270 112.7543314  27.9286686  76.4573219
 125.5641357  39.6706211  83.5842625 125.4392497  38.8695951  83.0753570
 126.2220448  40.1652404  83.0956595 117.1849526  26.0254943  82.7619765
 116.4636111  26.6390911  82.6227238 117.9742781  26.5612708  82.6836411
 127.6276266  37.4715231  85.2122175 126.6806601  37.3520582  85.1400501
 127.9759039  36.5837729  85.2948436 119.9875839  23.3609370  89.0360417
 120.5110241  23.6071666  89.7986726 119.7688172  24.1929405  88.6163554
 115.3843120  25.6313044  76.9031541 115.0555826  24.7510423  76.7206647
 115.7382491  25.5760713  77.7907931 124.6322699  37.2667947  81.4126527
 124.4847661  36.3384654  81.5934097 125.4576193  37.2888038  80.9283602
 118.4984943  25.9186014  77.2707019 118.8381016  26.4471935  76.5485627
 118.9457064  26.2566420  78.0465586 128.2356821  38.0896506  82.4991400
 129.1603368  37.8839367  82.3615851 128.0672124  37.8412907  83.4080741
 121.1928384  24.3023065  86.7210087 120.8525205  23.5030878  87.1230767
 120.4867390  24.6024776  86.1486920 121.8444856  21.3872377  85.1737410
 122.6670925  20.9132855  85.0516300 122.0882920  22.1662861  85.6736096
 120.4853090  24.4160636  75.4700312 121.2061453  24.7941888  74.9664029
 119.8618395  25.1349513  75.5735290 124.6284213  25.1205785  76.4058644
 124.8447828  26.0030423  76.1047472 124.1478280  24.7291998  75.6764286
 119.3683435  28.0791498  82.9829389 119.2228015  28.3931801  83.8753670
 118.8908638  28.6976398  82.4300287 121.2279818  25.0694046  83.0310278
 121.2141386  24.1735139  82.6942576 121.9452246  25.0764710  83.6648564
 123.0805948  25.5031386  85.0763406 122.8223726  26.4248457  85.0747736
 122.5490989  25.1061821  85.7663870 128.0252137  38.6082173  77.8553491
 128.1989015  38.0428596  77.1027344 128.5181028  39.4083068  77.6732981
 113.8429097  30.6196842  85.9217050 113.2982565  31.3956650  86.0537324
 114.7208447  30.9667647  85.7636171 120.6316714  23.9508426  78.2997848
 120.7532625  23.0225072  78.4988736 120.3418756  23.9647112  77.3876164
 123.5007904  21.6363337  81.4364568 123.5229601  21.7002670  80.4816548
 123.9175963  20.7967845  81.6305074 133.8791528  31.3718596  79.4743791
 134.3222674  30.6225921  79.0762914 133.0018039  31.3628733  79.0917523
 129.0127310  37.9248938  74.9550389 129.7078214  38.5455630  75.1737704
 129.3550460  37.0744289  75.2302767 114.6295119  29.7466739  88.8147207
 113.8876855  29.8949374  89.4011837 114.3087863  30.0075004  87.9513956
 130.9118733  35.3748643  76.4837720 131.4370057  35.7135916  75.7587040
 130.8241085  34.4395658  76.3000855 122.5738781  39.2882717  88.6127597
 122.8825908  39.0431864  89.4850296 123.3714263  39.4929355  88.1246467
 122.5959393  41.4420626  80.8432973 122.1564384  40.9497005  81.5365830
 123.3467510  40.8993594  80.6025049 115.0751732  37.6332167  80.8457601
 115.9009752  37.3335939  80.4656245 114.7245784  36.8639790  81.2947390
 120.0433266  36.9858636  82.9155275 119.4213275  36.3229341  82.6157503
 120.7138132  37.0119767  82.2328923 113.2760337  35.5518494  81.8046535
 112.4392246  35.1240668  81.6230536 113.2483983  35.7450937  82.7417326
 120.1157793  25.4640424  92.5087781 120.1645949  26.3402546  92.1265551
 120.6580307  24.9217817  91.9359424 130.6012639  36.0081547  91.7888918
 129.8108182  35.9905686  91.2493418 130.3645993  36.5469840  92.5437955
 130.7210514  32.8574013  89.1021647 130.7708519  32.6924021  90.0437169
 130.6124437  31.9901272  88.7119527 119.6046773  35.5362559  76.3913736
 119.7534893  36.2198023  75.7380408 120.4113216  35.5167649  76.9063191
 128.0114276  28.8404941  90.4180953 128.9124139  28.7011406  90.1264951
 128.0862251  29.0059396  91.3579131 122.3457082  26.2171796  89.2634140
 121.4760391  26.5105362  88.9916728 122.5816562  26.8012241  89.9841403
 132.2228711  35.2770955  89.3463668 131.9313519  35.6400935  90.1827129
 131.6100842  34.5637963  89.1677000 133.4224393  32.8423834  81.8666238
 134.2571284  33.2813639  82.0303799 133.5583522  32.3662488  81.0474484
 130.4715899  30.4003569  87.8143726 130.9470020  30.5931216  87.0062578
 129.5481464  30.4562755  87.5687110 117.3599405  31.5627736  77.3974804
 117.1145447  30.6590066  77.5955015 117.5295320  31.5644887  76.4554282
 125.0496115  22.4351413  86.7799560 125.5678059  23.1712440  86.4546049
 124.6951248  22.7415406  87.6146319 116.6295053  27.2956094  74.8960966
 115.9364298  27.3700449  74.2401002 116.3846805  26.5316438  75.4182483
 125.3008710  18.8551695  82.3000457 125.5810463  18.1874884  82.9260883
 126.0859316  19.0480791  81.7875120 123.1042178  38.0310689  73.8625483
 122.5316145  38.6500876  73.4095955 123.6774972  38.5810051  74.3965405
 129.1717568  27.2769329  86.0472032 130.1234991  27.3767427  86.0684256
 129.0021018  26.4847598  86.5570116 127.1931947  24.3624913  86.2331433
 126.5981879  24.6429925  85.5377921 126.9081644  24.8518814  87.0048174
 126.3239438  38.3147839  74.9934065 127.2570111  38.2493401  75.1966941
 126.2362651  39.1504106  74.5348598 128.9527454  37.6313710  71.9538013
 128.8741086  37.2973573  72.8473771 129.7737121  38.1235478  71.9529485
 131.6505646  30.4975449  85.1614331 131.6181966  29.5591450  85.3474015
 132.2606269  30.5759486  84.4280156 123.4888977  29.3671502  71.2041535
 124.4348081  29.2377710  71.2729953 123.1103221  28.6286164  71.6810964
 131.8000134  27.2886493  85.2072615 131.2839183  26.5044949  85.0202543
 132.6840083  26.9605209  85.3719134 129.4610861  21.0327508  81.1668427
 129.2635682  20.7242596  82.0511759 130.0710567  21.7589147  81.2966357
 135.5497493  29.6999318  84.8994819 134.8230656  29.5655283  84.2911311
 135.1344780  30.0076147  85.7051537 123.3727669  33.4189248  92.6642192
 124.2930679  33.5967847  92.8582239 123.3377252  32.4745294  92.5121892
 121.6731894  27.2921478  71.1396421 120.7663349  26.9954591  71.2159134
 121.9507875  26.9951297  70.2730707 112.5909834  28.6127842  81.5895467
 112.2712618  27.7593150  81.2969841 112.0443262  28.8276420  82.3453434
 116.3689742  31.3290283  85.3064974 116.5875751  32.2607391  85.3253007
 116.7815515  30.9698257  86.0919777 123.2893959  21.8358368  77.2940662
 122.4794688  21.4905453  77.6695908 123.9778376  21.5265912  77.8828274
 125.2184508  20.9136415  78.9164959 125.7715546  21.3331868  79.5754982
 125.4554594  19.9872163  78.9587915 121.2417607  26.9023489  94.6967723
 121.1414334  27.8517846  94.6279814 121.0239149  26.5741727  93.8243793
 120.4430678  24.1508414  71.2808400 121.3049842  24.4763312  71.5404217
 120.6281022  23.3639910  70.7681466 112.4598094  32.2330753  83.5588589
 111.7661565  31.8184706  83.0458543 113.2071085  32.2751290  82.9622008
 128.5963315  23.0236940  78.4243623 128.0161984  23.6821744  78.0421675
 128.3299247  22.2014285  78.0131040 127.0466881  22.4241998  80.6264943
 127.5466660  22.5358532  79.8179262 127.6902489  22.1203051  81.2665752
 121.1048877  30.3320627  93.5132784 120.6215959  31.1320988  93.7196673
 121.1909816  30.3428572  92.5600228 114.3734837  32.1649007  81.4354604
 114.3505525  32.2636694  80.4836487 114.6835473  33.0114158  81.7571770
 117.0322214  34.2225162  85.5501218 117.9865468  34.1909104  85.4831150
 116.8334738  33.7615786  86.3651444 117.6221597  32.7926278  88.1172016
 118.4414486  33.2870357  88.1406853 117.8958404  31.8758246  88.0889583
 127.3788193  25.1837030  77.4799971 126.4914048  25.4686681  77.2620166
 127.7942182  25.0230794  76.6327248 130.7302729  25.2083551  81.1954310
 131.5063119  25.6980004  81.4678927 130.0050863  25.6341606  81.6526180
 133.1675288  25.9211171  82.2528251 133.7619778  25.6806907  81.5421559
 133.2401871  25.2018301  82.8801787 115.3872443  39.7644782  82.5671416
 115.2526911  39.0045183  82.0009414 114.9704506  40.4885681  82.1000205
 126.5231406  34.9481705  71.5747991 127.2267256  35.1531708  72.1905647
 125.7994055  35.5158467  71.8397075 127.3529217  30.6991566  77.6950261
 127.2964418  31.1560118  76.8557894 127.9057559  29.9382251  77.5173104
 131.1634022  26.4881298  78.5200381 130.9070957  26.0877934  79.3508588
 130.5386890  27.2025092  78.3950520 135.4746360  29.2277372  81.0271672
 134.9145918  29.2970561  81.8003234 134.8689864  29.0518356  80.3071168
 118.5441569  40.6614099  82.7789858 118.4273953  41.6059531  82.6768549
 117.7234015  40.3587660  83.1675658 128.4318104  35.3864234  73.6246451
 129.2663708  34.9545433  73.4423926 128.2702447  35.2146248  74.5523346
 128.0863996  31.8896348  74.9902790 128.0312800  31.7240619  74.0491235
 127.4610051  32.5972381  75.1464980 112.8756511  27.1264412  88.8164213
 113.5215374  26.6163366  89.3051438 112.6673662  27.8633094  89.3907638
 125.4009903  34.1945260  94.3156353 126.2701063  34.3685912  93.9542988
 124.9216655  35.0139676  94.1932083 121.3960121  21.3904457  74.5688109
 121.3838791  22.3346297  74.7256380 122.2883543  21.2074602  74.2747570
 119.5696083  41.3142361  85.9945787 120.4723330  41.3465971  86.3112282
 119.3433453  40.3842811  86.0092123 121.3249685  40.0673347  82.6555866
 120.3745316  40.0675209  82.5420238 121.6282171  39.3206082  82.1391900
 125.2112241  17.9847233  78.8234046 124.4444637  17.4305720  78.9690728
 125.6222946  18.0569102  79.6848197 117.2154002  24.2732029  92.9139227
 118.0785463  23.9168834  93.1242551 116.6419412  23.9345924  93.6014631
 133.8692085  45.8561314  83.6563153 133.5310597  45.7402378  82.7683687
 134.7381853  45.4552479  83.6364159 129.7278901  47.7096790  79.6460044
 129.1643766  47.6186727  78.8776331 129.6131296  46.8896694  80.1262536
 134.3511868  47.0096165  89.6149358 134.3400509  46.6148964  88.7429862
 134.5132508  46.2762238  90.2083130 127.2743333  49.2047982  82.4844264
 128.0664625  48.8638806  82.0690563 127.5139983  49.3142957  83.4046417
 135.3078459  51.3767758  74.9574508 134.6566439  51.9621838  74.5708522
 136.1022822  51.9073953  75.0169546 129.2334087  48.4656895  75.3561643
 130.0064963  47.9185882  75.2174519 129.5859485  49.3301144  75.5676104
 131.0719129  49.7933277  88.5628542 130.7808995  50.6978908  88.4475208
 131.7076114  49.8349805  89.2772612 131.9975336  47.1710126  85.1529902
 132.5938908  46.9466148  84.4386865 132.0550308  46.4294871  85.7555350
 131.5700364  44.6249561  72.9880093 131.8225885  44.1031082  72.2263556
 130.6324924  44.4615706  73.0906776 136.6143647  43.6285339  80.7954836
 137.4006736  43.2104762  80.4445253 136.8782352  44.5331432  80.9636484
 136.7853725  49.0658190  75.4943493 136.1499558  49.1392816  76.2064397
 136.4551131  49.6551788  74.8162572 131.2896653  46.5277667  75.1904468
 131.1732911  45.8522570  75.8585552 131.3998913  46.0410041  74.3736621
 133.6328194  45.9887814  78.8951157 133.2686401  45.4618435  79.6064078
 134.4895310  45.5986283  78.7217642 133.2733681  41.0177714  73.8912505
 133.4408083  41.8857950  74.2582976 133.0830850  41.1804995  72.9673795
 136.0309014  49.4794693  85.5578336 135.7309737  50.3819731  85.4494143
 135.6860074  49.2126876  86.4099489 129.4821496  45.9308489  81.5915040
 128.5571992  45.7984704  81.7992732 129.7305909  46.7102709  82.0884983
 133.2522902  43.4735371  74.8759172 133.1322527  43.9192422  75.7144653
 132.5575490  43.8220689  74.3172710 126.8430307  45.5741763  82.4258829
 126.9722688  45.8276242  83.3398241 126.1627758  46.1669471  82.1063484
 131.0129794  56.2439013  78.5249304 130.9353824  57.1946838  78.6037784
 130.4091438  55.8984885  79.1824230 133.5047024  43.4166878  91.1810670
 132.7280358  43.9760799  91.1713535 134.1437587  43.9023661  91.7025541
 131.7593396  46.2252332  90.7428637 132.5008081  46.7637376  90.4663461
 131.0530382  46.8518621  90.9000189 137.2348736  48.3681472  89.3400799
 137.6432092  47.9263883  88.5955431 136.5125997  47.7934100  89.5934992
 133.5879806  43.3054079  86.7134356 134.4341001  43.7293493  86.8569005
 133.5278443  42.6487703  87.4072919 137.5577550  48.9282663  83.0953088
 136.9286413  49.0928377  82.3929156 137.1703213  49.3424272  83.8664052
 136.7379251  40.9658447  88.3715529 136.4940183  41.7200508  87.8349805
 137.0139182  41.3443795  89.2062777 136.2943943  40.1214880  83.9529367
 135.4328422  40.4196134  84.2446105 136.3206378  40.3385279  83.0210400
 133.1105512  48.6657071  80.3603173 133.5743858  48.9444774  79.5707795
 132.8462310  47.7640516  80.1776264 130.0029593  48.2128552  83.2982936
 130.5730950  48.6415821  82.6600421 130.5937705  47.9311137  83.9967122
 132.0474398  44.7880223  77.1692738 132.7498442  45.2401267  77.6366664
 131.7155027  44.1464042  77.7972631 130.4954760  43.3791980  91.5443947
 129.8653420  44.0608261  91.7779344 130.3890848  43.2675062  90.5997086
 125.7899732  43.0463776  82.4709872 124.9998786  43.3021305  81.9949982
 126.2810980  43.8612114  82.5761912 127.7414478  43.4108355  79.4293348
 126.9445641  43.5227049  79.9476844 127.5140070  43.7495007  78.5634239
 133.5720145  49.9353058  87.3775863 133.6364578  50.3973466  88.2134035
 132.8631069  49.3050423  87.5058173 124.0737435  43.2994266  84.9024862
 124.3245474  44.1841276  85.1682438 124.6096984  43.1198868  84.1299954
 133.2868163  51.6021166  77.2454843 133.1513838  52.4472702  77.6739691
 133.8277975  51.8040444  76.4820777 129.7735503  37.6812746  93.9069198
 129.3802448  37.1278944  94.5816843 130.5901643  37.9923324  94.2975716
 126.7397560  49.1196604  77.8182768 127.2522081  49.9139854  77.9688333
 127.3920273  48.4222894  77.7516370 128.5492445  52.2362360  79.9005521
 128.7259073  53.1580325  79.7126505 129.3449279  51.9220779  80.3299901
 132.6903464  39.0970625  91.4989455 133.4313177  39.6977778  91.4193917
 132.9221386  38.3548263  90.9407498 127.8344802  44.2826992  89.7767685
 127.7198317  43.3812249  90.0774784 126.9789319  44.5290689  89.4252501
 134.9136639  52.2244732  91.3755185 134.4700494  51.4381111  91.0576090
 135.5753853  52.4123883  90.7099076 129.6723761  53.7540534  85.9015864
 130.2231186  53.6257597  85.1292858 128.8335236  54.0535423  85.5510757
 133.4690932  50.0191662  90.2460095 134.0019268  49.2579950  90.0159403
 132.9405013  49.7265314  90.9884249 136.6360627  35.1251728  85.7753737
 136.2924896  36.0153369  85.6992847 137.0039589  34.9353385  84.9123322
 124.7046477  47.4485258  78.5942339 125.5421699  47.8582267  78.3776047
 124.8824745  46.5084700  78.5642533 136.6010909  45.1160339  74.2826172
 136.0857533  45.8864944  74.5214559 136.3288218  44.4425475  74.9059233
 134.1858020  39.9610040  79.3411410 133.3299617  39.5716890  79.1617049
 134.5984972  40.0402001  78.4811196 135.7157167  37.4956383  83.7402970
 135.2121963  37.4586518  82.9270775 136.0087774  38.4049126  83.7999627
 131.9600053  37.5795113  82.7469152 132.8253050  37.3837921  82.3875041
 132.0277562  37.3505464  83.6738508 136.3897212  42.9887431  76.1085953
 136.0847348  43.3033580  76.9596096 137.3427655  43.0668851  76.1513286
 134.8343644  49.1477654  77.7578907 134.3065006  48.4130414  77.4452144
 134.3331147  49.9252331  77.5118875 129.5662372  39.8097321  80.1185518
 130.1406124  39.5872502  79.3858711 130.1533354  39.8786015  80.8714120
 129.8931959  41.8401782  74.1381404 129.0569271  42.1776468  74.4590678
 129.7536729  41.7050761  73.2008541 131.8685040  36.6838570  78.8460588
 131.2149452  36.3687587  78.2217203 131.8265514  36.0614310  79.5720411
 132.9796244  46.9657865  70.7613880 132.0723306  46.7347118  70.9605029
 133.4767276  46.1695484  70.9487862 135.8864323  55.6755372  73.6810566
 135.2126022  55.9787069  74.2895524 136.2730145  56.4784452  73.3316023
 135.1022780  43.1720503  83.1708236 134.1845341  43.3935450  83.0129924
 135.5182924  43.2466814  82.3119943 135.8857828  44.5711919  78.3010916
 136.6329647  45.0833316  77.9918038 136.1549417  44.2495971  79.1615309
 134.1584478  47.0670459  75.2837870 133.2495697  46.7829492  75.3810340
 134.1879562  47.4869538  74.4241177 124.7272648  44.7875974  79.2653072
 124.5297048  44.1945334  78.5404139 124.1719312  44.4828184  79.9829011
 132.7069372  44.6799080  81.3847665 132.7617982  43.7272916  81.3090142
 131.8960574  44.8358519  81.8688964 133.8560566  48.6079203  72.6225949
 133.4179996  47.8915062  72.1631586 134.5971007  48.8355318  72.0611040
 130.6461732  43.2976140  79.1438044 129.8329597  43.5970310  79.5503236
 131.1420726  42.9031829  79.8612527 132.7970310  53.2933897  81.0772309
 132.7546489  53.5194743  80.1480841 133.7133009  53.0597271  81.2258110
 136.2435944  43.7617964  87.9752938 136.5985331  43.9889437  88.8347404
 136.8908075  44.0936341  87.3530194 130.1375807  40.8694495  84.7599279
 130.7775186  40.7283254  84.0622243 129.3053337  40.5829009  84.3837881
 130.9136111  50.1696926  80.8734272 131.7076709  49.6747246  80.6716847
 130.2027803  49.6414789  80.5101977 135.7330955  52.5515021  85.2246639
 135.7867977  53.1205958  85.9924355 134.8645736  52.7216906  84.8600676
 127.2218874  44.3140007  76.9494024 126.2916462  44.2524463  77.1663987
 127.3176346  43.7915960  76.1530666 127.1404423  40.8394820  79.5372266
 127.4011240  41.7540154  79.4281427 127.9621595  40.3719263  79.6868879
 128.6129348  42.2532577  86.7071091 129.2852402  42.0449940  86.0583740
 127.7859135  42.0554663  86.2676323 134.5154920  38.8794518  88.7236751
 133.8682835  39.5784468  88.6301228 135.2855936  39.3130662  89.0913000
 134.6919055  46.7175283  86.7833571 135.6211115  46.8686443  86.6102539
 134.2710085  46.8059304  85.9282218 133.4907387  50.7425948  84.5532109
 133.3518472  50.3744732  85.4258047 132.7021983  51.2573587  84.3816067
 134.0855538  55.8435044  75.8957645 134.2607294  55.3723087  76.7103268
 133.3988327  56.4700810  76.1238906 135.0412602  50.1207550  81.9420947
 134.7062434  50.0808320  82.8378596 134.5416547  49.4552266  81.4691357
 129.0156846  45.5275180  87.4673528 128.8776644  44.7955419  88.0685067
 129.9261769  45.4384081  87.1857716 131.6439146  45.2395140  86.9557207
 132.3538765  44.5988332  86.9143826 131.6008454  45.4908035  87.8783388
 130.3568080  42.2260358  88.7752847 129.8205437  41.7751096  89.4274443
 129.7684789  42.3606267  88.0323311 128.6516624  58.9924407  82.6697506
 128.8913222  59.6242931  83.3476524 127.8085820  58.6412447  82.9562865
 129.7670339  41.6849009  71.3379311 128.8899806  41.5637810  70.9741557
 130.2428092  40.8935087  71.0858199 121.2872479  46.4726169  81.4320818
 121.9743519  46.1587899  80.8441833 121.1320608  47.3767533  81.1588069
 126.0907202  41.3616365  85.8605841 126.0065390  40.7542035  85.1256251
 125.2689908  41.8525384  85.8615338 133.1644486  54.8003529  85.0739010
 133.0914657  55.6058501  85.5858314 132.7221879  54.9995495  84.2487031
 132.9534265  54.0375299  78.5841831 132.1701787  54.5796980  78.6780056
 133.6527010  54.5549279  78.9836072 136.2630915  39.8469929  81.2276036
 136.7599615  39.0939891  80.9077107 135.4917897  39.8834246  80.6619246
 135.6243169  54.6990363  87.2297168 136.3371141  55.3337828  87.1573070
 135.1333198  54.7954229  86.4137170 137.3460696  48.6041616  78.8014460
 136.4116975  48.7243079  78.6319164 137.5237365  47.7014083  78.5374470
 132.8465884  41.9887312  80.9547721 132.4763672  41.4358352  81.6428627
 133.3424977  41.3845445  80.4022721 130.6755083  52.4484807  88.0502739
 131.3764542  53.0821290  88.2032133 130.2050198  52.7899538  87.2898378
 135.4363543  55.0389108  79.9783460 135.6185937  54.2210763  80.4411212
 136.2596529  55.2556800  79.5408350 135.7705708  53.9657293  77.2398508
 136.2993474  53.4549747  76.6268670 136.0333928  53.6499823  78.1044041
 134.5243942  45.7449225  92.3621326 133.8484579  45.6443355  93.0323702
 135.3471576  45.5888439  92.8257324 126.2722801  51.9821162  84.9833842
 126.8576238  51.2364850  85.1161746 126.0747639  52.2925119  85.8670506
 129.1261456  55.0172409  79.9996284 128.4571831  55.5018537  79.5160324
 128.9874326  55.2641630  80.9139663 120.8640455  44.5526762  83.7038285
 120.9024555  44.0190353  84.4975403 120.3580748  44.0261968  83.0849262
 133.2666725  57.0516153  86.5978942 133.8185033  57.2147774  87.3628028
 133.6072918  57.6420591  85.9258967 128.2431218  39.3991303  87.2000827
 128.3072544  40.2606134  86.7878225 128.1798338  38.7865304  86.4673186
 127.7183490  41.4714435  90.8473861 128.3455529  41.0891513  91.4611386
 126.8611409  41.2528637  91.2129554 124.4949033  43.2790864  76.7792216
 124.7902474  42.3701543  76.7259270 123.5937069  43.2578604  76.4573219
 136.4035112  54.9998128  83.5842625 136.2786251  54.1987868  83.0753570
 137.0614203  55.4944322  83.0956595 128.0243280  41.3546861  82.7619765
 127.3029866  41.9682829  82.6227238 128.8136536  41.8904626  82.6836411
 130.8269594  38.6901287  89.0360417 131.3503995  38.9363584  89.7986726
 130.6081927  39.5221322  88.6163554 126.2236875  40.9604962  76.9031541
 125.8949581  40.0802341  76.7206647 126.5776245  40.9052631  77.7907931
 135.4716454  52.5959865  81.4126527 135.3241416  51.6676572  81.5934097
 136.2969947  52.6179955  80.9283602 129.3378698  41.2477932  77.2707019
 129.6774770  41.7763853  76.5485627 129.7850818  41.5858338  78.0465586
 132.0322139  39.6314983  86.7210087 131.6918959  38.8322796  87.1230767
 131.3261145  39.9316693  86.1486920 132.6838610  36.7164295  85.1737410
 133.5064680  36.2424773  85.0516300 132.9276674  37.4954779  85.6736096
 131.3246845  39.7452553  75.4700312 132.0455207  40.1233806  74.9664029
 130.7012149  40.4641430  75.5735290 135.4677968  40.4497702  76.4058644
 135.6841582  41.3322340  76.1047472 134.9872035  40.0583916  75.6764286
 130.2077189  43.4083416  82.9829389 130.0621770  43.7223719  83.8753670
 129.7302393  44.0268316  82.4300287 132.0673572  40.3985964  83.0310278
 132.0535141  39.5027057  82.6942576 132.7846000  40.4056627  83.6648564
 133.9199703  40.8323304  85.0763406 133.6617481  41.7540374  85.0747736
 133.3884743  40.4353738  85.7663870 124.6822851  45.9488760  85.9217050
 124.1376319  46.7248568  86.0537324 125.5602201  46.2959564  85.7636171
 131.4710468  39.2800344  78.2997848 131.5926379  38.3516990  78.4988736
 131.1812510  39.2939030  77.3876164 134.3401658  36.9655254  81.4364568
 134.3623355  37.0294587  80.4816548 134.7569717  36.1259763  81.6305074
 125.4688873  45.0758656  88.8147207 124.7270609  45.2241292  89.4011837
 125.1481618  45.3366922  87.9513956 133.4132536  54.6174634  88.6127597
 133.7219662  54.3723781  89.4850296 134.2108018  54.8221273  88.1246467
 133.4353148  56.7712544  80.8432973 132.9958138  56.2788923  81.5365830
 134.1861265  56.2285512  80.6025049 125.9145487  52.9624085  80.8457601
 126.7403507  52.6627857  80.4656245 125.5639539  52.1931707  81.2947390
 130.8827020  52.3150553  82.9155275 130.2607029  51.6521258  82.6157503
 131.5531887  52.3411685  82.2328923 124.1154092  50.8810411  81.8046535
 123.2786000  50.4532586  81.6230536 124.0877737  51.0742855  82.7417326
 130.9551548  40.7932341  92.5087781 131.0039703  41.6694464  92.1265551
 131.4974062  40.2509734  91.9359424 130.4440527  50.8654477  76.3913736
 130.5928647  51.5489941  75.7380408 131.2506970  50.8459567  76.9063191
 133.1850836  41.5463714  89.2634140 132.3154145  41.8397280  88.9916728
 133.4210316  42.1304159  89.9841403 128.1993160  46.8919654  77.3974804
 127.9539202  45.9881984  77.5955015 128.3689075  46.8936805  76.4554282
 135.8889870  37.7643331  86.7799560 136.4071814  38.5004357  86.4546049
 135.5345003  38.0707324  87.6146319 127.4688808  42.6248012  74.8960966
 126.7758052  42.6992367  74.2401002 127.2240559  41.8608355  75.4182483
 136.1402464  34.1843613  82.3000457 136.4204218  33.5166802  82.9260883
 136.9253071  34.3772709  81.7875120 133.9435933  53.3602607  73.8625483
 133.3709900  53.9792794  73.4095955 134.5168726  53.9101969  74.3965405
 134.3282731  44.6963420  71.2041535 135.2741836  44.5669628  71.2729953
 133.9496976  43.9578082  71.6810964 134.2121424  48.7481166  92.6642192
 135.1324433  48.9259765  92.8582239 134.1771007  47.8037211  92.5121892
 132.5125648  42.6213396  71.1396421 131.6057104  42.3246509  71.2159134
 132.7901629  42.3243214  70.2730707 123.4303589  43.9419760  81.5895467
 123.1106373  43.0885068  81.2969841 122.8837017  44.1568338  82.3453434
 127.2083496  46.6582201  85.3064974 127.4269506  47.5899308  85.3253007
 127.6209270  46.2990175  86.0919777 134.1287714  37.1650286  77.2940662
 133.3188442  36.8197371  77.6695908 134.8172131  36.8557830  77.8828274
 136.0578262  36.2428333  78.9164959 136.6109301  36.6623786  79.5754982
 136.2948349  35.3164081  78.9587915 132.0811361  42.2315406  94.6967723
 131.9808088  43.1809763  94.6279814 131.8632903  41.9033645  93.8243793
 131.2824433  39.4800331  71.2808400 132.1443597  39.8055230  71.5404217
 131.4674777  38.6931827  70.7681466 123.2991849  47.5622671  83.5588589
 122.6055320  47.1476624  83.0458543 124.0464840  47.6043208  82.9622008
 131.9442631  45.6612545  93.5132784 131.4609713  46.4612905  93.7196673
 132.0303571  45.6720490  92.5600228 125.2128591  47.4940925  81.4354604
 125.1899279  47.5928612  80.4836487 125.5229228  48.3406076  81.7571770
 127.8715969  49.5517080  85.5501218 128.8259223  49.5201022  85.4831150
 127.6728493  49.0907704  86.3651444 128.4615351  48.1218196  88.1172016
 129.2808240  48.6162275  88.1406853 128.7352159  47.2050164  88.0889583
 126.2266198  55.0936699  82.5671416 126.0920666  54.3337100  82.0009414
 125.8098260  55.8177599  82.1000205 129.3835324  55.9906016  82.7789858
 129.2667708  56.9351449  82.6768549 128.5627770  55.6879578  83.1675658
 123.7150265  42.4556330  88.8164213 124.3609129  41.9455284  89.3051438
 123.5067416  43.1925011  89.3907638 136.2403658  49.5237177  94.3156353
 137.1094817  49.6977830  93.9542988 135.7610409  50.3431594  94.1932083
 132.2353876  36.7196374  74.5688109 132.2232546  37.6638214  74.7256380
 133.1277298  36.5366520  74.2747570 130.4089838  56.6434278  85.9945787
 131.3117084  56.6757888  86.3112282 130.1827208  55.7134729  86.0092123
 132.1643440  55.3965265  82.6555866 131.2139071  55.3967126  82.5420238
 132.4675926  54.6497999  82.1391900 136.0505995  33.3139151  78.8234046
 135.2838391  32.7597638  78.9690728 136.4616700  33.3861020  79.6848197
 128.0547756  39.6023947  92.9139227 128.9179218  39.2460752  93.1242551
 127.4813167  39.2637842  93.6014631 136.6293487  58.3755694  82.4709872
 135.8392541  58.6313222  81.9949982 137.1204734  59.1904032  82.5761912
 134.9131190  58.6286184  84.9024862 135.1639228  59.5133194  85.1682438
 135.4490738  58.4490786  84.1299954 135.5440232  62.7777176  78.5942339
 136.3815454  63.1874184  78.3776047 135.7218499  61.8376618  78.5642533
 135.5666403  60.1167891  79.2653072 135.3690803  59.5237252  78.5404139
 135.0113067  59.8120101  79.9829011 132.1266234  61.8018086  81.4320818
 132.8137274  61.4879817  80.8441833 131.9714363  62.7059451  81.1588069
 136.9300956  56.6908283  85.8605841 136.8459145  56.0833953  85.1256251
 136.1083662  57.1817301  85.8615338 131.7034210  59.8818680  83.7038285
 131.7418309  59.3482271  84.4975403 131.1974503  59.3553885  83.0849262
 135.3342788  58.6082782  76.7792216 135.6296229  57.6993460  76.7259270
 134.4330823  58.5870521  76.4573219 137.0630629  56.2896880  76.9031541
 136.7343335  55.4094259  76.7206647 137.4170000  56.2344548  77.7907931
 135.5216606  61.2780678  85.9217050 134.9770074  62.0540486  86.0537324
 136.3995956  61.6251482  85.7636171 136.3082628  60.4050574  88.8147207
 135.5664364  60.5533209  89.4011837 135.9875372  60.6658840  87.9513956
 136.7539241  68.2916003  80.8457601 137.5797261  67.9919774  80.4656245
 136.4033293  67.5223625  81.2947390 134.9547846  66.2102329  81.8046535
 134.1179755  65.7824503  81.6230536 134.9271492  66.4034772  82.7417326
 134.2697343  59.2711677  81.5895467 133.9500127  58.4176985  81.2969841
 133.7230771  59.4860255  82.3453434 134.1385603  62.8914589  83.5588589
 133.4449074  62.4768541  83.0458543 134.8858594  62.9335125  82.9622008
 136.0522346  62.8232842  81.4354604 136.0293034  62.9220530  80.4836487
 136.3622982  63.6697993  81.7571770 137.0659952  70.4228617  82.5671416
 136.9314420  69.6629018  82.0009414 136.6492015  71.1469517  82.1000205
 134.5544020  57.7848247  88.8164213 135.2002883  57.2747201  89.3051438
 134.3461171  58.5216929  89.3907638 120.1736041  17.9209218  65.2494610
 120.0960071  18.8717043  65.3283091 119.5697684  17.5755090  65.9069536
 118.8330007  15.4310739  72.6261170 119.3837432  15.3027802  71.8538164
 117.9941483  15.7305628  72.2756063 125.0470570  17.3525577  60.4055873
 124.3732269  17.6557273  61.0140831 125.4336392  18.1554657  60.0561330
 123.2461785  17.5205249  62.6202952 123.4213541  17.0493292  63.4348575
 122.5594573  18.1471015  62.8484213 117.8122871  20.6694612  69.3942812
 118.0519469  21.3013136  70.0721831 116.9692067  20.3182652  69.6808171
 122.3250732  16.4773734  71.7984316 122.2520904  17.2828706  72.3103621
 121.8828126  16.6765700  70.9732338 122.1140512  15.7145504  65.3087138
 121.3308034  16.2567185  65.4025362 122.8133257  16.2319484  65.7081379
 124.7849416  16.3760568  73.9542475 125.4977388  17.0108033  73.8818376
 124.2939445  16.4724434  73.1382477 115.4329048  13.6591367  71.7079148
 116.0182484  12.9135055  71.8407053 115.2353886  13.9695324  72.5915812
 118.2867703  16.6942614  66.7241591 117.6178078  17.1788742  66.2405631
 118.1480572  16.9411835  67.6384969 122.4272971  18.7286358  73.3224249
 122.9791279  18.8917979  74.0873334 122.7679165  19.3190796  72.6504274
 122.5738783  16.2944839  75.3372903 122.8825909  16.0493986  76.2095603
 123.3714265  16.4991478  74.8491774 122.5959395  18.4482749  67.5678280
 122.1564385  17.9559128  68.2611137 123.3467512  17.9055717  67.3270355
 115.0751734  14.6394290  67.5702908 115.9009754  14.3398062  67.1901552
 114.7245786  13.8701912  68.0192697 113.2760339  12.5580616  68.5291842
 112.4392247  12.1302791  68.3475843 113.2483984  12.7513060  69.4662633
 115.3872445  16.7706904  69.2916722 115.2526912  16.0107305  68.7254721
 114.9704507  17.4947804  68.8245511 118.5441570  17.6676221  69.5035165
 118.4273955  18.6121654  69.4013855 117.7234017  17.3649783  69.8920964
 119.5696085  18.3204483  72.7191094 120.4723331  18.3528093  73.0357588
 119.3433455  17.3904934  72.7337429 121.3249687  17.0735470  69.3801172
 120.3745318  17.0737331  69.2665544 121.6282173  16.3268204  68.8637207
 133.8692086  22.8623436  70.3808459 133.5310598  22.7464501  69.4928994
 134.7381854  22.4614601  70.3609465 129.7278902  24.7158913  66.3705350
 129.1643767  24.6248850  65.6021638 129.6131297  23.8958817  66.8507843
 134.3511869  24.0158288  76.3394665 134.3400510  23.6211086  75.4675168
 134.5132509  23.2824361  76.9328436 127.2743334  26.2110104  69.2089571
 128.0664626  25.8700929  68.7935870 127.5139984  26.3205079  70.1291724
 135.3078461  28.3829880  61.6819815 134.6566440  28.9683961  61.2953829
 136.1022824  28.9136075  61.7414853 129.2334088  25.4719017  62.0806949
 130.0064964  24.9248005  61.9419825 129.5859487  26.3363267  62.2921411
 131.0719130  26.7995400  75.2873849 130.7808996  27.7041031  75.1720515
 131.7076115  26.8411927  76.0017918 131.9975337  24.1772248  71.8775208
 132.5938910  23.9528271  71.1632171 132.0550309  23.4356994  72.4800656
 131.5700366  21.6311684  59.7125399 131.8225886  21.1093205  58.9508862
 130.6324925  21.4677829  59.8152083 136.7853726  26.0720312  62.2188799
 136.1499559  26.1454939  62.9309704 136.4551132  26.6613911  61.5407879
 131.2896654  23.5339790  61.9149774 131.1732913  22.8584693  62.5830859
 131.3998914  23.0472163  61.0981927 133.6328195  22.9949937  65.6196464
 133.2686403  22.4680558  66.3309385 134.4895311  22.6048406  65.4462949
 136.0309016  26.4856815  72.2823642 135.7309739  27.3881854  72.1739450
 135.6860075  26.2188998  73.1344795 129.4821497  22.9370612  68.3160347
 128.5571993  22.8046826  68.5238039 129.7305910  23.7164831  68.8130289
 133.2522903  20.4797494  61.6004479 133.1322528  20.9254545  62.4389959
 132.5575492  20.8282811  61.0418017 126.8430308  22.5803886  69.1504136
 126.9722689  22.8338365  70.0643548 126.1627759  23.1731594  68.8308791
 131.0129795  33.2501136  65.2494610 130.9353825  34.2008961  65.3283091
 130.4091439  32.9047008  65.9069536 133.5047025  20.4229001  77.9055977
 132.7280359  20.9822921  77.8958842 134.1437588  20.9085784  78.4270847
 131.7593397  23.2314454  77.4673944 132.5008082  23.7699498  77.1908768
 131.0530383  23.8580743  77.6245496 137.2348737  25.3743595  76.0646106
 137.6432093  24.9326005  75.3200738 136.5125999  24.7996222  76.3180298
 133.5879807  20.3116202  73.4379662 134.4341002  20.7355615  73.5814311
 133.5278445  19.6549826  74.1318226 137.5577552  25.9344785  69.8198394
 136.9286414  26.0990500  69.1174462 137.1703214  26.3486395  70.5909358
 133.1105514  25.6719194  67.0848480 133.5743859  25.9506897  66.2953102
 132.8462312  24.7702638  66.9021570 130.0029595  25.2190675  70.0228243
 130.5730952  25.6477943  69.3845727 130.5937706  24.9373260  70.7212428
 132.0474400  21.7942346  63.8938045 132.7498443  22.2463390  64.3611971
 131.7155028  21.1526165  64.5217938 130.4954761  20.3854103  78.2689254
 129.8653422  21.0670383  78.5024651 130.3890849  20.2737184  77.3242392
 125.7899734  20.0525899  69.1955178 124.9998788  20.3083427  68.7195289
 126.2810981  20.8674236  69.3007219 127.7414479  20.4170478  66.1538655
 126.9445642  20.5289172  66.6722151 127.5140071  20.7557130  65.2879545
 133.5720147  26.9415181  74.1021170 133.6364579  27.4035588  74.9379341
 132.8631070  26.3112546  74.2303479 124.0737437  20.3056389  71.6270169
 124.3245475  21.1903399  71.8927745 124.6096985  20.1260991  70.8545261
 133.2868164  28.6083289  63.9700150 133.1513839  29.4534824  64.3984998
 133.8277977  28.8102566  63.2066084 126.7397562  26.1258727  64.5428075
 127.2522082  26.9201977  64.6933640 127.3920274  25.4285017  64.4761676
 128.5492446  29.2424483  66.6250828 128.7259075  30.1642448  66.4371812
 129.3449280  28.9282902  67.0545208 127.8344803  21.2889115  76.5012991
 127.7198318  20.3874372  76.8020090 126.9789321  21.5352811  76.1497808
 134.9136641  29.2306855  78.1000492 134.4700495  28.4443234  77.7821396
 135.5753854  29.4186006  77.4344383 129.6723762  30.7602657  72.6261170
 130.2231187  30.6319720  71.8538164 128.8335238  31.0597546  72.2756063
 133.4690933  27.0253784  76.9705402 134.0019270  26.2642073  76.7404710
 132.9405014  26.7327436  77.7129556 124.7046478  24.4547381  65.3187645
 125.5421700  24.8644389  65.1021353 124.8824746  23.5146823  65.2887839
 136.6010911  22.1222462  61.0071478 136.0857534  22.8927066  61.2459866
 136.3288219  21.4487598  61.6304540 134.8343646  26.1539777  64.4824214
 134.3065007  25.4192537  64.1697451 134.3331148  26.9314453  64.2364182
 129.8931960  18.8463904  60.8626710 129.0569273  19.1838591  61.1835985
 129.7536730  18.7112884  59.9253847 132.9796246  23.9719987  57.4859187
 132.0723307  23.7409241  57.6850336 133.4767278  23.1757606  57.6733168
 135.8864325  32.6817494  60.4055873 135.2126023  32.9849191  61.0140831
 136.2730147  33.4846575  60.0561330 135.1022781  20.1782626  69.8953542
 134.1845343  20.3997573  69.7375230 135.5182925  20.2528936  69.0365250
 135.8857829  21.5774041  65.0256222 136.6329648  22.0895439  64.7163344
 136.1549419  21.2558094  65.8860616 134.1584479  24.0732582  62.0083177
 133.2495698  23.7891615  62.1055646 134.1879563  24.4931661  61.1486484
 124.7272650  21.7938096  65.9898379 124.5297049  21.2007457  65.2649446
 124.1719314  21.4890306  66.7074318 132.7069373  21.6861203  68.1092972
 132.7617983  20.7335039  68.0335449 131.8960575  21.8420642  68.5934270
 133.8560567  25.6141326  59.3471255 133.4179997  24.8977185  58.8876893
 134.5971008  25.8417441  58.7856347 130.6461733  20.3038262  65.8683351
 129.8329599  20.6032433  66.2748543 131.1420727  19.9093951  66.5857833
 132.7970311  30.2996019  67.8017616 132.7546490  30.5256866  66.8726148
 133.7133010  30.0659394  67.9503417 136.2435945  20.7680087  74.6998245
 136.5985333  20.9951560  75.5592711 136.8908076  21.0998464  74.0775500
 130.9136112  27.1759048  67.5979578 131.7076710  26.6809368  67.3962153
 130.2027804  26.6476911  67.2347284 135.7330956  29.5577144  71.9491946
 135.7867979  30.1268080  72.7169662 134.8645738  29.7279029  71.5845983
 127.2218875  21.3202130  63.6739331 126.2916463  21.2586586  63.8909293
 127.3176347  20.7978083  62.8775972 127.1404424  17.8456943  66.2617573
 127.4011242  18.7602276  66.1526733 127.9621597  17.3781385  66.4114186
 128.6129350  19.2594700  73.4316397 129.2852403  19.0512062  72.7829046
 127.7859136  19.0616786  72.9921630 134.6919056  23.7237406  73.5078878
 135.6211116  23.8748566  73.3347845 134.2710086  23.8121427  72.6527524
 133.4907388  27.7488070  71.2777415 133.3518473  27.3806855  72.1503354
 132.7021984  28.2635710  71.1061373 134.0855540  32.8497167  62.6202952
 134.2607295  32.3785210  63.4348575 133.3988328  33.4762933  62.8484213
 135.0412603  27.1269673  68.6666253 134.7062436  27.0870443  69.5623903
 134.5416549  26.4614389  68.1936663 129.0156847  22.5337303  74.1918834
 128.8776645  21.8017542  74.7930373 129.9261770  22.4446203  73.9103022
 131.6439148  22.2457262  73.6802514 132.3538766  21.6050455  73.6389132
 131.6008456  22.4970157  74.6028695 130.3568082  19.2322480  75.4998154
 129.8205439  18.7813219  76.1519750 129.7684790  19.3668389  74.7568618
 128.6516625  35.9986530  69.3942812 128.8913223  36.6305054  70.0721831
 127.8085822  35.6474570  69.6808171 129.7670340  18.6911132  58.0624617
 128.8899807  18.5699932  57.6986864 130.2428094  17.8997210  57.8103506
 121.2872481  23.4788291  68.1566124 121.9743520  23.1650021  67.5687140
 121.1320609  24.3829656  67.8833376 126.0907203  18.3678488  72.5851148
 126.0065392  17.7604158  71.8501558 125.2689909  18.8587506  72.5860644
 133.1644487  31.8065652  71.7984316 133.0914658  32.6120624  72.3103621
 132.7221880  32.0057618  70.9732338 132.9534267  31.0437422  65.3087138
 132.1701788  31.5859102  65.4025362 133.6527012  31.5611402  65.7081379
 135.6243170  31.7052486  73.9542475 136.3371143  32.3399951  73.8818376
 135.1333199  31.8016352  73.1382477 137.3460697  25.6103739  65.5259766
 136.4116976  25.7305201  65.3564471 137.5237366  24.7076205  65.2619776
 130.6755084  29.4546930  74.7748046 131.3764543  30.0883412  74.9277440
 130.2050199  29.7961661  74.0143685 135.4363544  32.0451230  66.7028766
 135.6185938  31.2272886  67.1656519 136.2596530  32.2618922  66.2653656
 135.7705709  30.9719415  63.9643815 136.2993476  30.4611870  63.3513977
 136.0333929  30.6561945  64.8289348 134.5243943  22.7511348  79.0866633
 133.8484580  22.6505477  79.7569008 135.3471577  22.5950562  79.5502630
 126.2722802  28.9883285  71.7079148 126.8576239  28.2426972  71.8407053
 126.0747640  29.2987241  72.5915812 129.1261457  32.0234532  66.7241591
 128.4571833  32.5080660  66.2405631 128.9874327  32.2703752  67.6384969
 120.8640457  21.5588885  70.4283591 120.9024556  21.0252475  71.2220710
 120.3580750  21.0324090  69.8094569 133.2666726  34.0578275  73.3224249
 133.8185034  34.2209897  74.0873334 133.6072919  34.6482713  72.6504274
 127.7183492  18.4776558  77.5719168 128.3455530  18.0953635  78.1856692
 126.8611410  18.2590760  77.9374861 124.4949034  20.2852987  63.5037523
 124.7902475  19.3763665  63.4504577 123.5937070  20.2640726  63.1818525
 136.4035113  32.0060251  70.3087931 136.2786253  31.2049991  69.7998877
 137.0614204  32.5006444  69.8201901 128.0243281  18.3608983  69.4865071
 127.3029867  18.9744951  69.3472545 128.8136537  18.8966748  69.4081717
 126.2236876  17.9667085  63.6276848 125.8949582  17.0864464  63.4451954
 126.5776247  17.9114753  64.5153237 135.4716455  29.6021987  68.1371834
 135.3241417  28.6738695  68.3179404 136.2969948  29.6242078  67.6528909
 129.3378699  18.2540054  63.9952326 129.6774772  18.7825976  63.2730934
 129.7850820  18.5920461  64.7710892 130.2077190  20.4145538  69.7074695
 130.0621771  20.7285841  70.5998977 129.7302394  21.0330438  69.1545594
 124.6822853  22.9550883  72.6462357 124.1376321  23.7310691  72.7782631
 125.5602203  23.3021687  72.4881478 125.4688875  22.0820779  75.5392513
 124.7270611  22.2303414  76.1257144 125.1481619  22.3429044  74.6759263
 133.4132537  31.6236757  75.3372903 133.7219664  31.3785904  76.2095603
 134.2108019  31.8283396  74.8491774 133.4353149  33.7774667  67.5678280
 132.9958139  33.2851045  68.2611137 134.1861266  33.2347634  67.3270355
 125.9145488  29.9686208  67.5702908 126.7403508  29.6689979  67.1901552
 125.5639540  29.1993830  68.0192697 130.8827021  29.3212676  69.6400582
 130.2607031  28.6583381  69.3402809 131.5531888  29.3473808  68.9574229
 124.1154093  27.8872534  68.5291842 123.2786002  27.4594708  68.3475843
 124.0877739  28.0804977  69.4662633 130.4440528  27.8716599  63.1159042
 130.5928649  28.5552064  62.4625715 131.2506972  27.8521689  63.6308498
 128.1993161  23.8981777  64.1220111 127.9539203  22.9944107  64.3200321
 128.3689076  23.8998927  63.1799589 127.4688809  19.6310134  61.6206273
 126.7758054  19.7054489  60.9646309 127.2240561  18.8670478  62.1427789
 133.9435934  30.3664730  60.5870790 133.3709901  30.9854917  60.1341261
 134.5168727  30.9164091  61.1210712 134.3282732  21.7025542  57.9286842
 135.2741837  21.5731750  57.9975260 133.9496977  20.9640204  58.4056270
 134.2121425  25.7543288  79.3887499 135.1324434  25.9321887  79.5827546
 134.1771008  24.8099334  79.2367198 132.5125649  19.6275519  57.8641727
 131.6057105  19.3308631  57.9404441 132.7901630  19.3305337  56.9976014
 123.4303590  20.9481882  68.3140774 123.1106374  20.0947190  68.0215148
 122.8837018  21.1630460  69.0698741 127.2083497  23.6644323  72.0310280
 127.4269507  24.5961431  72.0498314 127.6209271  23.3052298  72.8165084
 132.0811363  19.2377529  81.4213029 131.9808090  20.1871886  81.3525120
 131.8632905  18.9095768  80.5489099 123.2991850  24.5684794  70.2833895
 122.6055321  24.1538746  69.7703850 124.0464841  24.6105330  69.6867314
 131.9442633  22.6674668  80.2378091 131.4609714  23.4675028  80.4441980
 132.0303572  22.6782613  79.2845535 125.2128592  24.5003047  68.1599910
 125.1899280  24.5990735  67.2081793 125.5229229  25.3468198  68.4817076
 127.8715970  26.5579202  72.2746525 128.8259224  26.5263145  72.2076456
 127.6728494  26.0969826  73.0896751 128.4615352  25.1280318  74.8417322
 129.2808241  25.6224397  74.8652160 128.7352160  24.2112287  74.8134890
 126.2266199  32.0998822  69.2916722 126.0920667  31.3399223  68.7254721
 125.8098261  32.8239722  68.8245511 129.3835325  32.9968139  69.5035165
 129.2667709  33.9413571  69.4013855 128.5627771  32.6941700  69.8920964
 123.7150267  19.4618452  75.5409519 124.3609130  18.9517406  76.0296744
 123.5067418  20.1987134  76.1152945 136.2403659  26.5299300  81.0401660
 137.1094818  26.7039952  80.6788295 135.7610410  27.3493717  80.9177389
 130.4089839  33.6496401  72.7191094 131.3117086  33.6820011  73.0357588
 130.1827209  32.7196852  72.7337429 132.1643441  32.4027387  69.3801172
 131.2139072  32.4029249  69.2665544 132.4675927  31.6560122  68.8637207
 136.6293488  35.3817816  69.1955178 135.8392542  35.6375345  68.7195289
 137.1204735  36.1966154  69.3007219 134.9131191  35.6348307  71.6270169
 135.1639229  36.5195317  71.8927745 135.4490739  35.4552908  70.8545261
 135.5440233  39.7839299  65.3187645 136.3815455  40.1936307  65.1021353
 135.7218501  38.8438741  65.2887839 135.5666404  37.1230014  65.9898379
 135.3690804  36.5299375  65.2649446 135.0113068  36.8182224  66.7074318
 132.1266235  38.8080209  68.1566124 132.8137275  38.4941939  67.5687140
 131.9714364  39.7121574  67.8833376 136.9300957  33.6970406  72.5851148
 136.8459146  33.0896075  71.8501558 136.1083664  34.1879424  72.5860644
 131.7034211  36.8880802  70.4283591 131.7418311  36.3544393  71.2220710
 131.1974504  36.3616008  69.8094569 135.3342789  35.6144905  63.5037523
 135.6296230  34.7055583  63.4504577 134.4330825  35.5932644  63.1818525
 137.0630630  33.2959002  63.6276848 136.7343337  32.4156381  63.4451954
 137.4170001  33.2406671  64.5153237 135.5216607  38.2842800  72.6462357
 134.9770075  39.0602608  72.7782631 136.3995957  38.6313605  72.4881478
 136.3082629  37.4112697  75.5392513 135.5664365  37.5595332  76.1257144
 135.9875373  37.6720962  74.6759263 136.7539243  45.2978125  67.5702908
 137.5797263  44.9981897  67.1901552 136.4033295  44.5285748  68.0192697
 134.9547848  43.2164452  68.5291842 134.1179756  42.7886626  68.3475843
 134.9271493  43.4096895  69.4662633 134.2697344  36.2773800  68.3140774
 133.9500129  35.4239108  68.0215148 133.7230772  36.4922378  69.0698741
 134.1385604  39.8976711  70.2833895 133.4449076  39.4830664  69.7703850
 134.8858595  39.9397248  69.6867314 136.0522347  39.8294965  68.1599910
 136.0293035  39.9282652  67.2081793 136.3622983  40.6760116  68.4817076
 137.0659954  47.4290740  69.2916722 136.9314421  46.6691140  68.7254721
 136.6492016  48.1531639  68.8245511 134.5544021  34.7910370  75.5409519
 135.2002885  34.2809324  76.0296744 134.3461172  35.5279052  76.1152945
 136.7539244  22.3040248  54.2948215 137.5797264  22.0044020  53.9146858
 136.4033296  21.5347870  54.7438003 134.9547849  20.2226574  55.2537148
 134.1179757  19.7948749  55.0721150 134.9271494  20.4159018  56.1907939
 137.0659955  24.4352862  56.0162029 136.9314423  23.6753263  55.4500027
 136.6492017  25.1593762  55.5490818  37.7534663  74.3705639 141.3347972
  37.1022643  74.9559719 140.9481986  38.5479026  74.9011834 141.3943010
  44.0201387  70.8630575 142.5952809  43.2430829  70.5241734 142.1507971
  44.6992868  70.8683198 141.9207774  35.4252448  69.9595746 137.1387344
  34.5179510  69.7284999 137.3378493  35.9223480  69.1633365 137.3261325
  38.3320527  78.6693253 140.0584030  37.6582225  78.9724950 140.6668988
  38.7186349  79.4722333 139.7089487  36.3016769  71.6017084 138.9999412
  35.8636199  70.8852943 138.5405050  37.0427210  71.8293199 138.4384504
  36.5311742  78.8372925 142.2731109  36.7063497  78.3660968 143.0876732
  35.8444530  79.4638691 142.5012370  40.4227997  70.4601466 138.5931470
  39.8057167  69.7348294 138.4964523  39.9544485  71.2210826 138.2498544
  41.2465682  73.7840638 142.7124110  41.5225526  73.6697232 143.6217984
  40.3770181  73.3858123 142.6736283  38.2161911  76.9595174 143.6171972
  38.7449678  76.4487628 143.0042134  38.4790131  76.6437704 144.4817505
  41.3102095  76.9311972 144.2326955  41.4838972  76.3658394 143.4800807
  41.8030986  77.7312867 144.0506445  42.2977267  76.2478736 141.3323853
  42.9928172  76.8685429 141.5511168  42.6400418  75.3974087 141.6076231
  44.1968690  73.6978442 142.8611184  44.7220015  74.0365715 142.1360504
  44.1091043  72.7625457 142.6774318  36.3892136  76.3540488 140.2398947
  35.8166103  76.9730675 139.7869419  36.9624929  76.9039850 140.7738869
  39.6089396  76.6377638 141.3707529  40.5420069  76.5723200 141.5740404
  39.5212608  77.4733905 140.9122062  42.2377412  75.9543508 138.3311477
  42.1591044  75.6203372 139.2247234  43.0587079  76.4465276 138.3302949
  36.7738934  67.6901301 137.5814999  37.7198039  67.5607509 137.6503417
  36.3953179  66.9515963 138.0584427  39.8081364  73.2711504 137.9521455
  40.5117214  73.4761506 138.5679110  39.0844013  73.8388266 138.2170538
  41.7168061  73.7094033 140.0019915  42.5513665  73.2775231 139.8197390
  41.5552404  73.5376047 140.9296809  41.3713954  70.2126146 141.3676254
  41.3162757  70.0470418 140.4264698  40.7460009  70.9202179 141.5238444
  50.3452337  84.2263684 150.0975092  50.9830747  84.1070431 149.3938432
  50.2273179  85.1744528 150.1563044  47.1542043  84.1791112 150.0336616
  46.8160554  84.0632177 149.1457151  48.0231811  83.7782277 150.0137622
  43.0128859  86.0326589 146.0233507  42.4493724  85.9416526 145.2549795
  42.8981254  85.2126493 146.5036000  48.5928417  89.6997556 141.3347972
  47.9416397  90.2851637 140.9481986  49.3872780  90.2303751 141.3943010
  42.5184044  86.7886693 141.7335107  43.2914920  86.2415681 141.5947982
  42.8709443  87.6530943 141.9449568  45.2825294  85.4939924 151.5303366
  45.8788866  85.2695947 150.8160328  45.3400265  84.7524670 152.1328813
  44.8550322  82.9479360 139.3653556  45.1075843  82.4260881 138.6037019
  43.9174881  82.7845505 139.4680240  49.8993605  81.9515138 147.1728300
  50.6856694  81.5334561 146.8218717  50.1632309  82.8561230 147.3409948
  50.0703682  87.3887988 141.8716957  49.4349515  87.4622615 142.5837861
  49.7401089  87.9781587 141.1936036  55.3002032  81.8890371 148.0761278
  56.0327204  81.3189588 148.3099108  54.5441388  81.5011972 148.5167784
  44.5746611  84.8507466 141.5677931  44.4582869  84.1752369 142.2359016
  44.6848871  84.3639839 140.7510084  46.9178152  84.3117613 145.2724621
  46.5536359  83.7848234 145.9837542  47.7745268  83.9216082 145.0991106
  46.5583639  79.3407512 140.2685969  46.7258041  80.2087749 140.6356440
  46.3680808  79.5034794 139.3447258  42.7671454  84.2538288 147.9688504
  41.8421950  84.1214502 148.1766196  43.0155867  85.0332507 148.4658446
  52.7156116  80.3207031 149.6149237  51.8072993  80.2522440 149.3207998
  52.6643712  80.7978976 150.4431062  46.5372860  81.7965170 141.2532636
  46.4172485  82.2422221 142.0918116  45.8425448  82.1450488 140.6946174
  44.2979752  94.5668812 144.9022767  44.2203782  95.5176637 144.9811248
  43.6941395  94.2214684 145.5597694  54.5817762  78.5223470 151.3927111
  53.9392142  78.8156003 150.7466905  54.0772691  78.4076390 152.1980307
  52.2357926  82.2686643 142.0812970  53.1475782  82.5014030 141.9060668
  51.7267573  82.8523687 141.5188049  46.3955470  86.9886870 146.7376637
  46.8593816  87.2674573 145.9481259  46.1312268  86.0870314 146.5549727
  43.2879551  86.5358351 149.6756400  43.8580908  86.9645619 149.0373884
  43.8787663  86.2540936 150.3740586  45.3324356  83.1110022 143.5466202
  46.0348399  83.5631066 144.0140128  45.0004985  82.4693841 144.1746095
  41.0264435  81.7338154 145.8066812  40.2295599  81.8456848 146.3250308
  40.7990028  82.0724806 144.9407703  46.5718121  89.9250965 143.6228307
  46.4363796  90.7702500 144.0513155  47.1127933  90.1270242 142.8594241
  40.0247518  87.4426403 144.1956232  40.5372039  88.2369653 144.3461797
  40.6770231  86.7452693 144.1289834  37.9896435  85.7715057 144.9715803
  38.8271657  86.1812065 144.7549510  38.1674703  84.8314499 144.9415996
  49.8860867  83.4390138 140.6599636  49.3707490  84.2094742 140.8988023
  49.6138176  82.7655274 141.2832697  47.4707978  78.2839838 145.7184874
  46.6149574  77.8946689 145.5390513  47.8834930  78.3631799 144.8584659
  54.8595141  86.1922492 142.5952809  54.0824584  85.8533652 142.1507971
  55.5386622  86.1975115 141.9207774  49.6747170  81.3117230 142.4859417
  49.3697306  81.6263379 143.3369560  50.6277612  81.3898650 142.5286750
  48.1193602  87.4707453 144.1352371  47.5914964  86.7360213 143.8225608
  47.6181105  88.2482129 143.8892339  42.8512330  78.1327119 146.4958982
  43.4256082  77.9102301 145.7632175  43.4383312  78.2015814 147.2487584
  51.9091907  84.0200846 147.3023359  52.4223789  84.6530838 147.8045068
  52.5593131  83.4202042 146.9366719  43.1781917  80.1631580 140.5154867
  42.3419229  80.5006267 140.8364142  43.0386686  80.0280560 139.5782004
  45.1534997  75.0068368 145.2234052  44.4999410  74.6917385 144.5990666
  45.1115472  74.3844109 145.9493875  46.2646202  85.2887663 137.1387344
  45.3573264  85.0576917 137.3378493  46.7617234  84.4925282 137.3261325
  49.1714281  93.9985170 140.0584030  48.4975980  94.3016867 140.6668988
  49.5580103  94.8014251 139.7089487  48.3872738  81.4950302 149.5481699
  47.4695299  81.7165249 149.3903387  48.8032881  81.5696612 148.6893407
  49.1707786  82.8941717 144.6784380  49.9179604  83.4063115 144.3691502
  49.4399375  82.5725770 145.5388773  47.4434436  85.3900258 141.6611334
  46.5345655  85.1059291 141.7583804  47.4729520  85.8099337 140.8014641
  52.6753703  89.0006848 145.4302501  52.2216030  88.1597757 145.4867692
  52.0447670  89.6368246 145.7677282  51.6186623  79.9298834 146.6603169
  50.8809379  79.4176220 146.9913411  51.8713396  79.4899215 145.8486446
  51.1186642  90.8383344 146.3652320  51.4109617  91.3988401 145.6464685
  51.6285263  91.1311905 147.1205479  51.7198250  72.7075086 147.2544938
  52.0257127  71.8472449 146.9670853  52.4450855  73.2992706 147.0543932
  38.0122606  83.1105772 145.6426536  37.8147006  82.5175133 144.9177603
  37.4569270  82.8057982 146.3602475  45.9919330  83.0028879 147.7621129
  46.0467940  82.0502715 147.6863606  45.1810532  83.1588318 148.2462428
  47.1410524  86.9309002 138.9999412  46.7029953  86.2144861 138.5405050
  47.8820964  87.1585117 138.4384504  43.9311690  81.6205938 145.5211508
  43.1179555  81.9200109 145.9276700  44.4270684  81.2261627 146.2385990
  46.0820268  91.6163695 147.4545773  46.0396446  91.8424542 146.5254305
  46.9982966  91.3827070 147.6031574  55.2583638  85.2066199 145.0575731
  55.1201537  85.3967795 144.1296920  54.9019857  85.9685582 145.5143782
  44.1986068  88.4926724 147.2507735  44.9926667  87.9977045 147.0490310
  43.4877761  87.9644588 146.8875441  40.5068832  82.6369806 143.3267488
  39.5766420  82.5754262 143.5437450  40.6026304  82.1145759 142.5304129
  40.4254381  79.1624619 145.9145730  40.6861198  80.0769952 145.8054890
  41.2471553  78.6949062 146.0642343  47.3705496  94.1664843 142.2731109
  47.5457252  93.6952886 143.0876732  46.6838284  94.7930609 142.5012370
  48.3262559  88.4437349 148.3194410  47.9912392  88.4038119 149.2152060
  47.8266505  87.7782065 147.8464821  51.2621751  85.7893383 138.5931470
  50.6450922  85.0640212 138.4964523  50.7938240  86.5502744 138.2498544
  43.0520297  80.0078808 137.7152774  42.1749763  79.8867609 137.3515021
  43.5278050  79.2164886 137.4631663  46.2384223  92.3605098 144.9615295
  45.4551745  92.9026778 145.0553519  46.9376968  92.8779078 145.3609536
  49.5480873  78.1699728 147.6049500  50.0449573  77.4169690 147.2850570
  48.7767855  78.2064044 147.0392709  50.6310654  86.9271415 145.1787924
  49.6966933  87.0472877 145.0092628  50.8087322  86.0243882 144.9147933
  46.1315842  80.3117111 147.3321185  45.7613629  79.7588151 148.0202090
  46.6274934  79.7075244 146.7796185  54.0183205  82.7688734 145.7137958
  54.4843657  83.6016726 145.6398260  54.4690706  82.3033716 146.4183216
  52.0859436  89.1132555 142.7124110  52.3619280  88.9989150 143.6217984
  51.2163935  88.7150040 142.6736283  48.7213500  93.3618906 146.3556923
  48.9035895  92.5440562 146.8184676  49.5446486  93.5786598 145.9181813
  49.0555666  92.2887091 143.6171972  49.5843432  91.7779546 143.0042134
  49.3183885  91.9729622 144.4817505  37.7798991  81.6020663 143.1565680
  38.0752432  80.6931341 143.1032734  36.8787027  81.5808402 142.8346682
  39.5086832  79.2834761 143.2805005  39.1799539  78.4032140 143.0980111
  39.8626203  79.2282429 144.1681394  48.7566411  90.9189663 147.7899991
  48.6091374  89.9906371 147.9707561  49.5819905  90.9409754 147.3057066
  42.6228656  79.5707730 143.6480483  42.9624728  80.0993652 142.9259091
  43.0700776  79.9088137 144.4239049  44.6096803  78.0682352 141.8473776
  45.3305165  78.4463605 141.3437492  43.9862107  78.7871229 141.9508753
  48.7527926  78.7727501 142.7832108  48.9691540  79.6552139 142.4820936
  48.2721993  78.3813714 142.0537750  52.1495849  92.2603890 144.2326955
  52.3232727  91.6950312 143.4800807  52.6424741  93.0604784 144.0506445
  44.7560426  77.6030142 144.6771312  44.8776337  76.6746789 144.8762200
  44.4662468  77.6168828 143.7649628  58.0035241  85.0240312 145.8517255
  58.4466387  84.2747638 145.4536378  57.1261751  85.0150449 145.4690987
  53.1371022  91.5770654 141.3323853  53.8321926  92.1977347 141.5511168
  53.4794172  90.7266005 141.6076231  55.0362445  89.0270359 142.8611184
  55.5613769  89.3657632 142.1360504  54.9484798  88.0917375 142.6774318
  43.7290485  89.1884275 142.7687199  43.8778605  89.8719740 142.1153872
  44.5356928  89.1689365 143.2836655  41.4843118  85.2149453 143.7748268
  41.2389160  84.3111783 143.9728478  41.6539032  85.2166603 142.8327746
  40.7538765  80.9477810 141.2734430  40.0608010  81.0222165 140.6174466
  40.5090517  80.1838154 141.7955947  47.2285890  91.6832406 140.2398947
  46.6559857  92.3022593 139.7869419  47.8018684  92.2331767 140.7738869
  50.4483150  91.9669556 141.3707529  51.3813823  91.9015117 141.5740404
  50.3606363  92.8025823 140.9122062  53.0771167  91.2835426 138.3311477
  52.9984798  90.9495290 139.2247234  53.8980834  91.7757194 138.3302949
  47.6132689  83.0193218 137.5814999  48.5591794  82.8899426 137.6503417
  47.2346934  82.2807880 138.0584427  53.5854573  74.6849224 147.5441891
  53.3879394  74.3764313 148.4285223  54.1954279  75.4110863 147.6739821
  45.7975606  80.9443195 137.5169884  44.8907061  80.6476307 137.5932598
  46.0751587  80.6473013 136.6504171  47.4137672  75.4880084 143.6714126
  46.6038400  75.1427169 144.0469372  48.1022089  75.1787628 144.2601737
  49.3428220  74.5658131 145.2938422  49.8959259  74.9853585 145.9528445
  49.5798306  73.6393879 145.3361378  44.5674391  77.8030130 137.6581864
  45.4293555  78.1285028 137.9177681  44.7524735  77.0161626 137.1454929
  52.7207027  76.6758656 144.8017087  52.1405696  77.3343460 144.4195139
  52.4542960  75.8536001 144.3904504  51.1710593  76.0763714 147.0038407
  51.6710372  76.1880249 146.1952726  51.8146201  75.7724767 147.6439215
  51.5031905  78.8358747 143.8573435  50.6157760  79.1208397 143.6393630
  51.9185894  78.6752510 143.0100712  54.8546441  78.8605268 147.5727774
  55.6306831  79.3501720 147.8452391  54.1294575  79.2863322 148.0299644
  57.2919000  79.5732887 148.6301715  57.8863491  79.3328623 147.9195023
  57.3645584  78.8540018 149.2575251  50.6475119  88.6003421 137.9521455
  51.3510969  88.8053424 138.5679110  49.9237767  89.1680183 138.2170538
  51.4772929  84.3513283 144.0723725  51.4208130  84.8081834 143.2331357
  52.0301271  83.5903967 143.8946568  55.2877735  80.1403015 144.8973845
  55.0314669  79.7399650 145.7282052  54.6630603  80.8546809 144.7723984
  59.5990073  82.8799088 147.4045136  59.0389631  82.9492277 148.1776698
  58.9933576  82.7040072 146.6844632  52.5561816  89.0385951 140.0019915
  53.3907420  88.6067149 139.8197390  52.3946159  88.8667964 140.9296809
  52.2107708  85.5418064 141.3676254  52.1556512  85.3762335 140.4264698
  51.5853763  86.2494097 141.5238444  45.5203834  75.0426173 140.9461573
  45.5082503  75.9868013 141.1029843  46.4127255  74.8596318 140.6521034
  49.3355953  71.6368950 145.2007509  48.5688349  71.0827436 145.3464192
  49.7466658  71.7090818 146.0621661  55.6944077  98.2771277 139.3653556
  55.9469597  97.7552799 138.6037019  54.7568636  98.1137423 139.4680240
  57.3977393  94.6699430 140.2685969  57.5651796  95.5379666 140.6356440
  57.2074562  94.8326712 139.3447258  54.0175671  95.4923498 140.5154867
  53.1812984  95.8298184 140.8364142  53.8780441  95.3572478 139.5782004
  55.9928752  90.3360286 145.2234052  55.3393164  90.0209303 144.5990666
  55.9509226  89.7136026 145.9493875  57.1039957 100.6179581 137.1387344
  56.1967018 100.3868834 137.3378493  57.6010989  99.8217200 137.3261325
  51.3462586  97.9661724 143.3267488  50.4160174  97.9046179 143.5437450
  51.4420058  97.4437677 142.5304129  53.8914052  95.3370725 137.7152774
  53.0143518  95.2159526 137.3515021  54.3671805  94.5456804 137.4631663
  48.6192745  96.9312581 143.1565680  48.9146186  96.0223259 143.1032734
  47.7180781  96.9100320 142.8346682  50.3480587  94.6126678 143.2805005
  50.0193293  93.7324057 143.0980111  50.7019958  94.5574347 144.1681394
  55.4490557  93.3974270 141.8473776  56.1698920  93.7755522 141.3437492
  54.8255861  94.1163147 141.9508753  55.5954180  92.9322060 144.6771312
  55.7170092  92.0038706 144.8762200  55.3056223  92.9460746 143.7649628
  51.5932520  96.2769728 141.2734430  50.9001765  96.3514083 140.6174466
  51.3484272  95.5130072 141.7955947  58.4526443  98.3485136 137.5814999
  59.3985548  98.2191344 137.6503417  58.0740688  97.6099798 138.0584427
  56.6369360  96.2735112 137.5169884  55.7300816  95.9768225 137.5932598
  56.9145341  95.9764931 136.6504171  58.2531426  90.8172002 143.6714126
  57.4432155  90.4719087 144.0469372  58.9415843  90.5079546 144.2601737
  55.4068145  93.1322048 137.6581864  56.2687309  93.4576946 137.9177681
  55.5918489  92.3453544 137.1454929  56.3597588  90.3718091 140.9461573
  56.3476258  91.3159931 141.1029843  57.2521010  90.1888236 140.6521034
  60.1749708  86.9660867 145.2007509  59.4082103  86.4119354 145.3464192
  60.5860413  87.0382736 146.0621661  37.7534664  51.3767761 128.0593279
  37.1022644  51.9621842 127.6727293  38.5479027  51.9073956 128.1188316
  44.0201388  47.8692697 129.3198116  43.2430831  47.5303857 128.8753278
  44.6992869  47.8745320 128.6453081  35.4252449  46.9657868 123.8632650
  34.5179511  46.7347122 124.0623799  35.9223481  46.1695487 124.0506632
  38.3320528  55.6755375 126.7829337  37.6582227  55.9787072 127.3914294
  38.7186350  56.4784456 126.4334794  36.3016770  48.6079207 125.7244719
  35.8636200  47.8915066 125.2650356  37.0427211  48.8355322 125.1629810
  36.5311743  55.8435048 128.9976416  36.7063499  55.3723091 129.8122038
  35.8444531  56.4700814 129.2257676  40.4227998  47.4663588 125.3176777
  39.8057169  46.7410417 125.2209829  39.9544486  48.2272949 124.9743851
  41.2465683  50.7902760 129.4369416  41.5225527  50.6759355 130.3463290
  40.3770182  50.3920245 129.3981589  38.2161913  53.9657296 130.3417278
  38.7449679  53.4549751 129.7287441  38.4790132  53.6499826 131.2062811
  41.3102096  53.9374094 130.9572261  41.4838974  53.3720517 130.2046114
  41.8030987  54.7374989 130.7751751  42.2977269  53.2540859 128.0569160
  42.9928173  53.8747552 128.2756474  42.6400419  52.4036210 128.3321538
  44.1968692  50.7040564 129.5856490  44.7220016  51.0427837 128.8605811
  44.1091044  49.7687580 129.4019625  36.3892137  53.3602611 126.9644253
  35.8166104  53.9792798 126.5114725  36.9624931  53.9101972 127.4984175
  39.6089397  53.6439761 128.0952836  40.5420070  53.5785322 128.2985711
  39.5212610  54.4796028 127.6367368  42.2377414  52.9605631 125.0556783
  42.1591045  52.6265495 125.9492541  43.0587080  53.4527399 125.0548256
  36.7738936  44.6963423 124.3060306  37.7198040  44.5669631 124.3748724
  36.3953181  43.9578085 124.7829734  39.8081365  50.2773626 124.6766761
  40.5117215  50.4823629 125.2924417  39.0844014  50.8450388 124.9415845
  41.7168063  50.7156156 126.7265222  42.5513667  50.2837354 126.5442696
  41.5552406  50.5438169 127.6542116  41.3713955  47.2188269 128.0921561
  41.3162759  47.0532540 127.1510005  40.7460010  47.9264302 128.2483751
  50.3452338  61.2325807 136.8220398  50.9830748  61.1132554 136.1183738
  50.2273181  62.1806651 136.8808350  47.1542044  61.1853235 136.7581923
  46.8160556  61.0694300 135.8702458  48.0231812  60.7844400 136.7382929
  43.0128860  63.0388711 132.7478814  42.4493725  62.9478648 131.9795102
  42.8981255  62.2188616 133.2281306  40.5593292  64.5339903 135.5863034
  41.3514584  64.1930727 135.1709334  40.7989942  64.6434878 136.5065188
  48.5928419  66.7059679 128.0593279  47.9416398  67.2913759 127.6727293
  49.3872781  67.2365874 128.1188316  42.5184046  63.7948816 128.4580413
  43.2914922  63.2477803 128.3193289  42.8709445  64.6593065 128.6694875
  45.2825295  62.5002047 138.2548672  45.8788867  62.2758069 137.5405635
  45.3400267  61.7586792 138.8574120  44.8550323  59.9541482 126.0898863
  45.1075844  59.4323003 125.3282326  43.9174883  59.7907628 126.1925547
  49.8993606  58.9577261 133.8973606  50.6856696  58.5396684 133.5464023
  50.1632311  59.8623353 134.0655255  50.0703684  64.3950111 128.5962263
  49.4349517  64.4684737 129.3083168  49.7401090  64.9843710 127.9181342
  55.3002033  58.8952494 134.8006585  56.0327205  58.3251711 135.0344414
  54.5441389  58.5074094 135.2413090  44.5746612  61.8569588 128.2923238
  44.4582870  61.1814492 128.9604322  44.6848872  61.3701962 127.4755391
  46.9178153  61.3179735 131.9969927  46.5536360  60.7910356 132.7082849
  47.7745269  60.9278204 131.8236413  46.5583640  56.3469635 126.9931276
  46.7258042  57.2149871 127.3601747  46.3680809  56.5096917 126.0692565
  49.3158973  64.8086614 138.6597106  49.0159696  65.7111653 138.5512913
  48.9710033  64.5418797 139.5118259  42.7671455  61.2600411 134.6933811
  41.8421951  61.1276625 134.9011502  43.0155868  62.0394630 135.1903753
  52.7156117  57.3269154 136.3394543  51.8072994  57.2584562 136.0453304
  52.6643713  57.8041099 137.1676369  46.5372861  58.8027292 127.9777943
  46.4172486  59.2484343 128.8163423  45.8425449  59.1512610 127.4191481
  40.1280266  60.9033684 135.5277600  40.2572647  61.1568163 136.4417011
  39.4477717  61.4961392 135.2082255  44.2979753  71.5730934 131.6268074
  44.2203783  72.5238759 131.7056554  43.6941397  71.2276807 132.2843000
  54.5817764  55.5285592 138.1172417  53.9392144  55.8218126 137.4712212
  54.0772692  55.4138513 138.9225614  52.2357927  59.2748766 128.8058277
  53.1475783  59.5076152 128.6305974  51.7267574  59.8585810 128.2433355
  50.8427509  64.2574584 136.1971858  50.2136372  64.4220298 135.4947926
  50.4553172  64.6716194 136.9682822  54.7216741  65.1929022 133.5516222
  54.0367780  65.5727923 133.0013255  54.8060591  65.8024349 134.2848170
  51.9767673  62.8388981 140.1511565  52.1884568  63.4820741 139.4745947
  51.9297421  62.0051298 139.6833496  46.3955471  63.9948992 133.4621943
  46.8593817  64.2736695 132.6726566  46.1312269  63.0932437 133.2795034
  43.2879552  63.5420474 136.4001706  43.8580909  63.9707742 135.7619191
  43.8787664  63.2603058 137.0985892  45.3324357  60.1172145 130.2711508
  46.0348401  60.5693188 130.7385435  45.0004986  59.4755963 130.8991401
  53.0913501  65.7160936 138.3233923  53.9130945  65.3141124 138.0416604
  53.0875904  65.6129171 139.2750039  41.0264437  58.7400276 132.5312119
  40.2295600  58.8518971 133.0495614  40.7990029  59.0786929 131.6653009
  46.8570104  65.2644980 140.4794633  46.9214537  65.7265387 141.3152805
  46.1481028  64.6342345 140.6076943  61.1819494  62.0599685 134.6718894
  60.4283202  61.4907083 134.5162899  61.3167035  62.0262349 135.6189529
  46.5718122  66.9313087 130.3473614  46.4363797  67.7764623 130.7758461
  47.1127935  67.1332365 129.5839547  40.0247519  64.4488525 130.9201539
  40.5372040  65.2431775 131.0707103  40.6770232  63.7514816 130.8535140
  41.8342404  67.5654281 133.0024292  42.0109032  68.4872246 132.8145276
  42.6299238  67.2512701 133.4318672  42.9573720  69.0832455 139.0034634
  43.5081145  68.9549519 138.2311628  42.1185195  69.3827344 138.6529527
  50.2967836  67.8339454 142.5055357  50.2786312  68.6548335 142.0135626
  51.2187757  67.7093529 142.7305498  37.9896436  62.7777180 131.6961109
  38.8271658  63.1874188 131.4794817  38.1674704  61.8376622 131.6661303
  49.8860868  60.4452260 127.3844942  49.3707492  61.2156865 127.6233330
  49.6138177  59.7717396 128.0078004  47.4707979  55.2901961 132.4430181
  46.6149576  54.9008811 132.2635819  47.8834931  55.3693922 131.5829966
  54.8595142  63.1984615 129.3198116  54.0824585  62.8595774 128.8753278
  55.5386623  63.2037238 128.6453081  49.6747171  58.3179352 129.2104723
  49.3697307  58.6325501 130.0614867  50.6277614  58.3960772 129.2532056
  48.1193603  64.4769576 130.8597677  47.5914965  63.7422335 130.5470915
  47.6181106  65.2544252 130.6137646  53.0986449  62.6718596 135.9764724
  52.4410124  63.3617857 136.0644852  53.9026849  63.0615028 136.3198710
  42.8512331  55.1389242 133.2204289  43.4256083  54.9164423 132.4877482
  43.4383313  55.2077936 133.9732890  51.9091908  61.0262969 134.0268665
  52.4223790  61.6592961 134.5290375  52.5593132  60.4264164 133.6612025
  43.1781918  57.1693703 127.2400174  42.3419230  57.5068389 127.5609449
  43.0386688  57.0342683 126.3027311  45.1534999  52.0130491 131.9479358
  44.4999411  51.6979508 131.3235973  45.1115473  51.3906231 132.6739181
  46.2646204  62.2949786 123.8632650  45.3573265  62.0639039 124.0623799
  46.7617235  61.4987405 124.0506632  49.1714282  71.0047293 126.7829337
  48.4975981  71.3078990 127.3914294  49.5580104  71.8076373 126.4334794
  48.3872739  58.5012424 136.2727006  47.4695300  58.7227371 136.1148694
  48.8032883  58.5758735 135.4138713  49.1707787  59.9003840 131.4029686
  49.9179606  60.4125237 131.0936808  49.4399376  59.5787893 132.2634080
  47.4434437  62.3962381 128.3856640  46.5345656  62.1121414 128.4829110
  47.4729521  62.8161459 127.5259947  52.6753704  66.0068970 132.1547808
  52.2216031  65.1659880 132.2112998  52.0447671  66.6430369 132.4922588
  51.6186624  56.9360956 133.3848475  50.8809381  56.4238342 133.7158718
  51.8713397  56.4961338 132.5731752  51.1186644  67.8445467 133.0897626
  51.4109618  68.4050524 132.3709992  51.6285264  68.1374028 133.8450785
  51.7198251  49.7137208 133.9790245  52.0257128  48.8534572 133.6916160
  52.4450856  50.3054828 133.7789239  38.0122607  60.1167895 132.3671843
  37.8147007  59.5237256 131.6422909  37.4569271  59.8120105 133.0847781
  45.9919331  60.0091001 134.4866436  46.0467941  59.0564838 134.4108912
  45.1810533  60.1650440 134.9707734  47.1410525  63.9371124 125.7244719
  46.7029955  63.2206983 125.2650356  47.8820966  64.1647239 125.1629810
  43.9311691  58.6268061 132.2456815  43.1179556  58.9262232 132.6522007
  44.4270685  58.2323750 132.9631297  46.0820269  68.6225818 134.1791079
  46.0396448  68.8486664 133.2499611  46.9982968  68.3889193 134.3276881
  55.2583640  62.2128321 131.7821038  55.1201538  62.4029917 130.8542227
  54.9019858  62.9747704 132.2389089  55.2853019  64.2804848 136.7932309
  55.7189526  64.1880138 137.6415363  55.9984600  64.2562349 136.1552325
  44.1986070  65.4988847 133.9753042  44.9926668  65.0039167 133.7735617
  43.4877762  64.9706710 133.6120748  49.0180914  67.8806943 138.3265410
  49.0717936  68.4497879 139.0943126  48.1495695  68.0508828 137.9619447
  40.5068833  59.6431929 130.0512795  39.5766421  59.5816384 130.2682757
  40.6026305  59.1207881 129.2549436  40.4254382  56.1686742 132.6391036
  40.6861199  57.0832075 132.5300197  41.2471554  55.7011184 132.7887649
  56.1468569  64.3228549 139.3265195  56.3404459  65.2274360 139.5724469
  56.0469187  63.8635968 140.1603780  47.9769014  62.0467205 139.8852342
  48.9061074  62.1978364 139.7121309  47.5560044  62.1351225 139.0300988
  46.7757346  66.0717869 137.6550879  46.6368431  65.7036653 138.5276817
  45.9871942  66.5865508 137.4834837  47.3705498  71.1726965 128.9976416
  47.5457253  70.7015009 129.8122038  46.6838286  71.7992732 129.2257676
  48.3262561  65.4499472 135.0439717  47.9912393  65.4100242 135.9397367
  47.8266506  64.7844188 134.5710127  51.2621752  62.7955506 125.3176777
  50.6450923  62.0702334 125.2209829  50.7938241  63.5564866 124.9743851
  52.9175884  67.5054414 142.9782557  52.8588430  66.8213635 142.3113140
  53.3195402  68.2473404 142.5263183  41.9366583  74.3216328 135.7716276
  42.1763181  74.9534852 136.4495294  41.0935779  73.9704368 136.0581635
  43.0520298  57.0140930 124.4398081  42.1749765  56.8929731 124.0760328
  43.5278051  56.2227009 124.1876970  52.9193291  65.4693998 141.2096537
  52.0320070  65.1319920 141.3322936  53.4891842  64.7377030 141.4465302
  34.5722438  61.8018090 134.5339588  35.2593478  61.4879820 133.9460603
  34.4170567  62.7059455 134.2606839  46.4494445  70.1295451 138.1757780
  46.3764616  70.9350422 138.6877084  46.0071838  70.3287416 137.3505801
  46.2384224  69.3667221 131.6860601  45.4551746  69.9088901 131.7798826
  46.9376969  69.8841200 132.0854843  49.5480874  55.1761850 134.3294807
  50.0449574  54.4231812 134.0095877  48.7767856  55.2126167 133.7638016
  57.4010632  60.8802216 135.9713098  57.3900508  61.7626931 135.6007031
  56.5328011  60.5273767 135.7767635  48.9093128  70.0282285 140.3315939
  49.6221100  70.6629750 140.2591840  48.4183157  70.1246151 139.5155940
  50.6310655  63.9333537 131.9033230  49.6966934  64.0535000 131.7337935
  50.8087324  63.0306004 131.6393240  46.1315843  57.3179233 134.0566491
  45.7613631  56.7650274 134.7447397  46.6274936  56.7137367 133.5041491
  54.0183206  59.7750857 132.4383264  54.4843659  60.6078848 132.3643567
  54.4690707  59.3095838 133.1428523  43.9605042  67.7776728 141.1521509
  44.6614501  68.4113211 141.3050904  43.4900157  68.1191460 140.3917149
  52.0859438  66.1194678 129.4369416  52.3619281  66.0051273 130.3463290
  51.2163936  65.7212163 129.3981589  51.7606328  60.3321336 138.9774060
  51.1077778  60.5797243 138.3226512  52.1386708  59.5185474 138.6436537
  48.7213502  70.3681029 133.0802230  48.9035896  69.5502685 133.5429982
  49.5446488  70.5848721 132.6427120  49.0555667  69.2949214 130.3417278
  49.5843434  68.7841668 129.7287441  49.3183887  68.9791744 131.2062811
  39.5572760  67.3113083 138.0852612  40.1426197  66.5656771 138.2180516
  39.3597598  67.6217040 138.9689276  42.4111415  70.3464331 133.1015054
  41.7421790  70.8310458 132.6179094  42.2724285  70.5933551 134.0158433
  46.5516684  72.3808074 139.6997713  47.1034992  72.5439696 140.4646798
  46.8922877  72.9712512 139.0277738  37.7798992  58.6082786 129.8810987
  38.0752433  57.6993464 129.8278040  36.8787028  58.5870525 129.5591989
  49.6885071  70.3290050 136.6861395  49.5636210  69.5279789 136.1772340
  50.3464162  70.8236243 136.1975365  51.7519979  68.1299070 138.3140945
  50.8050315  68.0104421 138.2419272  52.1002752  67.2421568 138.3967206
  39.5086834  56.2896883 130.0050312  39.1799540  55.4094262 129.8225418
  39.8626204  56.2344552 130.8926701  48.7566413  67.9251786 134.5145297
  48.6091375  66.9968493 134.6952867  49.5819906  67.9471877 134.0302372
  42.6228657  56.5769853 130.3725789  42.9624729  57.1055774 129.6504398
  43.0700777  56.9150259 131.1484356  52.3600534  68.7480345 135.6010170
  53.2847082  68.5423206 135.4634621  52.1915838  68.4996746 136.5099511
  44.6096804  55.0744475 128.5719082  45.3305167  55.4525727 128.0682799
  43.9862108  55.7933351 128.6754060  48.7527927  55.7789624 129.5077414
  48.9691541  56.6614261 129.2066243  48.2721994  55.3875837 128.7783056
  52.1495851  69.2666012 130.9572261  52.3232728  68.7012435 130.2046114
  52.6424742  70.0666907 130.7751751  44.7560427  54.6092265 131.4016619
  44.8776338  53.6808911 131.6007506  44.4662469  54.6230951 130.4894934
  58.0035242  62.0302435 132.5762561  58.4466388  61.2809760 132.1781684
  57.1261752  62.0212571 132.1936293  53.1371023  68.5832777 128.0569160
  53.8321928  69.2039469 128.2756474  53.4794173  67.7328128 128.3321538
  55.0362446  66.0332482 129.5856490  55.5613770  66.3719755 128.8605811
  54.9484799  65.0979497 129.4019625  46.6982495  69.9466556 141.7146367
  47.0069621  69.7015702 142.5869067  47.4957977  70.1513194 141.2265237
  46.7203107  72.1004465 133.9451744  46.2808097  71.6080844 134.6384600
  47.4711224  71.5577433 133.7043819  39.1995446  68.2916006 133.9476372
  40.0253466  67.9919778 133.5675015  38.8489498  67.5223629 134.3966160
  44.1676979  67.6442474 136.0174045  43.5456988  66.9813179 135.7176273
  44.8381846  67.6703606 135.3347693  37.4004051  66.2102333 134.9065305
  36.5635959  65.7824507 134.7249307  37.3727696  66.4034776 135.8436097
  54.7256352  66.6665386 144.8907688  53.9351896  66.6489525 144.3512188
  54.4889707  67.2053679 145.6456725  54.8454227  63.5157852 142.2040417
  54.8952232  63.3507860 143.1455940  54.7368151  62.6485111 141.8138298
  43.7290486  66.1946398 129.4932506  43.8778606  66.8781862 128.8399179
  44.5356930  66.1751488 130.0081962  56.3472424  65.9354794 142.4482439
  56.0557232  66.2984774 143.2845899  55.7344555  65.2221802 142.2695771
  57.5468106  63.5007673 134.9685009  58.3814998  63.9397477 135.1322569
  57.6827235  63.0246327 134.1493255  54.5959612  61.0587408 140.9162497
  55.0713734  61.2515055 140.1081348  53.6725178  61.1146594 140.6705880
  41.4843119  62.2211575 130.4993575  41.2389161  61.3173905 130.6973785
  41.6539034  62.2228726 129.5573053  40.7538767  57.9539933 127.9979736
  40.0608012  58.0284288 127.3419772  40.5090518  57.1900277 128.5201253
  47.2285892  68.6894528 126.9644253  46.6559859  69.3084715 126.5114725
  47.8018685  69.2393890 127.4984175  53.2961281  57.9353168 139.1490802
  54.2478704  58.0351266 139.1703026  53.1264732  57.1431437 139.6588886
  50.4483151  68.9731678 128.0952836  51.3813825  68.9077240 128.2985711
  50.3606364  69.8087945 127.6367368  53.0771168  68.2897549 125.0556783
  52.9984800  67.9557412 125.9492541  53.8980835  68.7819317 125.0548256
  55.7749359  61.1559288 138.2633102  55.7425679  60.2175289 138.4492786
  56.3849983  61.2343325 137.5298927  47.6132690  60.0255341 124.3060306
  48.5591795  59.8961549 124.3748724  47.2346935  59.2870003 124.7829734
  55.9243848  57.9470331 138.3091385  55.4082896  57.1628788 138.1221314
  56.8083796  57.6189048 138.4737904  53.5854575  51.6911347 134.2687198
  53.3879396  51.3826435 135.1530530  54.1954280  52.4172986 134.3985127
  61.5925909  62.2175295 137.4039139  62.3229298  61.9560583 137.9646842
  60.9832855  61.4804017 137.4441207  59.6741206  60.3583157 138.0013590
  58.9474370  60.2239122 137.3930081  59.2588493  60.6659986 138.8070308
  45.7975607  57.9505317 124.2415191  44.8907063  57.6538430 124.3177905
  46.0751588  57.6535135 123.3749477  47.4137673  52.4942207 130.3959432
  46.6038401  52.1489292 130.7714678  48.1022090  52.1849751 130.9847044
  49.3428221  51.5720254 132.0183729  49.8959260  51.9915707 132.6773752
  49.5798308  50.6456002 132.0606685  44.5674392  54.8092253 124.3827170
  45.4293556  55.1347151 124.6422988  44.7524736  54.0223748 123.8700236
  52.7207028  53.6820779 131.5262393  52.1405697  54.3405583 131.1440446
  52.4542961  52.8598124 131.1149811  51.1710595  53.0825837 133.7283714
  51.6710373  53.1942371 132.9198032  51.8146203  52.7786890 134.3684522
  38.4978550  62.8232846 134.5373374  38.4749238  62.9220533 133.5855257
  38.8079187  63.6697997 134.8590540  51.5031906  55.8420869 130.5818742
  50.6157761  56.1270520 130.3638936  51.9185895  55.6814633 129.7346018
  54.8546442  55.8667390 134.2973081  55.6306833  56.3563843 134.5697698
  54.1294577  56.2925445 134.7544950  57.2919001  56.5795010 135.3547021
  57.8863492  56.3390746 134.6440330  57.3645585  55.8602140 135.9820558
  39.5116157  70.4228621 135.6690186  39.3770625  69.6629021 135.1028184
  39.0948219  71.1469520 135.2018975  50.6475120  65.6065544 124.6766761
  51.3510970  65.8115547 125.2924417  49.9237769  66.1742306 124.9415845
  51.4772930  61.3575405 130.7969032  51.4208131  61.8143957 129.9576664
  52.0301273  60.5966090 130.6191874  55.2877736  57.1465137 131.6219151
  55.0314670  56.7461773 132.4527359  54.6630604  57.8608931 131.4969290
  59.5990074  59.8861210 134.1290443  59.0389632  59.9554400 134.9022005
  58.9933577  59.7102195 133.4089939  42.6685283  71.3197938 135.8808629
  42.5517667  72.2643370 135.7787319  41.8477729  71.0171499 136.2694428
  52.5561817  66.0448073 126.7265222  53.3907421  65.6129272 126.5442696
  52.3946160  65.8730087 127.6542116  52.2107709  62.5480187 128.0921561
  52.1556513  62.3824458 127.1510005  51.5853765  63.2556219 128.2483751
  45.5203835  52.0488296 127.6706879  45.5082505  52.9930136 127.8275150
  46.4127257  51.8658441 127.3766340  43.6939797  71.9726199 139.0964557
  44.5967044  72.0049810 139.4131052  43.4677167  71.0426650 139.1110893
  45.4493399  70.7257186 135.7574636  44.4989030  70.7259048 135.6439008
  45.7525885  69.9789921 135.2410671  49.3355954  48.6431072 131.9252816
  48.5688350  48.0889559 132.0709498  49.7466659  48.7152941 132.7866968
  61.1846092  76.5617724 136.8220398  61.8224502  76.4424472 136.1183738
  61.0666935  77.5098568 136.8808350  57.9935799  76.5145152 136.7581923
  57.6554310  76.3986217 135.8702458  58.8625567  76.1136318 136.7382929
  53.8522614  78.3680629 132.7478814  53.2887479  78.2770566 131.9795102
  53.7375009  77.5480533 133.2281306  58.4755582  77.6680004 142.7168128
  58.4644222  77.2732802 141.8448632  58.6376221  76.9346077 143.3101900
  51.3987046  79.8631821 135.5863034  52.1908338  79.5222645 135.1709334
  51.6383696  79.9726796 136.5065188  59.4322173  82.0351597 128.0593279
  58.7810153  82.6205677 127.6727293  60.2266536  82.5657792 128.1188316
  53.3577800  79.1240734 128.4580413  54.1308676  78.5769721 128.3193289
  53.7103199  79.9884983 128.6694875  55.1962843  80.4517116 141.6647312
  54.9052709  81.3562747 141.5493979  55.8319827  80.4933644 142.3791382
  56.1219050  77.8293965 138.2548672  56.7182622  77.6049987 137.5405635
  56.1794021  77.0878710 138.8574120  55.6944078  75.2833400 126.0898863
  55.9469599  74.7614921 125.3282326  54.7568637  75.1199545 126.1925547
  60.7387361  74.2869178 133.8973606  61.5250450  73.8688601 133.5464023
  61.0026065  75.1915270 134.0655255  60.9097438  79.7242029 128.5962263
  60.2743271  79.7976655 129.3083168  60.5794845  80.3135627 127.9181342
  66.1395788  74.2244411 134.8006585  66.8720960  73.6543628 135.0344414
  65.3835144  73.8366012 135.2413090  55.4140367  77.1861506 128.2923238
  55.2976625  76.5106409 128.9604322  55.5242627  76.6993880 127.4755391
  57.7571908  76.6471653 131.9969927  57.3930115  76.1202274 132.7082849
  58.6139024  76.2570122 131.8236413  63.6621208  67.9365986 139.2601193
  63.3304533  68.8061397 139.0362408  63.0666822  67.6202270 139.9395224
  57.3977395  71.6761553 126.9931276  57.5651797  72.5441789 127.3601747
  57.2074564  71.8388834 126.0692565  60.1552728  80.1378532 138.6597106
  59.8553451  81.0403570 138.5512913  59.8103787  79.8710715 139.5118259
  53.6065209  76.5892328 134.6933811  52.6815706  76.4568542 134.9011502
  53.8549622  77.3686548 135.1903753  63.5549872  72.6561072 136.3394543
  62.6466749  72.5876480 136.0453304  63.5037467  73.1333017 137.1676369
  57.3766616  74.1319210 127.9777943  57.2566241  74.5776261 128.8163423
  56.6819204  74.4804528 127.4191481  50.9674020  76.2325602 135.5277600
  51.0966401  76.4860081 136.4417011  50.2871472  76.8253310 135.2082255
  55.1373508  86.9022852 131.6268074  55.0597537  87.8530677 131.7056554
  54.5335151  86.5568724 132.2843000  57.6290737  74.0750717 144.2829441
  56.8524071  74.6344637 144.2732305  58.2681300  74.5607500 144.8044311
  65.4211518  70.8577510 138.1172417  64.7785898  71.1510043 137.4712212
  64.9166447  70.7430430 138.9225614  63.0751682  74.6040683 128.8058277
  63.9869538  74.8368070 128.6305974  62.5661329  75.1877728 128.2433355
  55.8837110  76.8836171 143.8447408  56.6251794  77.4221215 143.5682231
  55.1774095  77.5102459 144.0018960  61.3592449  79.0265311 142.4419569
  61.7675805  78.5847722 141.6974202  60.6369711  78.4517939 142.6953762
  57.7123519  73.9637918 139.8153126  58.5584715  74.3877331 139.9587775
  57.6522157  73.3071542 140.5091689  61.6821264  79.5866502 136.1971858
  61.0530126  79.7512216 135.4947926  61.2946926  80.0008111 136.9682822
  65.5610496  80.5220940 133.5516222  64.8761534  80.9019841 133.0013255
  65.6454345  81.1316266 134.2848170  60.8622965  71.6242286 141.4734300
  60.6183897  72.3784347 140.9368576  61.1382895  72.0027634 142.3081547
  62.8161427  78.1680899 140.1511565  63.0278323  78.8112659 139.4745947
  62.7691176  77.3343215 139.6833496  60.4187656  70.7798719 137.0548138
  59.5572135  71.0779973 137.3464875  60.4450091  70.9969118 136.1229170
  57.2349226  79.3240910 133.4621943  57.6987571  79.6028613 132.6726566
  56.9706024  78.4224354 133.2795034  54.1273307  78.8712391 136.4001706
  54.6974664  79.2999660 135.7619191  54.7181419  78.5894976 137.0985892
  56.1718112  75.4464062 130.2711508  56.8742155  75.8985106 130.7385435
  55.8398740  74.8047881 130.8991401  54.6198473  74.0375819 144.6462718
  53.9897134  74.7192100 144.8798115  54.5134561  73.9258900 143.7015856
  49.9143446  73.7047615 135.5728642  49.1242500  73.9605143 135.0968753
  50.4054693  74.5195953 135.6780682  63.9307255  81.0452854 138.3233923
  64.7524699  80.6433041 138.0416604  63.9269658  80.9421088 139.2750039
  51.8658191  74.0692194 132.5312119  51.0689355  74.1810888 133.0495614
  51.6383783  74.4078846 131.6653009  57.6963859  80.5936897 140.4794633
  57.7608291  81.0557305 141.3152805  56.9874783  79.9634262 140.6076943
  48.1981149  73.9578105 138.0043633  48.4489187  74.8425115 138.2701209
  48.7340697  73.7782707 137.2318725  72.0213248  77.3891603 134.6718894
  71.2676957  76.8199001 134.5162899  72.1560790  77.3554267 135.6189529
  57.4111877  82.2605005 130.3473614  57.2757551  83.1056541 130.7758461
  57.9521689  82.4624282 129.5839547  50.8641274  79.7780443 130.9201539
  51.3765794  80.5723693 131.0707103  51.5163987  79.0806733 130.8535140
  52.6736159  82.8946199 133.0024292  52.8502787  83.8164164 132.8145276
  53.4692992  82.5804618 133.4318672  56.8147177  69.7554464 144.6008225
  57.5556891  70.3561617 144.5212688  57.0465100  69.0132102 144.0426268
  51.9588515  74.9410831 142.8786455  51.8442030  74.0396088 143.1793554
  51.1033033  75.1874528 142.5271272  59.0380353  82.8828571 144.4773956
  58.5944207  82.0964950 144.1594860  59.6997566  83.0707722 143.8117846
  53.7967474  84.4124373 139.0034634  54.3474899  84.2841436 138.2311628
  52.9578950  84.7119262 138.6529527  61.1361591  83.1631371 142.5055357
  61.1180066  83.9840252 142.0135626  62.0581511  83.0385447 142.7305498
  57.5934645  80.6775501 143.3478865  58.1262982  79.9163789 143.1178173
  57.0648726  80.3849153 144.0903020  60.7604340  65.7835567 138.8772507
  60.4168609  66.6737208 138.8011618  61.1283303  65.5937224 138.0142092
  48.8290191  78.1069097 131.6961109  49.6665413  78.5166106 131.4794817
  49.0068458  77.1668539 131.6661303  60.7254623  75.7744178 127.3844942
  60.2101246  76.5448782 127.6233330  60.4531931  75.1009314 128.0078004
  58.3101734  70.6193879 132.4430181  57.4543330  70.2300729 132.2635819
  58.7228686  70.6985839 131.5829966  59.8400880  68.1540222 136.8421740
  59.3365676  68.1170357 136.0289546  60.1331487  69.0632965 136.9018397
  56.0843766  68.2378952 135.8487922  56.9496763  68.0421760 135.4893812
  56.1521275  68.0089303 136.7757279  65.6988897  78.5276532 129.3198116
  64.9218340  78.1887692 128.8753278  66.3780378  78.5329156 128.6453081
  60.5140926  73.6471270 129.2104723  60.2091062  73.9617419 130.0614867
  61.4671368  73.7252690 129.2532056  58.9587358  79.8061493 130.8597677
  58.4308719  79.0714253 130.5470915  58.4574861  80.5836170 130.6137646
  63.9380204  78.0010514 135.9764724  63.2803878  78.6909775 136.0644852
  64.7420603  78.3906946 136.3198710  53.6906085  70.4681160 133.2204289
  54.2649837  70.2456341 132.4877482  54.2777068  70.5369854 133.9732890
  62.7485663  76.3554886 134.0268665  63.2617544  76.9884878 134.5290375
  63.3986887  75.7556082 133.6612025  54.0175673  72.4985621 127.2400174
  53.1812985  72.8360307 127.5609449  53.8780442  72.3634600 126.3027311
  55.9928753  67.3422408 131.9479358  55.3393165  67.0271426 131.3235973
  55.9509227  66.7198149 132.6739181  57.1039958  77.6241704 123.8632650
  56.1967020  77.3930957 124.0623799  57.6010990  76.8279323 124.0506632
  60.0108037  86.3339211 126.7829337  59.3369736  86.6370907 127.3914294
  60.3973859  87.1368291 126.4334794  59.2266494  73.8304342 136.2727006
  58.3089055  74.0519289 136.1148694  59.6426637  73.9050652 135.4138713
  60.0101541  75.2295758 131.4029686  60.7573360  75.7417155 131.0936808
  60.2793131  74.9079810 132.2634080  58.2828191  77.7254298 128.3856640
  57.3739411  77.4413331 128.4829110  58.3123275  78.1453377 127.5259947
  63.5147459  81.3360888 132.1547808  63.0609786  80.4951798 132.2112998
  62.8841426  81.9722286 132.4922588  62.4580378  72.2652874 133.3848475
  61.7203135  71.7530260 133.7158718  62.7107152  71.8253256 132.5731752
  61.9580398  83.1737385 133.0897626  62.2503372  83.7342442 132.3709992
  62.4679019  83.4665946 133.8450785  62.5592006  65.0429126 133.9790245
  62.8650883  64.1826489 133.6916160  63.2844611  65.6346746 133.7789239
  48.8516362  75.4459813 132.3671843  48.6540762  74.8529173 131.6422909
  48.2963026  75.1412023 133.0847781  56.8313085  75.3382919 134.4866436
  56.8861695  74.3856755 134.4108912  56.0204288  75.4942358 134.9707734
  57.9804279  79.2663042 125.7244719  57.5423709  78.5498901 125.2650356
  58.7214720  79.4939157 125.1629810  54.7705445  73.9559979 132.2456815
  53.9573311  74.2554149 132.6522007  55.2664440  73.5615667 132.9631297
  56.9214023  83.9517736 134.1791079  56.8790202  84.1778582 133.2499611
  57.8376722  83.7181110 134.3276881  60.3679657  74.4201803 141.0771709
  60.7229045  74.6473276 141.9366174  61.0151788  74.7520180 140.4548964
  66.0977394  77.5420239 131.7821038  65.9595293  77.7321835 130.8542227
  65.7413613  78.3039622 132.2389089  54.2619520  71.5278334 137.8618050
  54.9018899  71.3867093 137.1641013  53.4297051  71.2412848 137.4856652
  66.1246774  79.6096766 136.7932309  66.5583280  79.5172055 137.6415363
  66.8378354  79.5854267 136.1552325  55.0379824  80.8280765 133.9753042
  55.8320423  80.3331085 133.7735617  54.3271516  80.2998628 133.6120748
  59.8574669  83.2098860 138.3265410  59.9111691  83.7789797 139.0943126
  58.9889450  83.3800745 137.9619447  51.3462588  74.9723846 130.0512795
  50.4160176  74.9108302 130.2682757  51.4420060  74.4499799 129.2549436
  51.2648137  71.4978659 132.6391036  51.5254954  72.4123992 132.5300197
  52.0865309  71.0303102 132.7887649  52.7373062  72.9116416 139.8089861
  53.4096115  72.7033779 139.1602510  51.9102848  72.7138502 139.3695093
  66.9862323  79.6520467 139.3265195  67.1798213  80.5566277 139.5724469
  66.8862941  79.1927886 140.1603780  58.6398634  69.5378357 141.8255522
  57.9926549  70.2368307 141.7319998  59.4099649  69.9714501 142.1931770
  62.0477432  79.8027209 144.9006075  61.8962938  79.5737761 143.9836159
  62.0382111  80.7597811 144.9137420  58.8162768  77.3759122 139.8852342
  59.7454828  77.5270282 139.7121309  58.3953798  77.4643143 139.0300988
  57.6151100  81.4009787 137.6550879  57.4762186  81.0328571 138.5276817
  56.8265696  81.9157426 137.4834837  58.2099252  86.5018883 128.9976416
  58.3851008  86.0306926 129.8122038  57.5232040  87.1284649 129.2257676
  59.1656315  80.7791389 135.0439717  58.8306148  80.7392159 135.9397367
  58.6660261  80.1136105 134.5710127  53.1400559  76.1859019 140.5692298
  53.0020357  75.4539258 141.1703837  54.0505483  76.0967919 140.2876486
  62.1015507  78.1247424 125.3176777  61.4844677  77.3994252 125.2209829
  61.6331995  78.8856784 124.9743851  55.7682860  75.8978979 140.0575978
  56.4782478  75.2572171 140.0162596  55.7252168  76.1491874 140.9802159
  63.7569639  82.8346332 142.9782557  63.6982185  82.1505552 142.3113140
  64.1589157  83.5765322 142.5263183  54.4811794  72.8844197 141.8771617
  53.9449151  72.4334935 142.5293214  53.8928502  73.0190105 141.1342082
  52.7760337  89.6508246 135.7716276  53.0156936  90.2826770 136.4495294
  51.9329534  89.2996286 136.0581635  53.8914053  72.3432848 124.4398081
  53.0143519  72.2221649 124.0760328  54.3671806  71.5518926 124.1876970
  63.7587046  80.7985916 141.2096537  62.8713825  80.4611838 141.3322936
  64.3285597  80.0668947 141.4465302  45.4116193  77.1310008 134.5339588
  46.0987233  76.8171738 133.9460603  45.2564322  78.0351372 134.2606839
  50.2150915  72.0200204 138.9624612  50.1309104  71.4125874 138.2275022
  49.3933621  72.5109223 138.9634108  57.2888199  85.4587368 138.1757780
  57.2158371  86.2642340 138.6877084  56.8465592  85.6579334 137.3505801
  57.0777979  84.6959138 131.6860601  56.2945501  85.2380819 131.7798826
  57.7770724  85.2133118 132.0854843  60.3874629  70.5053768 134.3294807
  60.8843328  69.7523730 134.0095877  59.6161610  70.5418084 133.7638016
  68.2404386  76.2094133 135.9713098  68.2294263  77.0918849 135.6007031
  67.3721766  75.8565684 135.7767635  59.7486883  85.3574202 140.3315939
  60.4614855  85.9921667 140.2591840  59.2576911  85.4538068 139.5155940
  61.4704410  79.2625455 131.9033230  60.5360688  79.3826917 131.7337935
  61.6481078  78.3597922 131.6393240  56.9709598  72.6471151 134.0566491
  56.6007385  72.0942191 134.7447397  57.4668690  72.0429284 133.5041491
  64.8576961  75.1042774 132.4383264  65.3237413  75.9370766 132.3643567
  65.3084461  74.6387756 133.1428523  54.7998796  83.1068646 141.1521509
  55.5008256  83.7405129 141.3050904  54.3293911  83.4483377 140.3917149
  62.9253192  81.4486596 129.4369416  63.2013036  81.3343190 130.3463290
  62.0557691  81.0504080 129.3981589  62.8293624  67.4723361 136.4774166
  61.9156704  67.7027588 136.6456373  63.2586725  67.5561805 137.3288198
  62.6000082  75.6613253 138.9774060  61.9471532  75.9089161 138.3226512
  62.9780462  74.8477391 138.6436537  59.5607256  85.6972946 133.0802230
  59.7429651  84.8794602 133.5429982  60.3840242  85.9140639 132.6427120
  59.8949422  84.6241132 130.3417278  60.4237188  84.1133586 129.7287441
  60.1577641  84.3083662 131.2062811  58.6487655  76.4033064 145.4640097
  57.9728292  76.3027194 146.1342472  59.4715289  76.2472278 145.9276094
  50.3966514  82.6405001 138.0852612  50.9819951  81.8948689 138.2180516
  50.1991353  82.9508958 138.9689276  53.2505170  85.6756248 133.1015054
  52.5815545  86.1602376 132.6179094  53.1118039  85.9225469 134.0158433
  44.9884169  75.2110601 136.8057055  45.0268269  74.6774192 137.5994173
  44.4824462  74.6845807 136.1868032  57.3910438  87.7099992 139.6997713
  57.9428746  87.8731613 140.4646798  57.7316632  88.3004430 139.0277738
  52.3674931  70.0575142 140.3019597  52.4316258  70.9189972 139.8896995
  52.3042052  69.4449143 139.5691956  51.8427204  72.1298274 143.9492632
  52.4699243  71.7475351 144.5630156  50.9855123  71.9112476 144.3148324
  62.2421312  82.5361249 145.5546367  62.7861216  83.1491208 145.0601322
  61.6608157  83.0940828 146.0713380  48.6192747  73.9374703 129.8810987
  48.9146188  73.0285382 129.8278040  47.7180782  73.9162443 129.5591989
  60.5278825  85.6581967 136.6861395  60.4029965  84.8571707 136.1772340
  61.1857916  86.1528161 136.1975365  52.1486994  72.0130700 135.8638535
  51.4273579  72.6266668 135.7246008  52.9380249  72.5488465 135.7855181
  62.5913734  83.4590987 138.3140945  61.6444069  83.3396339 138.2419272
  62.9396507  82.5713485 138.3967206  54.9513307  69.3485126 142.1379187
  55.4747709  69.5947423 142.9005496  54.7325640  70.1805161 141.7182324
  50.3480588  71.6188801 130.0050312  50.0193294  70.7386180 129.8225418
  50.7019959  71.5636470 130.8926701  59.5960167  83.2543704 134.5145297
  59.4485129  82.3260411 134.6952867  60.4213661  83.2763794 134.0302372
  53.4622411  71.9061771 130.3725789  53.8018484  72.4347692 129.6504398
  53.9094532  72.2442177 131.1484356  63.1994289  84.0772262 135.6010170
  64.1240836  83.8715124 135.4634621  63.0309592  83.8288664 136.5099511
  56.1565852  70.2898821 139.8228857  55.8162673  69.4906634 140.2249537
  55.4504858  70.5900532 139.2505691  56.8082324  67.3748134 138.2756180
  57.6308393  66.9008612 138.1535071  57.0520388  68.1538618 138.7754867
  55.4490558  70.4036392 128.5719082  56.1698921  70.7817645 128.0682799
  54.8255863  71.1225269 128.6754060  59.5921681  71.1081541 129.5077414
  59.8085296  71.9906179 129.2066243  59.1115749  70.7167755 128.7783056
  54.3320903  74.0667254 136.0848159  54.1865483  74.3807558 136.9772441
  53.8546106  74.6852155 135.5319058  56.1917286  71.0569802 136.1329049
  56.1778854  70.1610896 135.7961347  56.9089714  71.0640466 136.7667335
  58.0443416  71.4907143 138.1782176  57.7861194  72.4124213 138.1766506
  57.5128457  71.0937577 138.8682640  62.9889605  84.5957930 130.9572261
  63.1626483  84.0304352 130.2046114  63.4818496  85.3958825 130.7751751
  48.8066565  76.6072599 139.0235820  48.2620033  77.3832407 139.1556095
  49.6845915  76.9543403 138.8654942  55.5954182  69.9384183 131.4016619
  55.7170093  69.0100829 131.6007506  55.3056224  69.9522869 130.4894934
  58.4645372  67.6239093 134.5383339  58.4867069  67.6878426 133.5835318
  58.8813431  66.7843602 134.7323845  68.8428996  77.3594353 132.5762561
  69.2860142  76.6101678 132.1781684  67.9655507  77.3504489 132.1936293
  63.9764778  83.9124694 128.0569160  64.6715682  84.5331387 128.2756474
  64.3187928  83.0620045 128.3321538  49.5932587  75.7342495 141.9165977
  48.8514323  75.8825131 142.5030608  49.2725331  75.9950761 141.0532727
  65.8756201  81.3624400 129.5856490  66.4007525  81.7011672 128.8605811
  65.7878553  80.4271415 129.4019625  57.5376249  85.2758473 141.7146367
  57.8463376  85.0307620 142.5869067  58.3351731  85.4805112 141.2265237
  57.5596861  87.4296383 133.9451744  57.1201852  86.9372762 134.6384600
  58.3104978  86.8869351 133.7043819  50.0389200  83.6207924 133.9476372
  50.8647220  83.3211696 133.5675015  49.6883252  82.8515546 134.3966160
  55.0070734  82.9734392 136.0174045  54.3850743  82.3105097 135.7176273
  55.6775601  82.9995524 135.3347693  48.2397806  81.5394250 134.9065305
  47.4029714  81.1116425 134.7249307  48.2121451  81.7326694 135.8436097
  55.0795261  71.4516180 145.6106551  55.1283417  72.3278303 145.2284321
  55.6217775  70.9093573 145.0378195  65.5650107  81.9957303 144.8907688
  64.7745651  81.9781442 144.3512188  65.3283461  82.5345597 145.6456725
  65.6847982  78.8449770 142.2040417  65.7345987  78.6799777 143.1455940
  65.5761905  77.9777029 141.8138298  54.5684241  81.5238315 129.4932506
  54.7172361  82.2073780 128.8399179  55.3750684  81.5043405 130.0081962
  62.9751744  74.8280698 143.5199724  63.8761607  74.6887163 143.2283722
  63.0499719  74.9935153 144.4597901  57.3094550  72.2047553 142.3652910
  56.4397859  72.4981119 142.0935499  57.5454030  72.7887998 143.0860174
  67.1866179  81.2646711 142.4482439  66.8950987  81.6276692 143.2845899
  66.5738310  80.5513720 142.2695771  68.3861861  78.8299591 134.9685009
  69.2208752  79.2689395 135.1322569  68.5220990  78.3538244 134.1493255
  65.4353367  76.3879326 140.9162497  65.9107489  76.5806972 140.1081348
  64.5118932  76.4438512 140.6705880  52.3236874  77.5503493 130.4993575
  52.0782915  76.6465823 130.6973785  52.4932788  77.5520644 129.5573053
  60.0133583  68.4227169 139.8818330  60.5315527  69.1588196 139.5564819
  59.6588716  68.7291163 140.7165090  51.5932521  73.2831851 127.9979736
  50.9001766  73.3576206 127.3419772  51.3484273  72.5192194 128.5201253
  60.2646178  64.8427452 135.4019227  60.5447931  64.1750641 136.0279654
  61.0496784  65.0356548 134.8893891  58.0679646  84.0186446 126.9644253
  57.4953613  84.6376633 126.5114725  58.6412440  84.5685808 127.4984175
  64.1355036  73.2645086 139.1490802  65.0872459  73.3643184 139.1703026
  63.9658486  72.4723355 139.6588886  62.1569415  70.3500669 139.3350203
  61.5619347  70.6305682 138.6396692  61.8719112  70.8394570 140.1066944
  61.2876906  84.3023596 128.0952836  62.2207579  84.2369158 128.2985711
  61.2000119  85.1379863 127.6367368  63.9164923  83.6189466 125.0556783
  63.8378554  83.2849330 125.9492541  64.7374589  84.1111234 125.0548256
  66.6143114  76.4851206 138.2633102  66.5819434  75.5467206 138.4492786
  67.2243737  76.5635242 137.5298927  58.4526445  75.3547259 124.3060306
  59.3985549  75.2253467 124.3748724  58.0740690  74.6161921 124.7829734
  66.7637602  73.2762249 138.3091385  66.2476651  72.4920706 138.1221314
  67.6477551  72.9480966 138.4737904  64.4248329  67.0203265 134.2687198
  64.2273150  66.7118353 135.1530530  65.0348035  67.7464904 134.3985127
  72.4319664  77.5467213 137.4039139  73.1623052  77.2852501 137.9646842
  71.8226609  76.8095934 137.4441207  70.5134961  75.6875075 138.0013590
  69.7868124  75.5531040 137.3930081  70.0982248  75.9951904 138.8070308
  58.3365137  79.4065005 145.7660963  59.2568147  79.5843604 145.9601009
  58.3014720  78.4621050 145.6140662  56.6369362  73.2797235 124.2415191
  55.7300817  72.9830348 124.3177905  56.9145343  72.9827053 123.3749477
  47.5547302  74.6003598 134.6914237  47.2350086  73.7468907 134.3988611
  47.0080730  74.8152177 135.4472205  51.3327210  77.3166039 138.4083744
  51.5513219  78.2483147 138.4271778  51.7452983  76.9574014 139.1938548
  58.2531427  67.8234125 130.3959432  57.4432156  67.4781210 130.7714678
  58.9415844  67.5141668 130.9847044  60.1821976  66.9012172 132.0183729
  60.7353014  67.3207625 132.6773752  60.4192062  65.9747920 132.0606685
  56.2055075  72.8899245 147.7986493  56.1051802  73.8393602 147.7298584
  55.9876617  72.5617484 146.9262563  55.4068146  70.1384170 124.3827170
  56.2687310  70.4639069 124.6422988  55.5918490  69.3515666 123.8700236
  47.4235562  78.2206510 136.6607359  46.7299034  77.8060463 136.1477313
  48.1708553  78.2627046 136.0640778  63.5600783  69.0112697 131.5262393
  62.9799452  69.6697501 131.1440446  63.2936715  68.1890041 131.1149811
  62.0104349  68.4117754 133.7283714  62.5104128  68.5234289 132.9198032
  62.6539957  68.1078807 134.3684522  56.0686345  76.3196384 146.6151555
  55.5853427  77.1196744 146.8215444  56.1547284  76.3304329 145.6618999
  49.3372305  78.1524764 134.5373374  49.3142993  78.2512451 133.5855257
  49.6472941  78.9989915 134.8590540  51.9959683  80.2100919 138.6519988
  52.9502936  80.1784861 138.5849920  51.7972206  79.7491542 139.4670214
  52.5859065  78.7802035 141.2190786  53.4051954  79.2746113 141.2425623
  52.8595872  77.8634003 141.1908353  62.3425661  71.1712787 130.5818742
  61.4551516  71.4562438 130.3638936  62.7579650  71.0106550 129.7346018
  65.6940197  71.1959308 134.2973081  66.4700587  71.6855761 134.5697698
  64.9688331  71.6217362 134.7544950  68.1312756  71.9086927 135.3547021
  68.7257246  71.6682663 134.6440330  68.2039339  71.1894058 135.9820558
  50.3509911  85.7520538 135.6690186  50.2164379  84.9920939 135.1028184
  49.9341974  86.4761438 135.2018975  61.4868874  80.9357462 124.6766761
  62.1904724  81.1407464 125.2924417  60.7631523  81.5034224 124.9415845
  62.3166685  76.6867323 130.7969032  62.2601886  77.1435874 129.9576664
  62.8695027  75.9258008 130.6191874  66.1271490  72.4757055 131.6219151
  65.8708425  72.0753691 132.4527359  65.5024359  73.1900849 131.4969290
  70.4383828  75.2153128 134.1290443  69.8783386  75.2846317 134.9022005
  69.8327332  75.0394113 133.4089939  53.5079037  86.6489855 135.8808629
  53.3911421  87.5935288 135.7787319  52.6871483  86.3463417 136.2694428
  63.3955572  81.3739991 126.7265222  64.2301176  80.9421189 126.5442696
  63.2339915  81.2022005 127.6542116  63.0501464  77.8772104 128.0921561
  62.9950268  77.7116376 127.1510005  62.4247519  78.5848137 128.2483751
  47.8393979  73.1140169 141.9182983  48.4852842  72.6039123 142.4070208
  47.6311130  73.8508850 142.4926408  60.3647371  80.1821016 147.4175124
  61.2338531  80.3561668 147.0561759  59.8854123  81.0015433 147.2950853
  56.3597589  67.3780213 127.6706879  56.3476259  68.3222053 127.8275150
  57.2521011  67.1950359 127.3766340  54.5333551  87.3018117 139.0964557
  55.4360798  87.3341727 139.4131052  54.3070921  86.3718568 139.1110893
  56.2887153  86.0549104 135.7574636  55.3382784  86.0550965 135.6439008
  56.5919639  85.3081838 135.2410671  60.1749709  63.9722990 131.9252816
  59.4082105  63.4181477 132.0709498  60.5860414  64.0444859 132.7866968
  72.0239847  91.8909642 136.8220398  72.6618257  91.7716389 136.1183738
  71.9060690  92.8390486 136.8808350  68.8329553  91.8437070 136.7581923
  68.4948065  91.7278135 135.8702458  69.7019321  91.4428235 136.7382929
  64.6916369  93.6972547 132.7478814  64.1281234  93.6062484 131.9795102
  64.5768764  92.8772451 133.2281306  62.2380801  95.1923738 135.5863034
  63.0302093  94.8514563 135.1709334  62.4777451  95.3018713 136.5065188
  70.2715928  97.3643514 128.0593279  69.6203907  97.9497595 127.6727293
  71.0660290  97.8949709 128.1188316  64.1971555  94.4532651 128.4580413
  64.9702431  93.9061639 128.3193289  64.5496954  95.3176901 128.6694875
  66.9612804  93.1585882 138.2548672  67.5576376  92.9341905 137.5405635
  67.0187776  92.4170628 138.8574120  66.5337832  90.6125318 126.0898863
  66.7863353  90.0906839 125.3282326  65.5962392  90.4491463 126.1925547
  71.5781115  89.6161096 133.8973606  72.3644205  89.1980519 133.5464023
  71.8419820  90.5207188 134.0655255  71.7491193  95.0533946 128.5962263
  71.1137026  95.1268573 129.3083168  71.4188599  95.6427545 127.9181342
  76.9789542  89.5536329 134.8006585  77.7114714  88.9835546 135.0344414
  76.2228898  89.1657930 135.2413090  66.2534121  92.5153424 128.2923238
  66.1370379  91.8398327 128.9604322  66.3636381  92.0285797 127.4755391
  68.5965662  91.9763571 131.9969927  68.2323869  91.4494192 132.7082849
  69.4532778  91.5862040 131.8236413  74.5014963  83.2657903 139.2601193
  74.1698288  84.1353314 139.0362408  73.9060576  82.9494187 139.9395224
  68.2371149  87.0053470 126.9931276  68.4045551  87.8733707 127.3601747
  68.0468318  87.1680752 126.0692565  64.4458964  91.9184246 134.6933811
  63.5209460  91.7860460 134.9011502  64.6943377  92.6978465 135.1903753
  74.3943626  87.9852989 136.3394543  73.4860503  87.9168398 136.0453304
  74.3431222  88.4624934 137.1676369  68.2160370  89.4611128 127.9777943
  68.0959995  89.9068179 128.8163423  67.5212958  89.8096445 127.4191481
  61.8067775  91.5617520 135.5277600  61.9360156  91.8151999 136.4417011
  61.1265226  92.1545228 135.2082255  65.9767262 102.2314770 131.6268074
  65.8991292 103.1822595 131.7056554  65.3728906 101.8860642 132.2843000
  76.2605272  86.1869428 138.1172417  75.6179653  86.4801961 137.4712212
  75.7560201  86.0722348 138.9225614  73.9145436  89.9332601 128.8058277
  74.8263292  90.1659988 128.6305974  73.4055083  90.5169645 128.2433355
  68.5517274  89.2929836 139.8153126  69.3978469  89.7169249 139.9587775
  68.4915912  88.6363460 140.5091689  71.2581411  86.1090637 137.0548138
  70.3965890  86.4071891 137.3464875  71.2843846  86.3261036 136.1229170
  68.0742980  94.6532828 133.4621943  68.5381326  94.9320531 132.6726566
  67.8099778  93.7516272 133.2795034  64.9667061  94.2004309 136.4001706
  65.5368418  94.6291577 135.7619191  65.5575173  93.9186894 137.0985892
  67.0111866  90.7755980 130.2711508  67.7135910  91.2277024 130.7385435
  66.6792495  90.1339799 130.8991401  60.7537200  89.0339533 135.5728642
  59.9636254  89.2897061 135.0968753  61.2448448  89.8487870 135.6780682
  62.7051946  89.3984112 132.5312119  61.9083109  89.5102806 133.0495614
  62.4777538  89.7370764 131.6653009  59.0374903  89.2870023 138.0043633
  59.2882942  90.1717033 138.2701209  59.5734452  89.1074625 137.2318725
  68.2505631  97.5896923 130.3473614  68.1151306  98.4348458 130.7758461
  68.7915444  97.7916200 129.5839547  61.7035028  95.1072361 130.9201539
  62.2159549  95.9015611 131.0707103  62.3557741  94.4098651 130.8535140
  63.5129913  98.2238117 133.0024292  63.6896541  99.1456082 132.8145276
  64.3086747  97.9096536 133.4318672  62.7982270  90.2702749 142.8786455
  62.6835785  89.3688006 143.1793554  61.9426787  90.5166445 142.5271272
  71.5998095  81.1127484 138.8772507  71.2562364  82.0029126 138.8011618
  71.9677057  80.9229142 138.0142092  59.6683945  93.4361015 131.6961109
  60.5059167  93.8458023 131.4794817  59.8462213  92.4960457 131.6661303
  71.5648377  91.1036096 127.3844942  71.0495001  91.8740700 127.6233330
  71.2925686  90.4301232 128.0078004  69.1495488  85.9485796 132.4430181
  68.2937085  85.5592647 132.2635819  69.5622440  86.0277757 131.5829966
  70.6794635  83.4832140 136.8421740  70.1759431  83.4462275 136.0289546
  70.9725242  84.3924882 136.9018397  66.9237521  83.5670869 135.8487922
  67.7890518  83.3713678 135.4893812  66.9915030  83.3381221 136.7757279
  76.5382651  93.8568450 129.3198116  75.7612094  93.5179610 128.8753278
  77.2174132  93.8621073 128.6453081  71.3534680  88.9763188 129.2104723
  71.0484816  89.2909337 130.0614867  72.3065123  89.0544607 129.2532056
  69.7981112  95.1353411 130.8597677  69.2702474  94.4006171 130.5470915
  69.2968615  95.9128087 130.6137646  64.5299840  85.7973077 133.2204289
  65.1043592  85.5748259 132.4877482  65.1170822  85.8661772 133.9732890
  73.5879417  91.6846804 134.0268665  74.1011299  92.3176796 134.5290375
  74.2380641  91.0848000 133.6612025  64.8569427  87.8277538 127.2400174
  64.0206739  88.1652225 127.5609449  64.7174197  87.6926518 126.3027311
  66.8322508  82.6714326 131.9479358  66.1786920  82.3563343 131.3235973
  66.7902982  82.0490067 132.6739181  67.9433712  92.9533621 123.8632650
  67.0360774  92.7222875 124.0623799  68.4404744  92.1571240 124.0506632
  70.8501791 101.6631128 126.7829337  70.1763490 101.9662825 127.3914294
  71.2367613 102.4660209 126.4334794  70.0660248  89.1596260 136.2727006
  69.1482809  89.3811207 136.1148694  70.4820392  89.2342570 135.4138713
  70.8495296  90.5587675 131.4029686  71.5967115  91.0709073 131.0936808
  71.1186885  90.2371728 132.2634080  69.1221946  93.0546216 128.3856640
  68.2133165  92.7705249 128.4829110  69.1517030  93.4745295 127.5259947
  74.3541213  96.6652806 132.1547808  73.9003540  95.8243715 132.2112998
  73.7235180  97.3014204 132.4922588  73.2974133  87.5944792 133.3848475
  72.5596890  87.0822178 133.7158718  73.5500906  87.1545173 132.5731752
  72.7974153  98.5029302 133.0897626  73.0897127  99.0634359 132.3709992
  73.3072773  98.7957863 133.8450785  73.3985760  80.3721044 133.9790245
  73.7044637  79.5118407 133.6916160  74.1238365  80.9638664 133.7789239
  59.6910116  90.7751730 132.3671843  59.4934516  90.1821091 131.6422909
  59.1356780  90.4703940 133.0847781  67.6706840  90.6674837 134.4866436
  67.7255450  89.7148673 134.4108912  66.8598042  90.8234276 134.9707734
  68.8198034  94.5954960 125.7244719  68.3817464  93.8790819 125.2650356
  69.5608475  94.8231075 125.1629810  65.6099200  89.2851896 132.2456815
  64.7967065  89.5846067 132.6522007  66.1058194  88.8907585 132.9631297
  67.7607778  99.2809653 134.1791079  67.7183957  99.5070500 133.2499611
  68.6770477  99.0473028 134.3276881  76.9371149  92.8712157 131.7821038
  76.7989047  93.0613753 130.8542227  76.5807367  93.6331540 132.2389089
  65.1013275  86.8570252 137.8618050  65.7412654  86.7159011 137.1641013
  64.2690805  86.5704765 137.4856652  65.8773579  96.1572682 133.9753042
  66.6714177  95.6623002 133.7735617  65.1665271  95.6290545 133.6120748
  62.1856342  90.3015764 130.0512795  61.2553930  90.2400220 130.2682757
  62.2813814  89.7791717 129.2549436  62.1041891  86.8270577 132.6391036
  62.3648708  87.7415910 132.5300197  62.9259063  86.3595019 132.7887649
  63.5766816  88.2408334 139.8089861  64.2489870  88.0325696 139.1602510
  62.7496603  88.0430420 139.3695093  69.4792388  84.8670275 141.8255522
  68.8320303  85.5660225 141.7319998  70.2493404  85.3006419 142.1931770
  69.0493007 101.8310801 128.9976416  69.2244762 101.3598844 129.8122038
  68.3625795 102.4576567 129.2257676  70.0050070  96.1083307 135.0439717
  69.6699902  96.0684077 135.9397367  69.5054015  95.4428023 134.5710127
  63.9794314  91.5150937 140.5692298  63.8414112  90.7831176 141.1703837
  64.8899237  91.4259837 140.2876486  72.9409261  93.4539341 125.3176777
  72.3238432  92.7286170 125.2209829  72.4725750  94.2148702 124.9743851
  66.6076614  91.2270896 140.0575978  67.3176233  90.5864089 140.0162596
  66.5645922  91.4783791 140.9802159  65.3205548  88.2136114 141.8771617
  64.7842905  87.7626853 142.5293214  64.7322257  88.3482023 141.1342082
  64.7307807  87.6724766 124.4398081  63.8537274  87.5513566 124.0760328
  65.2065560  86.8810844 124.1876970  56.2509947  92.4601925 134.5339588
  56.9380987  92.1463655 133.9460603  56.0958076  93.3643290 134.2606839
  61.0544670  87.3492122 138.9624612  60.9702858  86.7417792 138.2275022
  60.2327376  87.8401140 138.9634108  67.9171733 100.0251056 131.6860601
  67.1339255 100.5672736 131.7798826  68.6164478 100.5425036 132.0854843
  71.2268383  85.8345685 134.3294807  71.7237083  85.0815648 134.0095877
  70.4555365  85.8710002 133.7638016  72.3098164  94.5917373 131.9033230
  71.3754443  94.7118835 131.7337935  72.4874833  93.6889839 131.6393240
  67.8103352  87.9763068 134.0566491  67.4401140  87.4234109 134.7447397
  68.3062445  87.3721202 133.5041491  75.6970715  90.4334692 132.4383264
  76.1631168  91.2662684 132.3643567  76.1478216  89.9679674 133.1428523
  73.7646947  96.7778513 129.4369416  74.0406790  96.6635108 130.3463290
  72.8951445  96.3795998 129.3981589  73.6687378  82.8015279 136.4774166
  72.7550458  83.0319506 136.6456373  74.0980480  82.8853723 137.3288198
  70.4001011 101.0264864 133.0802230  70.5823405 100.2086520 133.5429982
  71.2233997 101.2432556 132.6427120  70.7343176  99.9533049 130.3417278
  71.2630942  99.4425504 129.7287441  70.9971396  99.6375579 131.2062811
  61.2360269  97.9696919 138.0852612  61.8213706  97.2240606 138.2180516
  61.0385107  98.2800875 138.9689276  64.0898924 101.0048166 133.1015054
  63.4209299 101.4894294 132.6179094  63.9511794 101.2517386 134.0158433
  55.8277924  90.5402519 136.8057055  55.8662023  90.0066109 137.5994173
  55.3218216  90.0137724 136.1868032  63.2068686  85.3867059 140.3019597
  63.2710012  86.2481890 139.8896995  63.1435806  84.7741061 139.5691956
  62.6820958  87.4590192 143.9492632  63.3092997  87.0767269 144.5630156
  61.8248877  87.2404394 144.3148324  59.4586501  89.2666621 129.8810987
  59.7539942  88.3577299 129.8278040  58.5574537  89.2454360 129.5591989
  62.9880748  87.3422617 135.8638535  62.2667334  87.9558585 135.7246008
  63.7774004  87.8780382 135.7855181  65.7907062  84.6777044 142.1379187
  66.3141463  84.9239341 142.9005496  65.5719395  85.5097079 141.7182324
  61.1874343  86.9480719 130.0050312  60.8587049  86.0678097 129.8225418
  61.5413713  86.8928387 130.8926701  70.4353922  98.5835621 134.5145297
  70.2878884  97.6552329 134.6952867  71.2607415  98.6055712 134.0302372
  64.3016166  87.2353688 130.3725789  64.6412238  87.7639610 129.6504398
  64.7488286  87.5734094 131.1484356  66.9959607  85.6190739 139.8228857
  66.6556427  84.8198552 140.2249537  66.2898613  85.9192450 139.2505691
  67.6476078  82.7040052 138.2756180  68.4702148  82.2300530 138.1535071
  67.8914142  83.4830535 138.7754867  66.2884313  85.7328310 128.5719082
  67.0092675  86.1109563 128.0682799  65.6649617  86.4517187 128.6754060
  70.4315436  86.4373459 129.5077414  70.6479050  87.3198097 129.2066243
  69.9509503  86.0459672 128.7783056  65.1714657  89.3959172 136.0848159
  65.0259238  89.7099475 136.9772441  64.6939861  90.0144072 135.5319058
  67.0311040  86.3861720 136.1329049  67.0172609  85.4902813 135.7961347
  67.7483468  86.3932384 136.7667335  68.8837171  86.8199060 138.1782176
  68.6254949  87.7416131 138.1766506  68.3522211  86.4229495 138.8682640
  73.8283360  99.9249847 130.9572261  74.0020237  99.3596270 130.2046114
  74.3212251 100.7250742 130.7751751  59.6460319  91.9364517 139.0235820
  59.1013787  92.7124325 139.1556095  60.5239669  92.2835321 138.8654942
  66.4347936  85.2676100 131.4016619  66.5563847  84.3392747 131.6007506
  66.1449978  85.2814786 130.4894934  69.3039126  82.9531011 134.5383339
  69.3260823  83.0170344 133.5835318  69.7207185  82.1135520 134.7323845
  79.6822751  92.6886270 132.5762561  80.1253897  91.9393596 132.1781684
  78.8049261  92.6796407 132.1936293  74.8158532  99.2416612 128.0569160
  75.5109437  99.8623305 128.2756474  75.1581682  98.3911963 128.3321538
  60.4326341  91.0634413 141.9165977  59.6908077  91.2117048 142.5030608
  60.1119086  91.3242678 141.0532727  76.7149955  96.6916317 129.5856490
  77.2401279  97.0303590 128.8605811  76.6272308  95.7563333 129.4019625
  60.8782955  98.9499842 133.9476372  61.7040975  98.6503613 133.5675015
  60.5277007  98.1807464 134.3966160  65.8464488  98.3026310 136.0174045
  65.2244497  97.6397015 135.7176273  66.5169355  98.3287442 135.3347693
  59.0791560  96.8686168 134.9065305  58.2423468  96.4408342 134.7249307
  59.0515205  97.0618611 135.8436097  65.4077995  96.8530233 129.4932506
  65.5566115  97.5365697 128.8399179  66.2144438  96.8335323 130.0081962
  63.1630628  92.8795411 130.4993575  62.9176670  91.9757741 130.6973785
  63.3326543  92.8812561 129.5573053  70.8527338  83.7519087 139.8818330
  71.3709282  84.4880114 139.5564819  70.4982471  84.0583080 140.7165090
  62.4326276  88.6123768 127.9979736  61.7395520  88.6868123 127.3419772
  62.1878027  87.8484112 128.5201253  71.1039932  80.1719370 135.4019227
  71.3841686  79.5042559 136.0279654  71.8890539  80.3648465 134.8893891
  68.9073401  99.3478364 126.9644253  68.3347368  99.9668551 126.5114725
  69.4806194  99.8977725 127.4984175  72.9963170  85.6792587 139.3350203
  72.4013102  85.9597600 138.6396692  72.7112867  86.1686488 140.1066944
  72.1270660  99.6315514 128.0952836  73.0601333  99.5661075 128.2985711
  72.0393873 100.4671781 127.6367368  74.7558677  98.9481384 125.0556783
  74.6772309  98.6141248 125.9492541  75.5768344  99.4403152 125.0548256
  69.2920199  90.6839176 124.3060306  70.2379304  90.5545384 124.3748724
  68.9134444  89.9453838 124.7829734  75.2642084  82.3495182 134.2687198
  75.0666905  82.0410271 135.1530530  75.8741789  83.0756821 134.3985127
  67.4763116  88.6089153 124.2415191  66.5694572  88.3122265 124.3177905
  67.7539097  88.3118971 123.3749477  58.3941057  89.9295516 134.6914237
  58.0743841  89.0760824 134.3988611  57.8474485  90.1444094 135.4472205
  62.1720964  92.6457957 138.4083744  62.3906974  93.5775065 138.4271778
  62.5846738  92.2865932 139.1938548  69.0925182  83.1526042 130.3959432
  68.2825910  82.8073127 130.7714678  69.7809599  82.8433586 130.9847044
  71.0215730  82.2304089 132.0183729  71.5746769  82.6499543 132.6773752
  71.2585817  81.3039837 132.0606685  66.2461901  85.4676088 124.3827170
  67.1081065  85.7930986 124.6422988  66.4312245  84.6807584 123.8700236
  58.2629317  93.5498428 136.6607359  57.5692788  93.1352380 136.1477313
  59.0102308  93.5918964 136.0640778  74.3994537  84.3404614 131.5262393
  73.8193206  84.9989418 131.1440446  74.1330470  83.5181959 131.1149811
  72.8498104  83.7409672 133.7283714  73.3497882  83.8526207 132.9198032
  73.4933712  83.4370725 134.3684522  60.1766059  93.4816681 134.5373374
  60.1536747  93.5804369 133.5855257  60.4866696  94.3281832 134.8590540
  62.8353437  95.5392836 138.6519988  63.7896691  95.5076779 138.5849920
  62.6365961  95.0783460 139.4670214  73.1819415  86.5004705 130.5818742
  72.2945270  86.7854355 130.3638936  73.5973404  86.3398468 129.7346018
  76.5333951  86.5251226 134.2973081  77.3094342  87.0147678 134.5697698
  75.8082086  86.9509280 134.7544950  78.9706510  87.2378845 135.3547021
  79.5651001  86.9974581 134.6440330  79.0433094  86.5185976 135.9820558
  61.1903666 101.0812456 135.6690186  61.0558134 100.3212857 135.1028184
  60.7735728 101.8053356 135.2018975  72.3262629  96.2649379 124.6766761
  73.0298479  96.4699382 125.2924417  71.6025278  96.8326141 124.9415845
  73.1560439  92.0159241 130.7969032  73.0995640  92.4727792 129.9576664
  73.7088782  91.2549925 130.6191874  76.9665245  87.8048973 131.6219151
  76.7102179  87.4045608 132.4527359  76.3418113  88.5192766 131.4969290
  81.2777583  90.5445046 134.1290443  80.7177141  90.6138235 134.9022005
  80.6721086  90.3686030 133.4089939  74.2349326  96.7031909 126.7265222
  75.0694930  96.2713107 126.5442696  74.0733669  96.5313922 127.6542116
  73.8895218  93.2064022 128.0921561  73.8344022  93.0408293 127.1510005
  73.2641274  93.9140055 128.2483751  58.6787733  88.4432086 141.9182983
  59.3246597  87.9331040 142.4070208  58.4704884  89.1800768 142.4926408
  67.1991344  82.7072131 127.6706879  67.1870014  83.6513971 127.8275150
  68.0914766  82.5242276 127.3766340  71.0143463  79.3014908 131.9252816
  70.2475859  78.7473394 132.0709498  71.4254168  79.3736776 132.7866968
  77.3731587 105.9417235 126.0898863  77.6257108 105.4198757 125.3282326
  76.4356146 105.7783381 126.1925547  79.0764904 102.3345388 126.9931276
  79.2439306 103.2025624 127.3601747  78.8862073 102.4972670 126.0692565
  75.6963182 103.1569456 127.2400174  74.8600494 103.4944142 127.5609449
  75.5567951 103.0218436 126.3027311  77.6716262  98.0006244 131.9479358
  77.0180674  97.6855261 131.3235973  77.6296736  97.3781984 132.6739181
  78.7827467 108.2825539 123.8632650  77.8754529 108.0514792 124.0623799
  79.2798499 107.4863158 124.0506632  73.0250097 105.6307682 130.0512795
  72.0947685 105.5692137 130.2682757  73.1207569 105.1083635 129.2549436
  75.5701562 103.0016683 124.4398081  74.6931028 102.8805484 124.0760328
  76.0459315 102.2102762 124.1876970  70.2980256 104.5958539 129.8810987
  70.5933697 103.6869217 129.8278040  69.3968291 104.5746278 129.5591989
  72.0268097 102.2772636 130.0050312  71.6980803 101.3970015 129.8225418
  72.3807468 102.2220305 130.8926701  77.1278067 101.0620228 128.5719082
  77.8486430 101.4401480 128.0682799  76.5043372 101.7809104 128.6754060
  77.2741691 100.5968018 131.4016619  77.3957602  99.6684664 131.6007506
  76.9843733 100.6106704 130.4894934  73.2720030 103.9415686 127.9979736
  72.5789275 104.0160041 127.3419772  73.0271782 103.1776030 128.5201253
  80.1313954 106.0131094 124.3060306  81.0773058 105.8837302 124.3748724
  79.7528198 105.2745756 124.7829734  78.3156871 103.9381070 124.2415191
  77.4088326 103.6414183 124.3177905  78.5932852 103.6410888 123.3749477
  79.9318936  98.4817960 130.3959432  79.1219665  98.1365045 130.7714678
  80.6203353  98.1725504 130.9847044  77.0855655 100.7968006 124.3827170
  77.9474819 101.1222904 124.6422988  77.2705999 100.0099501 123.8700236
  78.0385098  98.0364049 127.6706879  78.0263768  98.9805889 127.8275150
  78.9308520  97.8534194 127.3766340  81.8537218  94.6306825 131.9252816
  81.0869614  94.0765312 132.0709498  82.2647923  94.7028694 132.7866968
  37.7534665  28.3829884 114.7838585  37.1022645  28.9683964 114.3972599
  38.5479028  28.9136079 114.8433623  44.0201389  24.8754820 116.0443422
  43.2430832  24.5365979 115.5998584  44.6992870  24.8807443 115.3698387
  35.4252450  23.9719991 110.5877957  34.5179512  23.7409244 110.7869106
  35.9223482  23.1757610 110.7751939  38.3320529  32.6817498 113.5074643
  37.6582228  32.9849195 114.1159601  38.7186351  33.4846578 113.1580100
  36.3016772  25.6141329 112.4490026  35.8636201  24.8977188 111.9895663
  37.0427212  25.8417444 111.8875117  36.5311744  32.8497170 115.7221722
  36.7063500  32.3785214 116.5367345  35.8444532  33.4762937 115.9502983
  40.4227999  24.4725711 112.0422083  39.8057170  23.7472539 111.9455136
  39.9544488  25.2335071 111.6989158  41.2465684  27.7964883 116.1614723
  41.5225528  27.6821477 117.0708597  40.3770183  27.3982368 116.1226896
  38.2161914  30.9719419 117.0662585  38.7449680  30.4611873 116.4532747
  38.4790133  30.6561949 117.9308118  41.3102097  30.9436217 117.6817568
  41.4838975  30.3782640 116.9291421  41.8030989  31.7437112 117.4997058
  42.2977270  30.2602981 114.7814466  42.9928175  30.8809674 115.0001781
  42.6400420  29.4098333 115.0566844  44.1968693  27.7102687 116.3101797
  44.7220017  28.0489960 115.5851117  44.1091046  26.7749702 116.1264932
  36.3892138  30.3664733 113.6889560  35.8166105  30.9854920 113.2360032
  36.9624932  30.9164095 114.2229482  39.6089398  30.6501883 114.8198142
  40.5420071  30.5847445 115.0231018  39.5212611  31.4858150 114.3612675
  42.2377415  29.9667754 111.7802090  42.1591046  29.6327617 112.6737848
  43.0587082  30.4589522 111.7793562  36.7738937  21.7025546 111.0305612
  37.7198042  21.5731754 111.0994030  36.3953182  20.9640208 111.5075041
  39.8081367  27.2835749 111.4012068  40.5117217  27.4885751 112.0169724
  39.0844015  27.8512511 111.6661152  41.7168064  27.7218278 113.4510528
  42.5513668  27.2899477 113.2688003  41.5552407  27.5500292 114.3787423
  41.3713956  24.2250392 114.8166867  41.3162760  24.0594663 113.8755312
  40.7460011  24.9326424 114.9729057  50.3452339  38.2387929 123.5465705
  50.9830749  38.1194677 122.8429045  50.2273182  39.1868773 123.6053657
  47.1542045  38.1915357 123.4827230  46.8160557  38.0756422 122.5947764
  48.0231814  37.7906523 123.4628236  43.0128861  40.0450834 119.4724121
  42.4493726  39.9540771 118.7040408  42.8981256  39.2250738 119.9526613
  40.5593293  41.5402025 122.3108341  41.3514585  41.1992850 121.8954640
  40.7989943  41.6497000 123.2310494  48.5928420  43.7121802 114.7838585
  47.9416400  44.2975882 114.3972599  49.3872783  44.2427996 114.8433623
  42.5184047  40.8010939 115.1825720  43.2914923  40.2539926 115.0438596
  42.8709446  41.6655188 115.3940181  45.2825296  39.5064169 124.9793979
  45.8788869  39.2820192 124.2650942  45.3400268  38.7648915 125.5819427
  44.8550325  36.9603605 112.8144170  45.1075845  36.4385126 112.0527633
  43.9174884  36.7969750 112.9170853  49.8993608  35.9639383 120.6218913
  50.6856697  35.5458806 120.2709330  50.1632312  36.8685475 120.7900561
  50.0703685  41.4012233 115.3207570  49.4349518  41.4746860 116.0328474
  49.7401091  41.9905832 114.6426649  55.3002035  35.9014616 121.5251891
  56.0327207  35.3313833 121.7589721  54.5441390  35.5136217 121.9658397
  44.5746613  38.8631711 115.0168545  44.4582872  38.1876614 115.6849629
  44.6848873  38.3764085 114.2000698  46.9178154  38.3241858 118.7215234
  46.5536362  37.7972479 119.4328155  47.7745270  37.9340327 118.5481719
  46.5583641  33.3531758 113.7176582  46.7258044  34.2211994 114.0847053
  46.3680810  33.5159039 112.7937872  49.3158975  41.8148736 125.3842413
  49.0159698  42.7173775 125.2758220  48.9710034  41.5480920 126.2363566
  42.7671456  38.2662533 121.4179117  41.8421953  38.1338747 121.6256809
  43.0155869  39.0456753 121.9149060  52.7156118  34.3331277 123.0639850
  51.8072996  34.2646685 122.7698611  52.6643714  34.8103222 123.8921676
  46.5372862  35.8089415 114.7023249  46.4172487  36.2546466 115.5408730
  45.8425451  36.1574733 114.1436787  40.1280267  37.9095807 122.2522906
  40.2572648  38.1630286 123.1662318  39.4477718  38.5023515 121.9327561
  44.2979754  48.5793057 118.3513381  44.2203784  49.5300882 118.4301861
  43.6941398  48.2338929 119.0088307  54.5817765  32.5347715 124.8417724
  53.9392145  32.8280248 124.1957519  54.0772693  32.4200635 125.6470921
  52.2357928  36.2810888 115.5303583  53.1475785  36.5138275 115.3551281
  51.7267575  36.8647932 114.9678662  50.8427511  41.2636707 122.9217165
  50.2136373  41.4282421 122.2193233  50.4553173  41.6778316 123.6928129
  54.7216743  42.1991145 120.2761529  54.0367781  42.5790046 119.7258562
  54.8060592  42.8086471 121.0093476  51.9767674  39.8451104 126.8756872
  52.1884569  40.4882863 126.1991253  51.9297422  39.0113420 126.4078802
  46.3955473  41.0011115 120.1867250  46.8593818  41.2798818 119.3971872
  46.1312271  40.0994559 120.0040341  43.2879554  40.5482596 123.1247013
  43.8580911  40.9769865 122.4864498  43.8787666  40.2665181 123.8231199
  45.3324359  37.1234267 116.9956815  46.0348402  37.5755311 117.4630741
  45.0004987  36.4818086 117.6236708  53.0913502  42.7223059 125.0479229
  53.9130946  42.3203246 124.7661911  53.0875905  42.6191293 125.9995345
  41.0264438  35.7462399 119.2557425  40.2295601  35.8581093 119.7740921
  40.7990030  36.0849051 118.3898316  46.8570106  42.2707102 127.2039940
  46.9214538  42.7327510 128.0398112  46.1481030  41.6404467 127.3322250
  61.1819495  39.0661807 121.3964201  60.4283204  38.4969206 121.2408205
  61.3167036  39.0324472 122.3434836  46.5718123  43.9375210 117.0718920
  46.4363798  44.7826745 117.5003768  47.1127936  44.1394487 116.3084854
  40.0247521  41.4550648 117.6446845  40.5372041  42.2493898 117.7952410
  40.6770234  40.7576938 117.5780447  41.8342405  44.5716404 119.7269598
  42.0109034  45.4934369 119.5390582  42.6299239  44.2574823 120.1563978
  42.9573721  46.0894578 125.7279941  43.5081146  45.9611641 124.9556935
  42.1185197  46.3889467 125.3774834  50.2967838  44.8401576 129.2300664
  50.2786313  45.6610457 128.7380933  51.2187758  44.7155651 129.4550805
  37.9896437  39.7839302 118.4206416  38.8271659  40.1936310 118.2040124
  38.1674705  38.8438744 118.3906610  49.8860870  37.4514383 114.1090249
  49.3707493  38.2218987 114.3478636  49.6138178  36.7779519 114.7323310
  47.4707981  32.2964084 119.1675487  46.6149577  31.9070934 118.9881126
  47.8834932  32.3756044 118.3075273  54.8595144  40.2046737 116.0443422
  54.0824586  39.8657897 115.5998584  55.5386625  40.2099361 115.3698387
  49.6747173  35.3241475 115.9350030  49.3697308  35.6387624 116.7860173
  50.6277615  35.4022895 115.9777363  48.1193605  41.4831698 117.5842984
  47.5914966  40.7484458 117.2716221  47.6181107  42.2606375 117.3382952
  53.0986451  39.6780719 122.7010030  52.4410125  40.3679980 122.7890159
  53.9026850  40.0677151 123.0444017  42.8512332  32.1451364 119.9449595
  43.4256084  31.9226546 119.2122788  43.4383315  32.2140059 120.6978197
  51.9091909  38.0325091 120.7513972  52.4223791  38.6655083 121.2535682
  52.5593133  37.4326287 120.3857332  43.1781919  34.1755825 113.9645481
  42.3419232  34.5130512 114.2854755  43.0386689  34.0404805 113.0272618
  45.1535000  29.0192613 118.6724665  44.4999412  28.7041631 118.0481280
  45.1115474  28.3968354 119.3984488  46.2646205  39.3011908 110.5877957
  45.3573267  39.0701162 110.7869106  46.7617237  38.5049528 110.7751939
  49.1714284  48.0109416 113.5074643  48.4975982  48.3141112 114.1159601
  49.5580106  48.8138496 113.1580100  48.3872740  35.5074547 122.9972313
  47.4695302  35.7289494 122.8394001  48.8032884  35.5820857 122.1384020
  49.1707788  36.9065963 118.1274993  49.9179607  37.4187360 117.8182115
  49.4399378  36.5850015 118.9879386  47.4434438  39.4024503 115.1101947
  46.5345657  39.1183536 115.2074417  47.4729522  39.8223582 114.2505254
  52.6753706  43.0131093 118.8793115  52.2216033  42.1722003 118.9358305
  52.0447672  43.6492491 119.2167895  51.6186625  33.9423079 120.1093782
  50.8809382  33.4300465 120.4404025  51.8713399  33.5023460 119.2977059
  51.1186645  44.8507589 119.8142933  51.4109619  45.4112647 119.0955298
  51.6285265  45.1436150 120.5696092  51.7198253  26.7199331 120.7035551
  52.0257129  25.8596694 120.4161466  52.4450857  27.3116951 120.5034545
  38.0122609  37.1230017 119.0917149  37.8147008  36.5299378 118.3668216
  37.4569273  36.8182228 119.8093088  45.9919332  37.0153124 121.2111742
  46.0467942  36.0626960 121.1354219  45.1810534  37.1712563 121.6953041
  47.1410526  40.9433247 112.4490026  46.7029956  40.2269106 111.9895663
  47.8820967  41.1709362 111.8875117  43.9311692  35.6330184 118.9702121
  43.1179558  35.9324354 119.3767313  44.4270686  35.2385872 119.6876604
  46.0820270  45.6287941 120.9036386  46.0396449  45.8548787 119.9744918
  46.9982969  45.3951315 121.0522187  55.2583641  39.2190444 118.5066344
  55.1201539  39.4092040 117.5787533  54.9019860  39.9809827 118.9634395
  55.2853020  41.2866971 123.5177616  55.7189527  41.1942260 124.3660670
  55.9984601  41.2624471 122.8797632  44.1986071  42.5050970 120.6998349
  44.9926669  42.0101290 120.4980924  43.4877763  41.9768833 120.3366054
  49.0180915  44.8869065 125.0510716  49.0717938  45.4560001 125.8188432
  48.1495697  45.0570950 124.6864753  40.5068834  36.6494051 116.7758101
  39.5766422  36.5878507 116.9928064  40.6026306  36.1270004 115.9794743
  40.4254383  33.1748864 119.3636343  40.6861201  34.0894197 119.2545504
  41.2471556  32.7073307 119.5132956  56.1468570  41.3290672 126.0510501
  56.3404460  42.2336482 126.2969776  56.0469188  40.8698091 126.8849086
  47.9769015  39.0529327 126.6097648  48.9061075  39.2040487 126.4366616
  47.5560045  39.1413348 125.7546295  46.7757347  43.0779992 124.3796186
  46.6368433  42.7098776 125.2522124  45.9871943  43.5927631 124.2080144
  47.3705499  48.1789088 115.7221722  47.5457254  47.7077131 116.5367345
  46.6838287  48.8054854 115.9502983  48.3262562  42.4561594 121.7685024
  47.9912395  42.4162364 122.6642673  47.8266508  41.7906310 121.2955434
  51.2621754  39.8017629 112.0422083  50.6450924  39.0764457 111.9455136
  50.7938242  40.5626989 111.6989158  52.9175885  44.5116537 129.7027864
  52.8588431  43.8275757 129.0358447  53.3195404  45.2535527 129.2508490
  41.9366584  51.3278451 122.4961583  42.1763182  51.9596975 123.1740601
  41.0935781  50.9766491 122.7826942  43.0520300  34.0203053 111.1643388
  42.1749766  33.8991854 110.8005634  43.5278053  33.2289131 110.9122276
  52.9193293  42.4756121 127.9341843  52.0320071  42.1382043 128.0568242
  53.4891844  41.7439152 128.1710609  34.5722440  38.8080213 121.2584895
  35.2593480  38.4941943 120.6705910  34.4170568  39.7121577 120.9852146
  46.4494446  47.1357573 124.9003087  46.3764617  47.9412545 125.4122391
  46.0071839  47.3349539 124.0751108  46.2384226  46.3729343 118.4105908
  45.4551747  46.9151023 118.5044133  46.9376971  46.8903323 118.8100149
  49.5480876  32.1823973 121.0540113  50.0449575  31.4293935 120.7341184
  48.7767857  32.2188289 120.4883323  57.4010633  37.8864338 122.6958405
  57.3900509  38.7689054 122.3252338  56.5328013  37.5335889 122.5012942
  48.9093129  47.0344407 127.0561245  49.6221102  47.6691872 126.9837147
  48.4183158  47.1308273 126.2401247  50.6310656  40.9395660 118.6278537
  49.6966935  41.0597122 118.4583241  50.8087325  40.0368127 118.3638547
  46.1315844  34.3241356 120.7811798  45.7613632  33.7712396 121.4692704
  46.6274937  33.7199489 120.2286798  54.0183208  36.7812979 119.1628571
  54.4843660  37.6140971 119.0888874  54.4690708  36.3157961 119.8673829
  43.9605043  44.7838851 127.8766816  44.6614502  45.4175334 128.0296210
  43.4900158  45.1253582 127.1162455  52.0859439  43.1256801 116.1614723
  52.3619283  43.0113395 117.0708597  51.2163938  42.7274285 116.1226896
  51.7606329  37.3383458 125.7019366  51.1077779  37.5859366 125.0471819
  52.1386709  36.5247596 125.3681844  48.7213503  47.3743151 119.8047537
  48.9035897  46.5564807 120.2675289  49.5446489  47.5910844 119.3672427
  49.0555668  46.3011337 117.0662585  49.5843435  45.7903791 116.4532747
  49.3183888  45.9853867 117.9308118  39.5572761  44.3175206 124.8097919
  40.1426198  43.5718894 124.9425823  39.3597600  44.6279163 125.6934583
  42.4111416  47.3526453 119.8260361  41.7421792  47.8372581 119.3424401
  42.2724286  47.5995674 120.7403740  46.5516685  49.3870197 126.4243019
  47.1034993  49.5501818 127.1892105  46.8922878  49.9774635 125.7523044
  37.7798993  35.6144908 116.6056293  38.0752434  34.7055587 116.5523347
  36.8787029  35.5932648 116.2837296  49.6885072  47.3352172 123.4106702
  49.5636212  46.5341912 122.9017647  50.3464163  47.8298366 122.9220672
  51.7519981  45.1361192 125.0386252  50.8050316  45.0166544 124.9664578
  52.1002754  44.2483690 125.1212513  39.5086835  33.2959006 116.7295618
  39.1799541  32.4156385 116.5470724  39.8626206  33.2406675 117.6172008
  48.7566414  44.9313909 121.2390604  48.6091376  44.0030616 121.4198174
  49.5819907  44.9533999 120.7547679  42.6228658  33.5831976 117.0971096
  42.9624731  34.1117897 116.3749704  43.0700779  33.9212382 117.8729663
  52.3600536  45.7542467 122.3255477  53.2847083  45.5485329 122.1879928
  52.1915839  45.5058868 123.2344818  44.6096805  32.0806597 115.2964389
  45.3305168  32.4587850 114.7928106  43.9862109  32.7995474 115.3999367
  48.7527928  32.7851746 116.2322721  48.9691543  33.6676384 115.9311549
  48.2721995  32.3937960 115.5028363  52.1495852  46.2728135 117.6817568
  52.3232729  45.7074557 116.9291421  52.6424743  47.0729030 117.4997058
  44.7560428  31.6154388 118.1261925  44.8776340  30.6871034 118.3252813
  44.4662471  31.6293074 117.2140241  58.0035243  39.0364558 119.3007868
  58.4466389  38.2871883 118.9026991  57.1261753  39.0274694 118.9181600
  53.1371024  45.5894899 114.7814466  53.8321929  46.2101592 115.0001781
  53.4794175  44.7390250 115.0566844  55.0362448  43.0394605 116.3101797
  55.5613772  43.3781877 115.5851117  54.9484800  42.1041620 116.1264932
  46.6982496  46.9528678 128.4391674  47.0069623  46.7077825 129.3114373
  47.4957978  47.1575317 127.9510544  46.7203108  49.1066588 120.6697050
  46.2808099  48.6142967 121.3629907  47.4711225  48.5639556 120.4289126
  39.1995447  45.2978129 120.6721678  40.0253467  44.9981901 120.2920322
  38.8489499  44.5285751 121.1211467  44.1676980  44.6504597 122.7419352
  43.5456990  43.9875302 122.4421580  44.8381847  44.6765729 122.0593000
  37.4004052  43.2164455 121.6310612  36.5635961  42.7886630 121.4494613
  37.3727698  43.4096899 122.5681403  54.7256354  43.6727508 131.6152995
  53.9351897  43.6551647 131.0757495  54.4889708  44.2115802 132.3702032
  54.8454229  40.5219975 128.9285724  54.8952234  40.3569982 129.8701246
  54.7368152  39.6547234 128.5383604  43.7290487  43.2008520 116.2177813
  43.8778608  43.8843985 115.5644485  44.5356931  43.1813610 116.7327268
  56.3472425  42.9416916 129.1727745  56.0557234  43.3046897 130.0091206
  55.7344557  42.2283924 128.9941077  57.5468108  40.5069796 121.6930315
  58.3814999  40.9459600 121.8567876  57.6827237  40.0308449 120.8738561
  54.5959614  38.0649531 127.6407803  55.0713735  38.2577177 126.8326655
  53.6725179  38.1208717 127.3951187  41.4843120  39.2273698 117.2238881
  41.2389162  38.3236028 117.4219092  41.6539035  39.2290848 116.2818359
  40.7538768  34.9602056 114.7225043  40.0608013  35.0346411 114.0665079
  40.5090520  34.1962399 115.2446560  47.2285893  45.6956651 113.6889560
  46.6559860  46.3146838 113.2360032  47.8018687  46.2456012 114.2229482
  53.2961283  34.9415291 125.8736109  54.2478706  35.0413389 125.8948333
  53.1264733  34.1493559 126.3834193  50.4483153  45.9793801 114.8198142
  51.3813826  45.9139363 115.0231018  50.3606365  46.8150068 114.3612675
  53.0771169  45.2959671 111.7802090  52.9984801  44.9619535 112.6737848
  53.8980836  45.7881439 111.7793562  55.7749360  38.1621411 124.9878408
  55.7425681  37.2237411 125.1738092  56.3849984  38.2405447 124.2544233
  47.6132691  37.0317464 111.0305612  48.5591796  36.9023672 111.0994030
  47.2346936  36.2932125 111.5075041  55.9243849  34.9532454 125.0336692
  55.4082898  34.1690911 124.8466620  56.8083797  34.6251171 125.1983211
  53.5854576  28.6973470 120.9932504  53.3879397  28.3888558 121.8775836
  54.1954281  29.4235108 121.1230434  61.5925910  39.2237417 124.1284445
  62.3229299  38.9622706 124.6892149  60.9832856  38.4866139 124.1686513
  59.6741207  37.3645280 124.7258896  58.9474371  37.2301245 124.1175388
  59.2588494  37.6722109 125.5315614  45.7975608  34.9567440 110.9660498
  44.8907064  34.6600553 111.0423211  46.0751589  34.6597258 110.0994784
  47.4137674  29.5004330 117.1204739  46.6038403  29.1551415 117.4959985
  48.1022091  29.1911873 117.7092351  49.3428222  28.5782376 118.7429036
  49.8959261  28.9977830 119.4019059  49.5798309  27.6518125 118.7851992
  44.5674393  31.8154375 111.1072477  45.4293557  32.1409273 111.3668294
  44.7524737  31.0285871 110.5945543  52.7207030  30.6882902 118.2507700
  52.1405699  31.3467706 117.8685752  52.4542962  29.8660246 117.8395117
  51.1710596  30.0887959 120.4529020  51.6710374  30.2004494 119.6443339
  51.8146204  29.7849012 121.0929829  38.4978551  39.8294969 121.2618681
  38.4749240  39.9282656 120.3100564  38.8079188  40.6760119 121.5835847
  51.5031908  32.8482992 117.3064048  50.6157763  33.1332643 117.0884243
  51.9185897  32.6876755 116.4591325  54.8546444  32.8729513 121.0218387
  55.6306834  33.3625965 121.2943004  54.1294578  33.2987567 121.4790257
  57.2919002  33.5857132 122.0792328  57.8863493  33.3452868 121.3685636
  57.3645586  32.8664263 122.7065864  39.5116158  47.4290743 122.3935493
  39.3770626  46.6691144 121.8273491  39.0948220  48.1531643 121.9264282
  50.6475121  42.6127667 111.4012068  51.3510971  42.8177669 112.0169724
  49.9237770  43.1804429 111.6661152  51.4772931  38.3637528 117.5214338
  51.4208133  38.8206079 116.6821971  52.0301274  37.6028213 117.3437181
  55.2877737  34.1527260 118.3464458  55.0314671  33.7523895 119.1772665
  54.6630605  34.8671054 118.2214597  59.5990075  36.8923333 120.8535749
  59.0389633  36.9616522 121.6267311  58.9933578  36.7164318 120.1335245
  42.6685284  48.3260060 122.6053935  42.5517668  49.2705493 122.5032626
  41.8477730  48.0233622 122.9939735  52.5561818  43.0510196 113.4510528
  53.3907422  42.6191394 113.2688003  52.3946161  42.8792210 114.3787423
  52.2107711  39.5542309 114.8166867  52.1556514  39.3886581 113.8755312
  51.5853766  40.2618342 114.9729057  45.5203836  29.0550418 114.3952186
  45.5082506  29.9992258 114.5520457  46.4127258  28.8720564 114.1011647
  43.6939798  48.9788322 125.8209864  44.5967045  49.0111932 126.1376359
  43.4677168  48.0488773 125.8356200  45.4493400  47.7319309 122.4819943
  44.4989031  47.7321170 122.3684315  45.7525886  46.9852043 121.9655977
  49.3355956  25.6493195 118.6498123  48.5688351  25.0951682 118.7954805
  49.7466661  25.7215064 119.5112274  61.1846094  53.5679847 123.5465705
  61.8224504  53.4486594 122.8429045  61.0666936  54.5160691 123.6053657
  57.9935800  53.5207275 123.4827230  57.6554311  53.4048340 122.5947764
  58.8625568  53.1198440 123.4628236  53.8522616  55.3742752 119.4724121
  53.2887481  55.2832688 118.7040408  53.7375011  54.5542656 119.9526613
  58.4755583  54.6742127 129.4413435  58.4644224  54.2794925 128.5693939
  58.6376222  53.9408199 130.0347207  51.3987047  56.8693943 122.3108341
  52.1908339  56.5284768 121.8954640  51.6383698  56.9788918 123.2310494
  59.4322174  59.0413719 114.7838585  58.7810154  59.6267800 114.3972599
  60.2266537  59.5719914 114.8433623  53.3577801  56.1302856 115.1825720
  54.1308677  55.5831843 115.0438596  53.7103200  56.9947106 115.3940181
  55.1962844  57.4579239 128.3892619  54.9052710  58.3624869 128.2739285
  55.8319828  57.4995766 129.1036689  56.1219051  54.8356087 124.9793979
  56.7182623  54.6112110 124.2650942  56.1794022  54.0940833 125.5819427
  55.6944079  52.2895522 112.8144170  55.9469600  51.7677044 112.0527633
  54.7568638  52.1261668 112.9170853  60.7387362  51.2931301 120.6218913
  61.5250451  50.8750724 120.2709330  61.0026066  52.1977393 120.7900561
  60.9097439  56.7304151 115.3207570  60.2743272  56.8038778 116.0328474
  60.5794846  57.3197750 114.6426649  66.1395789  51.2306534 121.5251891
  66.8720961  50.6605751 121.7589721  65.3835145  50.8428134 121.9658397
  55.4140368  54.1923628 115.0168545  55.2976626  53.5168532 115.6849629
  55.5242628  53.7056002 114.2000698  57.7571909  53.6533776 118.7215234
  57.3930116  53.1264397 119.4328155  58.6139025  53.2632245 118.5481719
  63.6621210  44.9428108 125.9846500  63.3304534  45.8123519 125.7607715
  63.0666823  44.6264392 126.6640530  57.3977396  48.6823675 113.7176582
  57.5651798  49.5503912 114.0847053  57.2074565  48.8450957 112.7937872
  60.1552729  57.1440654 125.3842413  59.8553452  58.0465693 125.2758220
  59.8103789  56.8772837 126.2363566  53.6065211  53.5954451 121.4179117
  52.6815707  53.4630665 121.6256809  53.8549624  54.3748670 121.9149060
  63.5549873  49.6623194 123.0639850  62.6466750  49.5938603 122.7698611
  63.5037469  50.1395139 123.8921676  57.3766617  51.1381333 114.7023249
  57.2566242  51.5838383 115.5408730  56.6819205  51.4866650 114.1436787
  50.9674022  53.2387725 122.2522906  51.0966403  53.4922203 123.1662318
  50.2871473  53.8315433 121.9327561  55.1373509  63.9084974 118.3513381
  55.0597539  64.8592800 118.4301861  54.5335152  63.5630847 119.0088307
  57.6290739  51.0812840 131.0074747  56.8524073  51.6406760 130.9977612
  58.2681302  51.5669623 131.5289618  65.4211519  47.8639633 124.8417724
  64.7785899  48.1572166 124.1957519  64.9166448  47.7492553 125.6470921
  63.0751683  51.6102806 115.5303583  63.9869539  51.8430193 115.3551281
  62.5661330  52.1939850 114.9678662  55.8837111  53.8898293 130.5692714
  56.6251795  54.4283337 130.2927538  55.1774096  54.5164582 130.7264266
  61.3592451  56.0327434 129.1664876  61.7675807  55.5909844 128.4219508
  60.6369712  55.4580061 129.4199069  57.7123521  50.9700041 126.5398433
  58.5584716  51.3939454 126.6833082  57.6522158  50.3133665 127.2336996
  61.6821265  56.5928624 122.9217165  61.0530128  56.7574338 122.2193233
  61.2946927  57.0070234 123.6928129  65.5610497  57.5283062 120.2761529
  64.8761535  57.9081964 119.7258562  65.6454346  58.1378389 121.0093476
  60.8622966  48.6304409 128.1979606  60.6183898  49.3846469 127.6613882
  61.1382896  49.0089756 129.0326854  62.8161429  55.1743021 126.8756872
  63.0278324  55.8174781 126.1991253  62.7691177  54.3405338 126.4078802
  60.4187658  47.7860842 123.7793444  59.5572137  48.0842095 124.0710182
  60.4450092  48.0031241 122.8474477  57.2349227  56.3303032 120.1867250
  57.6987573  56.6090735 119.3971872  56.9706025  55.4286477 120.0040341
  54.1273308  55.8774514 123.1247013  54.6974665  56.3061782 122.4864498
  54.7181420  55.5957099 123.8231199  56.1718113  52.4526185 116.9956815
  56.8742156  52.9047228 117.4630741  55.8398742  51.8110004 117.6236708
  54.6198475  51.0437941 131.3708024  53.9897135  51.7254222 131.6043421
  54.5134563  50.9321023 130.4261163  49.9143447  50.7109737 122.2973949
  49.1242501  50.9667266 121.8214059  50.4054694  51.5258075 122.4025989
  63.9307257  58.0514977 125.0479229  64.7524700  57.6495164 124.7661911
  63.9269660  57.9483211 125.9995345  51.8658192  51.0754317 119.2557425
  51.0689356  51.1873011 119.7740921  51.6383785  51.4140969 118.3898316
  57.6963860  57.5999020 127.2039940  57.7608293  58.0619427 128.0398112
  56.9874784  56.9696385 127.3322250  48.1981150  50.9640228 124.7288939
  48.4489189  51.8487238 124.9946515  48.7340698  50.7844829 123.9564031
  72.0213250  54.3953725 121.3964201  71.2676958  53.8261123 121.2408205
  72.1560791  54.3616390 122.3434836  57.4111878  59.2667127 117.0718920
  57.2757553  60.1118663 117.5003768  57.9521690  59.4686405 116.3084854
  50.8641275  56.7842565 117.6446845  51.3765796  57.5785816 117.7952410
  51.5163988  56.0868856 117.5780447  52.6736160  59.9008322 119.7269598
  52.8502788  60.8226286 119.5390582  53.4692993  59.5866741 120.1563978
  56.8147178  46.7616586 131.3253532  57.5556892  47.3623740 131.2457994
  57.0465101  46.0194224 130.7671575  51.9588516  51.9472954 129.6031762
  51.8442032  51.0458211 129.9038861  51.1033034  52.1936650 129.2516578
  59.0380354  59.8890694 131.2019262  58.5944208  59.1027073 130.8840167
  59.6997568  60.0769844 130.5363153  53.7967475  61.4186496 125.7279941
  54.3474900  61.2903559 124.9556935  52.9578951  61.7181385 125.3774834
  61.1361592  60.1693494 129.2300664  61.1180068  60.9902375 128.7380933
  62.0581512  60.0447569 129.4550805  57.5934646  57.6837623 130.0724172
  58.1262983  56.9225912 129.8423480  57.0648727  57.3911275 130.8148326
  60.7604341  42.7897689 125.6017814  60.4168611  43.6799331 125.5256924
  61.1283304  42.5999347 124.7387399  48.8290192  55.1131220 118.4206416
  49.6665414  55.5228228 118.2040124  49.0068460  54.1730662 118.3906610
  60.7254624  52.7806300 114.1090249  60.2101248  53.5510905 114.3478636
  60.4531933  52.1071437 114.7323310  58.3101735  47.6256001 119.1675487
  57.4543331  47.2362852 118.9881126  58.7228687  47.7047962 118.3075273
  59.8400882  45.1602344 123.5667047  59.3365677  45.1232480 122.7534852
  60.1331489  46.0695087 123.6263704  56.0843768  45.2441074 122.5733229
  56.9496764  45.0483883 122.2139118  56.1521277  45.0151426 123.5002585
  65.6988898  55.5338655 116.0443422  64.9218341  55.1949815 115.5998584
  66.3780379  55.5391278 115.3698387  60.5140927  50.6533393 115.9350030
  60.2091063  50.9679542 116.7860173  61.4671369  50.7314812 115.9777363
  58.9587359  56.8123616 117.5842984  58.4308721  56.0776375 117.2716221
  58.4574862  57.5898292 117.3382952  63.9380205  55.0072636 122.7010030
  63.2803880  55.6971898 122.7890159  64.7420604  55.3969068 123.0444017
  53.6906087  47.4743282 119.9449595  54.2649839  47.2518464 119.2122788
  54.2777069  47.5431977 120.6978197  62.7485664  53.3617009 120.7513972
  63.2617546  53.9947001 121.2535682  63.3986888  52.7618205 120.3857332
  54.0175674  49.5047743 113.9645481  53.1812986  49.8422430 114.2854755
  53.8780443  49.3696723 113.0272618  55.9928754  44.3484531 118.6724665
  55.3393167  44.0333548 118.0481280  55.9509229  43.7260271 119.3984488
  57.1039959  54.6303826 110.5877957  56.1967021  54.3993080 110.7869106
  57.6010991  53.8341445 110.7751939  60.0108038  63.3401333 113.5074643
  59.3369737  63.6433030 114.1159601  60.3973860  64.1430414 113.1580100
  59.2266495  50.8366465 122.9972313  58.3089056  51.0581412 122.8394001
  59.6426638  50.9112775 122.1384020  60.0101543  52.2357880 118.1274993
  60.7573361  52.7479277 117.8182115  60.2793132  51.9141933 118.9879386
  58.2828193  54.7316421 115.1101947  57.3739412  54.4475454 115.2074417
  58.3123277  55.1515500 114.2505254  63.5147460  58.3423010 118.8793115
  63.0609787  57.5013920 118.9358305  62.8841427  58.9784409 119.2167895
  62.4580380  49.2714997 120.1093782  61.7203136  48.7592383 120.4404025
  62.7107153  48.8315378 119.2977059  61.9580399  60.1799507 119.8142933
  62.2503374  60.7404564 119.0955298  62.4679020  60.4728068 120.5696092
  62.5592007  42.0491249 120.7035551  62.8650884  41.1888612 120.4161466
  63.2844612  42.6408869 120.5034545  48.8516363  52.4521935 119.0917149
  48.6540763  51.8591296 118.3668216  48.2963027  52.1474145 119.8093088
  56.8313087  52.3445042 121.2111742  56.8861697  51.3918878 121.1354219
  56.0204289  52.5004481 121.6953041  57.9804281  56.2725165 112.4490026
  57.5423710  55.5561024 111.9895663  58.7214721  56.5001279 111.8875117
  54.7705447  50.9622101 118.9702121  53.9573312  51.2616272 119.3767313
  55.2664441  50.5677790 119.6876604  56.9214025  60.9579858 120.9036386
  56.8790203  61.1840705 119.9744918  57.8376723  60.7243233 121.0522187
  60.3679658  51.4263926 127.8017015  60.7229046  51.6535399 128.6611481
  61.0151790  51.7582303 127.1794271  66.0977395  54.5482362 118.5066344
  65.9595294  54.7383958 117.5787533  65.7413614  55.3101744 118.9634395
  54.2619521  48.5340457 124.5863356  54.9018901  48.3929216 123.8886320
  53.4297052  48.2474970 124.2101958  66.1246775  56.6158889 123.5177616
  66.5583282  56.5234178 124.3660670  66.8378356  56.5916389 122.8797632
  55.0379825  57.8342887 120.6998349  55.8320424  57.3393207 120.4980924
  54.3271518  57.3060750 120.3366054  59.8574670  60.2160983 125.0510716
  59.9111692  60.7851919 125.8188432  58.9889451  60.3862868 124.6864753
  51.3462589  51.9785969 116.7758101  50.4160177  51.9170424 116.9928064
  51.4420061  51.4561922 115.9794743  51.2648138  48.5040782 119.3636343
  51.5254955  49.4186115 119.2545504  52.0865310  48.0365224 119.5132956
  52.7373063  49.9178539 126.5335168  53.4096117  49.7095901 125.8847817
  51.9102850  49.7200625 126.0940400  66.9862324  56.6582589 126.0510501
  67.1798215  57.5628400 126.2969776  66.8862943  56.1990008 126.8849086
  58.6398635  46.5440480 128.5500828  57.9926550  47.2430430 128.4565305
  59.4099651  46.9776624 128.9177077  62.0477433  56.8089332 131.6251382
  61.8962940  56.5799884 130.7081465  62.0382113  57.7659934 131.6382727
  58.8162770  54.3821245 126.6097648  59.7454830  54.5332404 126.4366616
  58.3953800  54.4705266 125.7546295  57.6151101  58.4071909 124.3796186
  57.4762187  58.0390694 125.2522124  56.8265698  58.9219549 124.2080144
  58.2099253  63.5081006 115.7221722  58.3851009  63.0369049 116.5367345
  57.5232041  64.1346772 115.9502983  59.1656316  57.7853512 121.7685024
  58.8306149  57.7454282 122.6642673  58.6660262  57.1198228 121.2955434
  53.1400560  53.1921142 127.2937605  53.0020358  52.4601381 127.8949144
  54.0505484  53.1030042 127.0121793  62.1015508  55.1309546 112.0422083
  61.4844679  54.4056374 111.9455136  61.6331997  55.8918907 111.6989158
  55.7682861  52.9041101 126.7821284  56.4782480  52.2634293 126.7407903
  55.7252169  53.1553996 127.7047465  63.7569640  59.8408455 129.7027864
  63.6982186  59.1567675 129.0358447  64.1589158  60.5827445 129.2508490
  54.4811795  49.8906319 128.6016924  53.9449152  49.4397058 129.2538520
  53.8928504  50.0252228 127.8587388  52.7760339  66.6570368 122.4961583
  53.0156937  67.2888893 123.1740601  51.9329535  66.3058409 122.7826942
  53.8914054  49.3494971 111.1643388  53.0143520  49.2283771 110.8005634
  54.3671807  48.5581049 110.9122276  63.7587047  57.8048039 127.9341843
  62.8713826  57.4673960 128.0568242  64.3285598  57.0731070 128.1710609
  45.4116194  54.1372130 121.2584895  46.0987234  53.8233860 120.6705910
  45.2564323  55.0413495 120.9852146  50.2150916  49.0262327 125.6869918
  50.1309105  48.4187996 124.9520328  49.3933623  49.5171345 125.6879415
  57.2888200  62.4649491 124.9003087  57.2158372  63.2704462 125.4122391
  56.8465594  62.6641457 124.0751108  57.0777980  61.7021261 118.4105908
  56.2945502  62.2442941 118.5044133  57.7770725  62.2195241 118.8100149
  60.3874630  47.5115890 121.0540113  60.8843330  46.7585853 120.7341184
  59.6161612  47.5480207 120.4883323  68.2404388  53.2156256 122.6958405
  68.2294264  54.0980971 122.3252338  67.3721767  52.8627807 122.5012942
  59.7486884  62.3636325 127.0561245  60.4614856  62.9983790 126.9837147
  59.2576913  62.4600191 126.2401247  61.4704411  56.2687578 118.6278537
  60.5360690  56.3889040 118.4583241  61.6481079  55.3660044 118.3638547
  56.9709599  49.6533273 120.7811798  56.6007386  49.1004314 121.4692704
  57.4668691  49.0491407 120.2286798  64.8576962  52.1104897 119.1628571
  65.3237414  52.9432889 119.0888874  65.3084463  51.6449878 119.8673829
  54.7998797  60.1130768 127.8766816  55.5008257  60.7467251 128.0296210
  54.3293912  60.4545500 127.1162455  62.9253193  58.4548718 116.1614723
  63.2013037  58.3405313 117.0708597  62.0557692  58.0566203 116.1226896
  62.8293625  44.4785484 123.2019472  61.9156705  44.7089711 123.3701679
  63.2586726  44.5623928 124.0533505  62.6000083  52.6675376 125.7019366
  61.9471534  52.9151283 125.0471819  62.9780463  51.8539514 125.3681844
  59.5607257  62.7035069 119.8047537  59.7429652  61.8856725 120.2675289
  60.3840243  62.9202761 119.3672427  59.8949423  61.6303254 117.0662585
  60.4237189  61.1195709 116.4532747  60.1577642  61.3145784 117.9308118
  58.6487656  53.4095187 132.1885403  57.9728294  53.3089316 132.8587779
  59.4715290  53.2534401 132.6521401  50.3966516  59.6467123 124.8097919
  50.9819952  58.9010811 124.9425823  50.1991354  59.9571080 125.6934583
  53.2505171  62.6818371 119.8260361  52.5815546  63.1664498 119.3424401
  53.1118040  62.9287591 120.7403740  44.9884170  52.2172724 123.5302362
  45.0268270  51.6836314 124.3239480  44.4824463  51.6907929 122.9113339
  57.3910439  64.7162114 126.4243019  57.9428747  64.8793736 127.1892105
  57.7316633  65.3066552 125.7523044  52.3674933  47.0637264 127.0264904
  52.4316259  47.9252095 126.6142302  52.3042053  46.4511266 126.2937263
  51.8427205  49.1360397 130.6737938  52.4699244  48.7537474 131.2875463
  50.9855124  48.9174599 131.0393631  62.2421314  59.5423372 132.2791674
  62.7861218  60.1553330 131.7846629  61.6608159  60.1002950 132.7958687
  48.6192748  50.9436826 116.6056293  48.9146189  50.0347504 116.5523347
  47.7180784  50.9224565 116.2837296  60.5278827  62.6644090 123.4106702
  60.4029966  61.8633830 122.9017647  61.1857918  63.1590283 122.9220672
  52.1486995  49.0192822 122.5883842  51.4273581  49.6328790 122.4491315
  52.9380251  49.5550587 122.5100488  62.5913735  60.4653110 125.0386252
  61.6444071  60.3458461 124.9664578  62.9396508  59.5775608 125.1212513
  54.9513308  46.3547249 128.8624494  55.4747710  46.6009545 129.6250803
  54.7325642  47.1867284 128.4427631  50.3480589  48.6250923 116.7295618
  50.0193296  47.7448302 116.5470724  50.7019960  48.5698592 117.6172008
  59.5960168  60.2605826 121.2390604  59.4485131  59.3322534 121.4198174
  60.4213662  60.2825917 120.7547679  53.4622413  48.9123893 117.0971096
  53.8018485  49.4409815 116.3749704  53.9094533  49.2504299 117.8729663
  63.1994290  61.0834385 122.3255477  64.1240838  60.8777246 122.1879928
  63.0309594  60.8350786 123.2344818  56.1565853  47.2960944 126.5474164
  55.8162674  46.4968757 126.9494844  55.4504860  47.5962655 125.9750997
  56.8082325  44.3810256 125.0001487  57.6308395  43.9070735 124.8780377
  57.0520389  45.1600740 125.5000173  55.4490560  47.4098515 115.2964389
  56.1698922  47.7879768 114.7928106  54.8255864  48.1287392 115.3999367
  59.5921683  48.1143664 116.2322721  59.8085297  48.9968302 115.9311549
  59.1115750  47.7229877 115.5028363  54.3320904  51.0729377 122.8093466
  54.1865485  51.3869680 123.7017747  53.8546108  51.6914277 122.2564364
  56.1917287  48.0631925 122.8574355  56.1778856  47.1673018 122.5206653
  56.9089715  48.0702589 123.4912641  58.0443418  48.4969265 124.9027483
  57.7861195  49.4186336 124.9011813  57.5128458  48.0999700 125.5927947
  62.9889606  61.6020052 117.6817568  63.1626484  61.0366475 116.9291421
  63.4818498  62.4020947 117.4997058  48.8066566  53.6134721 125.7481127
  48.2620034  54.3894529 125.8801401  49.6845916  53.9605526 125.5900248
  55.5954183  46.9446305 118.1261925  55.7170094  46.0162952 118.3252813
  55.3056225  46.9584991 117.2140241  58.4645373  44.6301216 121.2628645
  58.4867070  44.6940549 120.3080625  58.8813432  43.7905724 121.4569151
  68.8428998  54.3656475 119.3007868  69.2860144  53.6163801 118.9026991
  67.9655508  54.3566612 118.9181600  63.9764779  60.9186817 114.7814466
  64.6715683  61.5393509 115.0001781  64.3187929  60.0682168 115.0566844
  49.5932588  52.7404618 128.6411284  48.8514324  52.8887253 129.2275914
  49.2725332  53.0012883 127.7778033  65.8756202  58.3686522 116.3101797
  66.4007526  58.7073795 115.5851117  65.7878555  57.4333538 116.1264932
  57.5376251  62.2820596 128.4391674  57.8463377  62.0369743 129.3114373
  58.3351733  62.4867234 127.9510544  57.5596863  64.4358506 120.6697050
  57.1201853  63.9434884 121.3629907  58.3104980  63.8931473 120.4289126
  50.0389202  60.6270046 120.6721678  50.8647222  60.3273818 120.2920322
  49.6883254  59.8577669 121.1211467  55.0070735  59.9796515 122.7419352
  54.3850744  59.3167220 122.4421580  55.6775602  60.0057647 122.0593000
  48.2397807  58.5456373 121.6310612  47.4029715  58.1178547 121.4494613
  48.2121452  58.7388816 122.5681403  55.0795262  48.4578303 132.3351858
  55.1283418  49.3340426 131.9529628  55.6217777  47.9155696 131.7623501
  65.5650108  59.0019426 131.6152995  64.7745652  58.9843565 131.0757495
  65.3283463  59.5407720 132.3702032  65.6847983  55.8511892 128.9285724
  65.7345988  55.6861900 129.8701246  65.5761906  54.9839151 128.5383604
  54.5684242  58.5300438 116.2177813  54.7172362  59.2135902 115.5644485
  55.3750685  58.5105528 116.7327268  62.9751746  51.8342820 130.2445030
  63.8761608  51.6949285 129.9529028  63.0499720  51.9997275 131.1843208
  57.3094551  49.2109675 129.0898217  56.4397860  49.5043241 128.8180805
  57.5454031  49.7950120 129.8105480  67.1866180  58.2708834 129.1727745
  66.8950988  58.6338814 130.0091206  66.5738311  57.5575842 128.9941077
  68.3861862  55.8361714 121.6930315  69.2208754  56.2751518 121.8567876
  68.5220991  55.3600367 120.8738561  65.4353368  53.3941448 127.6407803
  65.9107490  53.5869095 126.8326655  64.5118934  53.4500634 127.3951187
  52.3236875  54.5565616 117.2238881  52.0782917  53.6527946 117.4219092
  52.4932789  54.5582766 116.2818359  60.0133585  45.4289292 126.6063637
  60.5315529  46.1650319 126.2810126  59.6588717  45.7353285 127.4410396
  51.5932522  50.2893973 114.7225043  50.9001767  50.3638328 114.0665079
  51.3484274  49.5254317 115.2446560  60.2646179  41.8489575 122.1264534
  60.5447933  41.1812764 122.7524960  61.0496786  42.0418670 121.6139197
  58.0679647  61.0248568 113.6889560  57.4953614  61.6438756 113.2360032
  58.6412441  61.5747930 114.2229482  64.1355037  50.2707209 125.8736109
  65.0872460  50.3705306 125.8948333  63.9658488  49.4785477 126.3834193
  62.1569417  47.3562792 126.0595510  61.5619349  47.6367805 125.3641998
  61.8719113  47.8456693 126.8312251  61.2876907  61.3085719 114.8198142
  62.2207580  61.2431280 115.0231018  61.2000120  62.1441985 114.3612675
  63.9164924  60.6251589 111.7802090  63.8378555  60.2911453 112.6737848
  64.7374591  61.1173357 111.7793562  66.6143115  53.4913328 124.9878408
  66.5819435  52.5529329 125.1738092  67.2243739  53.5697365 124.2544233
  58.4526446  52.3609381 111.0305612  59.3985551  52.2315589 111.0994030
  58.0740691  51.6224043 111.5075041  66.7637603  50.2824372 125.0336692
  66.2476652  49.4982828 124.8466620  67.6477552  49.9543088 125.1983211
  64.4248330  44.0265387 120.9932504  64.2273152  43.7180475 121.8775836
  65.0348036  44.7527026 121.1230434  72.4319665  54.5529335 124.1284445
  73.1623053  54.2914623 124.6892149  71.8226610  53.8158057 124.1686513
  70.5134962  52.6937198 124.7258896  69.7868126  52.5593163 124.1175388
  70.0982249  53.0014026 125.5315614  58.3365138  56.4127127 132.4906269
  59.2568148  56.5905726 132.6846316  58.3014721  55.4683173 132.3385969
  56.6369363  50.2859358 110.9660498  55.7300818  49.9892470 111.0423211
  56.9145344  49.9889176 110.0994784  47.5547303  51.6065721 121.4159544
  47.2350088  50.7531029 121.1233918  47.0080732  51.8214299 122.1717511
  51.3327211  54.3228162 125.1329051  51.5513221  55.2545270 125.1517084
  51.7452985  53.9636136 125.9183854  58.2531429  44.8296247 117.1204739
  57.4432157  44.4843332 117.4959985  58.9415846  44.5203791 117.7092351
  60.1821977  43.9074294 118.7429036  60.7353016  44.3269748 119.4019059
  60.4192063  42.9810042 118.7851992  56.2055076  49.8961368 134.5231800
  56.1051803  50.8455725 134.4543891  55.9876618  49.5679607 133.6507870
  55.4068148  47.1446293 111.1072477  56.2687312  47.4701191 111.3668294
  55.5918492  46.3577789 110.5945543  47.4235563  55.2268633 123.3852666
  46.7299035  54.8122585 122.8722620  48.1708554  55.2689169 122.7886085
  63.5600784  46.0174819 118.2507700  62.9799453  46.6759623 117.8685752
  63.2936717  45.1952164 117.8395117  62.0104350  45.4179877 120.4529020
  62.5104129  45.5296412 119.6443339  62.6539958  45.1140930 121.0929829
  56.0686346  53.3258507 133.3396861  55.5853428  54.1258867 133.5460750
  56.1547285  53.3366451 132.3864305  49.3372306  55.1586886 121.2618681
  49.3142994  55.2574574 120.3100564  49.6472942  56.0052037 121.5835847
  51.9959684  57.2163041 125.3765295  52.9502937  57.1846984 125.3095227
  51.7972207  56.7553665 126.1915521  52.5859066  55.7864157 127.9436093
  53.4051955  56.2808236 127.9670930  52.8595874  54.8696126 127.9153660
  62.3425662  48.1774910 117.3064048  61.4551517  48.4624560 117.0884243
  62.7579651  48.0168673 116.4591325  65.6940198  48.2021431 121.0218387
  66.4700588  48.6917883 121.2943004  64.9688332  48.6279485 121.4790257
  68.1312757  48.9149050 122.0792328  68.7257248  48.6744786 121.3685636
  68.2039341  48.1956180 122.7065864  50.3509913  62.7582661 122.3935493
  50.2164380  61.9983062 121.8273491  49.9341975  63.4823561 121.9264282
  61.4868876  57.9419584 111.4012068  62.1904726  58.1469587 112.0169724
  60.7631524  58.5096346 111.6661152  62.3166686  53.6929446 117.5214338
  62.2601887  54.1497997 116.6821971  62.8695028  52.9320130 117.3437181
  66.1271492  49.4819177 118.3464458  65.8708426  49.0815813 119.1772665
  65.5024360  50.1962971 118.2214597  70.4383830  52.2215251 120.8535749
  69.8783388  52.2908440 121.6267311  69.8327333  52.0456235 120.1335245
  53.5079038  63.6551978 122.6053935  53.3911423  64.5997410 122.5032626
  52.6871485  63.3525539 122.9939735  63.3955573  58.3802114 113.4510528
  64.2301177  57.9483312 113.2688003  63.2339916  58.2084127 114.3787423
  63.0501465  54.8834227 114.8166867  62.9950269  54.7178498 113.8755312
  62.4247520  55.5910260 114.9729057  47.8393980  50.1202291 128.6428290
  48.4852844  49.6101245 129.1315515  47.6311131  50.8570973 129.2171715
  60.3647372  57.1883139 134.1420430  61.2338532  57.3623791 133.7807065
  59.8854124  58.0077556 134.0196160  56.3597591  44.3842336 114.3952186
  56.3476260  45.3284176 114.5520457  57.2521012  44.2012481 114.1011647
  54.5333553  64.3080240 125.8209864  55.4360799  64.3403850 126.1376359
  54.3070923  63.3780691 125.8356200  56.2887155  63.0611226 122.4819943
  55.3382786  63.0613088 122.3684315  56.5919641  62.3143961 121.9655977
  60.1749710  40.9785113 118.6498123  59.4082106  40.4243599 118.7954805
  60.5860415  41.0506981 119.5112274  72.0239848  68.8971765 123.5465705
  72.6618258  68.7778512 122.8429045  71.9060691  69.8452609 123.6053657
  68.8329554  68.8499193 123.4827230  68.4948066  68.7340257 122.5947764
  69.7019323  68.4490358 123.4628236  64.6916370  70.7034669 119.4724121
  64.1281235  70.6124606 118.7040408  64.5768765  69.8834574 119.9526613
  69.3149337  70.0034044 129.4413435  69.3037978  69.6086843 128.5693939
  69.4769977  69.2700117 130.0347207  62.2380802  72.1985861 122.3108341
  63.0302094  71.8576685 121.8954640  62.4777452  72.3080836 123.2310494
  70.2715929  74.3705637 114.7838585  69.6203909  74.9559717 114.3972599
  71.0660292  74.9011832 114.8433623  64.1971556  71.4594774 115.1825720
  64.9702432  70.9123761 115.0438596  64.5496955  72.3239023 115.3940181
  66.0356598  72.7871156 128.3892619  65.7446464  73.6916787 128.2739285
  66.6713583  72.8287684 129.1036689  66.9612805  70.1648005 124.9793979
  67.5576378  69.9404027 124.2650942  67.0187777  69.4232750 125.5819427
  66.5337834  67.6187440 112.8144170  66.7863354  67.0968961 112.0527633
  65.5962393  67.4553586 112.9170853  71.5781117  66.6223219 120.6218913
  72.3644206  66.2042642 120.2709330  71.8419821  67.5269311 120.7900561
  71.7491194  72.0596069 115.3207570  71.1137027  72.1330695 116.0328474
  71.4188600  72.6489668 114.6426649  76.9789544  66.5598452 121.5251891
  77.7114716  65.9897669 121.7589721  76.2228899  66.1720052 121.9658397
  66.2534122  69.5215546 115.0168545  66.1370381  68.8460449 115.6849629
  66.3636382  69.0347920 114.2000698  68.5965663  68.9825693 118.7215234
  68.2323871  68.4556314 119.4328155  69.4532779  68.5924162 118.5481719
  74.5014964  60.2720026 125.9846500  74.1698289  61.1415437 125.7607715
  73.9060577  59.9556310 126.6640530  68.2371150  64.0115593 113.7176582
  68.4045553  64.8795829 114.0847053  68.0468319  64.1742875 112.7937872
  70.9946484  72.4732572 125.3842413  70.6947207  73.3757611 125.2758220
  70.6497543  72.2064755 126.2363566  64.4458965  68.9246369 121.4179117
  63.5209462  68.7922583 121.6256809  64.6943378  69.7040588 121.9149060
  74.3943627  64.9915112 123.0639850  73.4860505  64.9230520 122.7698611
  74.3431223  65.4687057 123.8921676  68.2160371  66.4673250 114.7023249
  68.0959996  66.9130301 115.5408730  67.5212960  66.8158568 114.1436787
  61.8067776  68.5679642 122.2522906  61.9360157  68.8214121 123.1662318
  61.1265227  69.1607350 121.9327561  65.9767263  79.2376892 118.3513381
  65.8991293  80.1884717 118.4301861  65.3728907  78.8922765 119.0088307
  68.4684493  66.4104758 131.0074747  67.6917827  66.9698678 130.9977612
  69.1075056  66.8961541 131.5289618  76.2605274  63.1931550 124.8417724
  75.6179654  63.4864084 124.1957519  75.7560202  63.0784471 125.6470921
  73.9145437  66.9394724 115.5303583  74.8263294  67.1722110 115.3551281
  73.4055084  67.5231768 114.9678662  66.7230865  69.2190211 130.5692714
  67.4645550  69.7575255 130.2927538  66.0167851  69.8456500 130.7264266
  72.1986205  71.3619351 129.1664876  72.6069561  70.9201762 128.4219508
  71.4763467  70.7871979 129.4199069  68.5517275  66.2991958 126.5398433
  69.3978470  66.7231372 126.6833082  68.4915913  65.6425582 127.2336996
  72.5215020  71.9220542 122.9217165  71.8923882  72.0866256 122.2193233
  72.1340682  72.3362152 123.6928129  76.4004252  72.8574980 120.2761529
  75.7155290  73.2373881 119.7258562  76.4848101  73.4670307 121.0093476
  71.7016720  63.9596327 128.1979606  71.4577652  64.7138387 127.6613882
  71.9776651  64.3381674 129.0326854  73.6555183  70.5034939 126.8756872
  73.8672078  71.1466699 126.1991253  73.6084931  69.6697255 126.4078802
  71.2581412  63.1152760 123.7793444  70.3965891  63.4134013 124.0710182
  71.2843847  63.3323158 122.8474477  68.0742982  71.6594950 120.1867250
  68.5381327  71.9382653 119.3971872  67.8099780  70.7578395 120.0040341
  64.9667063  71.2066432 123.1247013  65.5368420  71.6353700 122.4864498
  65.5575175  70.9249016 123.8231199  67.0111868  67.7818102 116.9956815
  67.7135911  68.2339146 117.4630741  66.6792496  67.1401921 117.6236708
  65.4592229  66.3729859 131.3708024  64.8290890  67.0546140 131.6043421
  65.3528317  66.2612941 130.4261163  60.7537202  66.0401655 122.2973949
  59.9636256  66.2959184 121.8214059  61.2448449  66.8549993 122.4025989
  74.7701011  73.3806894 125.0479229  75.5918455  72.9787082 124.7661911
  74.7663414  73.2775128 125.9995345  62.7051947  66.4046234 119.2557425
  61.9083110  66.5164929 119.7740921  62.4777539  66.7432887 118.3898316
  68.5357615  72.9290938 127.2039940  68.6002047  73.3911345 128.0398112
  67.8268538  72.2988303 127.3322250  59.0374905  66.2932146 124.7288939
  59.2882943  67.1779156 124.9946515  59.5734453  66.1136747 123.9564031
  82.8607004  69.7245643 121.3964201  82.1070713  69.1553041 121.2408205
  82.9954545  69.6908307 122.3434836  68.2505632  74.5959045 117.0718920
  68.1151307  75.4410581 117.5003768  68.7915445  74.7978323 116.3084854
  64.7372972  60.6750625 133.7333275  64.3439917  60.1216824 134.4080920
  65.5539112  60.9861203 134.1239793  61.7035030  72.1134483 117.6446845
  62.2159550  72.9077733 117.7952410  62.3557742  71.4160774 117.5780447
  63.5129914  75.2300239 119.7269598  63.6896543  76.1518204 119.5390582
  64.3086748  74.9158659 120.1563978  67.6540933  62.0908504 131.3253532
  68.3950646  62.6915657 131.2457994  67.8858856  61.3486142 130.7671575
  62.7982271  67.2764871 129.6031762  62.6835786  66.3750129 129.9038861
  61.9426789  67.5228568 129.2516578  69.8774109  75.2182612 131.2019262
  69.4337963  74.4318990 130.8840167  70.5391322  75.4061762 130.5363153
  64.6361230  76.7478413 125.7279941  65.1868655  76.6195477 124.9556935
  63.7972706  77.0473302 125.3774834  71.9755347  75.4985412 129.2300664
  71.9573822  76.3194293 128.7380933  72.8975267  75.3739487 129.4550805
  68.4328401  73.0129541 130.0724172  68.9656738  72.2517829 129.8423480
  67.9042482  72.7203193 130.8148326  71.5998096  58.1189607 125.6017814
  71.2562365  59.0091249 125.5256924  71.9677058  57.9291265 124.7387399
  59.6683946  70.4423137 118.4206416  60.5059168  70.8520146 118.2040124
  59.8462214  69.5022580 118.3906610  71.5648379  68.1098218 114.1090249
  71.0495002  68.8802823 114.3478636  71.2925687  67.4363354 114.7323310
  69.1495490  62.9547919 119.1675487  68.2937086  62.5654769 118.9881126
  69.5622441  63.0339880 118.3075273  70.6794636  60.4894262 123.5667047
  70.1759432  60.4524397 122.7534852  70.9725243  61.3987005 123.6263704
  66.9237522  60.5732992 122.5733229  67.7890519  60.3775801 122.2139118
  66.9915031  60.3443344 123.5002585  76.5382653  70.8630573 116.0443422
  75.7612095  70.5241732 115.5998584  77.2174134  70.8683196 115.3698387
  71.3534682  65.9825310 115.9350030  71.0484817  66.2971459 116.7860173
  72.3065124  66.0606730 115.9777363  69.7981114  72.1415534 117.5842984
  69.2702475  71.4068293 117.2716221  69.2968616  72.9190210 117.3382952
  74.7773960  70.3364554 122.7010030  74.1197634  71.0263815 122.7890159
  75.5814359  70.7260986 123.0444017  64.5299841  62.8035200 119.9449595
  65.1043593  62.5810381 119.2122788  65.1170824  62.8723894 120.6978197
  73.5879418  68.6908927 120.7513972  74.1011300  69.3238919 121.2535682
  74.2380642  68.0910122 120.3857332  64.8569428  64.8339661 113.9645481
  64.0206741  65.1714347 114.2854755  64.7174198  64.6988641 113.0272618
  66.8322509  59.6776449 118.6724665  66.1786921  59.3625466 118.0481280
  66.7902983  59.0552189 119.3984488  67.9433714  69.9595744 110.5877957
  67.0360775  69.7284997 110.7869106  68.4404746  69.1633363 110.7751939
  70.8501793  78.6693251 113.5074643  70.1763491  78.9724948 114.1159601
  71.2367615  79.4722331 113.1580100  70.0660249  66.1658382 122.9972313
  69.1482811  66.3873329 122.8394001  70.4820393  66.2404693 122.1384020
  70.8495297  67.5649798 118.1274993  71.5967116  68.0771195 117.8182115
  71.1186887  67.2433851 118.9879386  69.1221947  70.0608339 115.1101947
  68.2133166  69.7767371 115.2074417  69.1517031  70.4807417 114.2505254
  74.3541215  73.6714928 118.8793115  73.9003542  72.8305838 118.9358305
  73.7235181  74.3076327 119.2167895  73.2974134  64.6006914 120.1093782
  72.5596891  64.0884300 120.4404025  73.5500908  64.1607296 119.2977059
  72.7974154  75.5091425 119.8142933  73.0897128  76.0696482 119.0955298
  73.3072774  75.8019986 120.5696092  73.3985761  57.3783166 120.7035551
  73.7044638  56.5180530 120.4161466  74.1238366  57.9700786 120.5034545
  59.6910118  67.7813853 119.0917149  59.4934517  67.1883213 118.3668216
  59.1356782  67.4766063 119.8093088  67.6706841  67.6736959 121.2111742
  67.7255451  66.7210796 121.1354219  66.8598043  67.8296398 121.6953041
  68.8198035  71.6017082 112.4490026  68.3817465  70.8852941 111.9895663
  69.5608476  71.8293197 111.8875117  65.6099201  66.2914019 118.9702121
  64.7967067  66.5908190 119.3767313  66.1058195  65.8969708 119.6876604
  67.7607779  76.2871776 120.9036386  67.7183958  76.5132622 119.9744918
  68.6770478  76.0535151 121.0522187  71.2073413  66.7555843 127.8017015
  71.5622801  66.9827317 128.6611481  71.8545544  67.0874220 127.1794271
  76.9371150  69.8774279 118.5066344  76.7989048  70.0675875 117.5787533
  76.5807369  70.6393662 118.9634395  65.1013276  63.8632375 124.5863356
  65.7412655  63.7221134 123.8886320  64.2690806  63.5766888 124.2101958
  76.9640529  71.9450806 123.5177616  77.3977036  71.8526095 124.3660670
  77.6772110  71.9208307 122.8797632  65.8773580  73.1634805 120.6998349
  66.6714178  72.6685125 120.4980924  65.1665272  72.6352668 120.3366054
  70.6968424  75.5452900 125.0510716  70.7505447  76.1143837 125.8188432
  69.8283206  75.7154786 124.6864753  62.1856343  67.3077887 116.7758101
  61.2553931  67.2462342 116.9928064  62.2813815  66.7853839 115.9794743
  62.1041892  63.8332700 119.3636343  62.3648710  64.7478033 119.2545504
  62.9259065  63.3657142 119.5132956  63.5766818  65.2470457 126.5335168
  64.2489871  65.0387819 125.8847817  62.7496604  65.0492543 126.0940400
  77.8256079  71.9874507 126.0510501  78.0191969  72.8920318 126.2969776
  77.7256697  71.5281926 126.8849086  69.4792390  61.8732398 128.5500828
  68.8320305  62.5722347 128.4565305  70.2493405  62.3068542 128.9177077
  72.8871188  72.1381250 131.6251382  72.7356694  71.9091801 130.7081465
  72.8775867  73.0951851 131.6382727  69.6556524  69.7113163 126.6097648
  70.5848584  69.8624322 126.4366616  69.2347554  69.7997183 125.7546295
  68.4544856  73.7363827 124.3796186  68.3155942  73.3682611 125.2522124
  67.6659452  74.2511466 124.2080144  69.0493008  78.8372923 115.7221722
  69.2244763  78.3660967 116.5367345  68.3625796  79.4638690 115.9502983
  70.0050071  73.1145430 121.7685024  69.6699904  73.0746200 122.6642673
  69.5054017  72.4490146 121.2955434  63.9794315  68.5213060 127.2937605
  63.8414113  67.7893298 127.8949144  64.8899238  68.4321960 127.0121793
  72.9409263  70.4601464 112.0422083  72.3238433  69.7348292 111.9455136
  72.4725751  71.2210824 111.6989158  66.6076616  68.2333019 126.7821284
  67.3176234  67.5926211 126.7407903  66.5645924  68.4845914 127.7047465
  74.5963394  75.1700372 129.7027864  74.5375940  74.4859592 129.0358447
  74.9982913  75.9119362 129.2508490  65.3205550  65.2198237 128.6016924
  64.7842907  64.7688975 129.2538520  64.7322258  65.3544146 127.8587388
  63.6154093  81.9862286 122.4961583  63.8550691  82.6180810 123.1740601
  62.7723290  81.6350326 122.7826942  64.7307809  64.6786888 111.1643388
  63.8537275  64.5575689 110.8005634  65.2065562  63.8872967 110.9122276
  74.5980802  73.1339956 127.9341843  73.7107580  72.7965878 128.0568242
  75.1679353  72.4022987 128.1710609  56.2509949  69.4664048 121.2584895
  56.9380988  69.1525778 120.6705910  56.0958077  70.3705413 120.9852146
  61.0544671  64.3554245 125.6869918  60.9702860  63.7479914 124.9520328
  60.2327377  64.8463263 125.6879415  68.1281955  77.7941409 124.9003087
  68.0552126  78.5996380 125.4122391  67.6859348  77.9933374 124.0751108
  67.9171735  77.0313179 118.4105908  67.1339256  77.5734859 118.5044133
  68.6164480  77.5487158 118.8100149  71.2268385  62.8407808 121.0540113
  71.7237084  62.0877770 120.7341184  70.4555366  62.8772125 120.4883323
  79.0798142  68.5448174 122.6958405  79.0688018  69.4272889 122.3252338
  78.2115522  68.1919724 122.5012942  70.5880638  77.6928243 127.0561245
  71.3008611  78.3275707 126.9837147  70.0970667  77.7892109 126.2401247
  72.3098165  71.5979495 118.6278537  71.3754444  71.7180958 118.4583241
  72.4874834  70.6951962 118.3638547  67.8103353  64.9825191 120.7811798
  67.4401141  64.4296231 121.4692704  68.3062446  64.3783325 120.2286798
  75.6970717  67.4396815 119.1628571  76.1631169  68.2724806 119.0888874
  76.1478217  66.9741796 119.8673829  65.6392552  75.4422686 127.8766816
  66.3402011  76.0759169 128.0296210  65.1687667  75.7837418 127.1162455
  73.7646948  73.7840636 116.1614723  74.0406792  73.6697230 117.0708597
  72.8951447  73.3858121 116.1226896  73.6687379  59.8077402 123.2019472
  72.7550459  60.0381628 123.3701679  74.0980481  59.8915846 124.0533505
  73.4393838  67.9967294 125.7019366  72.7865288  68.2443201 125.0471819
  73.8174218  67.1831432 125.3681844  70.4001012  78.0326987 119.8047537
  70.5823406  77.2148643 120.2675289  71.2233998  78.2494679 119.3672427
  70.7343177  76.9595172 117.0662585  71.2630944  76.4487626 116.4532747
  70.9971397  76.6437702 117.9308118  69.4881411  68.7387105 132.1885403
  68.8122048  68.6381234 132.8587779  70.3109045  68.5826318 132.6521401
  61.2360270  74.9759041 124.8097919  61.8213707  74.2302729 124.9425823
  61.0385109  75.2862998 125.6934583  64.0898925  78.0110289 119.8260361
  63.4209301  78.4956416 119.3424401  63.9511795  78.2579509 120.7403740
  55.8277925  67.5464641 123.5302362  55.8662024  67.0128232 124.3239480
  55.3218218  67.0199847 122.9113339  68.2304194  80.0454032 126.4243019
  68.7822502  80.2085654 127.1892105  68.5710387  80.6358470 125.7523044
  63.2068687  62.3929182 127.0264904  63.2710014  63.2544013 126.6142302
  63.1435807  61.7803184 126.2937263  62.6820960  64.4652314 130.6737938
  63.3092998  64.0829392 131.2875463  61.8248878  64.2466516 131.0393631
  73.0815068  74.8715290 132.2791674  73.6254972  75.4845248 131.7846629
  72.5001913  75.4294868 132.7958687  59.4586502  66.2728744 116.6056293
  59.7539943  65.3639422 116.5523347  58.5574538  66.2516483 116.2837296
  71.3672581  77.9936008 123.4106702  71.2423721  77.1925747 122.9017647
  72.0251672  78.4882201 122.9220672  62.9880749  64.3484740 122.5883842
  62.2667335  64.9620708 122.4491315  63.7774005  64.8842505 122.5100488
  73.4307490  75.7945028 125.0386252  72.4837825  75.6750379 124.9664578
  73.7790263  74.9067526 125.1212513  65.7907063  61.6839167 128.8624494
  66.3141465  61.9301463 129.6250803  65.5719396  62.5159201 128.4427631
  61.1874344  63.9542841 116.7295618  60.8587050  63.0740220 116.5470724
  61.5413715  63.8990510 117.6172008  70.4353923  75.5897744 121.2390604
  70.2878885  74.6614451 121.4198174  71.2607416  75.6117835 120.7547679
  64.3016167  64.2415811 117.0971096  64.6412240  64.7701732 116.3749704
  64.7488288  64.5796217 117.8729663  74.0388045  76.4126303 122.3255477
  74.9634592  76.2069164 122.1879928  73.8703348  76.1642704 123.2344818
  66.9959608  62.6252862 126.5474164  66.6556428  61.8260675 126.9494844
  66.2898614  62.9254573 125.9750997  67.6476080  59.7102174 125.0001487
  68.4702149  59.2362652 124.8780377  67.8914143  60.4892658 125.5000173
  66.2884314  62.7390433 115.2964389  67.0092677  63.1171685 114.7928106
  65.6649618  63.4579309 115.3999367  70.4315437  63.4435582 116.2322721
  70.6479052  64.3260219 115.9311549  69.9509504  63.0521795 115.5028363
  65.1714659  66.4021295 122.8093466  65.0259239  66.7161598 123.7017747
  64.6939862  67.0206195 122.2564364  67.0311041  63.3923843 122.8574355
  67.0172610  62.4964936 122.5206653  67.7483470  63.3994506 123.4912641
  68.8837172  63.8261183 124.9027483  68.6254950  64.7478254 124.9011813
  68.3522212  63.4291617 125.5927947  73.8283361  76.9311970 117.6817568
  74.0020238  76.3658393 116.9291421  74.3212252  77.7312865 117.4997058
  59.6460321  68.9426639 125.7481127  59.1013789  69.7186447 125.8801401
  60.5239671  69.2897444 125.5900248  66.4347937  62.2738223 118.1261925
  66.5563849  61.3454869 118.3252813  66.1449980  62.2876909 117.2140241
  69.3039128  59.9593133 121.2628645  69.3260825  60.0232467 120.3080625
  69.7207187  59.1197642 121.4569151  79.6822752  69.6948393 119.3007868
  80.1253898  68.9455718 118.9026991  78.8049262  69.6858529 118.9181600
  74.8158533  76.2478734 114.7814466  75.5109438  76.8685427 115.0001781
  75.1581683  75.3974086 115.0566844  60.4326343  68.0696535 128.6411284
  59.6908079  68.2179171 129.2275914  60.1119087  68.3304801 127.7778033
  76.7149956  73.6978440 116.3101797  77.2401281  74.0365713 115.5851117
  76.6272309  72.7625455 116.1264932  68.3770005  77.6112514 128.4391674
  68.6857132  77.3661660 129.3114373  69.1745487  77.8159152 127.9510544
  68.3990617  79.7650423 120.6697050  67.9595608  79.2726802 121.3629907
  69.1498734  79.2223391 120.4289126  60.8782956  75.9561964 120.6721678
  61.7040976  75.6565736 120.2920322  60.5277008  75.1869587 121.1211467
  65.8464489  75.3088432 122.7419352  65.2244499  74.6459137 122.4421580
  66.5169356  75.3349564 122.0593000  59.0791561  73.8748291 121.6310612
  58.2423470  73.4470465 121.4494613  59.0515207  74.0680734 122.5681403
  65.9189017  63.7870220 132.3351858  65.9677172  64.6632343 131.9529628
  66.4611531  63.2447613 131.7623501  76.4043863  74.3311344 131.6152995
  75.6139406  74.3135482 131.0757495  76.1677217  74.8699637 132.3702032
  76.5241738  71.1803810 128.9285724  76.5739743  71.0153817 129.8701246
  76.4155661  70.3131069 128.5383604  65.4077996  73.8592356 116.2177813
  65.5566117  74.5427820 115.5644485  66.2144440  73.8397446 116.7327268
  73.8145500  67.1634738 130.2445030  74.7155363  67.0241203 129.9529028
  73.8893474  67.3289193 131.1843208  68.1488305  64.5401593 129.0898217
  67.2791615  64.8335159 128.8180805  68.3847786  65.1242038 129.8105480
  78.0259934  73.6000752 129.1727745  77.7344743  73.9630732 130.0091206
  77.4132066  72.8867760 128.9941077  79.2255617  71.1653631 121.6930315
  80.0602508  71.6043435 121.8567876  79.3614746  70.6892285 120.8738561
  76.2747123  68.7233366 127.6407803  76.7501244  68.9161012 126.8326655
  75.3512688  68.7792552 127.3951187  63.1630629  69.8857533 117.2238881
  62.9176671  68.9819863 117.4219092  63.3326544  69.8874684 116.2818359
  70.8527339  60.7581210 126.6063637  71.3709283  61.4942237 126.2810126
  70.4982472  61.0645203 127.4410396  62.4326277  65.6185891 114.7225043
  61.7395522  65.6930246 114.0665079  62.1878029  64.8546235 115.2446560
  71.1039933  57.1781492 122.1264534  71.3841687  56.5104681 122.7524960
  71.8890540  57.3710588 121.6139197  68.9073402  76.3540486 113.6889560
  68.3347369  76.9730673 113.2360032  69.4806195  76.9039848 114.2229482
  74.9748792  65.5999126 125.8736109  75.9266215  65.6997224 125.8948333
  74.8052242  64.8077395 126.3834193  72.9963171  62.6854709 126.0595510
  72.4013103  62.9659722 125.3641998  72.7112868  63.1748610 126.8312251
  72.1270662  76.6377636 114.8198142  73.0601335  76.5723198 115.0231018
  72.0393874  77.4733903 114.3612675  74.7558678  75.9543507 111.7802090
  74.6772310  75.6203370 112.6737848  75.5768345  76.4465275 111.7793562
  77.4536869  68.8205246 124.9878408  77.4213190  67.8821247 125.1738092
  78.0637493  68.8989283 124.2544233  69.2920200  67.6901299 111.0305612
  70.2379305  67.5607507 111.0994030  68.9134445  66.9515961 111.5075041
  77.6031358  65.6116289 125.0336692  77.0870407  64.8274746 124.8466620
  78.4871306  65.2835006 125.1983211  75.2642085  59.3557305 120.9932504
  75.0666906  59.0472393 121.8775836  75.8741790  60.0818944 121.1230434
  83.2713419  69.8821253 124.1284445  84.0016808  69.6206541 124.6892149
  82.6620365  69.1449975 124.1686513  81.3528716  68.0229115 124.7258896
  80.6261880  67.8885080 124.1175388  80.9376003  68.3305944 125.5315614
  69.1758893  71.7419045 132.4906269  70.0961902  71.9197644 132.6846316
  69.1408476  70.7975090 132.3385969  67.4763117  65.6151275 110.9660498
  66.5694573  65.3184388 111.0423211  67.7539098  65.3181093 110.0994784
  58.3941058  66.9357639 121.4159544  58.0743842  66.0822947 121.1233918
  57.8474486  67.1506217 122.1717511  62.1720965  69.6520080 125.1329051
  62.3906975  70.5837188 125.1517084  62.5846739  69.2928054 125.9183854
  69.0925183  60.1588165 117.1204739  68.2825912  59.8135250 117.4959985
  69.7809600  59.8495709 117.7092351  71.0215731  59.2366212 118.7429036
  71.5746770  59.6561665 119.4019059  71.2585818  58.3101960 118.7851992
  67.0448831  65.2253285 134.5231800  66.9445558  66.1747642 134.4543891
  66.8270373  64.8971524 133.6507870  66.2461902  62.4738211 111.1072477
  67.1081066  62.7993109 111.3668294  66.4312246  61.6869706 110.5945543
  58.2629318  70.5560550 123.3852666  57.5692789  70.1414503 122.8722620
  59.0102309  70.5981087 122.7886085  74.3994539  61.3466737 118.2507700
  73.8193208  62.0051541 117.8685752  74.1330471  60.5244082 117.8395117
  72.8498105  60.7471795 120.4529020  73.3497883  60.8588329 119.6443339
  73.4933713  60.4432848 121.0929829  66.9080101  68.6550424 133.3396861
  66.4247182  69.4550784 133.5460750  66.9941040  68.6658369 132.3864305
  60.1766060  70.4878804 121.2618681  60.1536748  70.5866491 120.3100564
  60.4866697  71.3343955 121.5835847  62.8353438  72.5454959 125.3765295
  63.7896692  72.5138901 125.3095227  62.6365962  72.0845583 126.1915521
  63.4252820  71.1156075 127.9436093  64.2445709  71.6100154 127.9670930
  63.6989628  70.1988043 127.9153660  73.1819417  63.5066827 117.3064048
  72.2945272  63.7916478 117.0884243  73.5973406  63.3460591 116.4591325
  76.5333953  63.5313348 121.0218387  77.3094343  64.0209801 121.2943004
  75.8082087  63.9571403 121.4790257  78.9706511  64.2440968 122.0792328
  79.5651002  64.0036704 121.3685636  79.0433095  63.5248098 122.7065864
  61.1903667  78.0874578 122.3935493  61.0558135  77.3274979 121.8273491
  60.7735729  78.8115478 121.9264282  72.3262630  73.2711502 111.4012068
  73.0298480  73.4761505 112.0169724  71.6025279  73.8388264 111.6661152
  73.1560440  69.0221363 117.5214338  73.0995642  69.4789915 116.6821971
  73.7088783  68.2612048 117.3437181  76.9665246  64.8111095 118.3464458
  76.7102180  64.4107731 119.1772665  76.3418114  65.5254889 118.2214597
  81.2777584  67.5507168 120.8535749  80.7177142  67.6200358 121.6267311
  80.6721087  67.3748153 120.1335245  64.3472793  78.9843896 122.6053935
  64.2305177  79.9289328 122.5032626  63.5265239  78.6817457 122.9939735
  74.2349327  73.7094031 113.4510528  75.0694931  73.2775230 113.2688003
  74.0733670  73.5376045 114.3787423  73.8895220  70.2126145 114.8166867
  73.8344023  70.0470416 113.8755312  73.2641275  70.9202177 114.9729057
  58.6787735  65.4494209 128.6428290  59.3246598  64.9393163 129.1315515
  58.4704886  66.1862891 129.2171715  71.2041127  72.5175056 134.1420430
  72.0732286  72.6915709 133.7807065  70.7247878  73.3369473 134.0196160
  67.1991345  59.7134254 114.3952186  67.1870015  60.6576093 114.5520457
  68.0914767  59.5304399 114.1011647  65.3727307  79.6372157 125.8209864
  66.2754554  79.6695768 126.1376359  65.1464677  78.7072608 125.8356200
  67.1280909  78.3903144 122.4819943  66.1776540  78.3905006 122.3684315
  67.4313395  77.6435879 121.9655977  71.0143465  56.3077030 118.6498123
  70.2475860  55.7535517 118.7954805  71.4254170  56.3798899 119.5112274
  63.0185226  62.5961826 132.7403304  63.8816687  62.2398631 132.9506629
  62.4450636  62.2575721 133.4278708  82.8633603  84.2263682 123.5465705
  83.5012012  84.1070430 122.8429045  82.7454445  85.1744526 123.6053657
  79.6723309  84.1791110 123.4827230  79.3341820  84.0632175 122.5947764
  80.5413077  83.7782276 123.4628236  75.5310125  86.0326587 119.4724121
  74.9674990  85.9416524 118.7040408  75.4162520  85.2126491 119.9526613
  80.1543092  85.3325962 129.4413435  80.1431733  84.9378760 128.5693939
  80.3163731  84.5992035 130.0347207  73.0774556  87.5277778 122.3108341
  73.8695848  87.1868603 121.8954640  73.3171207  87.6372754 123.2310494
  81.1109683  89.6997555 114.7838585  80.4597663  90.2851635 114.3972599
  81.9054046  90.2303749 114.8433623  75.0365310  86.7886692 115.1825720
  75.8096186  86.2415679 115.0438596  75.3890709  87.6530941 115.3940181
  76.8750353  88.1163074 128.3892619  76.5840219  89.0208705 128.2739285
  77.5107337  88.1579602 129.1036689  77.8006560  85.4939922 124.9793979
  78.3970132  85.2695945 124.2650942  77.8581531  84.7524668 125.5819427
  77.3731588  82.9479358 112.8144170  77.6257109  82.4260879 112.0527633
  76.4356147  82.7845503 112.9170853  82.4174871  81.9515136 120.6218913
  83.2037960  81.5334559 120.2709330  82.6813575  82.8561228 120.7900561
  82.5884948  87.3887986 115.3207570  81.9530781  87.4622613 116.0328474
  82.2582355  87.9781585 114.6426649  87.8183298  81.8890369 121.5251891
  88.5508470  81.3189586 121.7589721  87.0622654  81.5011970 121.9658397
  77.0927877  84.8507464 115.0168545  76.9764135  84.1752367 115.6849629
  77.2030137  84.3639838 114.2000698  79.4359418  84.3117611 118.7215234
  79.0717625  83.7848232 119.4328155  80.2926534  83.9216080 118.5481719
  85.3408718  75.6011943 125.9846500  85.0092043  76.4707354 125.7607715
  84.7454332  75.2848227 126.6640530  79.0764905  79.3407511 113.7176582
  79.2439307  80.2087747 114.0847053  78.8862074  79.5034792 112.7937872
  81.8340238  87.8024489 125.3842413  81.5340961  88.7049528 125.2758220
  81.4891298  87.5356673 126.2363566  75.2852720  84.2538286 121.4179117
  74.3603216  84.1214500 121.6256809  75.5337133  85.0332506 121.9149060
  85.2337382  80.3207030 123.0639850  84.3254259  80.2522438 122.7698611
  85.1824978  80.7978975 123.8921676  79.0554126  81.7965168 114.7023249
  78.9353751  82.2422219 115.5408730  78.3606714  82.1450486 114.1436787
  72.6461531  83.8971560 122.2522906  72.7753912  84.1506039 123.1662318
  71.9658982  84.4899268 121.9327561  76.8161018  94.5668810 118.3513381
  76.7385048  95.5176635 118.4301861  76.2122661  94.2214682 119.0088307
  79.3078248  81.7396675 131.0074747  78.5311582  82.2990595 130.9977612
  79.9468811  82.2253458 131.5289618  87.0999028  78.5223468 124.8417724
  86.4573408  78.8156001 124.1957519  86.5953957  78.4076388 125.6470921
  84.7539192  82.2686641 115.5303583  85.6657048  82.5014028 115.3551281
  84.2448839  82.8523685 114.9678662  77.5624620  84.5482129 130.5692714
  78.3039304  85.0867173 130.2927538  76.8561605  85.1748417 130.7264266
  83.0379960  86.6911269 129.1664876  83.4463316  86.2493680 128.4219508
  82.3157221  86.1163897 129.4199069  79.3911030  81.6283876 126.5398433
  80.2372225  82.0523289 126.6833082  79.3309667  80.9717500 127.2336996
  83.3608774  87.2512460 122.9217165  82.7317637  87.4158174 122.2193233
  82.9734436  87.6654069 123.6928129  87.2398006  88.1866898 120.2761529
  86.5549044  88.5665799 119.7258562  87.3241855  88.7962224 121.0093476
  82.5410475  79.2888244 128.1979606  82.2971407  80.0430305 127.6613882
  82.8170405  79.6673592 129.0326854  84.4948938  85.8326857 126.8756872
  84.7065833  86.4758616 126.1991253  84.4478686  84.9989173 126.4078802
  82.0975167  78.4444677 123.7793444  81.2359646  78.7425931 124.0710182
  82.1237601  78.6615076 122.8474477  78.9136736  86.9886868 120.1867250
  79.3775082  87.2674571 119.3971872  78.6493534  86.0870312 120.0040341
  75.8060817  86.5358349 123.1247013  76.3762174  86.9645618 122.4864498
  76.3968929  86.2540934 123.8231199  77.8505622  83.1110020 116.9956815
  78.5529665  83.5631064 117.4630741  77.5186251  82.4693839 117.6236708
  76.2985984  81.7021777 131.3708024  75.6684644  82.3838058 131.6043421
  76.1922072  81.5904858 130.4261163  71.5930956  81.3693573 122.2973949
  70.8030010  81.6251101 121.8214059  72.0842203  82.1841911 122.4025989
  85.6094766  88.7098812 125.0479229  86.4312209  88.3078999 124.7661911
  85.6057169  88.6067046 125.9995345  73.5445701  81.7338152 119.2557425
  72.7476865  81.8456846 119.7740921  73.3171294  82.0724804 118.3898316
  79.3751369  88.2582855 127.2039940  79.4395802  88.7203263 128.0398112
  78.6662293  87.6280220 127.3322250  69.8768659  81.6224063 124.7288939
  70.1276697  82.5071073 124.9946515  70.4128207  81.4428665 123.9564031
  93.7000759  85.0537560 121.3964201  92.9464467  84.4844959 121.2408205
  93.8348300  85.0200225 122.3434836  79.0899387  89.9250963 117.0718920
  78.9545062  90.7702499 117.5003768  79.6309199  90.1270240 116.3084854
  75.5766726  76.0042543 133.7333275  75.1833672  75.4508741 134.4080920
  76.3932867  76.3153121 134.1239793  72.5428784  87.4426401 117.6446845
  73.0553305  88.2369651 117.7952410  73.1951497  86.7452691 117.5780447
  74.3523669  90.5592157 119.7269598  74.5290297  91.4810122 119.5390582
  75.1480502  90.2450576 120.1563978  78.4934687  77.4200422 131.3253532
  79.2344401  78.0207575 131.2457994  78.7252610  76.6778060 130.7671575
  73.6376025  82.6056789 129.6031762  73.5229541  81.7042046 129.9038861
  72.7820543  82.8520486 129.2516578  80.7167863  90.5474529 131.2019262
  80.2731717  89.7610908 130.8840167  81.3785077  90.7353680 130.5363153
  75.4754984  92.0770331 125.7279941  76.0262409  91.9487394 124.9556935
  74.6366460  92.3765220 125.3774834  82.8149101  90.8277329 129.2300664
  82.7967577  91.6486210 128.7380933  83.7369021  90.7031404 129.4550805
  79.2722155  88.3421459 130.0724172  79.8050492  87.5809747 129.8423480
  78.7436236  88.0495111 130.8148326  82.4391850  73.4481525 125.6017814
  82.0956120  74.3383166 125.5256924  82.8070813  73.2583182 124.7387399
  70.5077701  85.7715055 118.4206416  71.3452923  86.1812063 118.2040124
  70.6855969  84.8314497 118.3906610  82.4042133  83.4390136 114.1090249
  81.8888756  84.2094740 114.3478636  82.1319441  82.7655272 114.7323310
  79.9889244  78.2839837 119.1675487  79.1330840  77.8946687 118.9881126
  80.4016196  78.3631797 118.3075273  81.5188391  75.8186180 123.5667047
  81.0153186  75.7816315 122.7534852  81.8118998  76.7278923 123.6263704
  77.7631277  75.9024910 122.5733229  78.6284273  75.7067718 122.2139118
  77.8308786  75.6735261 123.5002585  87.3776407  86.1922490 116.0443422
  86.6005850  85.8533650 115.5998584  88.0567888  86.1975114 115.3698387
  82.1928436  81.3117228 115.9350030  81.8878572  81.6263377 116.7860173
  83.1458878  81.3898648 115.9777363  80.6374868  87.4707451 117.5842984
  80.1096230  86.7360211 117.2716221  80.1362371  88.2482128 117.3382952
  85.6167714  85.6656472 122.7010030  84.9591389  86.3555733 122.7890159
  86.4208113  86.0552904 123.0444017  75.3693596  78.1327117 119.9449595
  75.9437348  77.9102299 119.2122788  75.9564578  78.2015812 120.6978197
  84.4273173  84.0200844 120.7513972  84.9405055  84.6530836 121.2535682
  85.0774397  83.4202040 120.3857332  75.6963183  80.1631579 113.9645481
  74.8600495  80.5006265 114.2854755  75.5567952  80.0280558 113.0272618
  77.6716263  75.0068366 118.6724665  77.0180676  74.6917384 118.0481280
  77.6296738  74.3844107 119.3984488  78.7827468  85.2887661 110.5877957
  77.8754530  85.0576915 110.7869106  79.2798500  84.4925281 110.7751939
  81.6895547  93.9985169 113.5074643  81.0157246  94.3016865 114.1159601
  82.0761369  94.8014249 113.1580100  80.9054004  81.4950300 122.9972313
  79.9876565  81.7165247 122.8394001  81.3214147  81.5696610 122.1384020
  81.6889052  82.8941716 118.1274993  82.4360870  83.4063113 117.8182115
  81.9580641  82.5725768 118.9879386  79.9615702  85.3900256 115.1101947
  79.0526921  85.1059289 115.2074417  79.9910785  85.8099335 114.2505254
  85.1934969  89.0006846 118.8793115  84.7397296  88.1597756 118.9358305
  84.5628936  89.6368244 119.2167895  84.1367889  79.9298832 120.1093782
  83.3990645  79.4176218 120.4404025  84.3894662  79.4899213 119.2977059
  83.6367908  90.8383343 119.8142933  83.9290883  91.3988400 119.0955298
  84.1466529  91.1311904 120.5696092  84.2379516  72.7075084 120.7035551
  84.5438393  71.8472447 120.4161466  84.9632121  73.2992704 120.5034545
  70.5303872  83.1105770 119.0917149  70.3328272  82.5175131 118.3668216
  69.9750536  82.8057981 119.8093088  78.5100596  83.0028877 121.2111742
  78.5649206  82.0502713 121.1354219  77.6991798  83.1588316 121.6953041
  79.6591789  86.9309000 112.4490026  79.2211219  86.2144859 111.9895663
  80.4002230  87.1585115 111.8875117  76.4492956  81.6205937 118.9702121
  75.6360821  81.9200107 119.3767313  76.9451950  81.2261625 119.6876604
  78.6001534  91.6163694 120.9036386  78.5577712  91.8424540 119.9744918
  79.5164232  91.3827068 121.0522187  82.0467167  82.0847761 127.8017015
  82.4016555  82.3119234 128.6611481  82.6939299  82.4166138 127.1794271
  87.7764904  85.2066197 118.5066344  87.6382803  85.3967793 117.5787533
  87.4201123  85.9685580 118.9634395  75.9407030  79.1924292 124.5863356
  76.5806410  79.0513051 123.8886320  75.1084561  78.9058806 124.2101958
  87.8034284  87.2742724 123.5177616  88.2370791  87.1818013 124.3660670
  88.5165865  87.2500225 122.8797632  76.7167334  88.4926723 120.6998349
  77.5107933  87.9977043 120.4980924  76.0059027  87.9644586 120.3366054
  81.5362179  90.8744818 125.0510716  81.5899201  91.4435754 125.8188432
  80.6676960  91.0446703 124.6864753  73.0250098  82.6369804 116.7758101
  72.0947686  82.5754260 116.9928064  73.1207570  82.1145757 115.9794743
  72.9435647  79.1624617 119.3636343  73.2042464  80.0769950 119.2545504
  73.7652819  78.6949060 119.5132956  74.4160572  80.5762374 126.5335168
  75.0883626  80.3679736 125.8847817  73.5890359  80.3784460 126.0940400
  88.6649833  87.3166425 126.0510501  88.8585724  88.2212235 126.2969776
  88.5650452  86.8573844 126.8849086  80.3186144  77.2024315 128.5500828
  79.6714059  77.9014265 128.4565305  81.0887160  77.6360459 128.9177077
  83.7264942  87.4673167 131.6251382  83.5750449  87.2383719 130.7081465
  83.7169622  88.4243769 131.6382727  80.4950279  85.0405080 126.6097648
  81.4242339  85.1916240 126.4366616  80.0741309  85.1289101 125.7546295
  79.2938610  89.0655745 124.3796186  79.1549696  88.6974529 125.2522124
  78.5053207  89.5803384 124.2080144  79.8886762  94.1664841 115.7221722
  80.0638518  93.6952884 116.5367345  79.2019550  94.7930607 115.9502983
  80.8443825  88.4437347 121.7685024  80.5093658  88.4038117 122.6642673
  80.3447771  87.7782063 121.2955434  74.8188069  83.8504977 127.2937605
  74.6807867  83.1185216 127.8949144  75.7292993  83.7613877 127.0121793
  83.7803017  85.7893382 112.0422083  83.1632188  85.0640210 111.9455136
  83.3119506  86.5502742 111.6989158  77.4470370  83.5624937 126.7821284
  78.1569989  82.9218129 126.7407903  77.4039678  83.8137832 127.7047465
  85.4357149  90.4992290 129.7027864  85.3769695  89.8151510 129.0358447
  85.8376667  91.2411280 129.2508490  76.1599304  80.5490155 128.6016924
  75.6236661  80.0980893 129.2538520  75.5716013  80.6836063 127.8587388
  74.4547848  97.3154204 122.4961583  74.6944446  97.9472728 123.1740601
  73.6117044  96.9642244 122.7826942  75.5701563  80.0078806 111.1643388
  74.6931029  79.8867607 110.8005634  76.0459316  79.2164884 110.9122276
  85.4374556  88.4631874 127.9341843  84.5501335  88.1257796 128.0568242
  86.0073107  87.7314905 128.1710609  67.0903703  84.7955966 121.2584895
  67.7774743  84.4817696 120.6705910  66.9351832  85.6997330 120.9852146
  71.8938425  79.6846162 125.6869918  71.8096614  79.0771832 124.9520328
  71.0721132  80.1755181 125.6879415  78.9675709  93.1233326 124.9003087
  78.8945881  93.9288298 125.4122391  78.5253103  93.3225292 124.0751108
  78.7565489  92.3605096 118.4105908  77.9733011  92.9026776 118.5044133
  79.4558234  92.8779076 118.8100149  82.0662139  78.1699726 121.0540113
  82.5630839  77.4169688 120.7341184  81.2949121  78.2064042 120.4883323
  89.9191897  83.8740091 122.6958405  89.9081773  84.7564807 122.3252338
  89.0509276  83.5211642 122.5012942  81.4274393  93.0220160 127.0561245
  82.1402365  93.6567625 126.9837147  80.9364422  93.1184026 126.2401247
  83.1491920  86.9271413 118.6278537  82.2148199  87.0472875 118.4583241
  83.3268588  86.0243880 118.3638547  78.6497108  80.3117109 120.7811798
  78.2794895  79.7588149 121.4692704  79.1456200  79.7075242 120.2286798
  86.5364471  82.7688732 119.1628571  87.0024923  83.6016724 119.0888874
  86.9871972  82.3033714 119.8673829  76.4786306  90.7714604 127.8766816
  77.1795766  91.4051087 128.0296210  76.0081421  91.1129335 127.1162455
  84.6040702  89.1132554 116.1614723  84.8800546  88.9989148 117.0708597
  83.7345201  88.7150038 116.1226896  84.5081134  75.1369319 123.2019472
  83.5944214  75.3673546 123.3701679  84.9374235  75.2207763 124.0533505
  84.2787592  83.3259211 125.7019366  83.6259043  83.5735119 125.0471819
  84.6567972  82.5123349 125.3681844  81.2394766  93.3618904 119.8047537
  81.4217161  92.5440560 120.2675289  82.0627752  93.5786597 119.3672427
  81.5736932  92.2887090 117.0662585  82.1024698  91.7779544 116.4532747
  81.8365151  91.9729620 117.9308118  80.3275165  84.0679022 132.1885403
  79.6515802  83.9673152 132.8587779  81.1502799  83.9118236 132.6521401
  72.0754025  90.3050959 124.8097919  72.6607461  89.5594647 124.9425823
  71.8778863  90.6154916 125.6934583  74.9292680  93.3402206 119.8260361
  74.2603055  93.8248334 119.3424401  74.7905549  93.5871427 120.7403740
  66.6671679  82.8756559 123.5302362  66.7055779  82.3420150 124.3239480
  66.1611972  82.3491765 122.9113339  79.0697948  95.3745950 126.4243019
  79.6216256  95.5377571 127.1892105  79.4104142  95.9650388 125.7523044
  74.0462442  77.7221100 127.0264904  74.1103768  78.5835930 126.6142302
  73.9829562  77.1095101 126.2937263  73.5214714  79.7944232 130.6737938
  74.1486753  79.4121309 131.2875463  72.6642633  79.5758434 131.0393631
  83.9208823  90.2007207 132.2791674  84.4648727  90.8137166 131.7846629
  83.3395668  90.7586786 132.7958687  70.2980257  81.6020661 116.6056293
  70.5933698  80.6931340 116.5523347  69.3968293  81.5808401 116.2837296
  82.2066336  93.3227925 123.4106702  82.0817475  92.5217665 122.9017647
  82.8645427  93.8174119 122.9220672  73.8274504  79.6776658 122.5883842
  73.1061090  80.2912625 122.4491315  74.6167760  80.2134423 122.5100488
  84.2701244  91.1236945 125.0386252  83.3231580  91.0042297 124.9664578
  84.6184017  90.2359443 125.1212513  76.6300817  77.0131084 128.8624494
  77.1535219  77.2593381 129.6250803  76.4113151  77.8451119 128.4427631
  72.0268098  79.2834759 116.7295618  71.6980805  78.4032138 116.5470724
  72.3807469  79.2282428 117.6172008  81.2747677  90.9189662 121.2390604
  81.1272640  89.9906369 121.4198174  82.1001171  90.9409752 120.7547679
  75.1409922  79.5707729 117.0971096  75.4805994  80.0993650 116.3749704
  75.5882042  79.9088135 117.8729663  84.8781799  91.7418220 122.3255477
  85.8028347  91.5361082 122.1879928  84.7097103  91.4934621 123.2344818
  77.8353362  77.9544779 126.5474164  77.4950183  77.1552592 126.9494844
  77.1292369  78.2546490 125.9750997  78.4869834  75.0394092 125.0001487
  79.3095904  74.5654570 124.8780377  78.7307898  75.8184576 125.5000173
  77.1278069  78.0682350 115.2964389  77.8486431  78.4463603 114.7928106
  76.5043373  78.7871227 115.3999367  81.2709192  78.7727499 116.2322721
  81.4872806  79.6552137 115.9311549  80.7903259  78.3813713 115.5028363
  76.0108413  81.7313212 122.8093466  75.8652994  82.0453515 123.7017747
  75.5333617  82.3498113 122.2564364  77.8704796  78.7215760 122.8574355
  77.8566365  77.8256854 122.5206653  78.5877224  78.7286424 123.4912641
  79.7230927  79.1553101 124.9027483  79.4648704  80.0770171 124.9011813
  79.1915967  78.7583535 125.5927947  84.6677115  92.2603888 117.6817568
  84.8413993  91.6950310 116.9291421  85.1606007  93.0604783 117.4997058
  70.4854075  84.2718557 125.7481127  69.9407543  85.0478365 125.8801401
  71.3633425  84.6189361 125.5900248  77.2741692  77.6030141 118.1261925
  77.3957603  76.6746787 118.3252813  76.9843734  77.6168827 117.2140241
  80.1432882  75.2885051 121.2628645  80.1654579  75.3524384 120.3080625
  80.5600941  74.4489560 121.4569151  90.5216507  85.0240311 119.3007868
  90.9647653  84.2747636 118.9026991  89.6443017  85.0150447 118.9181600
  85.6552288  91.5770652 114.7814466  86.3503192  92.1977345 115.0001781
  85.9975438  90.7266003 115.0566844  71.2720097  83.3988453 128.6411284
  70.5301833  83.5471088 129.2275914  70.9512841  83.6596719 127.7778033
  87.5543711  89.0270358 116.3101797  88.0795035  89.3657630 115.5851117
  87.4666064  88.0917373 116.1264932  79.2163760  92.9404431 128.4391674
  79.5250886  92.6953578 129.3114373  80.0139242  93.1451070 127.9510544
  79.2384372  95.0942341 120.6697050  78.7989362  94.6018720 121.3629907
  79.9892489  94.5515309 120.4289126  71.7176711  91.2853882 120.6721678
  72.5434731  90.9857654 120.2920322  71.3670763  90.5161504 121.1211467
  76.6858244  90.6380350 122.7419352  76.0638253  89.9751055 122.4421580
  77.3563111  90.6641482 122.0593000  69.9185316  89.2040208 121.6310612
  69.0817224  88.7762383 121.4494613  69.8908961  89.3972652 122.5681403
  76.7582771  79.1162138 132.3351858  76.8070927  79.9924261 131.9529628
  77.3005286  78.5739531 131.7623501  87.2437617  89.6603261 131.6152995
  86.4533161  89.6427400 131.0757495  87.0070972  90.1991555 132.3702032
  87.3635492  86.5095728 128.9285724  87.4133497  86.3445735 129.8701246
  87.2549415  85.6422987 128.5383604  76.2471751  89.1884273 116.2177813
  76.3959871  89.8719738 115.5644485  77.0538194  89.1689363 116.7327268
  84.6539254  82.4926656 130.2445030  85.5549117  82.3533121 129.9529028
  84.7287229  82.6581111 131.1843208  78.9882060  79.8693510 129.0898217
  78.1185369  80.1627077 128.8180805  79.2241540  80.4533955 129.8105480
  88.8653689  88.9292669 129.1727745  88.5738497  89.2922650 130.0091206
  88.2525820  88.2159677 128.9941077  90.0649371  86.4945549 121.6930315
  90.8996263  86.9335353 121.8567876  90.2008500  86.0184202 120.8738561
  87.1140877  84.0525284 127.6407803  87.5894999  84.2452930 126.8326655
  86.1906443  84.1084470 127.3951187  74.0024384  85.2149451 117.2238881
  73.7570426  84.3111781 117.4219092  74.1720298  85.2166601 116.2818359
  81.6921094  76.0873127 126.6063637  82.2103038  76.8234154 126.2810126
  81.3376226  76.3937121 127.4410396  73.2720031  80.9477809 114.7225043
  72.5789276  81.0222164 114.0665079  73.0271783  80.1838152 115.2446560
  81.9433688  72.5073410 122.1264534  82.2235442  71.8396599 122.7524960
  82.7284295  72.7002506 121.6139197  79.7467156  91.6832404 113.6889560
  79.1741123  92.3022591 113.2360032  80.3199950  92.2331766 114.2229482
  85.8142546  80.9291044 125.8736109  86.7659969  81.0289142 125.8948333
  85.6445997  80.1369312 126.3834193  83.8356926  78.0146627 126.0595510
  83.2406858  78.2951640 125.3641998  83.5506622  78.5040528 126.8312251
  82.9664416  91.9669554 114.8198142  83.8995089  91.9015116 115.0231018
  82.8787629  92.8025821 114.3612675  88.2930624  84.1497164 124.9878408
  88.2606944  83.2113164 125.1738092  88.9031248  84.2281200 124.2544233
  80.1313955  83.0193217 111.0305612  81.0773060  82.8899425 111.0994030
  79.7528200  82.2807878 111.5075041  88.4425112  80.9408207 125.0336692
  87.9264161  80.1566664 124.8466620  89.3265061  80.6126924 125.1983211
  86.1035839  74.6849223 120.9932504  85.9060660  74.3764311 121.8775836
  86.7135545  75.4110862 121.1230434  94.1107174  85.2113170 124.1284445
  94.8410562  84.9498459 124.6892149  93.5014119  84.4741892 124.1686513
  92.1922471  83.3521033 124.7258896  91.4655634  83.2176998 124.1175388
  91.7769758  83.6597862 125.5315614  80.0152647  87.0710963 132.4906269
  80.9355657  87.2489562 132.6846316  79.9802230  86.1267008 132.3385969
  78.3156872  80.9443193 110.9660498  77.4088327  80.6476306 111.0423211
  78.5932853  80.6473011 110.0994784  69.2334812  82.2649556 121.4159544
  68.9137597  81.4114865 121.1233918  68.6868241  82.4798135 122.1717511
  73.0114720  84.9811997 125.1329051  73.2300730  85.9129105 125.1517084
  73.4240494  84.6219972 125.9183854  79.9318938  75.4880083 117.1204739
  79.1219666  75.1427168 117.4959985  80.6203355  75.1787626 117.7092351
  81.8609486  74.5658129 118.7429036  82.4140525  74.9853583 119.4019059
  82.0979572  73.6393878 118.7851992  77.8842585  80.5545203 134.5231800
  77.7839312  81.5039560 134.4543891  77.6664127  80.2263442 133.6507870
  77.0855657  77.8030128 111.1072477  77.9474821  78.1285027 111.3668294
  77.2706001  77.0161624 110.5945543  69.1023072  85.8852468 123.3852666
  68.4086544  85.4706421 122.8722620  69.8496063  85.9273004 122.7886085
  85.2388293  76.6758655 118.2507700  84.6586962  77.3343459 117.8685752
  84.9724226  75.8535999 117.8395117  83.6891859  76.0763712 120.4529020
  84.1891638  76.1880247 119.6443339  84.3327467  75.7724765 121.0929829
  77.7473855  83.9842342 133.3396861  77.2640937  84.7842702 133.5460750
  77.8334794  83.9950287 132.3864305  71.0159815  85.8170722 121.2618681
  70.9930503  85.9158409 120.3100564  71.3260451  86.6635872 121.5835847
  73.6747193  87.8746877 125.3765295  74.6290446  87.8430819 125.3095227
  73.4759716  87.4137500 126.1915521  74.2646575  86.4447993 127.9436093
  75.0839464  86.9392071 127.9670930  74.5383383  85.5279961 127.9153660
  84.0213171  78.8358745 117.3064048  83.1339026  79.1208396 117.0884243
  84.4367160  78.6752508 116.4591325  87.3727707  78.8605266 121.0218387
  88.1488097  79.3501718 121.2943004  86.6475841  79.2863320 121.4790257
  89.8100266  79.5732885 122.0792328  90.4044757  79.3328621 121.3685636
  89.8826850  78.8540016 122.7065864  72.0297422  93.4166496 122.3935493
  71.8951889  92.6566897 121.8273491  71.6129484  94.1407396 121.9264282
  83.1656385  88.6003420 111.4012068  83.8692235  88.8053422 112.0169724
  82.4419033  89.1680182 111.6661152  83.9954195  84.3513281 117.5214338
  83.9389396  84.8081832 116.6821971  84.5482537  83.5903966 117.3437181
  87.8059001  80.1403013 118.3464458  87.5495935  79.7399649 119.1772665
  87.1811869  80.8546807 118.2214597  92.1171339  82.8799086 120.8535749
  91.5570897  82.9492275 121.6267311  91.5114842  82.7040071 120.1335245
  75.1866547  94.3135813 122.6053935  75.0698932  95.2581246 122.5032626
  74.3658994  94.0109375 122.9939735  85.0743082  89.0385949 113.4510528
  85.9088686  88.6067147 113.2688003  84.9127425  88.8667963 114.3787423
  84.7288974  85.5418062 114.8166867  84.6737778  85.3762334 113.8755312
  84.1035029  86.2494095 114.9729057  69.5181489  80.7786127 128.6428290
  70.1640353  80.2685081 129.1315515  69.3098640  81.5154808 129.2171715
  82.0434881  87.8466974 134.1420430  82.9126041  88.0207626 133.7807065
  81.5641633  88.6661391 134.0196160  78.0385100  75.0426171 114.3952186
  78.0263769  75.9868011 114.5520457  78.9308521  74.8596317 114.1011647
  76.2121062  94.9664075 125.8209864  77.1148308  94.9987685 126.1376359
  75.9858432  94.0364526 125.8356200  77.9674664  93.7195062 122.4819943
  77.0170295  93.7196923 122.3684315  78.2707150  92.9727796 121.9655977
  81.8537219  71.6368948 118.6498123  81.0869615  71.0827435 118.7954805
  82.2647924  71.7090817 119.5112274  73.8578980  77.9253744 132.7403304
  74.7210442  77.5690549 132.9506629  73.2844391  77.5867638 133.4278708
  93.7027357  99.5555600 123.5465705  94.3405767  99.4362347 122.8429045
  93.5848200 100.5036444 123.6053657  90.5117063  99.5083028 123.4827230
  90.1735575  99.3924093 122.5947764  91.3806832  99.1074193 123.4628236
  86.3703879 101.3618505 119.4724121  85.8068744 101.2708441 118.7040408
  86.2556274 100.5418409 119.9526613  83.9168311 102.8569696 122.3108341
  84.7089603 102.5160521 121.8954640  84.1564961 102.9664671 123.2310494
  91.9503438 105.0289472 114.7838585  91.2991417 105.6143553 114.3972599
  92.7447801 105.5595667 114.8433623  85.8759065 102.1178609 115.1825720
  86.6489941 101.5707596 115.0438596  86.2284464 102.9822859 115.3940181
  88.6400314 100.8231840 124.9793979  89.2363887 100.5987863 124.2650942
  88.6975286 100.0816586 125.5819427  88.2125343  98.2771276 112.8144170
  88.4650863  97.7552797 112.0527633  87.2749902  98.1137421 112.9170853
  93.2568626  97.2807054 120.6218913  94.0431715  96.8626477 120.2709330
  93.5207330  98.1853146 120.7900561  93.4278703 102.7179904 115.3207570
  92.7924536 102.7914531 116.0328474  93.0976109 103.3073503 114.6426649
  98.6577053  97.2182287 121.5251891  99.3902225  96.6481504 121.7589721
  97.9016408  96.8303888 121.9658397  87.9321631 100.1799381 115.0168545
  87.8157890  99.5044285 115.6849629  88.0423891  99.6931755 114.2000698
  90.2753172  99.6409529 118.7215234  89.9111380  99.1140150 119.4328155
  91.1320288  99.2507998 118.5481719  96.1802473  90.9303861 125.9846500
  95.8485798  91.7999272 125.7607715  95.5848086  90.6140145 126.6640530
  89.9158659  94.6699428 113.7176582  90.0833062  95.5379665 114.0847053
  89.7255828  94.8326710 112.7937872  86.1246474  99.5830204 121.4179117
  85.1996970  99.4506418 121.6256809  86.3730887 100.3624423 121.9149060
  96.0731136  95.6498947 123.0639850  95.1648014  95.5814356 122.7698611
  96.0218732  96.1270892 123.8921676  89.8947880  97.1257086 114.7023249
  89.7747505  97.5714137 115.5408730  89.2000469  97.4742403 114.1436787
  83.4855285  99.2263478 122.2522906  83.6147666  99.4797956 123.1662318
  82.8052736  99.8191186 121.9327561  87.6554772 109.8960728 118.3513381
  87.5778802 110.8468553 118.4301861  87.0516416 109.5506600 119.0088307
  97.9392783  93.8515386 124.8417724  97.2967163  94.1447919 124.1957519
  97.4347711  93.7368306 125.6470921  95.5932946  97.5978559 115.5303583
  96.5050802  97.8305946 115.3551281  95.0842593  98.1815603 114.9678662
  90.2304784  96.9575794 126.5398433  91.0765979  97.3815207 126.6833082
  90.1703422  96.3009418 127.2336996  92.9368921  93.7736595 123.7793444
  92.0753400  94.0717848 124.0710182  92.9631356  93.9906994 122.8474477
  89.7530491 102.3178785 120.1867250  90.2168836 102.5966488 119.3971872
  89.4887289 101.4162230 120.0040341  86.6454572 101.8650267 123.1247013
  87.2155929 102.2937535 122.4864498  87.2362683 101.5832852 123.8231199
  88.6899377  98.4401938 116.9956815  89.3923420  98.8922982 117.4630741
  88.3580005  97.7985757 117.6236708  82.4324711  96.6985491 122.2973949
  81.6423765  96.9543019 121.8214059  82.9235958  97.5133828 122.4025989
  84.3839456  97.0630070 119.2557425  83.5870619  97.1748764 119.7740921
  84.1565048  97.4016722 118.3898316  80.7162414  96.9515981 124.7288939
  80.9670452  97.8362991 124.9946515  81.2521962  96.7720582 123.9564031
  89.9293141 105.2542880 117.0718920  89.7938816 106.0994416 117.5003768
  90.4702954 105.4562158 116.3084854  83.3822539 102.7718319 117.6446845
  83.8947059 103.5661569 117.7952410  84.0345251 102.0744609 117.5780447
  85.1917423 105.8884075 119.7269598  85.3684052 106.8102039 119.5390582
  85.9874257 105.5742494 120.1563978  84.4769780  97.9348707 129.6031762
  84.3623295  97.0333964 129.9038861  83.6214298  98.1812403 129.2516578
  93.2785605  88.7773442 125.6017814  92.9349874  89.6675084 125.5256924
  93.6464567  88.5875100 124.7387399  81.3471455 101.1006973 118.4206416
  82.1846677 101.5103981 118.2040124  81.5249723 100.1606415 118.3906610
  93.2435888  98.7682053 114.1090249  92.7282511  99.5386658 114.3478636
  92.9713196  98.0947190 114.7323310  90.8282999  93.6131754 119.1675487
  89.9724595  93.2238605 118.9881126  91.2409950  93.6923715 118.3075273
  92.3582145  91.1478098 123.5667047  91.8546941  91.1108233 122.7534852
  92.6512752  92.0570840 123.6263704  88.6025031  91.2316827 122.5733229
  89.4678028  91.0359636 122.2139118  88.6702540  91.0027179 123.5002585
  98.2170162 101.5214408 116.0443422  97.4399604 101.1825568 115.5998584
  98.8961643 101.5267031 115.3698387  93.0322191  96.6409146 115.9350030
  92.7272326  96.9555295 116.7860173  93.9852633  96.7190565 115.9777363
  91.4768623 102.7999369 117.5842984  90.9489984 102.0652128 117.2716221
  90.9756125 103.5774045 117.3382952  86.2087350  93.4619035 119.9449595
  86.7831102  93.2394217 119.2122788  86.7958333  93.5307730 120.6978197
  95.2666927  99.3492762 120.7513972  95.7798809  99.9822754 121.2535682
  95.9168151  98.7493958 120.3857332  86.5356937  95.4923496 113.9645481
  85.6994250  95.8298183 114.2854755  86.3961707  95.3572476 113.0272618
  88.5110018  90.3360284 118.6724665  87.8574430  90.0209301 118.0481280
  88.4690492  89.7136025 119.3984488  89.6221223 100.6179579 110.5877957
  88.7148284 100.3868833 110.7869106  90.1192255  99.8217198 110.7751939
  92.5289302 109.3277086 113.5074643  91.8551000 109.6308783 114.1159601
  92.9155124 110.1306167 113.1580100  91.7447758  96.8242218 122.9972313
  90.8270320  97.0457165 122.8394001  92.1607902  96.8988528 122.1384020
  92.5282806  98.2233633 118.1274993  93.2754625  98.7355030 117.8182115
  92.7974396  97.9017686 118.9879386  90.8009456 100.7192174 115.1101947
  89.8920675 100.4351207 115.2074417  90.8304540 101.1391253 114.2505254
  96.0328724 104.3298764 118.8793115  95.5791051 103.4889673 118.9358305
  95.4022690 104.9660162 119.2167895  94.9761643  95.2590750 120.1093782
  94.2384400  94.7468136 120.4404025  95.2288417  94.8191131 119.2977059
  94.4761663 106.1675260 119.8142933  94.7684637 106.7280317 119.0955298
  94.9860283 106.4603821 120.5696092  95.0773270  88.0367002 120.7035551
  95.3832147  87.1764365 120.4161466  95.8025875  88.6284622 120.5034545
  81.3697627  98.4397688 119.0917149  81.1722026  97.8467049 118.3668216
  80.8144291  98.1349898 119.8093088  89.3494350  98.3320795 121.2111742
  89.4042960  97.3794631 121.1354219  88.5385552  98.4880234 121.6953041
  90.4985544 102.2600918 112.4490026  90.0604974 101.5436777 111.9895663
  91.2395985 102.4877032 111.8875117  87.2886710  96.9497854 118.9702121
  86.4754576  97.2492025 119.3767313  87.7845704  96.5553543 119.6876604
  89.4395288 106.9455611 120.9036386  89.3971467 107.1716458 119.9744918
  90.3557987 106.7118986 121.0522187  98.6158659 100.5358115 118.5066344
  98.4776557 100.7259711 117.5787533  98.2594878 101.2977498 118.9634395
  86.7800785  94.5216210 124.5863356  87.4200164  94.3804969 123.8886320
  85.9478315  94.2350723 124.2101958  87.5561089 103.8218640 120.6998349
  88.3501687 103.3268960 120.4980924  86.8452781 103.2936503 120.3366054
  83.8643852  97.9661722 116.7758101  82.9341440  97.9046178 116.9928064
  83.9601324  97.4437675 115.9794743  83.7829401  94.4916535 119.3636343
  84.0436219  95.4061868 119.2545504  84.6046574  94.0240977 119.5132956
  85.2554327  95.9054292 126.5335168  85.9277380  95.6971654 125.8847817
  84.4284113  95.7076378 126.0940400  91.1579899  92.5316233 128.5500828
  90.5107814  93.2306183 128.4565305  91.9280914  92.9652377 128.9177077
  90.7280517 109.4956759 115.7221722  90.9032272 109.0244802 116.5367345
  90.0413305 110.1222525 115.9502983  91.6837580 103.7729265 121.7685024
  91.3487413 103.7330035 122.6642673  91.1841526 103.1073981 121.2955434
  85.6581824  99.1796895 127.2937605  85.5201622  98.4477134 127.8949144
  86.5686747  99.0905795 127.0121793  88.2864125  98.8916854 126.7821284
  88.9963743  98.2510047 126.7407903  88.2433433  99.1429749 127.7047465
  86.9993059  95.8782072 128.6016924  86.4630416  95.4272811 129.2538520
  86.4109767  96.0127981 127.8587388  86.4095318  95.3370724 111.1643388
  85.5324784  95.2159524 110.8005634  86.8853071  94.5456802 110.9122276
  77.9297458 100.1247883 121.2584895  78.6168497  99.8109613 120.6705910
  77.7745586 101.0289248 120.9852146  82.7332180  95.0138080 125.6869918
  82.6490369  94.4063749 124.9520328  81.9114886  95.5047098 125.6879415
  89.5959244 107.6897014 118.4105908  88.8126765 108.2318694 118.5044133
  90.2951989 108.2070994 118.8100149  92.9055894  93.4991643 121.0540113
  93.4024593  92.7461606 120.7341184  92.1342875  93.5355960 120.4883323
  93.9885674 102.2563331 118.6278537  93.0541953 102.3764793 118.4583241
  94.1662343 101.3535797 118.3638547  89.4890862  95.6409026 120.7811798
  89.1188650  95.0880067 121.4692704  89.9849955  95.0367160 120.2286798
  97.3758226  98.0980650 119.1628571  97.8418678  98.9308642 119.0888874
  97.8265726  97.6325632 119.8673829  95.4434457 104.4424471 116.1614723
  95.7194301 104.3281066 117.0708597  94.5738956 104.0441956 116.1226896
  95.3474888  90.4661237 123.2019472  94.4337968  90.6965464 123.3701679
  95.7767990  90.5499681 124.0533505  92.0788521 108.6910822 119.8047537
  92.2610915 107.8732478 120.2675289  92.9021507 108.9078514 119.3672427
  92.4130686 107.6179007 117.0662585  92.9418453 107.1071462 116.4532747
  92.6758906 107.3021537 117.9308118  82.9147779 105.6342876 124.8097919
  83.5001216 104.8886564 124.9425823  82.7172617 105.9446833 125.6934583
  85.7686434 108.6694124 119.8260361  85.0996810 109.1540252 119.3424401
  85.6299304 108.9163344 120.7403740  77.5065434  98.2048477 123.5302362
  77.5449533  97.6712067 124.3239480  77.0005727  97.6783682 122.9113339
  84.8856196  93.0513017 127.0264904  84.9497523  93.9127848 126.6142302
  84.8223316  92.4387019 126.2937263  84.3608469  95.1236150 130.6737938
  84.9880507  94.7413227 131.2875463  83.5036387  94.9050352 131.0393631
  81.1374011  96.9312579 116.6056293  81.4327452  96.0223257 116.5523347
  80.2362047  96.9100318 116.2837296  84.6668258  95.0068575 122.5883842
  83.9454844  95.6204543 122.4491315  85.4561514  95.5426340 122.5100488
  87.4694572  92.3423002 128.8624494  87.9928974  92.5885298 129.6250803
  87.2506905  93.1743037 128.4427631  82.8661853  94.6126677 116.7295618
  82.5374559  93.7324055 116.5470724  83.2201224  94.5574345 117.6172008
  92.1141432 106.2481579 121.2390604  91.9666394 105.3198287 121.4198174
  92.9394925 106.2701670 120.7547679  85.9803676  94.8999646 117.0971096
  86.3199749  95.4285568 116.3749704  86.4275797  95.2380052 117.8729663
  88.6747117  93.2836697 126.5474164  88.3343937  92.4844510 126.9494844
  87.9686123  93.5838408 125.9750997  89.3263589  90.3686009 125.0001487
  90.1489658  89.8946488 124.8780377  89.5701652  91.1476493 125.5000173
  87.9671823  93.3974268 115.2964389  88.6880186  93.7755521 114.7928106
  87.3437127  94.1163145 115.3999367  92.1102946  94.1019417 116.2322721
  92.3266560  94.9844055 115.9311549  91.6297013  93.7105630 115.5028363
  86.8502167  97.0605130 122.8093466  86.7046748  97.3745433 123.7017747
  86.3727371  97.6790030 122.2564364  88.7098550  94.0507678 122.8574355
  88.6960119  93.1548771 122.5206653  89.4270978  94.0578342 123.4912641
  90.5624681  94.4845018 124.9027483  90.3042459  95.4062089 124.9011813
  90.0309721  94.0875453 125.5927947  95.5070870 107.5895805 117.6817568
  95.6807747 107.0242228 116.9291421  95.9999761 108.3896700 117.4997058
  81.3247830  99.6010474 125.7481127  80.7801298 100.3770282 125.8801401
  82.2027180  99.9481279 125.5900248  88.1135446  92.9322058 118.1261925
  88.2351358  92.0038705 118.3252813  87.8237489  92.9460744 117.2140241
  90.9826637  90.6176969 121.2628645  91.0048334  90.6816302 120.3080625
  91.3994696  89.7781477 121.4569151 101.3610261 100.3532228 119.3007868
 101.8041407  99.6039554 118.9026991 100.4836771 100.3442365 118.9181600
  96.4946042 106.9062570 114.7814466  97.1896947 107.5269262 115.0001781
  96.8369192 106.0557921 115.0566844  82.1113852  98.7280371 128.6411284
  81.3695588  98.8763006 129.2275914  81.7906596  98.9888636 127.7778033
  98.3937465 104.3562275 116.3101797  98.9188790 104.6949548 115.5851117
  98.3059818 103.4209291 116.1264932  82.5570465 106.6145799 120.6721678
  83.3828485 106.3149571 120.2920322  82.2064517 105.8453422 121.1211467
  87.5251998 105.9672268 122.7419352  86.9032008 105.3042973 122.4421580
  88.1956865 105.9933400 122.0593000  80.7579070 104.5332126 121.6310612
  79.9210979 104.1054300 121.4494613  80.7302716 104.7264569 122.5681403
  87.0865505 104.5176191 116.2177813  87.2353626 105.2011655 115.5644485
  87.8931949 104.4981281 116.7327268  84.8418138 100.5441369 117.2238881
  84.5964180  99.6403699 117.4219092  85.0114053 100.5458519 116.2818359
  92.5314848  91.4165045 126.6063637  93.0496792  92.1526072 126.2810126
  92.1769981  91.7229038 127.4410396  84.1113786  96.2769726 114.7225043
  83.4183031  96.3514081 114.0665079  83.8665538  95.5130070 115.2446560
  92.7827442  87.8365328 122.1264534  93.0629196  87.1688517 122.7524960
  93.5678049  88.0294423 121.6139197  90.5860911 107.0124321 113.6889560
  90.0134878 107.6314509 113.2360032  91.1593704 107.5623683 114.2229482
  94.6750680  93.3438545 126.0595510  94.0800612  93.6243558 125.3641998
  94.3900377  93.8332446 126.8312251  93.8058171 107.2961472 114.8198142
  94.7388844 107.2307033 115.0231018  93.7181383 108.1317738 114.3612675
  96.4346187 106.6127342 111.7802090  96.3559819 106.2787206 112.6737848
  97.2555854 107.1049110 111.7793562  90.9707709  98.3485134 111.0305612
  91.9166814  98.2191342 111.0994030  90.5921954  97.6099796 111.5075041
  96.9429594  90.0141140 120.9932504  96.7454415  89.7056228 121.8775836
  97.5529299  90.7402779 121.1230434  89.1550626  96.2735111 110.9660498
  88.2482082  95.9768223 111.0423211  89.4326607  95.9764929 110.0994784
  80.0728567  97.5941474 121.4159544  79.7531351  96.7406782 121.1233918
  79.5261995  97.8090052 122.1717511  83.8508474 100.3103915 125.1329051
  84.0694484 101.2421023 125.1517084  84.2634248  99.9511889 125.9183854
  90.7712692  90.8172000 117.1204739  89.9613420  90.4719085 117.4959985
  91.4597109  90.5079544 117.7092351  92.7003240  89.8950047 118.7429036
  93.2534279  90.3145501 119.4019059  92.9373327  88.9685795 118.7851992
  79.9416827 101.2144386 123.3852666  79.2480298 100.7998338 122.8722620
  80.6889818 101.2564922 122.7886085  96.0782048  92.0050572 118.2507700
  95.4980717  92.6635376 117.8685752  95.8117980  91.1827917 117.8395117
  94.5285614  91.4055630 120.4529020  95.0285392  91.5172165 119.6443339
  95.1721222  91.1016683 121.0929829  81.8553569 101.1462639 121.2618681
  81.8324257 101.2450327 120.3100564  82.1654206 101.9927790 121.5835847
  84.5140947 103.2038794 125.3765295  85.4684201 103.1722737 125.3095227
  84.3153471 102.7429418 126.1915521  94.8606926  94.1650663 117.3064048
  93.9732781  94.4500313 117.0884243  95.2760915  94.0044426 116.4591325
  98.2121462  94.1897184 121.0218387  98.9881852  94.6793636 121.2943004
  97.4869596  94.6155238 121.4790257 100.6494020  94.9024803 122.0792328
 101.2438511  94.6620539 121.3685636 100.7220604  94.1831933 122.7065864
  82.8691176 108.7458414 122.3935493  82.7345644 107.9858815 121.8273491
  82.4523238 109.4699314 121.9264282  94.8347949  99.6805199 117.5214338
  94.7783151 100.1373750 116.6821971  95.3876292  98.9195883 117.3437181
  98.6452755  95.4694931 118.3464458  98.3889689  95.0691566 119.1772665
  98.0205623  96.1838724 118.2214597 102.9565093  98.2091004 120.8535749
 102.3964651  98.2784193 121.6267311 102.3508596  98.0331988 120.1335245
  95.9136836 104.3677867 113.4510528  96.7482440 103.9359065 113.2688003
  95.7521179 104.1959880 114.3787423  95.5682729 100.8709980 114.8166867
  95.5131532 100.7054251 113.8755312  94.9428784 101.5786013 114.9729057
  80.3575244  96.1078044 128.6428290  81.0034107  95.5976998 129.1315515
  80.1492395  96.8446726 129.2171715  88.8778854  90.3718089 114.3952186
  88.8657524  91.3159929 114.5520457  89.7702276  90.1888234 114.1011647
  92.6930974  86.9660866 118.6498123  91.9263369  86.4119352 118.7954805
  93.1041678  87.0382734 119.5112274  99.0519097 113.6063193 112.8144170
  99.3044618 113.0844714 112.0527633  98.1143656 113.4429339 112.9170853
 100.7552414 109.9991346 113.7176582 100.9226816 110.8671582 114.0847053
 100.5649583 110.1618628 112.7937872  97.3750692 110.8215414 113.9645481
  96.5388004 111.1590100 114.2854755  97.2355461 110.6864394 113.0272618
  99.3503772 105.6652202 118.6724665  98.6968185 105.3501219 118.0481280
  99.3084247 105.0427942 119.3984488 100.4614977 115.9471497 110.5877957
  99.5542039 115.7160750 110.7869106 100.9586009 115.1509116 110.7751939
  94.7037607 113.2953640 116.7758101  93.7735195 113.2338095 116.9928064
  94.7995079 112.7729592 115.9794743  97.2489072 110.6662641 111.1643388
  96.3718538 110.5451442 110.8005634  97.7246825 109.8748720 110.9122276
  91.9767766 112.2604497 116.6056293  92.2721207 111.3515175 116.5523347
  91.0755802 112.2392236 116.2837296  93.7055607 109.9418594 116.7295618
  93.3768314 109.0615973 116.5470724  94.0594978 109.8866263 117.6172008
  98.8065578 108.7266186 115.2964389  99.5273940 109.1047438 114.7928106
  98.1830882 109.4455062 115.3999367  98.9529201 108.2613976 118.1261925
  99.0745112 107.3330622 118.3252813  98.6631243 108.2752662 117.2140241
  94.9507540 111.6061644 114.7225043  94.2576785 111.6805999 114.0665079
  94.7059292 110.8421988 115.2446560 101.8101464 113.6777052 111.0305612
 102.7560569 113.5483260 111.0994030 101.4315709 112.9391714 111.5075041
  99.9944381 111.6027028 110.9660498  99.0875836 111.3060141 111.0423211
 100.2720362 111.3056846 110.0994784 101.6106447 106.1463918 117.1204739
 100.8007175 105.8011003 117.4959985 102.2990864 105.8371462 117.7092351
  98.7643166 108.4613964 111.1072477  99.6262330 108.7868862 111.3668294
  98.9493510 107.6745459 110.5945543  99.7172609 105.7010007 114.3952186
  99.7051278 106.6451846 114.5520457 100.6096030 105.5180152 114.1011647
 103.5324728 102.2952783 118.6498123 102.7657124 101.7411270 118.7954805
 103.9435433 102.3674652 119.5112274  37.7534667   5.3892006 101.5083892
  37.1022646   5.9746087 101.1217906  38.5479029   5.9198201 101.5678930
  44.0201390   1.8816942 102.7688729  43.2430833   1.5428102 102.3243891
  44.6992871   1.8869565 102.0943694  35.4252452   0.9782113  97.3123264
  34.5179513   0.7471367  97.5114413  35.9223484   0.1819733  97.4997245
  38.3320530   9.6879621 100.2319950  37.6582229   9.9911317 100.8404908
  38.7186352  10.4908701  99.8825407  36.3016773   2.6203452  99.1735332
  35.8636203   1.9039311  98.7140970  37.0427214   2.8479567  98.6120424
  36.5311746   9.8559293 102.4467029  36.7063501   9.3847336 103.2612652
  35.8444534  10.4825059 102.6748290  40.4228000   1.4787834  98.7667390
  39.8057171   0.7534662  98.6700443  39.9544489   2.2397194  98.4234464
  41.2465686   4.8027005 102.8860030  41.5225530   4.6883600 103.7953904
  40.3770184   4.4044490 102.8472203  38.2161915   7.9781541 103.7907892
  38.7449682   7.4673996 103.1778054  38.4790135   7.6624072 104.6553425
  41.3102099   7.9498340 104.4062875  41.4838976   7.3844762 103.6536727
  41.8030990   8.7499235 104.2242365  42.2977271   7.2665104 101.5059773
  42.9928176   7.8871797 101.7247088  42.6400421   6.4160455 101.7812151
  44.1968694   4.7164810 103.0347104  44.7220018   5.0552082 102.3096424
  44.1091047   3.7811825 102.8510238  36.3892140   7.3726856 100.4134867
  35.8166107   7.9917043  99.9605338  36.9624933   7.9226217 100.9474789
  39.6089399   7.6564006 101.5443449  40.5420073   7.5909568 101.7476324
  39.5212612   8.4920273 101.0857982  42.2377416   6.9729876  98.5047396
  42.1591048   6.6389740  99.3983154  43.0587083   7.4651644  98.5038869
  36.7738938  -1.2912332  97.7550919  37.7198043  -1.4206123  97.8239337
  36.3953183  -2.0297670  98.2320347  39.8081368   4.2897872  98.1257375
  40.5117218   4.4947874  98.7415030  39.0844017   4.8574633  98.3906458
  41.7168065   4.7280401 100.1755835  42.5513669   4.2961599  99.9933310
  41.5552408   4.5562414 101.1032729  41.3713957   1.2312514 101.5412174
  41.3162761   1.0656786 100.6000618  40.7460013   1.9388547 101.6974364
  50.3452340  15.2450052 110.2711012  50.9830750  15.1256799 109.5674352
  50.2273183  16.1930896 110.3298964  47.1542047  15.1977480 110.2072536
  46.8160558  15.0818545 109.3193071  48.0231815  14.7968645 110.1873542
  43.0128862  17.0512956 106.1969427  42.4493727  16.9602893 105.4285715
  42.8981257  16.2312861 106.6771920  40.5593294  18.5464148 109.0353648
  41.3514586  18.2054973 108.6199947  40.7989944  18.6559123 109.9555801
  48.5928421  20.7183924 101.5083892  47.9416401  21.3038005 101.1217906
  49.3872784  21.2490119 101.5678930  42.5184048  17.8073061 101.9071026
  43.2914924  17.2602048 101.7683902  42.8709447  18.6717311 102.1185488
  45.2825298  16.5126292 111.7039285  45.8788870  16.2882314 110.9896248
  45.3400269  15.7711038 112.3064733  44.8550326  13.9665727  99.5389476
  45.1075847  13.4447249  98.7772939  43.9174885  13.8031873  99.6416160
  49.8993609  12.9701506 107.3464220  50.6856698  12.5520929 106.9954637
  50.1632313  13.8747598 107.5145868  50.0703686  18.4074356 102.0452876
  49.4349519  18.4808983 102.7573781  49.7401093  18.9967955 101.3671956
  55.3002036  12.9076739 108.2497198  56.0327208  12.3375956 108.4835028
  54.5441392  12.5198339 108.6903704  44.5746615  15.8693833 101.7413851
  44.4582873  15.1938737 102.4094936  44.6848875  15.3826207 100.9246004
  46.9178156  15.3303980 105.4460541  46.5536363  14.8034601 106.1573462
  47.7745272  14.9402450 105.2727026  46.5583643  10.3593880 100.4421889
  46.7258045  11.2274117 100.8092360  46.3680812  10.5221162  99.5183178
  49.3158976  18.8210859 112.1087719  49.0159699  19.7235898 112.0003527
  48.9710035  18.5543042 112.9608872  42.7671457  15.2724656 108.1424424
  41.8421954  15.1400870 108.3502116  43.0155871  16.0518875 108.6394366
  52.7156120  11.3393399 109.7885157  51.8072997  11.2708808 109.4943918
  52.6643715  11.8165344 110.6166982  46.5372864  12.8151538 101.4268556
  46.4172489  13.2608588 102.2654036  45.8425452  13.1636855 100.8682094
  40.1280268  14.9157929 108.9768213  40.2572650  15.1692408 109.8907625
  39.4477720  15.5085637 108.6572868  44.2979756  25.5855179 105.0758687
  44.2203785  26.5363004 105.1547168  43.6941399  25.2401052 105.7333613
  54.5817766   9.5409838 111.5663031  53.9392146   9.8342371 110.9202825
  54.0772695   9.4262758 112.3716227  52.2357930  13.2873011 102.2548890
  53.1475786  13.5200398 102.0796588  51.7267577  13.8710055 101.6923969
  50.8427512  18.2698829 109.6462471  50.2136374  18.4344543 108.9438539
  50.4553174  18.6840439 110.4173435  54.7216744  19.2053267 107.0006835
  54.0367782  19.5852168 106.4503868  54.8060593  19.8148594 107.7338783
  51.9767675  16.8513226 113.6002179  52.1884571  17.4944986 112.9236560
  51.9297424  16.0175543 113.1324109  46.3955474  18.0073237 106.9112557
  46.8593819  18.2860940 106.1217179  46.1312272  17.1056682 106.7285647
  43.2879555  17.5544719 109.8492320  43.8580912  17.9831987 109.2109804
  43.8787667  17.2727304 110.5476505  45.3324360  14.1296390 103.7202122
  46.0348403  14.5817433 104.1876048  45.0004988  13.4880209 104.3482015
  53.0913503  19.7285182 111.7724536  53.9130947  19.3265369 111.4907218
  53.0875906  19.6253416 112.7240652  41.0264439  12.7524522 105.9802732
  40.2295603  12.8643216 106.4986228  40.7990031  13.0911174 105.1143622
  46.8570107  19.2769225 113.9285247  46.9214539  19.7389632 114.7643418
  46.1481031  18.6466590 114.0567556  61.1819496  16.0723930 108.1209508
  60.4283205  15.5031328 107.9653512  61.3167038  16.0386595 109.0680142
  46.5718125  20.9437332 103.7964227  46.4363799  21.7888868 104.2249075
  47.1127937  21.1456610 103.0330161  40.0247522  18.4612770 104.3692152
  40.5372043  19.2556021 104.5197717  40.6770235  17.7639061 104.3025753
  41.8342407  21.5778527 106.4514905  42.0109035  22.4996491 106.2635889
  42.6299240  21.2636946 106.8809285  42.9573722  23.0956700 112.4525247
  43.5081147  22.9673764 111.6802241  42.1185198  23.3951589 112.1020140
  50.2967839  21.8463699 115.9545970  50.2786314  22.6672580 115.4626239
  51.2187759  21.7217774 116.1796111  37.9896439  16.7901425 105.1451722
  38.8271661  17.1998433 104.9285430  38.1674706  15.8500867 105.1151916
  49.8860871  14.4576505 100.8335555  49.3707494  15.2281110 101.0723943
  49.6138179  13.7841642 101.4568617  47.4707982   9.3026206 105.8920794
  46.6149578   8.9133057 105.7126433  47.8834934   9.3818167 105.0320579
  54.8595145  17.2108860 102.7688729  54.0824588  16.8720019 102.3243891
  55.5386626  17.2161483 102.0943694  49.6747174  12.3303597 102.6595337
  49.3697310  12.6449747 103.5105480  50.6277616  12.4085017 102.7022670
  48.1193606  18.4893821 104.3088291  47.5914967  17.7546580 103.9961528
  47.6181109  19.2668497 104.0628259  53.0986452  16.6842841 109.4255337
  52.4410126  17.3742103 109.5135466  53.9026851  17.0739273 109.7689323
  42.8512333   9.1513487 106.6694902  43.4256085   8.9288669 105.9368095
  43.4383316   9.2202182 107.4223503  51.9091911  15.0387214 107.4759279
  52.4223792  15.6717206 107.9780988  52.5593135  14.4388409 107.1102639
  43.1781921  11.1817948 100.6890787  42.3419233  11.5192635 101.0100062
  43.0386690  11.0466928  99.7517924  45.1535001   6.0254736 105.3969972
  44.4999414   5.7103753 104.7726586  45.1115475   5.4030476 106.1229794
  46.2646206  16.3074031  97.3123264  45.3573268  16.0763284  97.5114413
  46.7617238  15.5111650  97.4997245  49.1714285  25.0171538 100.2319950
  48.4975984  25.3203235 100.8404908  49.5580107  25.8200619  99.8825407
  48.3872742  12.5136669 109.7217619  47.4695303  12.7351616 109.5639307
  48.8032885  12.5882980 108.8629327  49.1707789  13.9128085 104.8520299
  49.9179608  14.4249482 104.5427421  49.4399379  13.5912138 105.7124693
  47.4434439  16.4086626 101.8347254  46.5345659  16.1245659 101.9319723
  47.4729523  16.8285704 100.9750561  52.6753707  20.0193215 105.6038421
  52.2216034  19.1784125 105.6603612  52.0447674  20.6554614 105.9413201
  51.6186626  10.9485201 106.8339089  50.8809383  10.4362588 107.1649331
  51.8713400  10.5085583 106.0222366  51.1186646  21.8569712 106.5388239
  51.4109621  22.4174769 105.8200605  51.6285267  22.1498273 107.2941399
  51.7198254   3.7261453 107.4280858  52.0257131   2.8658817 107.1406773
  52.4450859   4.3179074 107.2279852  38.0122610  14.1292140 105.8162456
  37.8147010  13.5361501 105.0913523  37.4569274  13.8244350 106.5338395
  45.9919334  14.0215246 107.9357049  46.0467943  13.0689083 107.8599526
  45.1810536  14.1774686 108.4198348  47.1410527  17.9495370  99.1735332
  46.7029957  17.2331228  98.7140970  47.8820968  18.1771484  98.6120424
  43.9311693  12.6392306 105.6947428  43.1179559  12.9386477 106.1012620
  44.4270688  12.2447995 106.4121910  46.0820271  22.6350063 107.6281693
  46.0396450  22.8610909 106.6990225  46.9982970  22.4013438 107.7767494
  55.2583642  16.2252567 105.2311651  55.1201541  16.4154163 104.3032840
  54.9019861  16.9871949 105.6879702  55.2853022  18.2929094 110.2422922
  55.7189528  18.2004383 111.0905976  55.9984602  18.2686594 109.6042938
  44.1986072  19.5113092 107.4243655  44.9926671  19.0163412 107.2226230
  43.4877764  18.9830955 107.0611361  49.0180917  21.8931188 111.7756023
  49.0717939  22.4622124 112.5433739  48.1495698  22.0633073 111.4110060
  40.5068836  13.6556174 103.5003408  39.5766424  13.5940629 103.7173370
  40.6026308  13.1332127 102.7040049  40.4254385  10.1810987 106.0881650
  40.6861202  11.0956320 105.9790810  41.2471557   9.7135429 106.2378263
  56.1468571  18.3352794 112.7755808  56.3404461  19.2398605 113.0215083
  56.0469189  17.8760213 113.6094393  47.9769016  16.0591450 113.3342955
  48.9061076  16.2102609 113.1611922  47.5560046  16.1475471 112.4791601
  46.7757348  20.0842114 111.1041492  46.6368434  19.7160899 111.9767431
  45.9871944  20.5989754 110.9325450  47.3705500  25.1851211 102.4467029
  47.5457256  24.7139254 103.2612652  46.6838288  25.8116977 102.6748290
  48.3262563  19.4623717 108.4930330  47.9912396  19.4224487 109.3887980
  47.8266509  18.7968433 108.0200740  51.2621755  16.8079751  98.7667390
  50.6450926  16.0826579  98.6700443  50.7938243  17.5689111  98.4234464
  52.9175887  21.5178660 116.4273170  52.8588433  20.8337880 115.7603753
  53.3195405  22.2597650 115.9753796  41.9366585  28.3340573 109.2206889
  42.1763184  28.9659098 109.8985908  41.0935782  27.9828613 109.5072248
  43.0520301  11.0265176  97.8888694  42.1749767  10.9053976  97.5250941
  43.5278054  10.2351254  97.6367583  52.9193294  19.4818243 114.6587150
  52.0320073  19.1444165 114.7813549  53.4891845  18.7501275 114.8955915
  34.5722441  15.8142335 107.9830201  35.2593481  15.5004065 107.3951217
  34.4170570  16.7183700 107.7097453  46.4494447  24.1419696 111.6248393
  46.3764619  24.9474667 112.1367698  46.0071840  24.3411662 110.7996415
  46.2384227  23.3791466 105.1351215  45.4551749  23.9213146 105.2289439
  46.9376972  23.8965446 105.5345456  49.5480877   9.1886095 107.7785420
  50.0449576   8.4356058 107.4586490  48.7767858   9.2250412 107.2128629
  57.4010634  14.8926461 109.4203712  57.3900511  15.7751176 109.0497645
  56.5328014  14.5398012 109.2258249  48.9093131  24.0406530 113.7806552
  49.6221103  24.6753995 113.7082453  48.4183159  24.1370396 112.9646554
  50.6310658  17.9457783 105.3523843  49.6966936  18.0659245 105.1828548
  50.8087326  17.0430249 105.0883853  46.1315846  11.3303478 107.5057105
  45.7613633  10.7774519 108.1938010  46.6274938  10.7261612 106.9532105
  54.0183209  13.7875102 105.8873878  54.4843661  14.6203093 105.8134180
  54.4690709  13.3220083 106.5919136  43.9605044  21.7900973 114.6012123
  44.6614504  22.4237456 114.7541517  43.4900159  22.1315705 113.8407762
  52.0859440  20.1318923 102.8860030  52.3619284  20.0175518 103.7953904
  51.2163939  19.7336408 102.8472203  51.7606330  14.3445581 112.4264673
  51.1077780  14.5921488 111.7717126  52.1386710  13.5309719 112.0927150
  48.7213504  24.3805274 106.5292843  48.9035899  23.5626930 106.9920596
  49.5446490  24.5972966 106.0917733  49.0555670  23.3073459 103.7907892
  49.5843436  22.7965914 103.1778054  49.3183889  22.9915989 104.6553425
  39.5572762  21.3237328 111.5343225  40.1426199  20.5781016 111.6671130
  39.3597601  21.6341285 112.4179889  42.4111418  24.3588576 106.5505668
  41.7421793  24.8434703 106.0669708  42.2724287  24.6057796 107.4649046
  46.5516686  26.3932319 113.1488326  47.1034994  26.5563941 113.9137411
  46.8922880  26.9836757 112.4768351  37.7798995  12.6207031 103.3301600
  38.0752436  11.7117709 103.2768654  36.8787030  12.5994770 103.0082602
  49.6885073  24.3414295 110.1352008  49.5636213  23.5404035 109.6262954
  50.3464165  24.8360488 109.6465978  51.7519982  22.1423315 111.7631558
  50.8050317  22.0228666 111.6909885  52.1002755  21.2545813 111.8457820
  39.5086836  10.3021128 103.4540925  39.1799542   9.4218507 103.2716031
  39.8626207  10.2468797 104.3417314  48.7566415  21.9376031 107.9635911
  48.6091378  21.0092739 108.1443481  49.5819909  21.9596122 107.4792986
  42.6228659  10.5894098 103.8216403  42.9624732  11.1180019 103.0995011
  43.0700780  10.9274504 104.5974969  52.3600537  22.7604590 109.0500783
  53.2847084  22.5547451 108.9125234  52.1915840  22.5120991 109.9590125
  44.6096807   9.0868720 102.0209695  45.3305169   9.4649973 101.5173412
  43.9862111   9.8057597 102.1244673  48.7527929   9.7913869 102.9568028
  48.9691544  10.6738507 102.6556856  48.2721997   9.4000082 102.2273670
  52.1495853  23.2790257 104.4062875  52.3232731  22.7136680 103.6536727
  52.6424744  24.0791152 104.2242365  44.7560430   8.6216510 104.8507232
  44.8776341   7.6933156 105.0498120  44.4662472   8.6355196 103.9385547
  58.0035244  16.0426680 106.0253174  58.4466390  15.2934005 105.6272298
  57.1261755  16.0336817 105.6426906  53.1371026  22.5957022 101.5059773
  53.8321930  23.2163714 101.7247088  53.4794176  21.7452373 101.7812151
  55.0362449  20.0456727 103.0347104  55.5613773  20.3844000 102.3096424
  54.9484801  19.1103743 102.8510238  46.6982497  23.9590801 115.1636980
  47.0069624  23.7139948 116.0359680  47.4957979  24.1637439 114.6755851
  46.7203110  26.1128711 107.3942357  46.2808100  25.6205089 108.0875214
  47.4711226  25.5701678 107.1534432  39.1995448  22.3040251 107.3966985
  40.0253468  22.0044023 107.0165629  38.8489500  21.5347874 107.8456774
  44.1676982  21.6566720 109.4664659  43.5456991  20.9937425 109.1666886
  44.8381849  21.6827851 108.7838306  37.4004054  20.2226578 108.3555919
  36.5635962  19.7948752 108.1739920  37.3727699  20.4159021 109.2926710
  54.7256355  20.6789631 118.3398302  53.9351899  20.6613770 117.8002801
  54.4889709  21.2177925 119.0947338  54.8454230  17.5282097 115.6531030
  54.8952235  17.3632105 116.5946553  54.7368153  16.6609356 115.2628911
  43.7290489  20.2070643 102.9423119  43.8778609  20.8906107 102.2889792
  44.5356932  20.1875733 103.4572575  56.3472427  19.9479039 115.8973052
  56.0557235  20.3109019 116.7336513  55.7344558  19.2346047 115.7186384
  57.5468109  17.5131919 108.4175622  58.3815000  17.9521723 108.5813182
  57.6827238  17.0370572 107.5983868  54.5959615  15.0711653 114.3653110
  55.0713737  15.2639300 113.5571961  53.6725180  15.1270839 114.1196493
  41.4843122  16.2335821 103.9484188  41.2389163  15.3298151 104.1464398
  41.6539036  16.2352971 103.0063666  40.7538769  11.9664178 101.4470350
  40.0608014  12.0408533 100.7910386  40.5090521  11.2024522 101.9691866
  47.2285894  22.7018773 100.4134867  46.6559861  23.3208961  99.9605338
  47.8018688  23.2518135 100.9474789  53.2961284  11.9477413 112.5981415
  54.2478707  12.0475511 112.6193639  53.1264734  11.1555682 113.1079500
  50.4483154  22.9855924 101.5443449  51.3813827  22.9201485 101.7476324
  50.3606367  23.8212190 101.0857982  53.0771171  22.3021794  98.5047396
  52.9984802  21.9681657  99.3983154  53.8980837  22.7943562  98.5038869
  55.7749362  15.1683533 111.7123715  55.7425682  14.2299534 111.8983399
  56.3849985  15.2467570 110.9789540  47.6132693  14.0379586  97.7550919
  48.5591797  13.9085794  97.8239337  47.2346938  13.2994248  98.2320347
  55.9243850  11.9594577 111.7581998  55.4082899  11.1753033 111.5711927
  56.8083799  11.6313293 111.9228518  53.5854577   5.7035592 107.7177811
  53.3879398   5.3950680 108.6021143  54.1954283   6.4297231 107.8475741
  61.5925912  16.2299540 110.8529752  62.3229300  15.9684828 111.4137455
  60.9832857  15.4928262 110.8931820  59.6741209  14.3707403 111.4504203
  58.9474372  14.2363368 110.8420695  59.2588496  14.6784231 112.2560921
  45.7975610  11.9629563  97.6905804  44.8907065  11.6662675  97.7668518
  46.0751591  11.6659381  96.8240091  47.4137675   6.5066452 103.8450046
  46.6038404   6.1613537 104.2205292  48.1022092   6.1973996 104.4337657
  49.3428224   5.5844499 105.4674342  49.8959262   6.0039952 106.1264365
  49.5798310   4.6580247 105.5097298  44.5674394   8.8216498  97.8317784
  45.4293558   9.1471396  98.0913601  44.7524739   8.0347994  97.3190849
  52.7207031   7.6945024 104.9753007  52.1405700   8.3529828 104.5931059
  52.4542964   6.8722369 104.5640424  51.1710597   7.0950082 107.1774327
  51.6710376   7.2066616 106.3688646  51.8146205   6.7911135 107.8175135
  38.4978553  16.8357091 107.9863987  38.4749241  16.9344778 107.0345870
  38.8079189  17.6822242 108.3081153  51.5031909   9.8545115 104.0309355
  50.6157764  10.1394765 103.8129550  51.9185898   9.6938878 103.1836632
  54.8546445   9.8791636 107.7463694  55.6306835  10.3688088 108.0188311
  54.1294579  10.3049690 108.2035564  57.2919004  10.5919255 108.8037635
  57.8863494  10.3514991 108.0930943  57.3645587   9.8726385 109.4311171
  39.5116159  24.4352866 109.1180799  39.3770627  23.6753267 108.5518798
  39.0948222  25.1593766 108.6509588  50.6475122  19.6189789  98.1257375
  51.3510972  19.8239792  98.7415030  49.9237771  20.1866551  98.3906458
  51.4772933  15.3699651 104.2459645  51.4208134  15.8268202 103.4067277
  52.0301275  14.6090335 104.0682488  55.2877739  11.1589382 105.0709764
  55.0314673  10.7586018 105.9017972  54.6630607  11.8733176 104.9459904
  59.5990076  13.8985456 107.5781056  59.0389634  13.9678645 108.3512618
  58.9933580  13.7226440 106.8580552  42.6685285  25.3322183 109.3299242
  42.5517669  26.2767615 109.2277932  41.8477731  25.0295744 109.7185041
  52.5561820  20.0572318 100.1755835  53.3907424  19.6253517  99.9933310
  52.3946163  19.8854332 101.1032729  52.2107712  16.5604432 101.5412174
  52.1556516  16.3948703 100.6000618  51.5853767  17.2680465 101.6974364
  45.5203837   6.0612541 101.1197493  45.5082507   7.0054381 101.2765763
  46.4127259   5.8782686 100.8256954  43.6939799  25.9850445 112.5455171
  44.5967046  26.0174055 112.8621666  43.4677169  25.0550896 112.5601506
  45.4493401  24.7381431 109.2065249  44.4989032  24.7383293 109.0929621
  45.7525887  23.9914166 108.6901284  49.3355957   2.6555317 105.3743429
  48.5688353   2.1013804 105.5200112  49.7466662   2.7277186 106.2357581
  61.1846095  30.5741970 110.2711012  61.8224505  30.4548717 109.5674352
  61.0666938  31.5222814 110.3298964  57.9935801  30.5269398 110.2072536
  57.6554313  30.4110462 109.3193071  58.8625569  30.1260563 110.1873542
  53.8522617  32.3804874 106.1969427  53.2887482  32.2894811 105.4285715
  53.7375012  31.5604779 106.6771920  58.4755584  31.6804249 116.1658742
  58.4644225  31.2857048 115.2939245  58.6376224  30.9470322 116.7592513
  51.3987049  33.8756066 109.0353648  52.1908341  33.5346890 108.6199947
  51.6383699  33.9851041 109.9555801  59.4322176  36.0475842 101.5083892
  58.7810155  36.6329922 101.1217906  60.2266538  36.5782037 101.5678930
  53.3577803  33.1364979 101.9071026  54.1308679  32.5893966 101.7683902
  53.7103202  34.0009228 102.1185488  55.1962845  34.4641361 115.1137926
  54.9052711  35.3686992 114.9984592  55.8319830  34.5057889 115.8281995
  56.1219052  31.8418210 111.7039285  56.7182624  31.6174232 110.9896248
  56.1794024  31.1002955 112.3064733  55.6944081  29.2957645  99.5389476
  55.9469601  28.7739166  98.7772939  54.7568640  29.1323791  99.6416160
  60.7387363  28.2993423 107.3464220  61.5250453  27.8812847 106.9954637
  61.0026068  29.2039516 107.5145868  60.9097441  33.7366274 102.0452876
  60.2743274  33.8100900 102.7573781  60.5794847  34.3259873 101.3671956
  66.1395790  28.2368657 108.2497198  66.8720962  27.6667873 108.4835028
  65.3835146  27.8490257 108.6903704  55.4140369  31.1985751 101.7413851
  55.2976627  30.5230654 102.4094936  55.5242629  30.7118125 100.9246004
  57.7571910  30.6595898 105.4460541  57.3930117  30.1326519 106.1573462
  58.6139026  30.2694367 105.2727026  63.6621211  21.9490231 112.7091807
  63.3304536  22.8185642 112.4853022  63.0666824  21.6326515 113.3885837
  57.3977397  25.6885798 100.4421889  57.5651799  26.5566034 100.8092360
  57.2074566  25.8513080  99.5183178  60.1552730  34.1502777 112.1087719
  59.8553453  35.0527816 112.0003527  59.8103790  33.8834960 112.9608872
  53.6065212  30.6016574 108.1424424  52.6815708  30.4692788 108.3502116
  53.8549625  31.3810793 108.6394366  63.5549874  26.6685317 109.7885157
  62.6466751  26.6000725 109.4943918  63.5037470  27.1457262 110.6166982
  57.3766618  28.1443455 101.4268556  57.2566243  28.5900506 102.2654036
  56.6819206  28.4928773 100.8682094  50.9674023  30.2449847 108.9768213
  51.0966404  30.4984326 109.8907625  50.2871474  30.8377555 108.6572868
  55.1373510  40.9147097 105.0758687  55.0597540  41.8654922 105.1547168
  54.5335154  40.5692970 105.7333613  57.6290740  28.0874963 117.7320054
  56.8524074  28.6468883 117.7222919  58.2681303  28.5731745 118.2534924
  65.4211521  24.8701755 111.5663031  64.7785901  25.1634288 110.9202825
  64.9166449  24.7554676 112.3716227  63.0751684  28.6164929 102.2548890
  63.9869540  28.8492315 102.0796588  62.5661331  29.2001973 101.6923969
  55.8837112  30.8960416 117.2938021  56.6251797  31.4345460 117.0172845
  55.1774098  31.5226705 117.4509573  61.3592452  33.0389556 115.8910183
  61.7675808  32.5971967 115.1464815  60.6369713  32.4642184 116.1444375
  57.7123522  27.9762163 113.2643739  58.5584717  28.4001577 113.4078388
  57.6522160  27.3195787 113.9582303  61.6821266  33.5990747 109.6462471
  61.0530129  33.7636461 108.9438539  61.2946929  34.0132357 110.4173435
  65.5610498  34.5345185 107.0006835  64.8761537  34.9144086 106.4503868
  65.6454348  35.1440511 107.7338783  60.8622967  25.6366531 114.9224913
  60.6183899  26.3908592 114.3859189  61.1382898  26.0151879 115.7572160
  62.8161430  32.1805144 113.6002179  63.0278325  32.8236904 112.9236560
  62.7691178  31.3467460 113.1324109  60.4187659  24.7922964 110.5038751
  59.5572138  25.0904218 110.7955488  60.4450094  25.0093363 109.5719783
  57.2349228  33.3365155 106.9112557  57.6987574  33.6152858 106.1217179
  56.9706026  32.4348600 106.7285647  54.1273309  32.8836637 109.8492320
  54.6974666  33.3123905 109.2109804  54.7181421  32.6019221 110.5476505
  56.1718114  29.4588307 103.7202122  56.8742158  29.9109351 104.1876048
  55.8398743  28.8172126 104.3482015  54.6198476  28.0500064 118.0953331
  53.9897137  28.7316345 118.3288728  54.5134564  27.9383146 117.1506469
  49.9143448  27.7171860 109.0219255  49.1242502  27.9729389 108.5459366
  50.4054696  28.5320198 109.1271296  63.9307258  35.0577099 111.7724536
  64.7524702  34.6557287 111.4907218  63.9269661  34.9545333 112.7240652
  51.8658194  28.0816439 105.9802732  51.0689357  28.1935134 106.4986228
  51.6383786  28.4203092 105.1143622  57.6963861  34.6061143 113.9285247
  57.7608294  35.0681550 114.7643418  56.9874785  33.9758507 114.0567556
  48.1981151  27.9702351 111.4534246  48.4489190  28.8549360 111.7191822
  48.7340700  27.7906952 110.6809338  72.0213251  31.4015848 108.1209508
  71.2676959  30.8323246 107.9653512  72.1560792  31.3678512 109.0680142
  57.4111879  36.2729250 103.7964227  57.2757554  37.1180786 104.2249075
  57.9521692  36.4748528 103.0330161  50.8641276  33.7904688 104.3692152
  51.3765797  34.5847938 104.5197717  51.5163989  33.0930979 104.3025753
  52.6736161  36.9070444 106.4514905  52.8502789  37.8288409 106.2635889
  53.4692995  36.5928864 106.8809285  56.8147180  23.7678709 118.0498839
  57.5556893  24.3685862 117.9703301  57.0465102  23.0256347 117.4916881
  51.9588518  28.9535076 116.3277068  51.8442033  28.0520333 116.6284167
  51.1033035  29.1998773 115.9761885  59.0380355  36.8952817 117.9264569
  58.5944210  36.1089195 117.6085473  59.6997569  37.0831967 117.2608460
  53.7967477  38.4248618 112.4525247  54.3474902  38.2965681 111.6802241
  52.9578952  38.7243507 112.1020140  61.1361593  37.1755616 115.9545970
  61.1180069  37.9964498 115.4626239  62.0581514  37.0509692 116.1796111
  57.5934648  34.6899746 116.7969479  58.1262984  33.9288034 116.5668787
  57.0648729  34.3973398 117.5393633  60.7604343  19.7959812 112.3263120
  60.4168612  20.6861454 112.2502231  61.1283305  19.6061470 111.4632705
  48.8290193  32.1193342 105.1451722  49.6665415  32.5290351 104.9285430
  49.0068461  31.1792785 105.1151916  60.7254625  29.7868423 100.8335555
  60.2101249  30.5573028 101.0723943  60.4531934  29.1133559 101.4568617
  58.3101736  24.6318124 105.8920794  57.4543333  24.2424974 105.7126433
  58.7228688  24.7110085 105.0320579  59.8400883  22.1664467 110.2912354
  59.3365679  22.1294602 109.4780159  60.1331490  23.0757210 110.3509010
  56.0843769  22.2503197 109.2978535  56.9496766  22.0546005 108.9384425
  56.1521278  22.0213549 110.2247892  65.6988899  32.5400778 102.7688729
  64.9218342  32.2011937 102.3243891  66.3780380  32.5453401 102.0943694
  60.5140928  27.6595515 102.6595337  60.2091064  27.9741664 103.5105480
  61.4671371  27.7376935 102.7022670  58.9587360  33.8185738 104.3088291
  58.4308722  33.0838498 103.9961528  58.4574863  34.5960415 104.0628259
  63.9380206  32.0134759 109.4255337  63.2803881  32.7034020 109.5135466
  64.7420606  32.4031191 109.7689323  53.6906088  24.4805405 106.6694902
  54.2649840  24.2580586 105.9368095  54.2777070  24.5494099 107.4223503
  62.7485665  30.3679132 107.4759279  63.2617547  31.0009123 107.9780988
  63.3986889  29.7680327 107.1102639  54.0175675  26.5109866 100.6890787
  53.1812987  26.8484552 101.0100062  53.8780445  26.3758846  99.7517924
  55.9928756  21.3546654 105.3969972  55.3393168  21.0395671 104.7726586
  55.9509230  20.7322394 106.1229794  57.1039961  31.6365949  97.3123264
  56.1967022  31.4055202  97.5114413  57.6010993  30.8403568  97.4997245
  60.0108039  40.3463456 100.2319950  59.3369738  40.6495153 100.8404908
  60.3973861  41.1492536  99.8825407  59.2266496  27.8428587 109.7217619
  58.3089057  28.0643534 109.5639307  59.6426640  27.9174898 108.8629327
  60.0101544  29.2420003 104.8520299  60.7573363  29.7541400 104.5427421
  60.2793133  28.9204056 105.7124693  58.2828194  31.7378544 101.8347254
  57.3739413  31.4537576 101.9319723  58.3123278  32.1577622 100.9750561
  63.5147461  35.3485133 105.6038421  63.0609788  34.5076043 105.6603612
  62.8841428  35.9846531 105.9413201  62.4580381  26.2777119 106.8339089
  61.7203138  25.7654505 107.1649331  62.7107154  25.8377501 106.0222366
  61.9580401  37.1861630 106.5388239  62.2503375  37.7466687 105.8200605
  62.4679021  37.4790191 107.2941399  62.5592008  19.0553371 107.4280858
  62.8650885  18.1950735 107.1406773  63.2844613  19.6470991 107.2279852
  48.8516364  29.4584058 105.8162456  48.6540764  28.8653418 105.0913523
  48.2963028  29.1536268 106.5338395  56.8313088  29.3507164 107.9357049
  56.8861698  28.3981001 107.8599526  56.0204290  29.5066603 108.4198348
  57.9804282  33.2787287  99.1735332  57.5423712  32.5623146  98.7140970
  58.7214723  33.5063402  98.6120424  54.7705448  27.9684224 105.6947428
  53.9573313  28.2678394 106.1012620  55.2664442  27.5739913 106.4121910
  56.9214026  37.9641981 107.6281693  56.8790205  38.1902827 106.6990225
  57.8376725  37.7305355 107.7767494  60.3679660  28.4326048 114.5262322
  60.7229047  28.6597522 115.3856788  61.0151791  28.7644425 113.9039577
  66.0977397  31.5544484 105.2311651  65.9595295  31.7446080 104.3032840
  65.7413615  32.3163867 105.6879702  54.2619523  25.5402579 111.3108663
  54.9018902  25.3991339 110.6131626  53.4297053  25.2537093 110.9347265
  66.1246776  33.6221011 110.2422922  66.5583283  33.5296300 111.0905976
  66.8378357  33.5978512 109.6042938  55.0379827  34.8405010 107.4243655
  55.8320425  34.3455330 107.2226230  54.3271519  34.3122873 107.0611361
  59.8574671  37.2223105 111.7756023  59.9111693  37.7914042 112.5433739
  58.9889452  37.3924990 111.4110060  51.3462590  28.9848092 103.5003408
  50.4160178  28.9232547 103.7173370  51.4420062  28.4624044 102.7040049
  51.2648139  25.5102904 106.0881650  51.5254956  26.4248238 105.9790810
  52.0865311  25.0427347 106.2378263  52.7373064  26.9240662 113.2580474
  53.4096118  26.7158024 112.6093123  51.9102851  26.7262748 112.8185707
  66.9862326  33.6644712 112.7755808  67.1798216  34.5690522 113.0215083
  66.8862944  33.2052131 113.6094393  58.6398636  23.5502603 115.2746135
  57.9926551  24.2492552 115.1810612  59.4099652  23.9838746 115.6422383
  62.0477434  33.8151455 118.3496688  61.8962941  33.5862006 117.4326772
  62.0382114  34.7722056 118.3628033  58.8162771  31.3883367 113.3342955
  59.7454831  31.5394527 113.1611922  58.3953801  31.4767388 112.4791601
  57.6151103  35.4134032 111.1041492  57.4762188  35.0452816 111.9767431
  56.8265699  35.9281671 110.9325450  58.2099255  40.5143128 102.4467029
  58.3851010  40.0431172 103.2612652  57.5232043  41.1408895 102.6748290
  59.1656318  34.7915635 108.4930330  58.8306150  34.7516405 109.3887980
  58.6660263  34.1260350 108.0200740  53.1400562  30.1983265 114.0182911
  53.0020360  29.4663503 114.6194450  54.0505485  30.1092165 113.7367099
  62.1015509  32.1371669  98.7667390  61.4844680  31.4118497  98.6700443
  61.6331998  32.8981029  98.4234464  55.7682862  29.9103224 113.5066591
  56.4782481  29.2696416 113.4653209  55.7252171  30.1616119 114.4292772
  63.7569641  36.8470577 116.4273170  63.6982187  36.1629797 115.7603753
  64.1589159  37.5889567 115.9753796  54.4811796  26.8968442 115.3262231
  53.9449153  26.4459180 115.9783827  53.8928505  27.0314351 114.5832695
  52.7760340  43.6632491 109.2206889  53.0156938  44.2951015 109.8985908
  51.9329536  43.3120531 109.5072248  53.8914055  26.3557093  97.8888694
  53.0143522  26.2345894  97.5250941  54.3671808  25.5643171  97.6367583
  63.7587048  34.8110161 114.6587150  62.8713827  34.4736083 114.7813549
  64.3285599  34.0793192 114.8955915  45.4116195  31.1434253 107.9830201
  46.0987235  30.8295983 107.3951217  45.2564324  32.0475618 107.7097453
  50.2150918  26.0324449 112.4115225  50.1309106  25.4250119 111.6765635
  49.3933624  26.5233468 112.4124721  57.2888202  39.4711614 111.6248393
  57.2158373  40.2766585 112.1367698  56.8465595  39.6703579 110.7996415
  57.0777981  38.7083384 105.1351215  56.2945503  39.2505064 105.2289439
  57.7770726  39.2257363 105.5345456  60.3874631  24.5178013 107.7785420
  60.8843331  23.7647975 107.4586490  59.6161613  24.5542330 107.2128629
  68.2404389  30.2218379 109.4203712  68.2294265  31.1043094 109.0497645
  67.3721768  29.8689929 109.2258249  59.7486885  39.3698448 113.7806552
  60.4614857  40.0045912 113.7082453  59.2576914  39.4662314 112.9646554
  61.4704412  33.2749700 105.3523843  60.5360691  33.3951163 105.1828548
  61.6481081  32.3722167 105.0883853  56.9709600  26.6595396 107.5057105
  56.6007388  26.1066436 108.1938010  57.4668693  26.0553529 106.9532105
  64.8576963  29.1167020 105.8873878  65.3237416  29.9495011 105.8134180
  65.3084464  28.6512001 106.5919136  54.7998799  37.1192891 114.6012123
  55.5008258  37.7529374 114.7541517  54.3293914  37.4607623 113.8407762
  62.9253195  35.4610841 102.8860030  63.2013038  35.3467435 103.7953904
  62.0557693  35.0628326 102.8472203  62.8293626  21.4847606 109.9264779
  61.9156706  21.7151833 110.0946986  63.2586728  21.5686051 110.7778811
  62.6000085  29.6737498 112.4264673  61.9471535  29.9213406 111.7717126
  62.9780465  28.8601637 112.0927150  59.5607259  39.7097192 106.5292843
  59.7429653  38.8918848 106.9920596  60.3840245  39.9264884 106.0917733
  59.8949424  38.6365377 103.7907892  60.4237191  38.1257831 103.1778054
  60.1577644  38.3207907 104.6553425  58.6487658  30.4157310 118.9130710
  57.9728295  30.3151439 119.5833085  59.4715292  30.2596523 119.3766707
  50.3966517  36.6529246 111.5343225  50.9819954  35.9072934 111.6671130
  50.1991355  36.9633203 112.4179889  53.2505172  39.6880493 106.5505668
  52.5815547  40.1726621 106.0669708  53.1118042  39.9349714 107.4649046
  44.9884172  29.2234846 110.2547668  45.0268271  28.6898437 111.0484787
  44.4824464  28.6970052 109.6358646  57.3910441  41.7224237 113.1488326
  57.9428749  41.8855858 113.9137411  57.7316634  42.3128675 112.4768351
  52.3674934  24.0699387 113.7510211  52.4316260  24.9314218 113.3387608
  52.3042054  23.4573388 113.0182569  51.8427206  26.1422519 117.3983245
  52.4699245  25.7599597 118.0120769  50.9855125  25.9236721 117.7638938
  62.2421315  36.5485494 119.0036980  62.7861219  37.1615453 118.5091935
  61.6608160  37.1065073 119.5203993  48.6192749  27.9498948 103.3301600
  48.9146190  27.0409627 103.2768654  47.7180785  27.9286688 103.0082602
  60.5278828  39.6706212 110.1352008  60.4029967  38.8695952 109.6262954
  61.1857919  40.1652406 109.6465978  52.1486996  26.0254945 109.3129148
  51.4273582  26.6390913 109.1736622  52.9380252  26.5612710 109.2345794
  62.5913736  37.4715233 111.7631558  61.6444072  37.3520584 111.6909885
  62.9396509  36.5837731 111.8457820  54.9513310  23.3609372 115.5869800
  55.4747711  23.6071668 116.3496110  54.7325643  24.1929406 115.1672938
  50.3480591  25.6313046 103.4540925  50.0193297  24.7510425 103.2716031
  50.7019961  25.5760715 104.3417314  59.5960170  37.2667949 107.9635911
  59.4485132  36.3384656 108.1443481  60.4213663  37.2888040 107.4792986
  53.4622414  25.9186016 103.8216403  53.8018486  26.4471937 103.0995011
  53.9094534  26.2566422 104.5974969  63.1994291  38.0896508 109.0500783
  64.1240839  37.8839369 108.9125234  63.0309595  37.8412909 109.9590125
  56.1565855  24.3023067 113.2719471  55.8162675  23.5030880 113.6740151
  55.4504861  24.6024777 112.6996304  56.8082327  21.3872379 111.7246794
  57.6308396  20.9132857 111.6025684  57.0520390  22.1662863 112.2245480
  55.4490561  24.4160637 102.0209695  56.1698924  24.7941890 101.5173412
  54.8255865  25.1349514 102.1244673  59.5921684  25.1205786 102.9568028
  59.8085298  26.0030424 102.6556856  59.1115751  24.7292000 102.2273670
  54.3320905  28.0791500 109.5338772  54.1865486  28.3931803 110.4263054
  53.8546109  28.6976400 108.9809671  56.1917288  25.0694048 109.5819662
  56.1778857  24.1735141 109.2451960  56.9089716  25.0764711 110.2157948
  58.0443419  25.5031388 111.6272789  57.7861197  26.4248459 111.6257120
  57.5128459  25.1061822 112.3173253  62.9889608  38.6082175 104.4062875
  63.1626485  38.0428597 103.6536727  63.4818499  39.4083070 104.2242365
  48.8066567  30.6196844 112.4726434  48.2620036  31.3956652 112.6046708
  49.6845917  30.9667649 112.3145555  55.5954184  23.9508428 104.8507232
  55.7170095  23.0225074 105.0498120  55.3056226  23.9647114 103.9385547
  58.4645374  21.6363338 107.9873952  58.4867071  21.7002671 107.0325931
  58.8813433  20.7967847 108.1814458  68.8428999  31.3718598 106.0253174
  69.2860145  30.6225923 105.6272298  67.9655509  31.3628734 105.6426906
  63.9764780  37.9248939 101.5059773  64.6715685  38.5455632 101.7247088
  64.3187930  37.0744291 101.7812151  49.5932589  29.7466740 115.3656590
  48.8514325  29.8949376 115.9521221  49.2725334  30.0075006 114.5023340
  65.8756203  35.3748645 103.0347104  66.4007527  35.7135918 102.3096424
  65.7878556  34.4395660 102.8510238  57.5376252  39.2882719 115.1636980
  57.8463378  39.0431865 116.0359680  58.3351734  39.4929357 114.6755851
  57.5596864  41.4420628 107.3942357  57.1201854  40.9497007 108.0875214
  58.3104981  40.8993596 107.1534432  50.0389203  37.6332169 107.3966985
  50.8647223  37.3335941 107.0165629  49.6883255  36.8639791 107.8456774
  55.0070736  36.9858637 109.4664659  54.3850745  36.3229342 109.1666886
  55.6775603  37.0119769 108.7838306  48.2397808  35.5518496 108.3555919
  47.4029716  35.1240670 108.1739920  48.2121453  35.7450939 109.2926710
  55.0795264  25.4640425 119.0597165  55.1283419  26.3402548 118.6774934
  55.6217778  24.9217818 118.4868808  65.5650109  36.0081549 118.3398302
  64.7745653  35.9905687 117.8002801  65.3283464  36.5469842 119.0947338
  65.6847984  32.8574015 115.6531030  65.7345989  32.6924022 116.5946553
  65.5761908  31.9901274 115.2628911  54.5684243  35.5362561 102.9423119
  54.7172363  36.2198025 102.2889792  55.3750687  35.5167651 103.4572575
  62.9751747  28.8404943 116.9690337  63.8761610  28.7011408 116.6774335
  63.0499721  29.0059398 117.9088514  57.3094552  26.2171798 115.8143523
  56.4397861  26.5105364 115.5426112  57.5454032  26.8012243 116.5350787
  67.1866181  35.2770956 115.8973052  66.8950989  35.6400937 116.7336513
  66.5738312  34.5637965 115.7186384  68.3861864  32.8423836 108.4175622
  69.2208755  33.2813640 108.5813182  68.5220992  32.3662489 107.5983868
  65.4353369  30.4003571 114.3653110  65.9107491  30.5931217 113.5571961
  64.5118935  30.4562757 114.1196493  52.3236876  31.5627738 103.9484188
  52.0782918  30.6590068 104.1464398  52.4932791  31.5644889 103.0063666
  60.0133586  22.4351415 113.3308944  60.5315530  23.1712442 113.0055432
  59.6588719  22.7415408 114.1655703  51.5932524  27.2956096 101.4470350
  50.9001769  27.3700451 100.7910386  51.3484275  26.5316439 101.9691866
  60.2646180  18.8551697 108.8509840  60.5447934  18.1874886 109.4770267
  61.0496787  19.0480793 108.3384504  58.0679649  38.0310691 100.4134867
  57.4953616  38.6500878  99.9605338  58.6412442  38.5810053 100.9474789
  64.1355038  27.2769331 112.5981415  65.0872461  27.3767429 112.6193639
  63.9658489  26.4847600 113.1079500  62.1569418  24.3624914 112.7840816
  61.5619350  24.6429927 112.0887305  61.8719115  24.8518815 113.5557557
  61.2876908  38.3147841 101.5443449  62.2207582  38.2493403 101.7476324
  61.2000121  39.1504108 101.0857982  63.9164925  37.6313712  98.5047396
  63.8378557  37.2973575  99.3983154  64.7374592  38.1235479  98.5038869
  66.6143116  30.4975451 111.7123715  66.5819436  29.5591452 111.8983399
  67.2243740  30.5759488 110.9789540  58.4526447  29.3671504  97.7550919
  59.3985552  29.2377712  97.8239337  58.0740692  28.6286166  98.2320347
  66.7637605  27.2886494 111.7581998  66.2476653  26.5044951 111.5711927
  67.6477553  26.9605211 111.9228518  64.4248332  21.0327510 107.7177811
  64.2273153  20.7242598 108.6021143  65.0348037  21.7589149 107.8475741
  72.4319666  31.5591458 110.8529752  73.1623055  31.2976746 111.4137455
  71.8226612  30.8220180 110.8931820  70.5134963  29.6999320 111.4504203
  69.7868127  29.5655285 110.8420695  70.0982250  30.0076149 112.2560921
  58.3365140  33.4189250 119.2151576  59.2568149  33.5967849 119.4091623
  58.3014723  32.4745295 119.0631275  56.6369364  27.2921480  97.6905804
  55.7300820  26.9954593  97.7668518  56.9145345  26.9951298  96.8240091
  47.5547305  28.6127844 108.1404851  47.2350089  27.7593152 107.8479225
  47.0080733  28.8276422 108.8962818  51.3327212  31.3290285 111.8574357
  51.5513222  32.2607392 111.8762391  51.7452986  30.9698259 112.6429161
  58.2531430  21.8358370 103.8450046  57.4432158  21.4905455 104.2205292
  58.9415847  21.5265914 104.4337657  60.1821978  20.9136417 105.4674342
  60.7353017  21.3331870 106.1264365  60.4192065  19.9872165 105.5097298
  56.2055077  26.9023490 121.2477106  56.1051804  27.8517847 121.1789197
  55.9876620  26.5741729 120.3753176  55.4068149  24.1508415  97.8317784
  56.2687313  24.4763314  98.0913601  55.5918493  23.3639911  97.3190849
  47.4235565  32.2330755 110.1097972  46.7299036  31.8184708 109.5967927
  48.1708556  32.2751292 109.5131391  63.5600785  23.0236942 104.9753007
  62.9799454  23.6821746 104.5931059  63.2936718  22.2014286 104.5640424
  62.0104352  22.4242000 107.1774327  62.5104130  22.5358534 106.3688646
  62.6539960  22.1203052 107.8175135  56.0686348  30.3320629 120.0642168
  55.5853429  31.1320989 120.2706057  56.1547287  30.3428574 119.1109612
  49.3372307  32.1649009 107.9863987  49.3142995  32.2636696 107.0345870
  49.6472944  33.0114160 108.3081153  51.9959685  34.2225164 112.1010602
  52.9502939  34.1909106 112.0340533  51.7972209  33.7615788 112.9160828
  52.5859067  32.7926280 114.6681399  53.4051956  33.2870359 114.6916237
  52.8595875  31.8758248 114.6398967  62.3425663  25.1837032 104.0309355
  61.4551518  25.4686683 103.8129550  62.7579652  25.0230796 103.1836632
  65.6940199  25.2083553 107.7463694  66.4700590  25.6980006 108.0188311
  64.9688334  25.6341607 108.2035564  68.1312758  25.9211172 108.8037635
  68.7257249  25.6806908 108.0930943  68.2039342  25.2018303 109.4311171
  50.3509914  39.7644783 109.1180799  50.2164382  39.0045184 108.5518798
  49.9341976  40.4885683 108.6509588  61.4868877  34.9481707  98.1257375
  62.1904727  35.1531709  98.7415030  60.7631526  35.5158469  98.3906458
  62.3166687  30.6991568 104.2459645  62.2601888  31.1560120 103.4067277
  62.8695030  29.9382253 104.0682488  66.1271493  26.4881300 105.0709764
  65.8708427  26.0877936 105.9017972  65.5024361  27.2025094 104.9459904
  70.4383831  29.2277373 107.5781056  69.8783389  29.2970563 108.3512618
  69.8327334  29.0518358 106.8580552  53.5079040  40.6614100 109.3299242
  53.3911424  41.6059533 109.2277932  52.6871486  40.3587662 109.7185041
  63.3955574  35.3864236 100.1755835  64.2301178  34.9545435  99.9933310
  63.2339917  35.2146250 101.1032729  63.0501466  31.8896349 101.5412174
  62.9950270  31.7240621 100.6000618  62.4247522  32.5972382 101.6974364
  47.8393981  27.1264414 115.3673596  48.4852845  26.6163368 115.8560822
  47.6311133  27.8633095 115.9417022  60.3647374  34.1945261 120.8665737
  61.2338533  34.3685914 120.5052372  59.8854125  35.0139678 120.7441466
  56.3597592  21.3904458 101.1197493  56.3476262  22.3346298 101.2765763
  57.2521014  21.2074604 100.8256954  54.5333554  41.3142362 112.5455171
  55.4360801  41.3465973 112.8621666  54.3070924  40.3842813 112.5601506
  56.2887156  40.0673349 109.2065249  55.3382787  40.0675210 109.0929621
  56.5919642  39.3206083 108.6901284  60.1749711  17.9847235 105.3743429
  59.4082107  17.4305722 105.5200112  60.5860416  18.0569104 106.2357581
  72.0239849  45.9033887 110.2711012  72.6618259  45.7840635 109.5674352
  71.9060692  46.8514731 110.3298964  68.8329556  45.8561315 110.2072536
  68.4948067  45.7402380 109.3193071  69.7019324  45.4552480 110.1873542
  64.6916371  47.7096792 106.1969427  64.1281236  47.6186729 105.4285715
  64.5768766  46.8896696 106.6771920  69.3149339  47.0096167 116.1658742
  69.3037979  46.6148965 115.2939245  69.4769978  46.2762240 116.7592513
  62.2380803  49.2047983 109.0353648  63.0302095  48.8638808 108.6199947
  62.4777453  49.3142958 109.9555801  70.2715930  51.3767759 101.5083892
  69.6203910  51.9621840 101.1217906  71.0660293  51.9073954 101.5678930
  64.1971557  48.4656897 101.9071026  64.9702433  47.9185884 101.7683902
  64.5496956  49.3301146 102.1185488  66.0356600  49.7933279 115.1137926
  65.7446466  50.6978910 114.9984592  66.6713584  49.8349807 115.8281995
  66.9612807  47.1710127 111.7039285  67.5576379  46.9466150 110.9896248
  67.0187778  46.4294873 112.3064733  66.5337835  44.6249563  99.5389476
  66.7863356  44.1031084  98.7772939  65.5962394  44.4615708  99.6416160
  71.5781118  43.6285341 107.3464220  72.3644207  43.2104764 106.9954637
  71.8419822  44.5331433 107.5145868  71.7491195  49.0658191 102.0452876
  71.1137028  49.1392818 102.7573781  71.4188602  49.6551790 101.3671956
  76.9789545  43.5660574 108.2497198  77.7114717  42.9959791 108.4835028
  76.2228901  43.1782175 108.6903704  66.2534124  46.5277669 101.7413851
  66.1370382  45.8522572 102.4094936  66.3636384  46.0410043 100.9246004
  68.5965665  45.9887816 105.4460541  68.2323872  45.4618437 106.1573462
  69.4532781  45.5986285 105.2727026  74.5014965  37.2782148 112.7091807
  74.1698290  38.1477559 112.4853022  73.9060579  36.9618432 113.3885837
  68.2371152  41.0177715 100.4421889  68.4045554  41.8857952 100.8092360
  68.0468321  41.1804997  99.5183178  70.9946485  49.4794694 112.1087719
  70.6947208  50.3819733 112.0003527  70.6497544  49.2126878 112.9608872
  64.4458966  45.9308491 108.1424424  63.5209463  45.7984705 108.3502116
  64.6943379  46.7102710 108.6394366  74.3943629  41.9977235 109.7885157
  73.4860506  41.9292643 109.4943918  74.3431224  42.4749180 110.6166982
  68.2160373  43.4735373 101.4268556  68.0959998  43.9192424 102.2654036
  67.5212961  43.8220691 100.8682094  61.8067777  45.5741765 108.9768213
  61.9360158  45.8276244 109.8907625  61.1265229  46.1669473 108.6572868
  65.9767265  56.2439015 105.0758687  65.8991294  57.1946840 105.1547168
  65.3728908  55.8984887 105.7333613  68.4684494  43.4166880 117.7320054
  67.6917828  43.9760800 117.7222919  69.1075057  43.9023663 118.2534924
  76.2605275  40.1993673 111.5663031  75.6179655  40.4926206 110.9202825
  75.7560204  40.0846593 112.3716227  73.9145439  43.9456846 102.2548890
  74.8263295  44.1784233 102.0796588  73.4055086  44.5293890 101.6923969
  66.7230867  46.2252334 117.2938021  67.4645551  46.7637378 117.0172845
  66.0167852  46.8518622 117.4509573  72.1986206  48.3681474 115.8910183
  72.6069562  47.9263885 115.1464815  71.4763468  47.7934102 116.1444375
  68.5517276  43.3054081 113.2643739  69.3978472  43.7293494 113.4078388
  68.4915914  42.6487705 113.9582303  72.5215021  48.9282665 109.6462471
  71.8923883  49.0928379 108.9438539  72.1340683  49.3424274 110.4173435
  76.4004253  49.8637102 107.0006835  75.7155291  50.2436004 106.4503868
  76.4848102  50.4732429 107.7338783  71.7016722  40.9658449 114.9224913
  71.4577654  41.7200510 114.3859189  71.9776652  41.3443797 115.7572160
  73.6555184  47.5097062 113.6002179  73.8672080  48.1528821 112.9236560
  73.6084933  46.6759378 113.1324109  71.2581413  40.1214882 110.5038751
  70.3965892  40.4196136 110.7955488  71.2843848  40.3385281 109.5719783
  68.0742983  48.6657073 106.9112557  68.5381328  48.9444776 106.1217179
  67.8099781  47.7640517 106.7285647  64.9667064  48.2128554 109.8492320
  65.5368421  48.6415823 109.2109804  65.5575176  47.9311139 110.5476505
  67.0111869  44.7880225 103.7202122  67.7135912  45.2401269 104.1876048
  66.6792497  44.1464044 104.3482015  65.4592230  43.3791982 118.0953331
  64.8290891  44.0608263 118.3288728  65.3528318  43.2675063 117.1506469
  60.7537203  43.0463778 109.0219255  59.9636257  43.3021306 108.5459366
  61.2448450  43.8612116 109.1271296  74.7701012  50.3869017 111.7724536
  75.5918456  49.9849204 111.4907218  74.7663415  50.2837251 112.7240652
  62.7051948  43.4108357 105.9802732  61.9083112  43.5227051 106.4986228
  62.4777540  43.7495009 105.1143622  68.5357616  49.9353060 113.9285247
  68.6002048  50.3973467 114.7643418  67.8268540  49.3050425 114.0567556
  59.0374906  43.2994268 111.4534246  59.2882944  44.1841278 111.7191822
  59.5734454  43.1198870 110.6809338  82.8607005  46.7307765 108.1209508
  82.1070714  46.1615163 107.9653512  82.9954547  46.6970430 109.0680142
  68.2505634  51.6021168 103.7964227  68.1151308  52.4472703 104.2249075
  68.7915446  51.8040445 103.0330161  64.7372973  37.6812748 120.4578582
  64.3439919  37.1278946 121.1326226  65.5539113  37.9923326 120.8485100
  61.7035031  49.1196606 104.3692152  62.2159551  49.9139856 104.5197717
  62.3557744  48.4222896 104.3025753  63.5129916  52.2362362 106.4514905
  63.6896544  53.1580327 106.2635889  64.3086749  51.9220781 106.8809285
  67.6540934  39.0970627 118.0498839  68.3950648  39.6977780 117.9703301
  67.8858857  38.3548264 117.4916881  62.7982272  44.2826994 116.3277068
  62.6835787  43.3812251 116.6284167  61.9426790  44.5290691 115.9761885
  69.8774110  52.2244734 117.9264569  69.4337964  51.4381113 117.6085473
  70.5391323  52.4123885 117.2608460  64.6361231  53.7540536 112.4525247
  65.1868656  53.6257599 111.6802241  63.7972707  54.0535425 112.1020140
  71.9755348  52.5047534 115.9545970  71.9573823  53.3256415 115.4626239
  72.8975268  52.3801609 116.1796111  68.4328402  50.0191664 116.7969479
  68.9656739  49.2579952 116.5668787  67.9042483  49.7265315 117.5393633
  71.5998097  35.1251730 112.3263120  71.2562366  36.0153371 112.2502231
  71.9677060  34.9353387 111.4632705  59.6683948  47.4485260 105.1451722
  60.5059170  47.8582268 104.9285430  59.8462215  46.5084702 105.1151916
  71.5648380  45.1160341 100.8335555  71.0495003  45.8864945 101.0723943
  71.2925688  44.4425477 101.4568617  69.1495491  39.9610041 105.8920794
  68.2937087  39.5716892 105.7126433  69.5622443  40.0402002 105.0320579
  70.6794637  37.4956385 110.2912354  70.1759433  37.4586520 109.4780159
  70.9725244  38.4049127 110.3509010  66.9237523  37.5795114 109.2978535
  67.7890520  37.3837923 108.9384425  66.9915032  37.3505466 110.2247892
  76.5382654  47.8692695 102.7688729  75.7612097  47.5303855 102.3243891
  77.2174135  47.8745319 102.0943694  71.3534683  42.9887433 102.6595337
  71.0484819  43.3033582 103.5105480  72.3065125  43.0668853 102.7022670
  69.7981115  49.1477656 104.3088291  69.2702476  48.4130416 103.9961528
  69.2968618  49.9252332 104.0628259  74.7773961  47.3426677 109.4255337
  74.1197635  48.0325938 109.5135466  75.5814360  47.7323109 109.7689323
  64.5299842  39.8097322 106.6694902  65.1043594  39.5872504 105.9368095
  65.1170825  39.8786017 107.4223503  73.5879420  45.6971049 107.4759279
  74.1011301  46.3301041 107.9780988  74.2380644  45.0972245 107.1102639
  64.8569430  41.8401783 100.6890787  64.0206742  42.1776470 101.0100062
  64.7174199  41.7050763  99.7517924  66.8322510  36.6838571 105.3969972
  66.1786922  36.3687588 104.7726586  66.7902984  36.0614312 106.1229794
  70.8501794  55.6755374 100.2319950  70.1763493  55.9787070 100.8404908
  71.2367616  56.4784454  99.8825407  70.0660251  43.1720505 109.7217619
  69.1482812  43.3935452 109.5639307  70.4820394  43.2466815 108.8629327
  70.8495298  44.5711921 104.8520299  71.5967117  45.0833318 104.5427421
  71.1186888  44.2495973 105.7124693  69.1221948  47.0670461 101.8347254
  68.2133168  46.7829494 101.9319723  69.1517032  47.4869540 100.9750561
  74.3541216  50.6777051 105.6038421  73.9003543  49.8367961 105.6603612
  73.7235183  51.3138449 105.9413201  73.2974135  41.6069037 106.8339089
  72.5596892  41.0946423 107.1649331  73.5500909  41.1669418 106.0222366
  72.7974155  52.5153547 106.5388239  73.0897129  53.0758605 105.8200605
  73.3072776  52.8082108 107.2941399  73.3985763  34.3845289 107.4280858
  73.7044640  33.5242652 107.1406773  74.1238368  34.9762909 107.2279852
  59.6910119  44.7875975 105.8162456  59.4934519  44.1945336 105.0913523
  59.1356783  44.4828186 106.5338395  67.6706842  44.6799082 107.9357049
  67.7255452  43.7272918 107.8599526  66.8598045  44.8358521 108.4198348
  68.8198036  48.6079205  99.1735332  68.3817466  47.8915064  98.7140970
  69.5608477  48.8355320  98.6120424  65.6099202  43.2976142 105.6947428
  64.7967068  43.5970312 106.1012620  66.1058197  42.9031830 106.4121910
  67.7607780  53.2933899 107.6281693  67.7183959  53.5194745 106.6990225
  68.6770479  53.0597273 107.7767494  71.2073414  43.7617966 114.5262322
  71.5622802  43.9889439 115.3856788  71.8545545  44.0936343 113.9039577
  76.9371151  46.8836402 105.2311651  76.7989050  47.0737998 104.3032840
  76.5807370  47.6455785 105.6879702  65.1013277  40.8694497 111.3108663
  65.7412656  40.7283256 110.6131626  64.2690808  40.5829011 110.9347265
  76.9640531  48.9512929 110.2422922  77.3977037  48.8588218 111.0905976
  77.6772111  48.9270429 109.6042938  65.8773581  50.1696928 107.4243655
  66.6714180  49.6747248 107.2226230  65.1665273  49.6414791 107.0611361
  70.6968426  52.5515023 111.7756023  70.7505448  53.1205959 112.5433739
  69.8283207  52.7216908 111.4110060  62.1856345  44.3140009 103.5003408
  61.2553933  44.2524465 103.7173370  62.2813817  43.7915962 102.7040049
  62.1041894  40.8394822 106.0881650  62.3648711  41.7540155 105.9790810
  62.9259066  40.3719265 106.2378263  63.5766819  42.2532579 113.2580474
  64.2489872  42.0449941 112.6093123  62.7496605  42.0554665 112.8185707
  77.8256080  48.9936630 112.7755808  78.0191970  49.8982440 113.0215083
  77.7256698  48.5344049 113.6094393  69.4792391  38.8794520 115.2746135
  68.8320306  39.5784470 115.1810612  70.2493406  39.3130664 115.6422383
  72.8871189  49.1443372 118.3496688  72.7356695  48.9153924 117.4326772
  72.8775868  50.1013974 118.3628033  69.6556525  46.7175285 113.3342955
  70.5848585  46.8686445 113.1611922  69.2347555  46.8059306 112.4791601
  68.4544857  50.7425950 111.1041492  68.3155943  50.3744734 111.9767431
  67.6659453  51.2573589 110.9325450  69.0493009  55.8435046 102.4467029
  69.2244765  55.3723089 103.2612652  68.3625797  56.4700812 102.6748290
  70.0050072  50.1207552 108.4930330  69.6699905  50.0808322 109.3887980
  69.5054018  49.4552268 108.0200740  63.9794316  45.5275182 114.0182911
  63.8414114  44.7955421 114.6194450  64.8899240  45.4384082 113.7367099
  66.6076617  45.2395142 113.5066591  67.3176235  44.5988334 113.4653209
  66.5645925  45.4908036 114.4292772  74.5963396  52.1762495 116.4273170
  74.5375942  51.4921715 115.7603753  74.9982914  52.9181485 115.9753796
  65.3205551  42.2260359 115.3262231  64.7842908  41.7751098 115.9783827
  64.7322259  42.3606268 114.5832695  63.6154094  58.9924409 109.2206889
  63.8550693  59.6242933 109.8985908  62.7723291  58.6412449 109.5072248
  64.7307810  41.6849011  97.8888694  63.8537276  41.5637812  97.5250941
  65.2065563  40.8935089  97.6367583  74.5980803  50.1402079 114.6587150
  73.7107582  49.8028001 114.7813549  75.1679354  49.4085110 114.8955915
  56.2509950  46.4726171 107.9830201  56.9380990  46.1587901 107.3951217
  56.0958079  47.3767535 107.7097453  61.0544672  41.3616367 112.4115225
  60.9702861  40.7542037 111.6765635  60.2327378  41.8525385 112.4124721
  68.1281956  54.8003531 111.6248393  68.0552128  55.6058503 112.1367698
  67.6859349  54.9995497 110.7996415  67.9171736  54.0375301 105.1351215
  67.1339258  54.5796981 105.2289439  68.6164481  54.5549281 105.5345456
  71.2268386  39.8469931 107.7785420  71.7237085  39.0939893 107.4586490
  70.4555367  39.8834247 107.2128629  79.0798143  45.5510296 109.4203712
  79.0688020  46.4335012 109.0497645  78.2115523  45.1981847 109.2258249
  70.5880640  54.6990365 113.7806552  71.3008612  55.3337830 113.7082453
  70.0970668  54.7954231 112.9646554  72.3098167  48.6041618 105.3523843
  71.3754445  48.7243080 105.1828548  72.4874835  47.7014085 105.0883853
  67.8103355  41.9887314 107.5057105  67.4401142  41.4358354 108.1938010
  68.3062447  41.3845447 106.9532105  75.6970718  44.4458937 105.8873878
  76.1631170  45.2786929 105.8134180  76.1478218  43.9803919 106.5919136
  65.6392553  52.4484809 114.6012123  66.3402013  53.0821292 114.7541517
  65.1687668  52.7899540 113.8407762  73.7646949  50.7902758 102.8860030
  74.0406793  50.6759353 103.7953904  72.8951448  50.3920243 102.8472203
  73.6687381  36.8139524 109.9264779  72.7550461  37.0443751 110.0946986
  74.0980482  36.8977968 110.7778811  73.4393839  45.0029416 112.4264673
  72.7865289  45.2505324 111.7717126  73.8174219  44.1893554 112.0927150
  70.4001013  55.0389109 106.5292843  70.5823408  54.2210765 106.9920596
  71.2233999  55.2556802 106.0917733  70.7343179  53.9657294 103.7907892
  71.2630945  53.4549749 103.1778054  70.9971398  53.6499825 104.6553425
  69.4881412  45.7449227 118.9130710  68.8122049  45.6443357 119.5833085
  70.3109046  45.5888441 119.3766707  61.2360271  51.9821164 111.5343225
  61.8213708  51.2364852 111.6671130  61.0385110  52.2925120 112.4179889
  64.0898927  55.0172411 106.5505668  63.4209302  55.5018539 106.0669708
  63.9511796  55.2641632 107.4649046  55.8277926  44.5526764 110.2547668
  55.8662026  44.0190355 111.0484787  55.3218219  44.0261969 109.6358646
  68.2304195  57.0516155 113.1488326  68.7822503  57.2147776 113.9137411
  68.5710389  57.6420592 112.4768351  63.2068688  39.3991304 113.7510211
  63.2710015  40.2606135 113.3387608  63.1435809  38.7865306 113.0182569
  62.6820961  41.4714437 117.3983245  63.3093000  41.0891514 118.0120769
  61.8248880  41.2528639 117.7638938  73.0815069  51.8777412 119.0036980
  73.6254973  52.4907370 118.5091935  72.5001914  52.4356991 119.5203993
  59.4586504  43.2790866 103.3301600  59.7539945  42.3701545 103.2768654
  58.5574539  43.2578606 103.0082602  71.3672582  54.9998130 110.1352008
  71.2423722  54.1987870 109.6262954  72.0251674  55.4944324 109.6465978
  62.9880751  41.3546863 109.3129148  62.2667336  41.9682830 109.1736622
  63.7774006  41.8904628 109.2345794  73.4307491  52.8007150 111.7631558
  72.4837826  52.6812501 111.6909885  73.7790264  51.9129648 111.8457820
  65.7907064  38.6901289 115.5869800  66.3141466  38.9363586 116.3496110
  65.5719397  39.5221324 115.1672938  61.1874345  40.9604964 103.4540925
  60.8587051  40.0802343 103.2716031  61.5413716  40.9052632 104.3417314
  70.4353924  52.5959866 107.9635911  70.2878887  51.6676574 108.1443481
  71.2607418  52.6179957 107.4792986  64.3016168  41.2477934 103.8216403
  64.6412241  41.7763855 103.0995011  64.7488289  41.5858340 104.5974969
  74.0388046  53.4188425 109.0500783  74.9634593  53.2131287 108.9125234
  73.8703349  53.1704826 109.9590125  66.9959609  39.6314984 113.2719471
  66.6556430  38.8322797 113.6740151  66.2898615  39.9316695 112.6996304
  67.6476081  36.7164297 111.7246794  68.4702150  36.2424775 111.6025684
  67.8914145  37.4954780 112.2245480  66.2884316  39.7452555 102.0209695
  67.0092678  40.1233808 101.5173412  65.6649620  40.4641432 102.1244673
  70.4315438  40.4497704 102.9568028  70.6479053  41.3322342 102.6556856
  69.9509506  40.0583918 102.2273670  65.1714660  43.4083417 109.5338772
  65.0259240  43.7223720 110.4263054  64.6939863  44.0268318 108.9809671
  67.0311043  40.3985965 109.5819662  67.0172611  39.5027059 109.2451960
  67.7483471  40.4056629 110.2157948  68.8837173  40.8323306 111.6272789
  68.6254951  41.7540376 111.6257120  68.3522214  40.4353740 112.3173253
  73.8283362  53.9374093 104.4062875  74.0020240  53.3720515 103.6536727
  74.3212253  54.7374988 104.2242365  59.6460322  45.9488762 112.4726434
  59.1013790  46.7248570 112.6046708  60.5239672  46.2959566 112.3145555
  66.4347939  39.2800346 104.8507232  66.5563850  38.3516992 105.0498120
  66.1449981  39.2939032 103.9385547  69.3039129  36.9655256 107.9873952
  69.3260826  37.0294589 107.0325931  69.7207188  36.1259765 108.1814458
  79.6822753  46.7010516 106.0253174  80.1253899  45.9517841 105.6272298
  78.8049264  46.6920652 105.6426906  74.8158535  53.2540857 101.5059773
  75.5109439  53.8747550 101.7247088  75.1581685  52.4036208 101.7812151
  60.4326344  45.0758658 115.3656590  59.6908080  45.2241293 115.9521221
  60.1119088  45.3366924 114.5023340  76.7149958  50.7040563 103.0347104
  77.2401282  51.0427835 102.3096424  76.6272310  49.7687578 102.8510238
  68.3770006  54.6174636 115.1636980  68.6857133  54.3723783 116.0359680
  69.1745488  54.8221275 114.6755851  68.3990618  56.7712546 107.3942357
  67.9595609  56.2788925 108.0875214  69.1498735  56.2285514 107.1534432
  60.8782957  52.9624087 107.3966985  61.7040977  52.6627859 107.0165629
  60.5277009  52.1931709 107.8456774  65.8464491  52.3150555 109.4664659
  65.2244500  51.6521260 109.1666886  66.5169358  52.3411687 108.7838306
  59.0791563  50.8810413 108.3555919  58.2423471  50.4532588 108.1739920
  59.0515208  51.0742857 109.2926710  65.9189018  40.7932343 119.0597165
  65.9677174  41.6694466 118.6774934  66.4611532  40.2509736 118.4868808
  76.4043864  51.3373466 118.3398302  75.6139408  51.3197605 117.8002801
  76.1677218  51.8761760 119.0947338  76.5241739  48.1865933 115.6531030
  76.5739744  48.0215940 116.5946553  76.4155662  47.3193192 115.2628911
  65.4077998  50.8654478 102.9423119  65.5566118  51.5489943 102.2889792
  66.2144441  50.8459568 103.4572575  73.8145501  44.1696861 116.9690337
  74.7155364  44.0303325 116.6774335  73.8893476  44.3351315 117.9088514
  68.1488307  41.5463715 115.8143523  67.2791616  41.8397281 115.5426112
  68.3847787  42.1304160 116.5350787  78.0259936  50.6062874 115.8973052
  77.7344744  50.9692855 116.7336513  77.4132067  49.8929882 115.7186384
  79.2255618  48.1715754 108.4175622  80.0602509  48.6105558 108.5813182
  79.3614747  47.6954407 107.5983868  76.2747124  45.7295489 114.3653110
  76.7501246  45.9223135 113.5571961  75.3512689  45.7854675 114.1196493
  63.1630631  46.8919656 103.9484188  62.9176672  45.9881986 104.1464398
  63.3326545  46.8936806 103.0063666  70.8527340  37.7643332 113.3308944
  71.3709284  38.5004359 113.0055432  70.4982473  38.0707326 114.1655703
  62.4326278  42.6248014 101.4470350  61.7395523  42.6992368 100.7910386
  62.1878030  41.8608357 101.9691866  71.1039935  34.1843615 108.8509840
  71.3841688  33.5166804 109.4770267  71.8890541  34.3772710 108.3384504
  74.9748793  42.6061249 112.5981415  75.9266216  42.7059347 112.6193639
  74.8052243  41.8139517 113.1079500  72.9963172  39.6916832 112.7840816
  72.4013105  39.9721845 112.0887305  72.7112869  40.1810733 113.5557557
  72.1270663  53.6439759 101.5443449  73.0601336  53.5785321 101.7476324
  72.0393876  54.4796026 101.0857982  74.7558680  52.9605629  98.5047396
  74.6772311  52.6265493  99.3983154  75.5768346  53.4527397  98.5038869
  77.4536871  45.8267369 111.7123715  77.4213191  44.8883369 111.8983399
  78.0637494  45.9051405 110.9789540  77.6031359  42.6178412 111.7581998
  77.0870408  41.8336869 111.5711927  78.4871308  42.2897129 111.9228518
  75.2642086  36.3619428 107.7177811  75.0666907  36.0534516 108.6021143
  75.8741792  37.0881066 107.8475741  83.2713421  46.8883375 110.8529752
  84.0016809  46.6268664 111.4137455  82.6620366  46.1512097 110.8931820
  81.3528718  45.0291238 111.4504203  80.6261881  44.8947203 110.8420695
  80.9376005  45.3368067 112.2560921  69.1758894  48.7481168 119.2151576
  70.0961904  48.9259767 119.4091623  69.1408477  47.8037213 119.0631275
  67.4763119  42.6213398  97.6905804  66.5694574  42.3246511  97.7668518
  67.7539100  42.3243216  96.8240091  58.3941059  43.9419761 108.1404851
  58.0743843  43.0885069 107.8479225  57.8474487  44.1568339 108.8962818
  62.1720967  46.6582202 111.8574357  62.3906976  47.5899310 111.8762391
  62.5846740  46.2990177 112.6429161  69.0925184  37.1650288 103.8450046
  68.2825913  36.8197373 104.2205292  69.7809601  36.8557831 104.4337657
  71.0215733  36.2428334 105.4674342  71.5746771  36.6623788 106.1264365
  71.2585819  35.3164083 105.5097298  67.0448832  42.2315408 121.2477106
  66.9445559  43.1809765 121.1789197  66.8270374  41.9033647 120.3753176
  66.2461903  39.4800333  97.8317784  67.1081067  39.8055231  98.0913601
  66.4312248  38.6931829  97.3190849  58.2629319  47.5622673 110.1097972
  57.5692791  47.1476626 109.5967927  59.0102310  47.6043209 109.5131391
  74.3994540  38.3528860 104.9753007  73.8193209  39.0113664 104.5931059
  74.1330473  37.5306204 104.5640424  72.8498106  37.7533917 107.1774327
  73.3497885  37.8650452 106.3688646  73.4933714  37.4494970 107.8175135
  66.9080102  45.6612547 120.0642168  66.4247184  46.4612907 120.2706057
  66.9941041  45.6720492 119.1109612  60.1766062  47.4940927 107.9863987
  60.1536750  47.5928614 107.0345870  60.4866698  48.3406077 108.3081153
  62.8353440  49.5517082 112.1010602  63.7896693  49.5201024 112.0340533
  62.6365963  49.0907705 112.9160828  63.4252822  48.1218198 114.6681399
  64.2445711  48.6162276 114.6916237  63.6989629  47.2050166 114.6398967
  73.1819418  40.5128950 104.0309355  72.2945273  40.7978601 103.8129550
  73.5973407  40.3522713 103.1836632  76.5333954  40.5375471 107.7463694
  77.3094344  41.0271923 108.0188311  75.8082088  40.9633525 108.2035564
  78.9706513  41.2503090 108.8037635  79.5651003  41.0098826 108.0930943
  79.0433096  40.5310221 109.4311171  61.1903668  55.0936701 109.1180799
  61.0558136  54.3337102 108.5518798  60.7735731  55.8177601 108.6509588
  72.3262631  50.2773625  98.1257375  73.0298481  50.4823627  98.7415030
  71.6025280  50.8450387  98.3906458  73.1560442  46.0283486 104.2459645
  73.0995643  46.4852037 103.4067277  73.7088784  45.2674170 104.0682488
  76.9665248  41.8173218 105.0709764  76.7102182  41.4169853 105.9017972
  76.3418116  42.5317012 104.9459904  81.2777585  44.5569291 107.5781056
  80.7177143  44.6262480 108.3512618  80.6721089  44.3810276 106.8580552
  64.3472794  55.9906018 109.3299242  64.2305178  56.9351451 109.2277932
  63.5265240  55.6879580 109.7185041  74.2349329  50.7156154 100.1755835
  75.0694933  50.2837352  99.9933310  74.0733672  50.5438168 101.1032729
  73.8895221  47.2188267 101.5412174  73.8344025  47.0532539 100.6000618
  73.2641276  47.9264300 101.6974364  58.6787736  42.4556332 115.3673596
  59.3246599  41.9455285 115.8560822  58.4704887  43.1925013 115.9417022
  71.2041128  49.5237179 120.8665737  72.0732288  49.6977831 120.5052372
  70.7247880  50.3431596 120.7441466  67.1991346  36.7196376 101.1197493
  67.1870016  37.6638216 101.2765763  68.0914768  36.5366522 100.8256954
  65.3727308  56.6434280 112.5455171  66.2754555  56.6757890 112.8621666
  65.1464678  55.7134731 112.5601506  67.1280910  55.3965267 109.2065249
  66.1776541  55.3967128 109.0929621  67.4313396  54.6498001 108.6901284
  71.0143466  33.3139153 105.3743429  70.2475862  32.7597639 105.5200112
  71.4254171  33.3861022 106.2357581  63.0185227  39.6023949 119.4648611
  63.8816688  39.2460753 119.6751935  62.4450638  39.2637843 120.1524015
  82.8633604  61.2325805 110.2711012  83.5012014  61.1132552 109.5674352
  82.7454447  62.1806649 110.3298964  79.6723310  61.1853233 110.2072536
  79.3341822  61.0694298 109.3193071  80.5413078  60.7844398 110.1873542
  75.5310126  63.0388709 106.1969427  74.9674991  62.9478646 105.4285715
  75.4162521  62.2188614 106.6771920  80.1543093  62.3388085 116.1658742
  80.1431734  61.9440883 115.2939245  80.3163733  61.6054157 116.7592513
  73.0774558  64.5339901 109.0353648  73.8695850  64.1930726 108.6199947
  73.3171208  64.6434876 109.9555801  81.1109685  66.7059677 101.5083892
  80.4597664  67.2913758 101.1217906  81.9054047  67.2365872 101.5678930
  75.0365312  63.7948814 101.9071026  75.8096188  63.2477801 101.7683902
  75.3890711  64.6593064 102.1185488  76.8750354  65.1225197 115.1137926
  76.5840220  66.0270827 114.9984592  77.5107339  65.1641724 115.8281995
  77.8006561  62.5002045 111.7039285  78.3970133  62.2758067 110.9896248
  77.8581533  61.7586791 112.3064733  77.3731589  59.9541480  99.5389476
  77.6257110  59.4323002  98.7772939  76.4356149  59.7907626  99.6416160
  82.4174872  58.9577259 107.3464220  83.2037962  58.5396682 106.9954637
  82.6813577  59.8623351 107.5145868  82.5884950  64.3950109 102.0452876
  81.9530783  64.4684736 102.7573781  82.2582356  64.9843708 101.3671956
  87.8183299  58.8952492 108.2497198  88.5508471  58.3251709 108.4835028
  87.0622655  58.5074092 108.6903704  77.0927878  61.8569586 101.7413851
  76.9764136  61.1814490 102.4094936  77.2030138  61.3701960 100.9246004
  79.4359419  61.3179733 105.4460541  79.0717626  60.7910354 106.1573462
  80.2926535  60.9278203 105.2727026  85.3408720  52.6074066 112.7091807
  85.0092045  53.4769477 112.4853022  84.7454333  52.2910350 113.3885837
  79.0764906  56.3469633 100.4421889  79.2439308  57.2149870 100.8092360
  78.8862075  56.5096915  99.5183178  81.8340239  64.8086612 112.1087719
  81.5340962  65.7111651 112.0003527  81.4891299  64.5418795 112.9608872
  75.2852721  61.2600409 108.1424424  74.3603217  61.1276623 108.3502116
  75.5337134  62.0394628 108.6394366  85.2337383  57.3269152 109.7885157
  84.3254260  57.2584561 109.4943918  85.1824979  57.8041097 110.6166982
  79.0554127  58.8027291 101.4268556  78.9353752  59.2484341 102.2654036
  78.3606715  59.1512608 100.8682094  72.6461532  60.9033682 108.9768213
  72.7753913  61.1568161 109.8907625  71.9658983  61.4961390 108.6572868
  76.8161019  71.5730932 105.0758687  76.7385049  72.5238758 105.1547168
  76.2122663  71.2276805 105.7333613  79.3078249  58.7458798 117.7320054
  78.5311583  59.3052718 117.7222919  79.9468812  59.2315581 118.2534924
  87.0999029  55.5285591 111.5663031  86.4573410  55.8218124 110.9202825
  86.5953958  55.4138511 112.3716227  84.7539193  59.2748764 102.2548890
  85.6657049  59.5076151 102.0796588  84.2448840  59.8585808 101.6923969
  77.5624621  61.5544251 117.2938021  78.3039306  62.0929295 117.0172845
  76.8561607  62.1810540 117.4509573  83.0379961  63.6973392 115.8910183
  83.4463317  63.2555802 115.1464815  82.3157222  63.1226019 116.1444375
  79.3911031  58.6345998 113.2643739  80.2372226  59.0585412 113.4078388
  79.3309669  57.9779623 113.9582303  83.3608775  64.2574582 109.6462471
  82.7317638  64.4220296 108.9438539  82.9734438  64.6716192 110.4173435
  87.2398007  65.1929020 107.0006835  86.5549046  65.5727922 106.4503868
  87.3241857  65.8024347 107.7338783  82.5410476  56.2950367 114.9224913
  82.2971408  57.0492427 114.3859189  82.8170407  56.6735714 115.7572160
  84.4948939  62.8388979 113.6002179  84.7065834  63.4820739 112.9236560
  84.4478687  62.0051296 113.1324109  82.0975168  55.4506800 110.5038751
  81.2359647  55.7488053 110.7955488  82.1237603  55.6677199 109.5719783
  78.9136737  63.9948990 106.9112557  79.3775083  64.2736693 106.1217179
  78.6493535  63.0932435 106.7285647  75.8060818  63.5420472 109.8492320
  76.3762175  63.9707740 109.2109804  76.3968930  63.2603057 110.5476505
  77.8505623  60.1172143 103.7202122  78.5529667  60.5693186 104.1876048
  77.5186252  59.4755962 104.3482015  76.2985985  58.7083899 118.0953331
  75.6684646  59.3900180 118.3288728  76.1922073  58.5966981 117.1506469
  71.5930957  58.3755695 109.0219255  70.8030011  58.6313224 108.5459366
  72.0842205  59.1904033 109.1271296  85.6094767  65.7160935 111.7724536
  86.4312211  65.3141122 111.4907218  85.6057170  65.6129169 112.7240652
  73.5445703  58.7400275 105.9802732  72.7476866  58.8518969 106.4986228
  73.3171295  59.0786927 105.1143622  79.3751370  65.2644978 113.9285247
  79.4395803  65.7265385 114.7643418  78.6662294  64.6342343 114.0567556
  69.8768660  58.6286186 111.4534246  70.1276699  59.5133196 111.7191822
  70.4128209  58.4490787 110.6809338  93.7000760  62.0599683 108.1209508
  92.9464468  61.4907081 107.9653512  93.8348301  62.0262348 109.0680142
  79.0899388  66.9313085 103.7964227  78.9545063  67.7764621 104.2249075
  79.6309201  67.1332363 103.0330161  75.5766728  53.0104665 120.4578582
  75.1833673  52.4570864 121.1326226  76.3932868  53.3215244 120.8485100
  72.5428785  64.4488523 104.3692152  73.0553306  65.2431774 104.5197717
  73.1951498  63.7514814 104.3025753  74.3523670  67.5654280 106.4514905
  74.5290298  68.4872244 106.2635889  75.1480504  67.2512699 106.8809285
  78.4934689  54.4262544 118.0498839  79.2344402  55.0269697 117.9703301
  78.7252611  53.6840182 117.4916881  73.6376027  59.6118912 116.3277068
  73.5229542  58.7104169 116.6284167  72.7820544  59.8582608 115.9761885
  80.7167864  67.5536652 117.9264569  80.2731719  66.7673030 117.6085473
  81.3785078  67.7415802 117.2608460  75.4754986  69.0832453 112.4525247
  76.0262411  68.9549517 111.6802241  74.6366461  69.3827343 112.1020140
  82.8149102  67.8339452 115.9545970  82.7967578  68.6548333 115.4626239
  83.7369023  67.7093527 116.1796111  79.2722157  65.3483581 116.7969479
  79.8050493  64.5871869 116.5668787  78.7436238  65.0557233 117.5393633
  82.4391852  50.4543647 112.3263120  82.0956121  51.3445289 112.2502231
  82.8070814  50.2645305 111.4632705  70.5077702  62.7777178 105.1451722
  71.3452924  63.1874186 104.9285430  70.6855970  61.8376620 105.1151916
  82.4042134  60.4452258 100.8335555  81.8888758  61.2156863 101.0723943
  82.1319443  59.7717395 101.4568617  79.9889245  55.2901959 105.8920794
  79.1330842  54.9008810 105.7126433  80.4016197  55.3693920 105.0320579
  81.5188392  52.8248302 110.2912354  81.0153188  52.7878438 109.4780159
  81.8118999  53.7341045 110.3509010  77.7631278  52.9087032 109.2978535
  78.6284275  52.7129841 108.9384425  77.8308787  52.6797384 110.2247892
  87.3776408  63.1984613 102.7688729  86.6005851  62.8595773 102.3243891
  88.0567889  63.2037236 102.0943694  82.1928437  58.3179350 102.6595337
  81.8878573  58.6325500 103.5105480  83.1458880  58.3960770 102.7022670
  80.6374869  64.4769574 104.3088291  80.1096231  63.7422333 103.9961528
  80.1362372  65.2544250 104.0628259  85.6167715  62.6718594 109.4255337
  84.9591390  63.3617856 109.5135466  86.4208115  63.0615026 109.7689323
  75.3693597  55.1389240 106.6694902  75.9437349  54.9164422 105.9368095
  75.9564579  55.2077935 107.4223503  84.4273174  61.0262967 107.4759279
  84.9405056  61.6592959 107.9780988  85.0774398  60.4264162 107.1102639
  75.6963184  57.1693701 100.6890787  74.8600496  57.5068388 101.0100062
  75.5567954  57.0342681  99.7517924  77.6716265  52.0130489 105.3969972
  77.0180677  51.6979506 104.7726586  77.6296739  51.3906229 106.1229794
  78.7827469  62.2949784  97.3123264  77.8754531  62.0639038  97.5114413
  79.2798501  61.4987403  97.4997245  81.6895548  71.0047291 100.2319950
  81.0157247  71.3078988 100.8404908  82.0761370  71.8076372  99.8825407
  80.9054005  58.5012423 109.7217619  79.9876566  58.7227370 109.5639307
  81.3214149  58.5758733 108.8629327  81.6889053  59.9003838 104.8520299
  82.4360872  60.4125235 104.5427421  81.9580642  59.5787891 105.7124693
  79.9615703  62.3962379 101.8347254  79.0526922  62.1121412 101.9319723
  79.9910787  62.8161457 100.9750561  85.1934970  66.0068968 105.6038421
  84.7397297  65.1659878 105.6603612  84.5628937  66.6430367 105.9413201
  84.1367890  56.9360954 106.8339089  83.3990647  56.4238341 107.1649331
  84.3894663  56.4961336 106.0222366  83.6367910  67.8445465 106.5388239
  83.9290884  68.4050522 105.8200605  84.1466530  68.1374026 107.2941399
  84.2379517  49.7137206 107.4280858  84.5438394  48.8534570 107.1406773
  84.9632122  50.3054827 107.2279852  70.5303873  60.1167893 105.8162456
  70.3328273  59.5237254 105.0913523  69.9750537  59.8120103 106.5338395
  78.5100597  60.0091000 107.9357049  78.5649207  59.0564836 107.8599526
  77.6991799  60.1650439 108.4198348  79.6591791  63.9371123  99.1735332
  79.2211221  63.2206982  98.7140970  80.4002232  64.1647237  98.6120424
  76.4492957  58.6268059 105.6947428  75.6360822  58.9262230 106.1012620
  76.9451951  58.2323748 106.4121910  78.6001535  68.6225816 107.6281693
  78.5577714  68.8486663 106.6990225  79.5164234  68.3889191 107.7767494
  82.0467169  59.0909884 114.5262322  82.4016556  59.3181357 115.3856788
  82.6939300  59.4228261 113.9039577  87.7764906  62.2128320 105.2311651
  87.6382804  62.4029916 104.3032840  87.4201124  62.9747702 105.6879702
  75.9407032  56.1986415 111.3108663  76.5806411  56.0575174 110.6131626
  75.1084562  55.9120928 110.9347265  87.8034285  64.2804847 110.2422922
  88.2370792  64.1880136 111.0905976  88.5165866  64.2562347 109.6042938
  76.7167336  65.4988845 107.4243655  77.5107934  65.0039165 107.2226230
  76.0059028  64.9706708 107.0611361  81.5362180  67.8806941 111.7756023
  81.5899202  68.4497877 112.5433739  80.6676961  68.0508826 111.4110060
  73.0250099  59.6431927 103.5003408  72.0947687  59.5816382 103.7173370
  73.1207571  59.1207880 102.7040049  72.9435648  56.1686740 106.0881650
  73.2042465  57.0832073 105.9790810  73.7652820  55.7011182 106.2378263
  74.4160573  57.5824497 113.2580474  75.0883627  57.3741859 112.6093123
  73.5890360  57.3846583 112.8185707  88.6649835  64.3228547 112.7755808
  88.8585725  65.2274358 113.0215083  88.5650453  63.8635966 113.6094393
  80.3186145  54.2086438 115.2746135  79.6714060  54.9076388 115.1810612
  81.0887161  54.6422582 115.6422383  83.7264943  64.4735290 118.3496688
  83.5750450  64.2445842 117.4326772  83.7169623  65.4305891 118.3628033
  80.4950280  62.0467203 113.3342955  81.4242340  62.1978362 113.1611922
  80.0741310  62.1351224 112.4791601  79.2938612  66.0717867 111.1041492
  79.1549697  65.7036652 111.9767431  78.5053208  66.5865507 110.9325450
  79.8886764  71.1726964 102.4467029  80.0638519  70.7015007 103.2612652
  79.2019552  71.7992730 102.6748290  80.8443827  65.4499470 108.4930330
  80.5093659  65.4100240 109.3887980  80.3447772  64.7844186 108.0200740
  74.8188071  60.8567100 114.0182911  74.6807869  60.1247339 114.6194450
  75.7292994  60.7676000 113.7367099  83.7803018  62.7955504  98.7667390
  83.1632189  62.0702332  98.6700443  83.3119507  63.5564865  98.4234464
  77.4470371  60.5687059 113.5066591  78.1569990  59.9280251 113.4653209
  77.4039679  60.8199954 114.4292772  85.4357150  67.5054413 116.4273170
  85.3769696  66.8213633 115.7603753  85.8376668  68.2473403 115.9753796
  76.1599305  57.5552277 115.3262231  75.6236662  57.1043016 115.9783827
  75.5716014  57.6898186 114.5832695  74.4547849  74.3216326 109.2206889
  74.6944447  74.9534851 109.8985908  73.6117045  73.9704366 109.5072248
  75.5701564  57.0140929  97.8888694  74.6931031  56.8929729  97.5250941
  76.0459317  56.2227007  97.6367583  85.4374557  65.4693997 114.6587150
  84.5501336  65.1319918 114.7813549  86.0073108  64.7377028 114.8955915
  67.0903704  61.8018088 107.9830201  67.7774744  61.4879818 107.3951217
  66.9351833  62.7059453 107.7097453  71.8938427  56.6908285 112.4115225
  71.8096615  56.0833954 111.6765635  71.0721133  57.1817303 112.4124721
  78.9675711  70.1295449 111.6248393  78.8945882  70.9350420 112.1367698
  78.5253104  70.3287415 110.7996415  78.7565490  69.3667219 105.1351215
  77.9733012  69.9088899 105.2289439  79.4558235  69.8841199 105.5345456
  82.0662140  55.1761848 107.7785420  82.5630840  54.4231811 107.4586490
  81.2949122  55.2126165 107.2128629  89.9191898  60.8802214 109.4203712
  89.9081774  61.7626929 109.0497645  89.0509277  60.5273765 109.2258249
  81.4274394  70.0282283 113.7806552  82.1402366  70.6629748 113.7082453
  80.9364423  70.1246149 112.9646554  83.1491921  63.9333536 105.3523843
  82.2148200  64.0534998 105.1828548  83.3268590  63.0306002 105.0883853
  78.6497109  57.3179231 107.5057105  78.2794897  56.7650272 108.1938010
  79.1456202  56.7137365 106.9532105  86.5364472  59.7750855 105.8873878
  87.0024925  60.6078846 105.8134180  86.9871973  59.3095836 106.5919136
  76.4786308  67.7776726 114.6012123  77.1795767  68.4113209 114.7541517
  76.0081423  68.1191458 113.8407762  84.6040704  66.1194676 102.8860030
  84.8800547  66.0051271 103.7953904  83.7345202  65.7212161 102.8472203
  84.5081135  52.1431442 109.9264779  83.5944215  52.3735669 110.0946986
  84.9374237  52.2269886 110.7778811  84.2787594  60.3321334 112.4264673
  83.6259044  60.5797241 111.7717126  84.6567974  59.5185472 112.0927150
  81.2394768  70.3681027 106.5292843  81.4217162  69.5502683 106.9920596
  82.0627754  70.5848719 106.0917733  81.5736933  69.2949212 103.7907892
  82.1024700  68.7841667 103.1778054  81.8365153  68.9791742 104.6553425
  80.3275167  61.0741145 118.9130710  79.6515804  60.9735274 119.5833085
  81.1502801  60.9180359 119.3766707  72.0754026  67.3113081 111.5343225
  72.6607463  66.5656769 111.6671130  71.8778864  67.6217038 112.4179889
  74.9292681  70.3464329 106.5505668  74.2603056  70.8310456 106.0669708
  74.7905551  70.5933549 107.4649046  66.6671681  59.8818682 110.2547668
  66.7055780  59.3482272 111.0484787  66.1611973  59.3553887 109.6358646
  79.0697950  72.3808072 113.1488326  79.6216258  72.5439694 113.9137411
  79.4104143  72.9712510 112.4768351  74.0462443  54.7283222 113.7510211
  74.1103769  55.5898053 113.3387608  73.9829563  54.1157224 113.0182569
  73.5214715  56.8006355 117.3983245  74.1486754  56.4183432 118.0120769
  72.6642634  56.5820557 117.7638938  83.9208824  67.2069330 119.0036980
  84.4648728  67.8199288 118.5091935  83.3395669  67.7648908 119.5203993
  70.2980258  58.6082784 103.3301600  70.5933699  57.6993462 103.2768654
  69.3968294  58.5870523 103.0082602  82.2066337  70.3290048 110.1352008
  82.0817476  69.5279788 109.6262954  82.8645428  70.8236241 109.6465978
  73.8274505  56.6838780 109.3129148  73.1061091  57.2974748 109.1736622
  74.6167761  57.2196545 109.2345794  84.2701245  68.1299068 111.7631558
  83.3231581  68.0104419 111.6909885  84.6184018  67.2421566 111.8457820
  76.6300819  54.0193207 115.5869800  77.1535220  54.2655503 116.3496110
  76.4113152  54.8513242 115.1672938  72.0268100  56.2896881 103.4540925
  71.6980806  55.4094260 103.2716031  72.3807470  56.2344550 104.3417314
  81.2747679  67.9251784 107.9635911  81.1272641  66.9968492 108.1443481
  82.1001172  67.9471875 107.4792986  75.1409923  56.5769851 103.8216403
  75.4805995  57.1055772 103.0995011  75.5882043  56.9150257 104.5974969
  84.8781800  68.7480343 109.0500783  85.8028348  68.5423204 108.9125234
  84.7097104  68.4996744 109.9590125  77.8353364  54.9606902 113.2719471
  77.4950184  54.1614715 113.6740151  77.1292370  55.2608613 112.6996304
  78.4869835  52.0456214 111.7246794  79.3095905  51.5716693 111.6025684
  78.7307899  52.8246698 112.2245480  77.1278070  55.0744473 102.0209695
  77.8486432  55.4525726 101.5173412  76.5043374  55.7933350 102.1244673
  81.2709193  55.7789622 102.9568028  81.4872807  56.6614260 102.6556856
  80.7903260  55.3875835 102.2273670  76.0108414  58.7375335 109.5338772
  75.8652995  59.0515638 110.4263054  75.5333618  59.3560235 108.9809671
  77.8704797  55.7277883 109.5819662  77.8566366  54.8318976 109.2451960
  78.5877225  55.7348547 110.2157948  79.7230928  56.1615223 111.6272789
  79.4648706  57.0832294 111.6257120  79.1915968  55.7645658 112.3173253
  84.6677117  69.2666010 104.4062875  84.8413994  68.7012433 103.6536727
  85.1606008  70.0666905 104.2242365  70.4854076  61.2780679 112.4726434
  69.9407544  62.0540487 112.6046708  71.3633426  61.6251484 112.3145555
  77.2741693  54.6092263 104.8507232  77.3957604  53.6808909 105.0498120
  76.9843735  54.6230949 103.9385547  80.1432883  52.2947174 107.9873952
  80.1654580  52.3586507 107.0325931  80.5600942  51.4551682 108.1814458
  90.5216508  62.0302433 106.0253174  90.9647654  61.2809758 105.6272298
  89.6443018  62.0212570 105.6426906  85.6552289  68.5832775 101.5059773
  86.3503194  69.2039467 101.7247088  85.9975439  67.7328126 101.7812151
  71.2720098  60.4050576 115.3656590  70.5301834  60.5533211 115.9521221
  70.9512843  60.6658841 114.5023340  87.5543712  66.0332480 103.0347104
  88.0795036  66.3719753 102.3096424  87.4666065  65.0979496 102.8510238
  79.2163761  69.9466554 115.1636980  79.5250887  69.7015701 116.0359680
  80.0139243  70.1513192 114.6755851  79.2384373  72.1004464 107.3942357
  78.7989363  71.6080842 108.0875214  79.9892490  71.5577431 107.1534432
  71.7176712  68.2916004 107.3966985  72.5434732  67.9919776 107.0165629
  71.3670764  67.5223627 107.8456774  76.6858245  67.6442473 109.4664659
  76.0638254  66.9813178 109.1666886  77.3563112  67.6703605 108.7838306
  69.9185317  66.2102331 108.3555919  69.0817225  65.7824505 108.1739920
  69.8908962  66.4034774 109.2926710  76.7582773  56.1224261 119.0597165
  76.8070928  56.9986383 118.6774934  77.3005287  55.5801654 118.4868808
  87.2437618  66.6665384 118.3398302  86.4533162  66.6489523 117.8002801
  87.0070973  67.2053678 119.0947338  87.3635493  63.5157850 115.6531030
  87.4133498  63.3507858 116.5946553  87.2549417  62.6485109 115.2628911
  76.2471752  66.1946396 102.9423119  76.3959872  66.8781860 102.2889792
  77.0538195  66.1751486 103.4572575  84.6539256  59.4988778 116.9690337
  85.5549118  59.3595243 116.6774335  84.7287230  59.6643233 117.9088514
  78.9882061  56.8755633 115.8143523  78.1185370  57.1689199 115.5426112
  79.2241541  57.4596078 116.5350787  88.8653690  65.9354792 115.8973052
  88.5738498  66.2984772 116.7336513  88.2525821  65.2221800 115.7186384
  90.0649372  63.5007672 108.4175622  90.8996264  63.9397476 108.5813182
  90.2008501  63.0246325 107.5983868  87.1140878  61.0587406 114.3653110
  87.5895000  61.2515053 113.5571961  86.1906444  61.1146592 114.1196493
  74.0024385  62.2211574 103.9484188  73.7570427  61.3173904 104.1464398
  74.1720300  62.2228724 103.0063666  81.6921095  53.0935250 113.3308944
  82.2103039  53.8296277 113.0055432  81.3376228  53.3999243 114.1655703
  73.2720033  57.9539931 101.4470350  72.5789277  58.0284286 100.7910386
  73.0271784  57.1900275 101.9691866  81.9433689  49.5135533 108.8509840
  82.2235443  48.8458722 109.4770267  82.7284296  49.7064628 108.3384504
  79.7467158  68.6894526 100.4134867  79.1741125  69.3084714  99.9605338
  80.3199951  69.2393888 100.9474789  85.8142547  57.9353167 112.5981415
  86.7659970  58.0351264 112.6193639  85.6445998  57.1431435 113.1079500
  83.8356927  55.0208750 112.7840816  83.2406859  55.3013762 112.0887305
  83.5506624  55.5102651 113.5557557  82.9664417  68.9731677 101.5443449
  83.8995090  68.9077238 101.7476324  82.8787630  69.8087943 101.0857982
  85.5952434  68.2897547  98.5047396  85.5166066  67.9557411  99.3983154
  86.4162101  68.7819315  98.5038869  88.2930625  61.1559286 111.7123715
  88.2606945  60.2175287 111.8983399  88.9031249  61.2343323 110.9789540
  80.1313956  60.0255339  97.7550919  81.0773061  59.8961547  97.8239337
  79.7528201  59.2870001  98.2320347  88.4425114  57.9470330 111.7581998
  87.9264162  57.1628786 111.5711927  89.3265062  57.6189046 111.9228518
  86.1035841  51.6911345 107.7177811  85.9060662  51.3826433 108.6021143
  86.7135546  52.4172984 107.8475741  94.1107175  62.2175293 110.8529752
  94.8410564  61.9560581 111.4137455  93.5014121  61.4804015 110.8931820
  92.1922472  60.3583156 111.4504203  91.4655636  60.2239121 110.8420695
  91.7769759  60.6659984 112.2560921  80.0152649  64.0773085 119.2151576
  80.9355658  64.2551684 119.4091623  79.9802232  63.1329131 119.0631275
  78.3156873  57.9505316  97.6905804  77.4088329  57.6538428  97.7668518
  78.5932854  57.6535134  96.8240091  69.2334814  59.2711679 108.1404851
  68.9137598  58.4176987 107.8479225  68.6868242  59.4860257 108.8962818
  73.0114721  61.9874120 111.8574357  73.2300731  62.9191228 111.8762391
  73.4240495  61.6282094 112.6429161  79.9318939  52.4942205 103.8450046
  79.1219667  52.1489290 104.2205292  80.6203356  52.1849749 104.4337657
  81.8609487  51.5720252 105.4674342  82.4140526  51.9915706 106.1264365
  82.0979574  50.6456000 105.5097298  77.8842586  57.5607326 121.2477106
  77.7839313  58.5101683 121.1789197  77.6664129  57.2325565 120.3753176
  77.0855658  54.8092251  97.8317784  77.9474822  55.1347149  98.0913601
  77.2706002  54.0223747  97.3190849  69.1023074  62.8914590 110.1097972
  68.4086545  62.4768543 109.5967927  69.8496065  62.9335127 109.5131391
  85.2388294  53.6820777 104.9753007  84.6586963  54.3405581 104.5931059
  84.9724227  52.8598122 104.5640424  83.6891861  53.0825835 107.1774327
  84.1891639  53.1942369 106.3688646  84.3327469  52.7786888 107.8175135
  77.7473857  60.9904465 120.0642168  77.2640938  61.7904825 120.2706057
  77.8334796  61.0012409 119.1109612  71.0159816  62.8232844 107.9863987
  70.9930504  62.9220532 107.0345870  71.3260453  63.6697995 108.3081153
  73.6747194  64.8808999 112.1010602  74.6290448  64.8492942 112.0340533
  73.4759718  64.4199623 112.9160828  74.2646576  63.4510115 114.6681399
  75.0839465  63.9454194 114.6916237  74.5383384  62.5342083 114.6398967
  84.0213172  55.8420868 104.0309355  83.1339027  56.1270518 103.8129550
  84.4367161  55.6814631 103.1836632  87.3727708  55.8667389 107.7463694
  88.1488099  56.3563841 108.0188311  86.6475843  56.2925443 108.2035564
  89.8100267  56.5795008 108.8037635  90.4044758  56.3390744 108.0930943
  89.8826851  55.8602138 109.4311171  72.0297423  70.4228619 109.1180799
  71.8951891  69.6629020 108.5518798  71.6129485  71.1469519 108.6509588
  83.1656386  65.6065542  98.1257375  83.8692236  65.8115545  98.7415030
  82.4419035  66.1742304  98.3906458  83.9954196  61.3575404 104.2459645
  83.9389397  61.8143955 103.4067277  84.5482539  60.5966088 104.0682488
  87.8059002  57.1465135 105.0709764  87.5495936  56.7461771 105.9017972
  87.1811870  57.8608929 104.9459904  92.1171340  59.8861209 107.5781056
  91.5570898  59.9554398 108.3512618  91.5114843  59.7102193 106.8580552
  75.1866549  71.3197936 109.3299242  75.0698933  72.2643368 109.2277932
  74.3658995  71.0171497 109.7185041  85.0743083  66.0448072 100.1755835
  85.9088687  65.6129270  99.9933310  84.9127426  65.8730085 101.1032729
  84.7288975  62.5480185 101.5412174  84.6737779  62.3824456 100.6000618
  84.1035031  63.2556218 101.6974364  69.5181490  57.7848249 115.3673596
  70.1640354  57.2747203 115.8560822  69.3098641  58.5216931 115.9417022
  82.0434883  64.8529097 120.8665737  82.9126042  65.0269749 120.5052372
  81.5641634  65.6723513 120.7441466  78.0385101  52.0488294 101.1197493
  78.0263771  52.9930134 101.2765763  78.9308523  51.8658439 100.8256954
  76.2121063  71.9726198 112.5455171  77.1148309  72.0049808 112.8621666
  75.9858433  71.0426649 112.5601506  77.9674665  70.7257184 109.2065249
  77.0170296  70.7259046 109.0929621  78.2707151  69.9789919 108.6901284
  81.8537220  48.6431070 105.3743429  81.0869616  48.0889557 105.5200112
  82.2647925  48.7152939 106.2357581  73.8578981  54.9315866 119.4648611
  74.7210443  54.5752671 119.6751935  73.2844392  54.5929761 120.1524015
  93.7027358  76.5617723 110.2711012  94.3405768  76.4424470 109.5674352
  93.5848201  77.5098567 110.3298964  90.5117065  76.5145151 110.2072536
  90.1735576  76.3986215 109.3193071  91.3806833  76.1136316 110.1873542
  86.3703880  78.3680627 106.1969427  85.8068745  78.2770564 105.4285715
  86.2556275  77.5480532 106.6771920  90.9936848  77.6680002 116.1658742
  90.9825488  77.2732801 115.2939245  91.1557487  76.9346075 116.7592513
  87.7144109  80.4517114 115.1137926  87.4233975  81.3562745 114.9984592
  88.3501093  80.4933642 115.8281995  88.6400316  77.8293963 111.7039285
  89.2363888  77.6049985 110.9896248  88.6975287  77.0878708 112.3064733
  88.2125344  75.2833398  99.5389476  88.4650865  74.7614919  98.7772939
  87.2749903  75.1199544  99.6416160  93.2568627  74.2869176 107.3464220
  94.0431716  73.8688600 106.9954637  93.5207331  75.1915269 107.5145868
  98.6577054  74.2244410 108.2497198  99.3902226  73.6543626 108.4835028
  97.9016410  73.8366010 108.6903704  90.2753174  76.6471651 105.4460541
  89.9111381  76.1202272 106.1573462  91.1320290  76.2570120 105.2727026
  96.1802474  67.9365984 112.7091807  95.8485799  68.8061395 112.4853022
  95.5848088  67.6202268 113.3885837  89.9158661  71.6761551 100.4421889
  90.0833063  72.5441787 100.8092360  89.7255830  71.8388833  99.5183178
  92.6733994  80.1378530 112.1087719  92.3734717  81.0403569 112.0003527
  92.3285053  79.8710713 112.9608872  86.1246475  76.5892327 108.1424424
  85.1996972  76.4568541 108.3502116  86.3730888  77.3686546 108.6394366
  96.0731138  72.6561070 109.7885157  95.1648015  72.5876478 109.4943918
  96.0218733  73.1333015 110.6166982  89.8947881  74.1319208 101.4268556
  89.7747507  74.5776259 102.2654036  89.2000470  74.4804526 100.8682094
  83.4855286  76.2325600 108.9768213  83.6147667  76.4860079 109.8907625
  82.8052738  76.8253308 108.6572868  90.1472003  74.0750716 117.7320054
  89.3705337  74.6344636 117.7222919  90.7862566  74.5607499 118.2534924
  97.9392784  70.8577508 111.5663031  97.2967164  71.1510042 110.9202825
  97.4347713  70.7430429 112.3716227  95.5932948  74.6040682 102.2548890
  96.5050804  74.8368068 102.0796588  95.0842595  75.1877726 101.6923969
  88.4018376  76.8836169 117.2938021  89.1433060  77.4221213 117.0172845
  87.6955361  77.5102458 117.4509573  93.8773715  79.0265309 115.8910183
  94.2857071  78.5847720 115.1464815  93.1550977  78.4517937 116.1444375
  90.2304785  73.9637916 113.2643739  91.0765981  74.3877330 113.4078388
  90.1703423  73.3071540 113.9582303  94.2002530  79.5866500 109.6462471
  93.5711392  79.7512214 108.9438539  93.8128192  80.0008110 110.4173435
  98.0791762  80.5220938 107.0006835  97.3942800  80.9019839 106.4503868
  98.1635611  81.1316264 107.7338783  93.3804231  71.6242284 114.9224913
  93.1365163  72.3784345 114.3859189  93.6564161  72.0027632 115.7572160
  95.3342693  78.1680897 113.6002179  95.5459589  78.8112657 112.9236560
  95.2872442  77.3343213 113.1324109  92.9368922  70.7798718 110.5038751
  92.0753401  71.0779971 110.7955488  92.9631357  70.9969116 109.5719783
  86.6454573  78.8712390 109.8492320  87.2155930  79.2999658 109.2109804
  87.2362685  78.5894974 110.5476505  88.6899378  75.4464060 103.7202122
  89.3923421  75.8985104 104.1876048  88.3580006  74.8047879 104.3482015
  87.1379739  74.0375817 118.0953331  86.5078400  74.7192098 118.3288728
  87.0315827  73.9258899 117.1506469  82.4324712  73.7047613 109.0219255
  81.6423766  73.9605142 108.5459366  82.9235959  74.5195951 109.1271296
  96.4488521  81.0452852 111.7724536  97.2705965  80.6433040 111.4907218
  96.4450924  80.9421086 112.7240652  84.3839457  74.0692192 105.9802732
  83.5870620  74.1810887 106.4986228  84.1565049  74.4078845 105.1143622
  90.2145125  80.5936896 113.9285247  90.2789557  81.0557303 114.7643418
  89.5056049  79.9634260 114.0567556  80.7162415  73.9578104 111.4534246
  80.9670453  74.8425113 111.7191822  81.2521963  73.7782705 110.6809338
 104.5394514  77.3891601 108.1209508 103.7858223  76.8198999 107.9653512
 104.6742056  77.3554265 109.0680142  86.4160482  68.3396583 120.4578582
  86.0227428  67.7862781 121.1326226  87.2326622  68.6507161 120.8485100
  89.3328443  69.7554462 118.0498839  90.0738157  70.3561615 117.9703301
  89.5646366  69.0132100 117.4916881  84.4769781  74.9410829 116.3277068
  84.3623296  74.0396087 116.6284167  83.6214299  75.1874526 115.9761885
  91.5561619  82.8828570 117.9264569  91.1125473  82.0964948 117.6085473
  92.2178832  83.0707720 117.2608460  86.3148740  84.4124371 112.4525247
  86.8656165  84.2841435 111.6802241  85.4760216  84.7119260 112.1020140
  93.6542857  83.1631370 115.9545970  93.6361332  83.9840251 115.4626239
  94.5762777  83.0385445 116.1796111  90.1115911  80.6775499 116.7969479
  90.6444248  79.9163787 116.5668787  89.5829992  80.3849151 117.5393633
  93.2785606  65.7835565 112.3263120  92.9349875  66.6737207 112.2502231
  93.6464569  65.5937223 111.4632705  93.2435889  75.7744176 100.8335555
  92.7282512  76.5448781 101.0723943  92.9713197  75.1009312 101.4568617
  90.8283000  70.6193877 105.8920794  89.9724596  70.2300727 105.7126433
  91.2409952  70.6985838 105.0320579  92.3582146  68.1540220 110.2912354
  91.8546942  68.1170355 109.4780159  92.6512753  69.0632963 110.3509010
  88.6025032  68.2378950 109.2978535  89.4678029  68.0421759 108.9384425
  88.6702541  68.0089302 110.2247892  98.2170163  78.5276531 102.7688729
  97.4399606  78.1887690 102.3243891  98.8961644  78.5329154 102.0943694
  93.0322192  73.6471268 102.6595337  92.7272328  73.9617417 103.5105480
  93.9852634  73.7252688 102.7022670  96.4561470  78.0010512 109.4255337
  95.7985144  78.6909773 109.5135466  97.2601869  78.3906944 109.7689323
  86.2087351  70.4681158 106.6694902  86.7831103  70.2456339 105.9368095
  86.7958334  70.5369852 107.4223503  95.2666929  76.3554885 107.4759279
  95.7798810  76.9884876 107.9780988  95.9168153  75.7556080 107.1102639
  86.5356939  72.4985619 100.6890787  85.6994251  72.8360305 101.0100062
  86.3961708  72.3634599  99.7517924  88.5110019  67.3422407 105.3969972
  87.8574431  67.0271424 104.7726586  88.4690493  66.7198147 106.1229794
  89.6221224  77.6241702  97.3123264  88.7148286  77.3930955  97.5114413
  90.1192256  76.8279321  97.4997245  91.7447759  73.8304340 109.7217619
  90.8270321  74.0519287 109.5639307  92.1607903  73.9050651 108.8629327
  92.5282807  75.2295756 104.8520299  93.2754626  75.7417153 104.5427421
  92.7974397  74.9079809 105.7124693  94.9761644  72.2652872 106.8339089
  94.2384401  71.7530258 107.1649331  95.2288418  71.8253254 106.0222366
  95.0773272  65.0429124 107.4280858  95.3832149  64.1826488 107.1406773
  95.8025877  65.6346744 107.2279852  81.3697628  75.4459811 105.8162456
  81.1722028  74.8529171 105.0913523  80.8144292  75.1412021 106.5338395
  89.3494351  75.3382917 107.9357049  89.4042961  74.3856754 107.8599526
  88.5385553  75.4942356 108.4198348  90.4985545  79.2663040  99.1735332
  90.0604975  78.5498899  98.7140970  91.2395986  79.4939155  98.6120424
  87.2886711  73.9559977 105.6947428  86.4754577  74.2554147 106.1012620
  87.7845706  73.5615666 106.4121910  92.8860923  74.4201801 114.5262322
  93.2410311  74.6473275 115.3856788  93.5333054  74.7520178 113.9039577
  98.6158660  77.5420237 105.2311651  98.4776559  77.7321833 104.3032840
  98.2594879  78.3039620 105.6879702  86.7800786  71.5278332 111.3108663
  87.4200165  71.3867092 110.6131626  85.9478317  71.2412846 110.9347265
  98.6428040  79.6096764 110.2422922  99.0764546  79.5172053 111.0905976
  99.3559620  79.5854265 109.6042938  83.8643854  74.9723845 103.5003408
  82.9341442  74.9108300 103.7173370  83.9601326  74.4499797 102.7040049
  83.7829403  71.4978657 106.0881650  84.0436220  72.4123991 105.9790810
  84.6046575  71.0303100 106.2378263  85.2554328  72.9116415 113.2580474
  85.9277381  72.7033777 112.6093123  84.4284114  72.7138501 112.8185707
  99.5043589  79.6520465 112.7755808  99.6979479  80.5566275 113.0215083
  99.4044207  79.1927884 113.6094393  91.1579900  69.5378356 115.2746135
  90.5107815  70.2368305 115.1810612  91.9280915  69.9714499 115.6422383
  94.5658698  79.8027208 118.3496688  94.4144204  79.5737759 117.4326772
  94.5563377  80.7597809 118.3628033  91.3344034  77.3759120 113.3342955
  92.2636094  77.5270280 113.1611922  90.9135064  77.4643141 112.4791601
  90.1332366  81.4009785 111.1041492  89.9943452  81.0328569 111.9767431
  89.3446962  81.9157424 110.9325450  85.6581825  76.1859018 114.0182911
  85.5201623  75.4539256 114.6194450  86.5686749  76.0967918 113.7367099
  94.6196773  78.1247422  98.7667390  94.0025943  77.3994250  98.6700443
  94.1513261  78.8856782  98.4234464  88.2864126  75.8978977 113.5066591
  88.9963744  75.2572169 113.4653209  88.2433434  76.1491872 114.4292772
  96.2750905  82.8346330 116.4273170  96.2163451  82.1505550 115.7603753
  96.6770423  83.5765320 115.9753796  86.9993060  72.8844195 115.3262231
  86.4630417  72.4334933 115.9783827  86.4109768  73.0190104 114.5832695
  86.4095319  72.3432846  97.8888694  85.5324785  72.2221647  97.5250941
  86.8853072  71.5518925  97.6367583  96.2768312  80.7985914 114.6587150
  95.3895091  80.4611836 114.7813549  96.8466863  80.0668945 114.8955915
  77.9297459  77.1310006 107.9830201  78.6168499  76.8171736 107.3951217
  77.7745588  78.0351371 107.7097453  82.7332181  72.0200203 112.4115225
  82.6490370  71.4125872 111.6765635  81.9114887  72.5109221 112.4124721
  92.9055895  70.5053766 107.7785420  93.4024594  69.7523728 107.4586490
  92.1342876  70.5418083 107.2128629 100.7585652  76.2094132 109.4203712
 100.7475529  77.0918847 109.0497645  99.8903032  75.8565682 109.2258249
  92.2668149  85.3574201 113.7806552  92.9796121  85.9921665 113.7082453
  91.7758177  85.4538067 112.9646554  89.4890864  72.6471149 107.5057105
  89.1188651  72.0942189 108.1938010  89.9849956  72.0429283 106.9532105
  97.3758227  75.1042773 105.8873878  97.8418679  75.9370764 105.8134180
  97.8265727  74.6387754 106.5919136  87.3180062  83.1068644 114.6012123
  88.0189522  83.7405127 114.7541517  86.8475177  83.4483376 113.8407762
  95.3474890  67.4723360 109.9264779  94.4337969  67.7027586 110.0946986
  95.7767991  67.5561804 110.7778811  95.1181348  75.6613251 112.4264673
  94.4652798  75.9089159 111.7717126  95.4961728  74.8477390 112.0927150
  91.1668921  76.4033063 118.9130710  90.4909558  76.3027192 119.5833085
  91.9896555  76.2472276 119.3766707  82.9147780  82.6404999 111.5343225
  83.5001217  81.8948687 111.6671130  82.7172619  82.9508956 112.4179889
  77.5065435  75.2110599 110.2547668  77.5449535  74.6774190 111.0484787
  77.0005728  74.6845805 109.6358646  89.9091704  87.7099990 113.1488326
  90.4610012  87.8731612 113.9137411  90.2497898  88.3004428 112.4768351
  84.8856197  70.0575140 113.7510211  84.9497524  70.9189971 113.3387608
  84.8223318  69.4449141 113.0182569  84.3608470  72.1298272 117.3983245
  84.9880509  71.7475350 118.0120769  83.5036389  71.9112474 117.7638938
  94.7602578  82.5361248 119.0036980  95.3042482  83.1491206 118.5091935
  94.1789423  83.0940826 119.5203993  81.1374013  73.9374701 103.3301600
  81.4327454  73.0285380 103.2768654  80.2362048  73.9162441 103.0082602
  84.6668260  72.0130698 109.3129148  83.9454845  72.6266666 109.1736622
  85.4561515  72.5488463 109.2345794  87.4694573  69.3485125 115.5869800
  87.9928975  69.5947421 116.3496110  87.2506906  70.1805159 115.1672938
  82.8661854  71.6188799 103.4540925  82.5374560  70.7386178 103.2716031
  83.2201225  71.5636468 104.3417314  85.9803677  71.9061769 103.8216403
  86.3199750  72.4347690 103.0995011  86.4275798  72.2442175 104.5974969
  88.6747118  70.2898820 113.2719471  88.3343939  69.4906633 113.6740151
  87.9686124  70.5900530 112.6996304  89.3263590  67.3748132 111.7246794
  90.1489659  66.9008610 111.6025684  89.5701654  68.1538616 112.2245480
  87.9671824  70.4036391 102.0209695  88.6880187  70.7817643 101.5173412
  87.3437129  71.1225267 102.1244673  92.1102947  71.1081539 102.9568028
  92.3266562  71.9906177 102.6556856  91.6297015  70.7167753 102.2273670
  86.8502169  74.0667253 109.5338772  86.7046749  74.3807556 110.4263054
  86.3727372  74.6852153 108.9809671  88.7098552  71.0569801 109.5819662
  88.6960120  70.1610894 109.2451960  89.4270980  71.0640464 110.2157948
  90.5624682  71.4907141 111.6272789  90.3042460  72.4124212 111.6257120
  90.0309723  71.0937575 112.3173253  81.3247831  76.6072597 112.4726434
  80.7801299  77.3832405 112.6046708  82.2027181  76.9543402 112.3145555
  88.1135448  69.9384181 104.8507232  88.2351359  69.0100827 105.0498120
  87.8237490  69.9522867 103.9385547  90.9826638  67.6239091 107.9873952
  91.0048335  67.6878424 107.0325931  91.3994697  66.7843600 108.1814458
 101.3610262  77.3594351 106.0253174 101.8041408  76.6101676 105.6272298
 100.4836773  77.3504487 105.6426906  82.1113853  75.7342493 115.3656590
  81.3695589  75.8825129 115.9521221  81.7906597  75.9950759 114.5023340
  90.0557515  85.2758472 115.1636980  90.3644642  85.0307618 116.0359680
  90.8532997  85.4805110 114.6755851  82.5570466  83.6207922 107.3966985
  83.3828486  83.3211694 107.0165629  82.2064518  82.8515545 107.8456774
  80.7579071  81.5394249 108.3555919  79.9210980  81.1116423 108.1739920
  80.7302717  81.7326692 109.2926710  87.5976527  71.4516178 119.0597165
  87.6464683  72.3278301 118.6774934  88.1399041  70.9093571 118.4868808
  98.0831373  81.9957302 118.3398302  97.2926916  81.9781440 117.8002801
  97.8464727  82.5345595 119.0947338  98.2029248  78.8449768 115.6531030
  98.2527253  78.6799775 116.5946553  98.0943171  77.9777027 115.2628911
  95.4933010  74.8280696 116.9690337  96.3942873  74.6887161 116.6774335
  95.5680985  74.9935151 117.9088514  89.8275816  72.2047551 115.8143523
  88.9579125  72.4981117 115.5426112  90.0635296  72.7887996 116.5350787
  99.7047445  81.2646709 115.8973052  99.4132253  81.6276690 116.7336513
  99.0919576  80.5513718 115.7186384 100.9043127  78.8299589 108.4175622
 101.7390018  79.2689393 108.5813182 101.0402256  78.3538242 107.5983868
  97.9534633  76.3879324 114.3653110  98.4288754  76.5806970 113.5571961
  97.0300198  76.4438510 114.1196493  84.8418140  77.5503491 103.9484188
  84.5964181  76.6465821 104.1464398  85.0114054  77.5520642 103.0063666
  92.5314849  68.4227168 113.3308944  93.0496793  69.1588195 113.0055432
  92.1769982  68.7291161 114.1655703  84.1113787  73.2831849 101.4470350
  83.4183032  73.3576204 100.7910386  83.8665539  72.5192193 101.9691866
  92.7827444  64.8427450 108.8509840  93.0629197  64.1750639 109.4770267
  93.5678050  65.0356546 108.3384504  96.6536302  73.2645084 112.5981415
  97.6053725  73.3643182 112.6193639  96.4839752  72.4723353 113.1079500
  94.6750681  70.3500667 112.7840816  94.0800613  70.6305680 112.0887305
  94.3900378  70.8394568 113.5557557  99.1324380  76.4851204 111.7123715
  99.1000700  75.5467205 111.8983399  99.7425003  76.5635241 110.9789540
  90.9707711  75.3547257  97.7550919  91.9166815  75.2253465  97.8239337
  90.5921955  74.6161919  98.2320347  99.2818868  73.2762247 111.7581998
  98.7657917  72.4920704 111.5711927 100.1658817  72.9480964 111.9228518
  96.9429595  67.0203263 107.7177811  96.7454416  66.7118351 108.6021143
  97.5529301  67.7464902 107.8475741 104.9500930  77.5467211 110.8529752
 105.6804318  77.2852499 111.4137455 104.3407875  76.8095933 110.8931820
 103.0316227  75.6875073 111.4504203 102.3049390  75.5531038 110.8420695
 102.6163514  75.9951902 112.2560921  90.8546403  79.4065003 119.2151576
  91.7749413  79.5843602 119.4091623  90.8195986  78.4621048 119.0631275
  89.1550628  73.2797233  97.6905804  88.2482083  72.9830346  97.7668518
  89.4326609  72.9827051  96.8240091  80.0728568  74.6003597 108.1404851
  79.7531352  73.7468905 107.8479225  79.5261996  74.8152175 108.8962818
  83.8508476  77.3166038 111.8574357  84.0694485  78.2483145 111.8762391
  84.2634249  76.9574012 112.6429161  90.7712693  67.8234123 103.8450046
  89.9613422  67.4781208 104.2205292  91.4597110  67.5141667 104.4337657
  92.7003242  66.9012170 105.4674342  93.2534280  67.3207623 106.1264365
  92.9373328  65.9747918 105.5097298  88.7236341  72.8899243 121.2477106
  88.6233068  73.8393600 121.1789197  88.5057883  72.5617482 120.3753176
  87.9249412  70.1384168  97.8317784  88.7868576  70.4639067  98.0913601
  88.1099756  69.3515664  97.3190849  79.9416828  78.2206508 110.1097972
  79.2480300  77.8060461 109.5967927  80.6889819  78.2627045 109.5131391
  96.0782049  69.0112695 104.9753007  95.4980718  69.6697499 104.5931059
  95.8117981  68.1890040 104.5640424  94.5285615  68.4117753 107.1774327
  95.0285394  68.5234287 106.3688646  95.1721223  68.1078805 107.8175135
  88.5867611  76.3196382 120.0642168  88.1034693  77.1196742 120.2706057
  88.6728550  76.3304327 119.1109612  81.8553571  78.1524762 107.9863987
  81.8324259  78.2512449 107.0345870  82.1654207  78.9989913 108.3081153
  84.5140948  80.2100917 112.1010602  85.4684202  80.1784859 112.0340533
  84.3153472  79.7491541 112.9160828  85.1040331  78.7802033 114.6681399
  85.9233220  79.2746112 114.6916237  85.3777138  77.8634001 114.6398967
  94.8606927  71.1712785 104.0309355  93.9732782  71.4562436 103.8129550
  95.2760916  71.0106549 103.1836632  98.2121463  71.1959306 107.7463694
  98.9881853  71.6855759 108.0188311  97.4869597  71.6217360 108.2035564
 100.6494022  71.9086926 108.8037635 101.2438512  71.6682661 108.0930943
 100.7220605  71.1894056 109.4311171  82.8691177  85.7520536 109.1180799
  82.7345645  84.9920937 108.5518798  82.4523240  86.4761436 108.6509588
  94.8347951  76.6867321 104.2459645  94.7783152  77.1435873 103.4067277
  95.3876293  75.9258006 104.0682488  98.6452756  72.4757053 105.0709764
  98.3889691  72.0753689 105.9017972  98.0205625  73.1900847 104.9459904
 102.9565094  75.2153126 107.5781056 102.3964652  75.2846316 108.3512618
 102.3508598  75.0394111 106.8580552  80.3575245  73.1140167 115.3673596
  81.0034108  72.6039121 115.8560822  80.1492396  73.8508849 115.9417022
  92.8828637  80.1821014 120.8665737  93.7519797  80.3561667 120.5052372
  92.4035389  81.0015431 120.7441466  88.8778855  67.3780211 101.1197493
  88.8657525  68.3222051 101.2765763  89.7702277  67.1950357 100.8256954
  87.0514817  87.3018115 112.5455171  87.9542064  87.3341726 112.8621666
  86.8252187  86.3718566 112.5601506  92.6930975  63.9722988 105.3743429
  91.9263371  63.4181475 105.5200112  93.1041680  64.0444857 106.2357581
  84.6972736  70.2607784 119.4648611  85.5604197  69.9044589 119.6751935
  84.1238147  69.9221679 120.1524015 104.5421113  91.8909640 110.2711012
 105.1799523  91.7716388 109.5674352 104.4241956  92.8390484 110.3298964
 101.3510819  91.8437068 110.2072536 101.0129331  91.7278133 109.3193071
 102.2200587  91.4428233 110.1873542  97.2097635  93.6972545 106.1969427
  96.6462500  93.6062482 105.4285715  97.0950030  92.8772449 106.6771920
 101.8330602  92.9971920 116.1658742 101.8219243  92.6024718 115.2939245
 101.9951242  92.2637993 116.7592513  94.7562067  95.1923736 109.0353648
  95.5483359  94.8514561 108.6199947  94.9958717  95.3018711 109.9555801
 102.7897193  97.3643513 101.5083892 102.1385173  97.9497593 101.1217906
 103.5841556  97.8949707 101.5678930  98.5537863  95.7809032 115.1137926
  98.2627729  96.6854663 114.9984592  99.1894848  95.8225560 115.8281995
  99.4794070  93.1585880 111.7039285 100.0757642  92.9341903 110.9896248
  99.5369042  92.4170626 112.3064733 104.0962381  89.6161094 107.3464220
 104.8825470  89.1980517 106.9954637 104.3601086  90.5207186 107.5145868
 104.2672459  95.0533944 102.0452876 103.6318292  95.1268571 102.7573781
 103.9369865  95.6427543 101.3671956 109.4970808  89.5536327 108.2497198
 110.2295980  88.9835544 108.4835028 108.7410164  89.1657928 108.6903704
 101.1146928  91.9763569 105.4460541 100.7505135  91.4494190 106.1573462
 101.9714044  91.5862038 105.2727026 107.0196229  83.2657901 112.7091807
 106.6879554  84.1353312 112.4853022 106.4241842  82.9494185 113.3885837
 103.5127748  95.4670447 112.1087719 103.2128471  96.3695486 112.0003527
 103.1678808  95.2002631 112.9608872  96.9640230  91.9184244 108.1424424
  96.0390726  91.7860458 108.3502116  97.2124643  92.6978464 108.6394366
 106.9124892  87.9852988 109.7885157 106.0041769  87.9168396 109.4943918
 106.8612488  88.4624933 110.6166982  94.3249041  91.5617518 108.9768213
  94.4541422  91.8151997 109.8907625  93.6446492  92.1545226 108.6572868
 100.9865758  89.4042633 117.7320054 100.2099092  89.9636553 117.7222919
 101.6256321  89.8899416 118.2534924 108.7786538  86.1869426 111.5663031
 108.1360919  86.4801959 110.9202825 108.2741467  86.0722346 112.3716227
 106.4326702  89.9332599 102.2548890 107.3444558  90.1659986 102.0796588
 105.9236349  90.5169643 101.6923969  99.2412130  92.2128087 117.2938021
  99.9826815  92.7513131 117.0172845  98.5349116  92.8394375 117.4509573
 104.7167470  94.3557227 115.8910183 105.1250826  93.9139638 115.1464815
 103.9944731  93.7809855 116.1444375 101.0698540  89.2929834 113.2643739
 101.9159735  89.7169247 113.4078388 101.0097178  88.6363458 113.9582303
 105.0396284  94.9158418 109.6462471 104.4105147  95.0804132 108.9438539
 104.6521947  95.3300027 110.4173435 108.9185516  95.8512856 107.0006835
 108.2336554  96.2311757 106.4503868 109.0029366  96.4608182 107.7338783
 104.2197985  86.9534202 114.9224913 103.9758917  87.7076263 114.3859189
 104.4957916  87.3319550 115.7572160 106.1736448  93.4972815 113.6002179
 106.3853343  94.1404574 112.9236560 106.1266196  92.6635131 113.1324109
 103.7762677  86.1090635 110.5038751 102.9147156  86.4071889 110.7955488
 103.8025112  86.3261034 109.5719783 100.5924246  94.6532826 106.9112557
 101.0562592  94.9320529 106.1217179 100.3281044  93.7516270 106.7285647
  97.4848327  94.2004307 109.8492320  98.0549684  94.6291576 109.2109804
  98.0756439  93.9186892 110.5476505  97.9773494  89.3667735 118.0953331
  97.3472154  90.0484016 118.3288728  97.8709582  89.2550816 117.1506469
 107.2882276  96.3744770 111.7724536 108.1099720  95.9724957 111.4907218
 107.2844679  96.2713004 112.7240652 101.0538879  95.9228813 113.9285247
 101.1183312  96.3849220 114.7643418 100.3449803  95.2926178 114.0567556
  91.5556169  89.2870021 111.4534246  91.8064208  90.1717031 111.7191822
  92.0915718  89.1074623 110.6809338 115.3788269  92.7183518 108.1209508
 114.6251977  92.1490917 107.9653512 115.5135810  92.6846183 109.0680142
 100.7686897  97.5896921 103.7964227 100.6332572  98.4348456 104.2249075
 101.3096709  97.7916198 103.0330161  97.2554237  83.6688501 120.4578582
  96.8621182  83.1154699 121.1326226  98.0720377  83.9799079 120.8485100
 100.1722198  85.0846380 118.0498839 100.9131911  85.6853533 117.9703301
 100.4040120  84.3424017 117.4916881  95.3163536  90.2702747 116.3277068
  95.2017051  89.3688004 116.6284167  94.4608053  90.5166444 115.9761885
 102.3955373  98.2120487 117.9264569 101.9519228  97.4256866 117.6085473
 103.0572587  98.3999638 117.2608460  97.1542495  99.7416289 112.4525247
  97.7049920  99.6133352 111.6802241  96.3153970 100.0411178 112.1020140
 104.4936611  98.4923287 115.9545970 104.4755087  99.3132168 115.4626239
 105.4156531  98.3677362 116.1796111 100.9509666  96.0067417 116.7969479
 101.4838002  95.2455705 116.5668787 100.4223747  95.7141068 117.5393633
 104.1179361  81.1127483 112.3263120 103.7743630  82.0029124 112.2502231
 104.4858323  80.9229140 111.4632705 101.6676754  85.9485795 105.8920794
 100.8118351  85.5592645 105.7126433 102.0803706  86.0277755 105.0320579
 103.1975901  83.4832138 110.2912354 102.6940697  83.4462273 109.4780159
 103.4906508  84.3924880 110.3509010 109.0563917  93.8568448 102.7688729
 108.2793360  93.5179608 102.3243891 109.7355398  93.8621072 102.0943694
 103.8715946  88.9763186 102.6595337 103.5666082  89.2909335 103.5105480
 104.8246389  89.0544606 102.7022670 102.3162378  95.1353409 104.3088291
 101.7883740  94.4006169 103.9961528 101.8149881  95.9128085 104.0628259
 107.2955224  93.3302430 109.4255337 106.6378899  94.0201691 109.5135466
 108.0995624  93.7198862 109.7689323 106.1060683  91.6846802 107.4759279
 106.6192565  92.3176794 107.9780988 106.7561907  91.0847998 107.1102639
  99.3503774  82.6714324 105.3969972  98.6968186  82.3563342 104.7726586
  99.3084248  82.0490065 106.1229794 103.3683057 101.6631127 100.2319950
 102.6944756 101.9662823 100.8404908 103.7548879 102.4660207  99.8825407
 102.5841514  89.1596258 109.7217619 101.6664075  89.3811205 109.5639307
 103.0001658  89.2342568 108.8629327 103.3676562  90.5587674 104.8520299
 104.1148381  91.0709071 104.5427421 103.6368151  90.2371726 105.7124693
 101.6403212  93.0546214 101.8347254 100.7314431  92.7705247 101.9319723
 101.6698296  93.4745293 100.9750561 106.8722479  96.6652804 105.6038421
 106.4184806  95.8243714 105.6603612 106.2416446  97.3014202 105.9413201
 105.8155399  87.5944790 106.8339089 105.0778156  87.0822176 107.1649331
 106.0682172  87.1545171 106.0222366 105.3155419  98.5029300 106.5388239
 105.6078393  99.0634358 105.8200605 105.8254039  98.7957861 107.2941399
 105.9167026  80.3721042 107.4280858 106.2225903  79.5118405 107.1406773
 106.6419631  80.9638662 107.2279852 100.1888106  90.6674835 107.9357049
 100.2436716  89.7148671 107.8599526  99.3779308  90.8234274 108.4198348
 100.2789044  99.2809652 107.6281693 100.2365223  99.5070498 106.6990225
 101.1951743  99.0473026 107.7767494 103.7254678  89.7493719 114.5262322
 104.0804065  89.9765192 115.3856788 104.3726809  90.0812096 113.9039577
 109.4552415  92.8712155 105.2311651 109.3170313  93.0613751 104.3032840
 109.0988633  93.6331538 105.6879702 109.4821794  94.9388682 110.2422922
 109.9158301  94.8463971 111.0905976 110.1953375  94.9146182 109.6042938
  98.3954845  96.1572681 107.4243655  99.1895443  95.6623001 107.2226230
  97.6846537  95.6290544 107.0611361 103.2149689  98.5390776 111.7756023
 103.2686711  99.1081712 112.5433739 102.3464470  98.7092661 111.4110060
 110.3437344  94.9812383 112.7755808 110.5373234  95.8858193 113.0215083
 110.2437962  94.5219802 113.6094393 101.9973654  84.8670273 115.2746135
 101.3501569  85.5660223 115.1810612 102.7674670  85.3006417 115.6422383
 105.4052452  95.1319125 118.3496688 105.2537959  94.9029677 117.4326772
 105.3957132  96.0889727 118.3628033 102.1737789  92.7051038 113.3342955
 103.1029849  92.8562198 113.1611922 101.7528819  92.7935059 112.4791601
 100.9726121  96.7301703 111.1041492 100.8337206  96.3620487 111.9767431
 100.1840717  97.2449342 110.9325450 101.5674273 101.8310799 102.4467029
 101.7426028 101.3598842 103.2612652 100.8807061 102.4576565 102.6748290
 102.5231336  96.1083305 108.4930330 102.1881168  96.0684075 109.3887980
 102.0235281  95.4428021 108.0200740  96.4975580  91.5150935 114.0182911
  96.3595378  90.7831174 114.6194450  97.4080503  91.4259835 113.7367099
  99.1257880  91.2270895 113.5066591  99.8357499  90.5864087 113.4653209
  99.0827188  91.4783789 114.4292772 107.1144659  98.1638248 116.4273170
 107.0557205  97.4797468 115.7603753 107.5164177  98.9057238 115.9753796
 107.1162066  96.1277832 114.6587150 106.2288845  95.7903754 114.7813549
 107.6860617  95.3960863 114.8955915 100.6463220 100.7879284 111.6248393
 100.5733391 101.5934256 112.1367698 100.2040613 100.9871250 110.7996415
 100.4352999 100.0251054 105.1351215  99.6520521 100.5672734 105.2289439
 101.1345744 100.5425034 105.5345456 103.7449649  85.8345684 107.7785420
 104.2418349  85.0815646 107.4586490 102.9736631  85.8710000 107.2128629
 111.5979407  91.5386049 109.4203712 111.5869283  92.4210765 109.0497645
 110.7296786  91.1857600 109.2258249 103.1061903 100.6866118 113.7806552
 103.8189875 101.3213583 113.7082453 102.6151932 100.7829984 112.9646554
 104.8279430  94.5917371 105.3523843 103.8935709  94.7118833 105.1828548
 105.0056099  93.6889838 105.0883853 108.2151981  90.4334690 105.8873878
 108.6812434  91.2662682 105.8134180 108.6659482  89.9679672 106.5919136
  98.1573817  98.4360562 114.6012123  98.8583276  99.0697045 114.7541517
  97.6868932  98.7775293 113.8407762 106.2828213  96.7778512 102.8860030
 106.5588056  96.6635106 103.7953904 105.4132711  96.3795996 102.8472203
 106.1868644  82.8015277 109.9264779 105.2731724  83.0319504 110.0946986
 106.6161746  82.8853721 110.7778811 105.9575103  90.9905169 112.4264673
 105.3046553  91.2381077 111.7717126 106.3355483  90.1769307 112.0927150
 102.9182277 101.0264862 106.5292843 103.1004671 100.2086518 106.9920596
 103.7415263 101.2432555 106.0917733 103.2524442  99.9533047 103.7907892
 103.7812208  99.4425502 103.1778054 103.5152662  99.6375578 104.6553425
 102.0062676  91.7324980 118.9130710 101.3303313  91.6319110 119.5833085
 102.8290310  91.5764194 119.3766707  93.7541535  97.9696917 111.5343225
  94.3394972  97.2240605 111.6671130  93.5566373  98.2800873 112.4179889
 100.7485459 103.0391908 113.1488326 101.3003767 103.2023529 113.9137411
 101.0891652 103.6296346 112.4768351  95.2002224  87.4590190 117.3983245
  95.8274263  87.0767267 118.0120769  94.3430143  87.2404392 117.7638938
 105.5996333  97.8653165 119.0036980 106.1436237  98.4783123 118.5091935
 105.0183178  98.4232744 119.5203993 103.8853846 100.9873883 110.1352008
 103.7604985 100.1863623 109.6262954 104.5432937 101.4820077 109.6465978
 105.9488754  98.7882903 111.7631558 105.0019090  98.6688254 111.6909885
 106.2971527  97.9005401 111.8457820  98.3088328  84.6777042 115.5869800
  98.8322729  84.9239339 116.3496110  98.0900661  85.5097077 115.1672938
 102.9535188  98.5835620 107.9635911 102.8060150  97.6552327 108.1443481
 103.7788681  98.6055710 107.4792986 106.5569309  99.4064178 109.0500783
 107.4815857  99.2007040 108.9125234 106.3884613  99.1580579 109.9590125
 100.1657344  82.7040050 111.7246794 100.9883414  82.2300528 111.6025684
 100.4095408  83.4830533 112.2245480 102.9496702  86.4373457 102.9568028
 103.1660316  87.3198095 102.6556856 102.4690769  86.0459671 102.2273670
 106.3464626  99.9249846 104.4062875 106.5201503  99.3596268 103.6536727
 106.8393517 100.7250741 104.2242365  92.1641585  91.9364515 112.4726434
  91.6195053  92.7124323 112.6046708  93.0420935  92.2835319 112.3145555
 101.8220392  82.9531009 107.9873952 101.8442089  83.0170342 107.0325931
 102.2388451  82.1135518 108.1814458 112.2004017  92.6886269 106.0253174
 112.6435163  91.9393594 105.6272298 111.3230527  92.6796405 105.6426906
 107.3339798  99.2416610 101.5059773 108.0290703  99.8623303 101.7247088
 107.6762948  98.3911961 101.7812151  92.9507607  91.0634411 115.3656590
  92.2089343  91.2117046 115.9521221  92.6300352  91.3242677 114.5023340
 109.2331221  96.6916316 103.0347104 109.7582545  97.0303588 102.3096424
 109.1453574  95.7563331 102.8510238 100.8951270 100.6050389 115.1636980
 101.2038396 100.3599536 116.0359680 101.6926752 100.8097028 114.6755851
 100.9171882 102.7588299 107.3942357 100.4776872 102.2664678 108.0875214
 101.6679999 102.2161267 107.1534432  98.3645754  98.3026308 109.4664659
  97.7425763  97.6397013 109.1666886  99.0350621  98.3287440 108.7838306
  98.4370282  86.7808096 119.0597165  98.4858437  87.6570219 118.6774934
  98.9792796  86.2385489 118.4868808 108.9225127  97.3249219 118.3398302
 108.1320671  97.3073358 117.8002801 108.6858482  97.8637513 119.0947338
 109.0423002  94.1741686 115.6531030 109.0921007  94.0091693 116.5946553
 108.9336926  93.3068945 115.2628911 106.3326765  90.1572614 116.9690337
 107.2336627  90.0179079 116.6774335 106.4074739  90.3227068 117.9088514
 100.6669570  87.5339468 115.8143523  99.7972879  87.8273034 115.5426112
 100.9029050  88.1179913 116.5350787 110.5441199  96.5938627 115.8973052
 110.2526007  96.9568608 116.7336513 109.9313330  95.8805635 115.7186384
 111.7436881  94.1591507 108.4175622 112.5783773  94.5981311 108.5813182
 111.8796010  93.6830160 107.5983868 108.7928387  91.7171242 114.3653110
 109.2682509  91.9098888 113.5571961 107.8693953  91.7730428 114.1196493
 103.3708604  83.7519085 113.3308944 103.8890548  84.4880112 113.0055432
 103.0163737  84.0583079 114.1655703 103.6221198  80.1719368 108.8509840
 103.9022952  79.5042557 109.4770267 104.4071805  80.3648463 108.3384504
 107.4930056  88.5937002 112.5981415 108.4447479  88.6935100 112.6193639
 107.3233507  87.8015270 113.1079500 105.5144436  85.6792585 112.7840816
 104.9194368  85.9597598 112.0887305 105.2294133  86.1686486 113.5557557
 104.6451926  99.6315512 101.5443449 105.5782599  99.5661074 101.7476324
 104.5575139 100.4671779 101.0857982 107.2739943  98.9481382  98.5047396
 107.1953575  98.6141246  99.3983154 108.0949610  99.4403150  98.5038869
 109.9718134  91.8143122 111.7123715 109.9394454  90.8759122 111.8983399
 110.5818758  91.8927158 110.9789540 110.1212623  88.6054165 111.7581998
 109.6051671  87.8212622 111.5711927 111.0052571  88.2772882 111.9228518
 107.7823350  82.3495181 107.7177811 107.5848171  82.0410269 108.6021143
 108.3923055  83.0756819 107.8475741 115.7894684  92.8759128 110.8529752
 116.5198073  92.6144417 111.4137455 115.1801630  92.1387850 110.8931820
 113.8709981  91.0166991 111.4504203 113.1443145  90.8822956 110.8420695
 113.4557268  91.3243820 112.2560921 101.6940158  94.7356921 119.2151576
 102.6143167  94.9135520 119.4091623 101.6589741  93.7912966 119.0631275
  94.6902230  92.6457955 111.8574357  94.9088240  93.5775063 111.8762391
  95.1028004  92.2865930 112.6429161 101.6106448  83.1526041 103.8450046
 100.8007176  82.8073126 104.2205292 102.2990865  82.8433584 104.4337657
 103.5396996  82.2304087 105.4674342 104.0928035  82.6499541 106.1264365
 103.7767083  81.3039836 105.5097298  99.5630095  88.2191161 121.2477106
  99.4626822  89.1685518 121.1789197  99.3451637  87.8909400 120.3753176
 106.9175803  84.3404613 104.9753007 106.3374472  84.9989417 104.5931059
 106.6511736  83.5181957 104.5640424 105.3679370  83.7409670 107.1774327
 105.8679148  83.8526205 106.3688646 106.0114978  83.4370723 107.8175135
  99.4261365  91.6488300 120.0642168  98.9428447  92.4488660 120.2706057
  99.5122305  91.6596245 119.1109612  95.3534703  95.5392835 112.1010602
  96.3077957  95.5076777 112.0340533  95.1547227  95.0783458 112.9160828
  95.9434085  94.1093951 114.6681399  96.7626974  94.6038029 114.6916237
  96.2170893  93.1925919 114.6398967 105.7000681  86.5004703 104.0309355
 104.8126536  86.7854354 103.8129550 106.1154670  86.3398466 103.1836632
 109.0515217  86.5251224 107.7463694 109.8275608  87.0147676 108.0188311
 108.3263352  86.9509278 108.2035564 111.4887776  87.2378843 108.8037635
 112.0832267  86.9974579 108.0930943 111.5614360  86.5185974 109.4311171
 105.6741705  92.0159239 104.2459645 105.6176906  92.4727790 103.4067277
 106.2270048  91.2549924 104.0682488 109.4846511  87.8048971 105.0709764
 109.2283445  87.4045606 105.9017972 108.8599379  88.5192765 104.9459904
 113.7958849  90.5445044 107.5781056 113.2358407  90.6138233 108.3512618
 113.1902352  90.3686029 106.8580552 106.7530592  96.7031907 100.1755835
 107.5876196  96.2713105  99.9933310 106.5914935  96.5313921 101.1032729
 106.4076484  93.2064020 101.5412174 106.3525288  93.0408292 100.6000618
 105.7822540  93.9140053 101.6974364  91.1968999  88.4432085 115.3673596
  91.8427863  87.9331039 115.8560822  90.9886150  89.1800766 115.9417022
 103.7222392  95.5112932 120.8665737 104.5913551  95.6853584 120.5052372
 103.2429143  96.3307349 120.7441466  97.8908572 102.6310033 112.5455171
  98.7935818 102.6633643 112.8621666  97.6645942 101.7010484 112.5601506
  99.6462174 101.3841020 109.2065249  98.6957805 101.3842881 109.0929621
  99.9494660 100.6373754 108.6901284 103.5324729  79.3014906 105.3743429
 102.7657125  78.7473393 105.5200112 103.9435434  79.3736775 106.2357581
  95.5366490  85.5899702 119.4648611  96.3997952  85.2336506 119.6751935
  94.9631901  85.2513596 120.1524015 115.3814867 107.2201558 110.2711012
 116.0193277 107.1008305 109.5674352 115.2635710 108.1682402 110.3298964
 112.1904574 107.1728986 110.2072536 111.8523085 107.0570051 109.3193071
 113.0594342 106.7720151 110.1873542 108.0491389 109.0264462 106.1969427
 107.4856254 108.9354399 105.4285715 107.9343784 108.2064367 106.6771920
 105.5955821 110.5215654 109.0353648 106.3877113 110.1806479 108.6199947
 105.8352471 110.6310629 109.9555801 113.6290948 112.6935430 101.5083892
 112.9778928 113.2789511 101.1217906 114.4235311 113.2241625 101.5678930
 107.5546575 109.7824567 101.9071026 108.3277451 109.2353554 101.7683902
 107.9071974 110.6468817 102.1185488 110.3187825 108.4877798 111.7039285
 110.9151397 108.2633821 110.9896248 110.3762796 107.7462544 112.3064733
 109.8912853 105.9417233  99.5389476 110.1438374 105.4198755  98.7772939
 108.9537412 105.7783379  99.6416160 114.9356136 104.9453012 107.3464220
 115.7219225 104.5272435 106.9954637 115.1994840 105.8499104 107.5145868
 115.1066213 110.3825862 102.0452876 114.4712046 110.4560489 102.7573781
 114.7763620 110.9719461 101.3671956 120.3364563 104.8828245 108.2497198
 121.0689735 104.3127462 108.4835028 119.5803919 104.4949845 108.6903704
 109.6109142 107.8445339 101.7413851 109.4945400 107.1690243 102.4094936
 109.7211402 107.3577713 100.9246004 111.9540683 107.3055487 105.4460541
 111.5898890 106.7786107 106.1573462 112.8107799 106.9153956 105.2727026
 117.8589983  98.5949819 112.7091807 117.5273308  99.4645230 112.4853022
 117.2635597  98.2786103 113.3885837 111.5946170 102.3345386 100.4421889
 111.7620572 103.2025623 100.8092360 111.4043339 102.4972668  99.5183178
 107.8033984 107.2476162 108.1424424 106.8784481 107.1152376 108.3502116
 108.0518397 108.0270381 108.6394366 117.7518647 103.3144905 109.7885157
 116.8435524 103.2460314 109.4943918 117.7006242 103.7916850 110.6166982
 111.5735390 104.7903044 101.4268556 111.4535016 105.2360094 102.2654036
 110.8787979 105.1388361 100.8682094 105.1642795 106.8909436 108.9768213
 105.2935176 107.1443914 109.8907625 104.4840247 107.4837144 108.6572868
 109.3342283 117.5606685 105.0758687 109.2566312 118.5114511 105.1547168
 108.7303926 117.2152558 105.7333613 119.6180293 101.5161344 111.5663031
 118.9754673 101.8093877 110.9202825 119.1135221 101.4014264 112.3716227
 117.2720457 105.2624517 102.2548890 118.1838313 105.4951904 102.0796588
 116.7630104 105.8461561 101.6923969 111.9092294 104.6221751 113.2643739
 112.7553490 105.0461165 113.4078388 111.8490932 103.9655376 113.9582303
 114.6156431 101.4382553 110.5038751 113.7540910 101.7363806 110.7955488
 114.6418866 101.6552952 109.5719783 111.4318001 109.9824743 106.9112557
 111.8956346 110.2612446 106.1217179 111.1674799 109.0808188 106.7285647
 108.3242082 109.5296225 109.8492320 108.8943439 109.9583493 109.2109804
 108.9150194 109.2478810 110.5476505 110.3686887 106.1047896 103.7202122
 111.0710930 106.5568939 104.1876048 110.0367515 105.4631715 104.3482015
 104.1112221 104.3631448 109.0219255 103.3211275 104.6188977 108.5459366
 104.6023468 105.1779786 109.1271296 106.0626966 104.7276028 105.9802732
 105.2658129 104.8394722 106.4986228 105.8352558 105.0662680 105.1143622
 102.3949924 104.6161939 111.4534246 102.6457962 105.5008949 111.7191822
 102.9309472 104.4366540 110.6809338 111.6080651 112.9188838 103.7964227
 111.4726326 113.7640374 104.2249075 112.1490464 113.1208116 103.0330161
 105.0610049 110.4364276 104.3692152 105.5734569 111.2307527 104.5197717
 105.7132762 109.7390567 104.3025753 106.8704934 113.5530033 106.4514905
 107.0471562 114.4747997 106.2635889 107.6661767 113.2388452 106.8809285
 106.1557290 105.5994665 116.3277068 106.0410805 104.6979922 116.6284167
 105.3001808 105.8458361 115.9761885 114.9573115  96.4419400 112.3263120
 114.6137384  97.3321042 112.2502231 115.3252078  96.2521058 111.4632705
 103.0258966 108.7652931 105.1451722 103.8634188 109.1749939 104.9285430
 103.2037233 107.8252373 105.1151916 114.9223398 106.4328011 100.8335555
 114.4070021 107.2032616 101.0723943 114.6500706 105.7593148 101.4568617
 112.5070509 101.2777712 105.8920794 111.6512105 100.8884563 105.7126433
 112.9197461 101.3569673 105.0320579 114.0369655  98.8124055 110.2912354
 113.5334451  98.7754191 109.4780159 114.3300262  99.7216798 110.3509010
 110.2812541  98.8962785 109.2978535 111.1465538  98.7005594 108.9384425
 110.3490050  98.6673137 110.2247892 119.8957672 109.1860366 102.7688729
 119.1187115 108.8471526 102.3243891 120.5749153 109.1912989 102.0943694
 114.7109701 104.3055104 102.6595337 114.4059837 104.6201253 103.5105480
 115.6640143 104.3836523 102.7022670 113.1556133 110.4645327 104.3088291
 112.6277494 109.7298086 103.9961528 112.6543636 111.2420003 104.0628259
 107.8874860 101.1264993 106.6694902 108.4618612 100.9040175 105.9368095
 108.4745843 101.1953688 107.4223503 116.9454438 107.0138720 107.4759279
 117.4586319 107.6468712 107.9780988 117.5955661 106.4139916 107.1102639
 108.2144448 103.1569454 100.6890787 107.3781760 103.4944141 101.0100062
 108.0749217 103.0218434  99.7517924 110.1897528  98.0006242 105.3969972
 109.5361940  97.6855259 104.7726586 110.1478002  97.3781982 106.1229794
 111.3008733 108.2825537  97.3123264 110.3935795 108.0514791  97.5114413
 111.7979765 107.4863156  97.4997245 114.2076812 116.9923044 100.2319950
 113.5338511 117.2954741 100.8404908 114.5942634 117.7952125  99.8825407
 113.4235268 104.4888176 109.7217619 112.5057830 104.7103123 109.5639307
 113.8395412 104.5634486 108.8629327 114.2070316 105.8879591 104.8520299
 114.9542135 106.4000988 104.5427421 114.4761906 105.5663644 105.7124693
 112.4796966 108.3838132 101.8347254 111.5708186 108.0997165 101.9319723
 112.5092050 108.8037211 100.9750561 117.7116234 111.9944721 105.6038421
 117.2578561 111.1535631 105.6603612 117.0810201 112.6306120 105.9413201
 116.6549153 102.9236707 106.8339089 115.9171910 102.4114094 107.1649331
 116.9075927 102.4837089 106.0222366 116.1549173 113.8321218 106.5388239
 116.4472147 114.3926275 105.8200605 116.6647794 114.1249779 107.2941399
 116.7560781  95.7012959 107.4280858 117.0619658  94.8410323 107.1406773
 117.4813386  96.2930580 107.2279852 103.0485137 106.1043646 105.8162456
 102.8509537 105.5113007 105.0913523 102.4931801 105.7995856 106.5338395
 111.0281860 105.9966753 107.9357049 111.0830470 105.0440589 107.8599526
 110.2173062 106.1526192 108.4198348 112.1773054 109.9246876  99.1735332
 111.7392484 109.2082735  98.7140970 112.9183495 110.1522990  98.6120424
 108.9674220 104.6143812 105.6947428 108.1542086 104.9137983 106.1012620
 109.4633215 104.2199501 106.4121910 111.1182798 114.6101569 107.6281693
 111.0758977 114.8362416 106.6990225 112.0345497 114.3764944 107.7767494
 120.2946169 108.2004073 105.2311651 120.1564068 108.3905669 104.3032840
 119.9382388 108.9623455 105.6879702 108.4588295 102.1862168 111.3108663
 109.0987674 102.0450927 110.6131626 107.6265826 101.8996681 110.9347265
 109.2348599 111.4864598 107.4243655 110.0289198 110.9914918 107.2226230
 108.5240291 110.9582461 107.0611361 105.5431362 105.6307680 103.5003408
 104.6128951 105.5692135 103.7173370 105.6388834 105.1083633 102.7040049
 105.4616912 102.1562493 106.0881650 105.7223729 103.0707826 105.9790810
 106.2834084 101.6886935 106.2378263 106.9341837 103.5700250 113.2580474
 107.6064890 103.3617612 112.6093123 106.1071623 103.3722336 112.8185707
 112.8367409 100.1962191 115.2746135 112.1895324 100.8952141 115.1810612
 113.6068424 100.6298335 115.6422383 112.4068027 117.1602717 102.4467029
 112.5819783 116.6890760 103.2612652 111.7200815 117.7868483 102.6748290
 113.3625090 111.4375223 108.4930330 113.0274923 111.3975993 109.3887980
 112.8629036 110.7719939 108.0200740 107.3369334 106.8442853 114.0182911
 107.1989132 106.1123092 114.6194450 108.2474258 106.7551753 113.7367099
 116.2984282 108.7831257  98.7667390 115.6813452 108.0578085  98.6700443
 115.8300770 109.5440618  98.4234464 109.9651635 106.5562812 113.5066591
 110.6751253 105.9156004 113.4653209 109.9220943 106.8075707 114.4292772
 108.6780569 103.5428030 115.3262231 108.1417926 103.0918769 115.9783827
 108.0897277 103.6773939 114.5832695  99.6084968 107.7893841 107.9830201
 100.2956008 107.4755571 107.3951217  99.4533097 108.6935206 107.7097453
 104.4119690 102.6784038 112.4115225 104.3277879 102.0709707 111.6765635
 103.5902396 103.1693056 112.4124721 111.2746754 115.3542972 105.1351215
 110.4914276 115.8964652 105.2289439 111.9739499 115.8716952 105.5345456
 114.5843404 101.1637601 107.7785420 115.0812103 100.4107564 107.4586490
 113.8130385 101.2001918 107.2128629 115.6673185 109.9209289 105.3523843
 114.7329463 110.0410751 105.1828548 115.8449853 109.0181755 105.0883853
 111.1678373 103.3054984 107.5057105 110.7976160 102.7526025 108.1938010
 111.6637465 102.7013118 106.9532105 119.0545736 105.7626608 105.8873878
 119.5206188 106.5954599 105.8134180 119.5053236 105.2971589 106.5919136
 117.1221967 112.1070429 102.8860030 117.3981811 111.9927024 103.7953904
 116.2526466 111.7087914 102.8472203 117.0262399  98.1307195 109.9264779
 116.1125478  98.3611422 110.0946986 117.4555500  98.2145639 110.7778811
 113.7576031 116.3556780 106.5292843 113.9398426 115.5378436 106.9920596
 114.5809017 116.5724472 106.0917733 114.0918197 115.2824965 103.7907892
 114.6205963 114.7717420 103.1778054 114.3546416 114.9667495 104.6553425
 104.5935289 113.2988834 111.5343225 105.1788726 112.5532522 111.6671130
 104.3960128 113.6092791 112.4179889 107.4473944 116.3340082 106.5505668
 106.7784320 116.8186209 106.0669708 107.3086814 116.5809302 107.4649046
  99.1852944 105.8694435 110.2547668  99.2237044 105.3358025 111.0484787
  98.6793237 105.3429640 109.6358646 106.5643706 100.7158975 113.7510211
 106.6285033 101.5773806 113.3387608 106.5010827 100.1032977 113.0182569
 106.0395979 102.7882108 117.3983245 106.6668018 102.4059185 118.0120769
 105.1823898 102.5696310 117.7638938 102.8161522 104.5958537 103.3301600
 103.1114963 103.6869215 103.2768654 101.9149557 104.5746276 103.0082602
 106.3455769 102.6714533 109.3129148 105.6242354 103.2850501 109.1736622
 107.1349024 103.2072298 109.2345794 109.1482082 100.0068960 115.5869800
 109.6716484 100.2531256 116.3496110 108.9294415 100.8388995 115.1672938
 104.5449363 102.2772634 103.4540925 104.2162069 101.3970013 103.2716031
 104.8988734 102.2220303 104.3417314 113.7928942 113.9127537 107.9635911
 113.6453904 112.9844245 108.1443481 114.6182436 113.9347628 107.4792986
 107.6591186 102.5645604 103.8216403 107.9987259 103.0931526 103.0995011
 108.1063307 102.9026010 104.5974969 110.3534627 100.9482655 113.2719471
 110.0131448 100.1490468 113.6740151 109.6473633 101.2484366 112.6996304
 111.0051099  98.0331967 111.7246794 111.8277168  97.5592446 111.6025684
 111.2489163  98.8122451 112.2245480 109.6459333 101.0620226 102.0209695
 110.3667696 101.4401479 101.5173412 109.0224638 101.7809103 102.1244673
 113.7890456 101.7665375 102.9568028 114.0054071 102.6490013 102.6556856
 113.3084523 101.3751588 102.2273670 108.5289678 104.7251088 109.5338772
 108.3834258 105.0391391 110.4263054 108.0514881 105.3435988 108.9809671
 110.3886061 101.7153636 109.5819662 110.3747629 100.8194729 109.2451960
 111.1058489 101.7224300 110.2157948 112.2412191 102.1490976 111.6272789
 111.9829969 103.0708047 111.6257120 111.7097232 101.7521411 112.3173253
 117.1858380 115.2541763 104.4062875 117.3595258 114.6888186 103.6536727
 117.6787271 116.0542658 104.2242365 103.0035340 107.2656432 112.4726434
 102.4588808 108.0416240 112.6046708 103.8814690 107.6127237 112.3145555
 109.7922957 100.5968016 104.8507232 109.9138868  99.6684662 105.0498120
 109.5024999 100.6106702 103.9385547 112.6614147  98.2822927 107.9873952
 112.6835844  98.3462260 107.0325931 113.0782206  97.4427435 108.1814458
 123.0397771 108.0178186 106.0253174 123.4828917 107.2685512 105.6272298
 122.1624282 108.0088323 105.6426906 118.1733553 114.5708528 101.5059773
 118.8684457 115.1915220 101.7247088 118.5156703 113.7203879 101.7812151
 103.7901362 106.3926329 115.3656590 103.0483098 106.5408964 115.9521221
 103.4694106 106.6534594 114.5023340 120.0724976 112.0208233 103.0347104
 120.5976300 112.3595506 102.3096424 119.9847328 111.0855249 102.8510238
 104.2357975 114.2791757 107.3966985 105.0615995 113.9795529 107.0165629
 103.8852027 113.5099380 107.8456774 109.2039509 113.6318226 109.4664659
 108.5819518 112.9688931 109.1666886 109.8744375 113.6579358 108.7838306
 102.4366580 112.1978084 108.3555919 101.5998489 111.7700258 108.1739920
 102.4090226 112.3910527 109.2926710 108.7653015 112.1822149 102.9423119
 108.9141136 112.8657613 102.2889792 109.5719459 112.1627239 103.4572575
 106.5205648 108.2087327 103.9484188 106.2751690 107.3049657 104.1464398
 106.6901563 108.2104477 103.0063666 114.2102358  99.0811003 113.3308944
 114.7284302  99.8172030 113.0055432 113.8557491  99.3874996 114.1655703
 114.4614953  95.5011286 108.8509840 114.7416706  94.8334475 109.4770267
 115.2465559  95.6940381 108.3384504 112.2648421 114.6770279 100.4134867
 111.6922388 115.2960467  99.9605338 112.8381215 115.2269641 100.9474789
 116.3538190 101.0084503 112.7840816 115.7588122 101.2889515 112.0887305
 116.0687887 101.4978404 113.5557557 115.4845681 114.9607430 101.5443449
 116.4176354 114.8952991 101.7476324 115.3968894 115.7963696 101.0857982
 118.1133697 114.2773300  98.5047396 118.0347329 113.9433164  99.3983154
 118.9343364 114.7695068  98.5038869 112.6495220 106.0131092  97.7550919
 113.5954324 105.8837300  97.8239337 112.2709464 105.2745754  98.2320347
 118.6217104  97.6787098 107.7177811 118.4241925  97.3702186 108.6021143
 119.2316810  98.4048737 107.8475741 110.8338137 103.9381069  97.6905804
 109.9269592 103.6414181  97.7668518 111.1114118 103.6410887  96.8240091
 101.7516077 105.2587432 108.1404851 101.4318861 104.4052740 107.8479225
 101.2049505 105.4736010 108.8962818 105.5295985 107.9749873 111.8574357
 105.7481994 108.9066981 111.8762391 105.9421758 107.6157847 112.6429161
 112.4500202  98.4817958 103.8450046 111.6400931  98.1365043 104.2205292
 113.1384619  98.1725502 104.4337657 114.3790751  97.5596005 105.4674342
 114.9321789  97.9791459 106.1264365 114.6160837  96.6331753 105.5097298
 109.6036921 100.7968004  97.8317784 110.4656085 101.1222902  98.0913601
 109.7887265 100.0099500  97.3190849 101.6204337 108.8790343 110.1097972
 100.9267808 108.4644296 109.5967927 102.3677328 108.9210880 109.5131391
 117.7569558  99.6696530 104.9753007 117.1768227 100.3281334 104.5931059
 117.4905490  98.8473875 104.5640424 116.2073124  99.0701588 107.1774327
 116.7072903  99.1818123 106.3688646 116.8508732  98.7662641 107.8175135
 103.5341080 108.8108597 107.9863987 103.5111768 108.9096285 107.0345870
 103.8441716 109.6573748 108.3081153 106.1928457 110.8684752 112.1010602
 107.1471711 110.8368695 112.0340533 105.9940981 110.4075376 112.9160828
 116.5394436 101.8296621 104.0309355 115.6520291 102.1146271 103.8129550
 116.9548425 101.6690384 103.1836632 119.8908972 101.8543142 107.7463694
 120.6669362 102.3439594 108.0188311 119.1657106 102.2801196 108.2035564
 122.3281531 102.5670761 108.8037635 122.9226021 102.3266497 108.0930943
 122.4008114 101.8477891 109.4311171 104.5478686 116.4104372 109.1180799
 104.4133154 115.6504773 108.5518798 104.1310749 117.1345272 108.6509588
 115.6837649 111.5941295  98.1257375 116.3873499 111.7991298  98.7415030
 114.9600298 112.1618057  98.3906458 116.5135460 107.3451157 104.2459645
 116.4570661 107.8019708 103.4067277 117.0663802 106.5841841 104.0682488
 120.3240265 103.1340888 105.0709764 120.0677200 102.7337524 105.9017972
 119.6993133 103.8484682 104.9459904 124.6352603 105.8736962 107.5781056
 124.0752161 105.9430151 108.3512618 124.0296107 105.6977946 106.8580552
 117.5924347 112.0323825 100.1755835 118.4269951 111.6005023  99.9933310
 117.4308690 111.8605838 101.1032729 117.2470239 108.5355938 101.5412174
 117.1919043 108.3700209 100.6000618 116.6216294 109.2431971 101.6974364
 102.0362754 103.7724002 115.3673596 102.6821617 103.2622956 115.8560822
 101.8279905 104.5092684 115.9417022 110.5566364  98.0364047 101.1197493
 110.5445034  98.9805887 101.2765763 111.4489786  97.8534192 100.8256954
 114.3718484  94.6306823 105.3743429 113.6050880  94.0765310 105.5200112
 114.7829189  94.7028692 106.2357581 120.7306607 121.2709151  99.5389476
 120.9832128 120.7490672  98.7772939 119.7931167 121.1075297  99.6416160
 122.4339924 117.6637304 100.4421889 122.6014326 118.5317540 100.8092360
 122.2437093 117.8264586  99.5183178 119.0538202 118.4861372 100.6890787
 118.2175514 118.8236058 101.0100062 118.9142972 118.3510352  99.7517924
 121.0291283 113.3298160 105.3969972 120.3755695 113.0147177 104.7726586
 120.9871757 112.7073900 106.1229794 122.1402487 123.6117455  97.3123264
 121.2329549 123.3806708  97.5114413 122.6373519 122.8155074  97.4997245
 116.3825117 120.9599598 103.5003408 115.4522705 120.8984053 103.7173370
 116.4782589 120.4375550 102.7040049 118.9276582 118.3308599  97.8888694
 118.0506049 118.2097400  97.5250941 119.4034335 117.5394678  97.6367583
 113.6555276 119.9250454 103.3301600 113.9508717 119.0161133 103.2768654
 112.7543312 119.9038194 103.0082602 115.3843118 117.6064552 103.4540925
 115.0555824 116.7261931 103.2716031 115.7382488 117.5512221 104.3417314
 120.4853088 116.3912144 102.0209695 121.2061450 116.7693396 101.5173412
 119.8618392 117.1101020 102.1244673 120.6316711 115.9259934 104.8507232
 120.7532622 114.9976580 105.0498120 120.3418753 115.9398620 103.9385547
 116.6295051 119.2707602 101.4470350 115.9364295 119.3451957 100.7910386
 116.3846802 118.5067946 101.9691866 123.4888974 121.3423010  97.7550919
 124.4348079 121.2129218  97.8239337 123.1103219 120.6037672  98.2320347
 121.6731891 119.2672986  97.6905804 120.7663347 118.9706099  97.7668518
 121.9507872 118.9702804  96.8240091 123.2893957 113.8109876 103.8450046
 122.4794685 113.4656961 104.2205292 123.9778374 113.5017420 104.4337657
 120.4430676 116.1259921  97.8317784 121.3049840 116.4514820  98.0913601
 120.6281020 115.3391417  97.3190849 121.3960119 113.3655965 101.1197493
 121.3838789 114.3097804 101.2765763 122.2883541 113.1826110 100.8256954
 125.2112238 109.9598741 105.3743429 124.4444634 109.4057228 105.5200112
 125.6222943 110.0320610 106.2357581  50.3452342  -7.7487825  96.9956318
  50.9830752  -7.8681078  96.2919658  50.2273184  -6.8006982  97.0544270
  47.1542048  -7.7960397  96.9317843  46.8160559  -7.9119333  96.0438378
  48.0231816  -8.1969232  96.9118849  43.0128864  -5.9424921  92.9214734
  42.4493729  -6.0334984  92.1531022  42.8981259  -6.7625017  93.4017226
  40.5593296  -4.4473729  95.7598954  41.3514587  -4.7882905  95.3445254
  40.7989946  -4.3378754  96.6801108  48.5928422  -2.2753953  88.2329199
  47.9416402  -1.6899873  87.8463213  49.3872785  -1.7447758  88.2924236
  42.5184049  -5.1864816  88.6316333  43.2914925  -5.7335829  88.4929209
  42.8709448  -4.3220567  88.8430794  45.2825299  -6.4811585  98.4284592
  45.8788871  -6.7055563  97.7141555  45.3400270  -7.2226840  99.0310040
  44.8550327  -9.0272150  86.2634783  45.1075848  -9.5490629  85.5018246
  43.9174886  -9.1906005  86.3661467  50.0703687  -4.5863521  88.7698183
  49.4349520  -4.5128895  89.4819088  49.7401094  -3.9969923  88.0917262
  44.5746616  -7.1244044  88.4659158  44.4582874  -7.7999141  89.1340242
  44.6848876  -7.6111670  87.6491311  46.9178157  -7.6633897  92.1705847
  46.5536364  -8.1903276  92.8818769  47.7745273  -8.0535428  91.9972333
  49.3158977  -4.1727018  98.8333026  49.0159700  -3.2701980  98.7248833
  48.9710037  -4.4394835  99.6854179  42.7671459  -7.7213222  94.8669731
  41.8421955  -7.8537007  95.0747422  43.0155872  -6.9419002  95.3639673
  46.5372865 -10.1786340  88.1513863  46.4172490  -9.7329289  88.9899343
  45.8425453  -9.8301022  87.5927401  44.2979757   2.5917302  91.8003994
  44.2203787   3.5425127  91.8792474  43.6941400   2.2463174  92.4578920
  50.8427513  -4.7239048  96.3707778  50.2136376  -4.5593334  95.6683846
  50.4553175  -4.3097439  97.1418742  54.7216745  -3.7884610  93.7252142
  54.0367783  -3.4085709  93.1749175  54.8060594  -3.1789284  94.4584090
  51.9767677  -6.1424651 100.3247485  52.1884572  -5.4992891  99.6481866
  51.9297425  -6.9762335  99.8569415  46.3955475  -4.9864640  93.6357863
  46.8593821  -4.7076937  92.8462486  46.1312273  -5.8881195  93.4530954
  43.2879556  -5.4393158  96.5737626  43.8580913  -5.0105890  95.9355111
  43.8787668  -5.7210574  97.2721812  45.3324361  -8.8641488  90.4447428
  46.0348405  -8.4120444  90.9121355  45.0004990  -9.5057669  91.0727321
  53.0913505  -3.2652696  98.4969843  53.9130948  -3.6672509  98.2152524
  53.0875908  -3.3684462  99.4485958  46.8570108  -3.7168653 100.6530553
  46.9214541  -3.2548245 101.4888725  46.1481032  -4.3471288 100.7812863
  46.5718126  -2.0500545  90.5209534  46.4363801  -1.2049009  90.9494381
  47.1127938  -1.8481267  89.7575467  40.0247523  -4.5325107  91.0937459
  40.5372044  -3.7381857  91.2443023  40.6770236  -5.2298817  91.0271060
  41.8342408  -1.4159351  93.1760212  42.0109036  -0.4941386  92.9881196
  42.6299241  -1.7300932  93.6054592  42.9573723   0.1018823  99.1770554
  43.5081148  -0.0264114  98.4047548  42.1185199   0.4013712  98.8265447
  50.2967840  -1.1474179 102.6791277  50.2786316  -0.3265298 102.1871546
  51.2187760  -1.2720103 102.9041418  49.8860872  -8.5361372  87.5580862
  49.3707496  -7.7656767  87.7969249  49.6138181  -9.2096236  88.1813924
  54.8595146  -5.7829017  89.4934036  54.0824589  -6.1217858  89.0489198
  55.5386627  -5.7776394  88.8189001  48.1193607  -4.5044057  91.0333597
  47.5914969  -5.2391297  90.7206835  47.6181110  -3.7269380  90.7873566
  53.0986453  -6.3095036  96.1500644  52.4410128  -5.6195775  96.2380772
  53.9026852  -5.9198604  96.4934630  51.9091912  -7.9550663  94.2004585
  52.4223794  -7.3220672  94.7026295  52.5593136  -8.5549468  93.8347945
  46.2646207  -6.6863846  84.0368570  45.3573269  -6.9174593  84.2359719
  46.7617239  -7.4826227  84.2242552  49.1714286   2.0233661  86.9565256
  48.4975985   2.3265358  87.5650214  49.5580108   2.8262741  86.6070713
  48.3872743 -10.4801208  96.4462926  47.4695304 -10.2586261  96.2884614
  48.8032886 -10.4054897  95.5874633  49.1707791  -9.0809792  91.5765606
  49.9179610  -8.5688395  91.2672728  49.4399380  -9.4025740  92.4370000
  47.4434441  -6.5851252  88.5592560  46.5345660  -6.8692219  88.6565030
  47.4729525  -6.1652173  87.6995867  52.6753708  -2.9744662  92.3283728
  52.2216035  -3.8153752  92.3848918  52.0447675  -2.3383264  92.6658508
  51.1186647  -1.1368165  93.2633546  51.4109622  -0.5763108  92.5445912
  51.6285268  -0.8439604  94.0186705  45.9919335  -8.9722631  94.6602356
  46.0467945  -9.9248795  94.5844832  45.1810537  -8.8163192  95.1443654
  47.1410529  -5.0442508  85.8980639  46.7029958  -5.7606649  85.4386276
  47.8820969  -4.8166393  85.3365730  46.0820273  -0.3587814  94.3526999
  46.0396451  -0.1326968  93.4235531  46.9982971  -0.5924440  94.5012800
  55.2583643  -6.7685311  91.9556958  55.1201542  -6.5783715  91.0278147
  54.9019862  -6.0065928  92.4125009  55.2853023  -4.7008784  96.9668229
  55.7189530  -4.7933495  97.8151283  55.9984604  -4.7251283  96.3288245
  44.1986073  -3.4824785  94.1488962  44.9926672  -3.9774465  93.9471537
  43.4877766  -4.0106922  93.7856668  49.0180918  -1.1006690  98.5001330
  49.0717940  -0.5315753  99.2679046  48.1495699  -0.9304805  98.1355367
  56.1468572  -4.6585083  99.5001114  56.3404463  -3.7539273  99.7460389
  56.0469191  -5.1177664 100.3339699  47.9769018  -6.9346428 100.0588261
  48.9061078  -6.7835268  99.8857229  47.5560048  -6.8462407  99.2036908
  46.7757349  -2.9095763  97.8286799  46.6368435  -3.2776979  98.7012737
  45.9871946  -2.3948124  97.6570757  47.3705501   2.1913333  89.1712336
  47.5457257   1.7201376  89.9857958  46.6838289   2.8179099  89.3993596
  48.3262565  -3.5314161  95.2175637  47.9912397  -3.5713391  96.1133287
  47.8266510  -4.1969445  94.7446047  51.2621756  -6.1858126  85.4912697
  50.6450927  -6.9111298  85.3945749  50.7938245  -5.4248766  85.1479771
  52.9175888  -1.4759218 103.1518477  52.8588434  -2.1599998 102.4849060
  53.3195406  -0.7340228 102.6999103  41.9366587   5.3402696  95.9452196
  42.1763185   5.9721220  96.6231214  41.0935783   4.9890736  96.2317555
  52.9193295  -3.5119634 101.3832457  52.0320074  -3.8493712 101.5058855
  53.4891846  -4.2436603 101.6201222  46.4494448   1.1481818  98.3493700
  46.3764620   1.9536790  98.8613004  46.0071842   1.3473784  97.5241721
  46.2384228   0.3853588  91.8596521  45.4551750   0.9275269  91.9534746
  46.9376973   0.9027568  92.2590762  48.9093132   1.0468652 100.5051858
  49.6221104   1.6816117 100.4327760  48.4183161   1.1432518  99.6891860
  50.6310659  -5.0480095  92.0769150  49.6966938  -4.9278632  91.9073854
  50.8087327  -5.9507628  91.8129160  43.9605046  -1.2036904 101.3257429
  44.6614505  -0.5700421 101.4786823  43.4900161  -0.8622173 100.5653069
  52.0859441  -2.8618954  89.6105336  52.3619285  -2.9762360  90.5199210
  51.2163940  -3.2601469  89.5717509  51.7606331  -8.6492297  99.1509980
  51.1077782  -8.4016389  98.4962432  52.1386711  -9.4628158  98.8172457
  48.7213505   1.3867397  93.2538150  48.9035900   0.5689052  93.7165902
  49.5446491   1.6035089  92.8163040  49.0555671   0.3135582  90.5153198
  49.5843437  -0.1971964  89.9023360  49.3183890  -0.0021888  91.3798731
  39.5572764  -1.6700549  98.2588532  40.1426200  -2.4156861  98.3916436
  39.3597602  -1.3596592  99.1425196  42.4111419   1.3650698  93.2750974
  41.7421794   1.8496826  92.7915014  42.2724289   1.6119919  94.1894353
  46.5516687   3.3994442  99.8733633  47.1034995   3.5626063 100.6382718
  46.8922881   3.9898880  99.2013658  49.6885075   1.3476417  96.8597315
  49.5636214   0.5466157  96.3508260  50.3464166   1.8422611  96.3711285
  51.7519983  -0.8514562  98.4876865  50.8050319  -0.9709211  98.4155192
  52.1002756  -1.7392064  98.5703126  48.7566416  -1.0561846  94.6881217
  48.6091379  -1.9845139  94.8688787  49.5819910  -1.0341756  94.2038292
  52.3600538  -0.2333288  95.7746090  53.2847086  -0.4390426  95.6370541
  52.1915842  -0.4816886  96.6835431  52.1495854   0.2852380  91.1308181
  52.3232732  -0.2801198  90.3782034  52.6424746   1.0853275  90.9487671
  53.1371027  -0.3980856  88.2305080  53.8321932   0.2225837  88.4492394
  53.4794177  -1.2485504  88.5057458  55.0362450  -2.9481150  89.7592410
  55.5613774  -2.6093877  89.0341730  54.9484803  -3.8834135  89.5755545
  46.6982499   0.9652923 101.8882287  47.0069625   0.7202070 102.7604987
  47.4957981   1.1699562 101.4001157  46.7203111   3.1190833  94.1187664
  46.2808101   2.6267212  94.8120520  47.4711228   2.5763801  93.8779739
  39.1995450  -0.6897626  94.1212292  40.0253470  -0.9893854  93.7410935
  38.8489502  -1.4590004  94.5702080  44.1676983  -1.3371158  96.1909965
  43.5456992  -2.0000453  95.8912193  44.8381850  -1.3110026  95.5083613
  37.4004055  -2.7711300  95.0801225  36.5635963  -3.1989125  94.8985227
  37.3727700  -2.5778856  96.0172016  54.7256356  -2.3148247 105.0643608
  53.9351900  -2.3324108 104.5248108  54.4889711  -1.7759953 105.8192645
  54.8454231  -5.4655780 102.3776337  54.8952236  -5.6305773 103.3191860
  54.7368154  -6.3328521 101.9874218  43.7290490  -2.7867234  89.6668426
  43.8778610  -2.1031770  89.0135099  44.5356933  -2.8062144  90.1817882
  56.3472428  -3.0458839 102.6218358  56.0557236  -2.6828858 103.4581819
  55.7344559  -3.7591830 102.4431691  57.5468110  -5.4805959  95.1420929
  58.3815002  -5.0416155  95.3058489  57.6827239  -5.9567306  94.3229174
  54.5959616  -7.9226224 101.0898416  55.0713738  -7.7298578 100.2817268
  53.6725182  -7.8667038 100.8441800  41.4843123  -6.7602057  90.6729495
  41.2389165  -7.6639727  90.8709705  41.6539037  -6.7584906  89.7308973
  47.2285895  -0.2919104  87.1380173  46.6559862   0.3271083  86.6850645
  47.8018689   0.2580258  87.6720095  50.4483155  -0.0081954  88.2688756
  51.3813828  -0.0736392  88.4721631  50.3606368   0.8274313  87.8103288
  53.0771172  -0.6916084  85.2292703  52.9984803  -1.0256220  86.1228461
  53.8980839  -0.1994316  85.2284175  47.6132694  -8.9558291  84.4796226
  48.5591799  -9.0852083  84.5484644  47.2346939  -9.6943629  84.9565654
  38.4978554  -6.1580786  94.7109294  38.4749242  -6.0593099  93.7591177
  38.8079190  -5.3115635  95.0326460  39.5116161   1.4414988  95.8426106
  39.3770629   0.6815389  95.2764104  39.0948223   2.1655888  95.3754895
  50.6475124  -3.3748088  84.8502681  51.3510974  -3.1698086  85.4660337
  49.9237772  -2.8071326  85.1151765  51.4772934  -7.6238227  90.9704952
  51.4208135  -7.1669675  90.1312584  52.0301276  -8.3847542  90.7927794
  42.6685286   2.3384305  96.0544549  42.5517671   3.2829738  95.9523239
  41.8477733   2.0357867  96.4430348  52.5561821  -2.9365559  86.9001141
  53.3907425  -3.3684360  86.7178616  52.3946164  -3.1083545  87.8278036
  52.2107713  -6.4333446  88.2657481  52.1556517  -6.5989174  87.3245925
  51.5853768  -5.7257413  88.4219670  43.6939801   2.9912567  99.2700477
  44.5967047   3.0236178  99.5866972  43.4677171   2.0613018  99.2846813
  45.4493403   1.7443554  95.9310556  44.4989034   1.7445415  95.8174928
  45.7525889   0.9976288  95.4146590  61.1846096   7.5804092  96.9956318
  61.8224506   7.4610840  96.2919658  61.0666939   8.5284936  97.0544270
  57.9935802   7.5331520  96.9317843  57.6554314   7.4172585  96.0438378
  58.8625571   7.1322685  96.9118849  53.8522618   9.3866997  92.9214734
  53.2887483   9.2956934  92.1531022  53.7375013   8.5666901  93.4017226
  58.4755585   8.6866372 102.8904048  58.4644226   8.2919170 102.0184552
  58.6376225   7.9532445 103.4837820  51.3987050  10.8818188  95.7598954
  52.1908342  10.5409013  95.3445254  51.6383700  10.9913163  96.6801108
  59.4322177  13.0537964  88.2329199  58.7810157  13.6392045  87.8463213
  60.2266540  13.5844159  88.2924236  53.3577804  10.1427102  88.6316333
  54.1308680   9.5956089  88.4929209  53.7103203  11.0071351  88.8430794
  55.1962846  11.4703484 101.8383232  54.9052712  12.3749115 101.7229899
  55.8319831  11.5120011 102.5527302  56.1219053   8.8480332  98.4284592
  56.7182626   8.6236355  97.7141555  56.1794025   8.1065078  99.0310040
  55.6944082   6.3019768  86.2634783  55.9469602   5.7801289  85.5018246
  54.7568641   6.1385913  86.3661467  60.7387365   5.3055546  94.0709526
  61.5250454   4.8874969  93.7199943  61.0026069   6.2101638  94.2391175
  60.9097442  10.7428396  88.7698183  60.2743275  10.8163023  89.4819088
  60.5794848  11.3321995  88.0917262  66.1395792   5.2430779  94.9742505
  66.8720964   4.6729996  95.2080334  65.3835147   4.8552380  95.4149010
  55.4140370   8.2047874  88.4659158  55.2976629   7.5292777  89.1340242
  55.5242630   7.7180248  87.6491311  57.7571911   7.6658021  92.1705847
  57.3930119   7.1388642  92.8818769  58.6139027   7.2756490  91.9972333
  63.6621212  -1.0447647  99.4337113  63.3304537  -0.1752236  99.2098328
  63.0666825  -1.3611363 100.1131144  57.3977398   2.6947920  87.1667196
  57.5651801   3.5628157  87.5337667  57.2074567   2.8575202  86.2428485
  60.1552732  11.1564899  98.8333026  59.8553455  12.0589938  98.7248833
  59.8103791  10.8897083  99.6854179  53.6065213   7.6078696  94.8669731
  52.6815710   7.4754910  95.0747422  53.8549626   8.3872915  95.3639673
  63.5549875   3.6747440  96.5130463  62.6466753   3.6062848  96.2189224
  63.5037471   4.1519384  97.3412289  57.3766619   5.1505578  88.1513863
  57.2566244   5.5962629  88.9899343  56.6819208   5.4990896  87.5927401
  50.9674024   7.2511970  95.7013520  51.0966405   7.5046449  96.6152931
  50.2871475   7.8439678  95.3818175  55.1373511  17.9209220  91.8003994
  55.0597541  18.8717045  91.8792474  54.5335155  17.5755092  92.4578920
  57.6290741   5.0937085 104.4565361  56.8524075   5.6531005 104.4468225
  58.2681304   5.5793868 104.9780231  65.4211522   1.8763878  98.2908337
  64.7785902   2.1696411  97.6448132  64.9166450   1.7616798  99.0961534
  63.0751685   5.6227051  88.9794197  63.9869542   5.8554438  88.8041894
  62.5661333   6.2064095  88.4169275  55.8837113   7.9022538 104.0183328
  56.6251798   8.4407582 103.7418151  55.1774099   8.5288827 104.1754879
  61.3592453  10.0451679 102.6155489  61.7675809   9.6034089 101.8710122
  60.6369715   9.4704306 102.8689682  57.7123523   4.9824286  99.9889046
  58.5584718   5.4063699 100.1323695  57.6522161   4.3257910 100.6827609
  61.6821268  10.6052870  96.3707778  61.0530130  10.7698584  95.6683846
  61.2946930  11.0194479  97.1418742  65.5610500  11.5407307  93.7252142
  64.8761538  11.9206209  93.1749175  65.6454349  12.1502634  94.4584090
  60.8622968   2.6428654 101.6470220  60.6183900   3.3970715 101.1104495
  61.1382899   3.0214002 102.4817467  62.8161431   9.1867266 100.3247485
  63.0278326   9.8299026  99.6481866  62.7691179   8.3529583  99.8569415
  60.4187660   1.7985087  97.2284057  59.5572139   2.0966341  97.5200795
  60.4450095   2.0155486  96.2965090  57.2349230  10.3427278  93.6357863
  57.6987575  10.6214981  92.8462486  56.9706028   9.4410722  93.4530954
  54.1273311   9.8898759  96.5737626  54.6974668  10.3186028  95.9355111
  54.7181423   9.6081344  97.2721812  56.1718116   6.4650430  90.4447428
  56.8742159   6.9171474  90.9121355  55.8398744   5.8234249  91.0727321
  54.6198477   5.0562187 104.8198638  53.9897138   5.7378467 105.0534034
  54.5134565   4.9445268 103.8751776  49.9143450   4.7233983  95.7464562
  49.1242504   4.9791511  95.2704672  50.4054697   5.5382321  95.8516602
  63.9307259  12.0639222  98.4969843  64.7524703  11.6619409  98.2152524
  63.9269662  11.9607456  99.4485958  51.8658195   5.0878562  92.7048039
  51.0689358   5.1997256  93.2231534  51.6383787   5.4265214  91.8388929
  57.6963863  11.6123265 100.6530553  57.7608295  12.0743672 101.4888725
  56.9874787  10.9820630 100.7812863  48.1981153   4.9764473  98.1779553
  48.4489191   5.8611483  98.4437129  48.7340701   4.7969075  97.4054644
  72.0213252   8.4077970  94.8454814  71.2676961   7.8385368  94.6898819
  72.1560793   8.3740635  95.7925449  57.4111880  13.2791373  90.5209534
  57.2757555  14.1242908  90.9494381  57.9521693  13.4810650  89.7575467
  50.8641278  10.7966811  91.0937459  51.3765798  11.5910061  91.2443023
  51.5163991  10.0993101  91.0271060  52.6736162  13.9132567  93.1760212
  52.8502791  14.8350532  92.9881196  53.4692996  13.5990986  93.6054592
  56.8147181   0.7740832 104.7744145  57.5556894   1.3747985 104.6948608
  57.0465104   0.0318469 104.2162188  51.9588519   5.9597199 103.0522375
  51.8442034   5.0582456 103.3529474  51.1033037   6.2060896 102.7007192
  59.0380357  13.9014939 104.6509876  58.5944211  13.1151318 104.3330780
  59.6997570  14.0894090 103.9853766  53.7967478  15.4310741  99.1770554
  54.3474903  15.3027804  98.4047548  52.9578954  15.7305630  98.8265447
  61.1361595  14.1817739 102.6791277  61.1180070  15.0026620 102.1871546
  62.0581515  14.0571814 102.9041418  57.5934649  11.6961869 103.5214785
  58.1262986  10.9350157 103.2914093  57.0648730  11.4035520 104.2638940
  60.7604344  -3.1978065  99.0508427  60.4168613  -2.3076424  98.9747538
  61.1283306  -3.3876408  98.1878012  48.8290194   9.1255465  91.8697029
  49.6665416   9.5352473  91.6530737  49.0068462   8.1854907  91.8397223
  60.7254627   6.7930546  87.5580862  60.2101250   7.5635150  87.7969249
  60.4531935   6.1195682  88.1813924  58.3101738   1.6380246  92.6166100
  57.4543334   1.2487097  92.4371739  58.7228689   1.7172207  91.7565886
  59.8400884  -0.8273410  97.0157660  59.3365680  -0.8643275  96.2025466
  60.1331491   0.0819332  97.0754317  56.0843770  -0.7434681  96.0223842
  56.9496767  -0.9391872  95.6629731  56.1521279  -0.9724329  96.9493199
  65.6988901   9.5462900  89.4934036  64.9218343   9.2074060  89.0489198
  66.3780382   9.5515523  88.8189001  60.5140930   4.6657638  89.3840643
  60.2091065   4.9803787  90.2350786  61.4671372   4.7439058  89.4267976
  58.9587362  10.8247861  91.0333597  58.4308723  10.0900621  90.7206835
  58.4574864  11.6022537  90.7873566  63.9380208   9.0196882  96.1500644
  63.2803882   9.7096143  96.2380772  64.7420607   9.4093313  96.4934630
  53.6906089   1.4867527  93.3940209  54.2649841   1.2642709  92.6613402
  54.2777072   1.5556222  94.1468810  62.7485666   7.3741254  94.2004585
  63.2617548   8.0071246  94.7026295  63.3986890   6.7742450  93.8347945
  54.0175676   3.5171988  87.4136094  53.1812989   3.8546675  87.7345369
  53.8780446   3.3820968  86.4763231  55.9928757  -1.6391224  92.1215278
  55.3393169  -1.9542207  91.4971893  55.9509231  -2.2615483  92.8475101
  57.1039962   8.6428071  84.0368570  56.1967024   8.4117325  84.2359719
  57.6010994   7.8465691  84.2242552  60.0108041  17.3525578  86.9565256
  59.3369739  17.6557275  87.5650214  60.3973863  18.1554659  86.6070713
  59.2266497   4.8490710  96.4462926  58.3089059   5.0705657  96.2884614
  59.6426641   4.9237020  95.5874633  60.0101545   6.2482125  91.5765606
  60.7573364   6.7603523  91.2672728  60.2793135   5.9266178  92.4370000
  58.2828195   8.7440666  88.5592560  57.3739414   8.4599699  88.6565030
  58.3123279   9.1639745  87.6995867  63.5147463  12.3547256  92.3283728
  63.0609790  11.5138166  92.3848918  62.8841429  12.9908654  92.6658508
  62.4580382   3.2839242  93.5584395  61.7203139   2.7716628  93.8894638
  62.7107156   2.8439623  92.7467672  61.9580402  14.1923752  93.2633546
  62.2503376  14.7528809  92.5445912  62.4679022  14.4852313  94.0186705
  62.5592010  -3.9384506  94.1526165  62.8650886  -4.7987143  93.8652080
  63.2844614  -3.3466886  93.9525159  48.8516366   6.4646180  92.5407763
  48.6540765   5.8715541  91.8158829  48.2963030   6.1598390  93.2583701
  56.8313089   6.3569287  94.6602356  56.8861699   5.4043123  94.5844832
  56.0204291   6.5128726  95.1443654  57.9804283  10.2849410  85.8980639
  57.5423713   9.5685269  85.4386276  58.7214724  10.5125525  85.3365730
  54.7705449   4.9746347  92.4192735  53.9573315   5.2740517  92.8257927
  55.2664443   4.5802035  93.1367217  56.9214027  14.9704103  94.3526999
  56.8790206  15.1964950  93.4235531  57.8376726  14.7367478  94.5012800
  60.3679661   5.4388171 101.2507628  60.7229049   5.6659644 102.1102094
  61.0151792   5.7706548 100.6284884  66.0977398   8.5606607  91.9556958
  65.9595296   8.7508203  91.0278147  65.7413617   9.3225990  92.4125009
  54.2619524   2.5464702  98.0353970  54.9018903   2.4053461  97.3376933
  53.4297054   2.2599215  97.6592572  66.1246777  10.6283134  96.9668229
  66.5583284  10.5358423  97.8151283  66.8378358  10.6040634  96.3288245
  55.0379828  11.8467132  94.1488962  55.8320426  11.3517453  93.9471537
  54.3271520  11.3184996  93.7856668  59.8574672  14.2285228  98.5001330
  59.9111695  14.7976164  99.2679046  58.9889454  14.3987113  98.1355367
  51.3462591   5.9910214  90.2248715  50.4160179   5.9294670  90.4418677
  51.4420063   5.4686167  89.4285356  51.2648140   2.5165027  92.8126956
  51.5254958   3.4310360  92.7036117  52.0865313   2.0489470  92.9623569
  52.7373066   3.9302784  99.9825781  53.4096119   3.7220146  99.3338430
  51.9102852   3.7324870  99.5431013  66.9862327  10.6706835  99.5001114
  67.1798217  11.5752645  99.7460389  66.8862945  10.2114254 100.3339699
  58.6398638   0.5564725 101.9991442  57.9926553   1.2554675 101.9055918
  59.4099653   0.9900869 102.3667690  62.0477436  10.8213577 105.0741995
  61.8962942  10.5924129 104.1572079  62.0382115  11.7784179 105.0873340
  58.8162772   8.3945490 100.0588261  59.7454832   8.5456650  99.8857229
  58.3953802   8.4829511  99.2036908  57.6151104  12.4196154  97.8286799
  57.4762190  12.0514939  98.7012737  56.8265700  12.9343794  97.6570757
  58.2099256  17.5205251  89.1712336  58.3851012  17.0493294  89.9857958
  57.5232044  18.1471017  89.3993596  59.1656319  11.7977757  95.2175637
  58.8306152  11.7578527  96.1133287  58.6660265  11.1322473  94.7446047
  53.1400563   7.2045387 100.7428218  53.0020361   6.4725626 101.3439757
  54.0505486   7.1154287 100.4612406  62.1015511   9.1433791  85.4912697
  61.4844681   8.4180620  85.3945749  61.6331999   9.9043152  85.1479771
  55.7682864   6.9165346 100.2311898  56.4782482   6.2758539 100.1898516
  55.7252172   7.1678241 101.1538078  63.7569642  13.8532700 103.1518477
  63.6982188  13.1691920 102.4849060  64.1589161  14.5951690 102.6999103
  54.4811798   3.9030564 102.0507537  53.9449155   3.4521303 102.7029133
  53.8928506   4.0376473 101.3078002  52.7760341  20.6694614  95.9452196
  53.0156939  21.3013138  96.6231214  51.9329538  20.3182654  96.2317555
  53.8914057   3.3619216  84.6134001  53.0143523   3.2408017  84.2496247
  54.3671810   2.5705294  84.3612889  63.7587050  11.8172284 101.3832457
  62.8713828  11.4798206 101.5058855  64.3285601  11.0855315 101.6201222
  45.4116197   8.1496376  94.7075508  46.0987237   7.8358106  94.1196523
  45.2564325   9.0537740  94.4342759  50.2150919   3.0386572  99.1360532
  50.1309108   2.4312242  98.4010942  49.3933625   3.5295590  99.1370028
  57.2888203  16.4773736  98.3493700  57.2158374  17.2828708  98.8613004
  56.8465596  16.6765702  97.5241721  57.0777983  15.7145506  91.8596521
  56.2945504  16.2567186  91.9534746  57.7770728  16.2319486  92.2590762
  60.3874633   1.5240136  94.5030727  60.8843332   0.7710098  94.1831797
  59.6161614   1.5604452  93.9373936  68.2404390   7.2280501  96.1449018
  68.2294266   8.1105217  95.7742951  67.3721770   6.8752052  95.9503555
  59.7486886  16.3760570 100.5051858  60.4614859  17.0108035 100.4327760
  59.2576915  16.4724436  99.6891860  61.4704413  10.2811823  92.0769150
  60.5360692  10.4013285  91.9073854  61.6481082   9.3784290  91.8129160
  56.9709601   3.6657519  94.2302411  56.6007389   3.1128559  94.9183317
  57.4668694   3.0615652  93.6777411  64.8576965   6.1229142  92.6119184
  65.3237417   6.9557134  92.5379487  65.3084465   5.6574124  93.3164443
  54.7998800  14.1255014 101.3257429  55.5008260  14.7591497 101.4786823
  54.3293915  14.4669745 100.5653069  62.9253196  12.4672963  89.6105336
  63.2013040  12.3529558  90.5199210  62.0557695  12.0690448  89.5717509
  62.8293627  -1.5090271  96.6510086  61.9156707  -1.2786044  96.8192293
  63.2586729  -1.4251827  97.5024118  62.6000086   6.6799621  99.1509980
  61.9471536   6.9275529  98.4962432  62.9780466   5.8663759  98.8172457
  59.5607260  16.7159314  93.2538150  59.7429654  15.8980970  93.7165902
  60.3840246  16.9327006  92.8163040  59.8949425  15.6427499  90.5153198
  60.4237192  15.1319954  89.9023360  60.1577645  15.3270030  91.3798731
  58.6487659   7.4219432 105.6376017  57.9728296   7.3213561 106.3078392
  59.4715293   7.2658646 106.1012014  50.3966518  13.6591369  98.2588532
  50.9819955  12.9135057  98.3916436  50.1991357  13.9695325  99.1425196
  53.2505173  16.6942616  93.2750974  52.5815549  17.1788744  92.7915014
  53.1118043  16.9411836  94.1894353  44.9884173   6.2296969  96.9792975
  45.0268272   5.6960560  97.7730093  44.4824466   5.7032174  96.3603952
  57.3910442  18.7286360  99.8733633  57.9428750  18.8917981 100.6382718
  57.7316635  19.3190797  99.2013658  52.3674935   1.0761509 100.4755517
  52.4316262   1.9376340 100.0632915  52.3042055   0.4635511  99.7427876
  51.8427208   3.1484642 104.1228552  52.4699246   2.7661719 104.7366076
  50.9855126   2.9298844 104.4884244  62.2421316  13.5547617 105.7282287
  62.7861220  14.1677575 105.2337242  61.6608161  14.1127195 106.2449300
  48.6192750   4.9561071  90.0546906  48.9146191   4.0471749  90.0013960
  47.7180786   4.9348810  89.7327909  60.5278829  16.6768335  96.8597315
  60.4029969  15.8758075  96.3508260  61.1857920  17.1714528  96.3711285
  52.1486997   3.0317068  96.0374455  51.4273583   3.6453035  95.8981928
  52.9380253   3.5674832  95.9591101  62.5913738  14.4777355  98.4876865
  61.6444073  14.3582706  98.4155192  62.9396511  13.5899853  98.5703126
  54.9513311   0.3671494 102.3115107  55.4747713   0.6133791 103.0741416
  54.7325644   1.1991529 101.8918244  50.3480592   2.6375169  90.1786232
  50.0193298   1.7572548  89.9961338  50.7019963   2.5822837  91.0662621
  59.5960171  14.2730071  94.6881217  59.4485133  13.3446779  94.8688787
  60.4213664  14.2950162  94.2038292  53.4622415   2.9248138  90.5461709
  53.8018488   3.4534060  89.8240318  53.9094536   3.2628545  91.3220276
  63.1994293  15.0958630  95.7746090  64.1240840  14.8901491  95.6370541
  63.0309596  14.8475031  96.6835431  56.1565856   1.3085189  99.9964777
  55.8162676   0.5093002 100.3985457  55.4504862   1.6086900  99.4241611
  56.8082328  -1.6065498  98.4492100  57.6308397  -2.0805020  98.3270991
  57.0520391  -0.8275015  98.9490787  55.4490562   1.4222760  88.7455002
  56.1698925   1.8004013  88.2418719  54.8255866   2.1411637  88.8489980
  59.5921685   2.1267909  89.6813334  59.8085300   3.0092547  89.3802163
  59.1115752   1.7354122  88.9518976  54.3320907   5.0853622  96.2584079
  54.1865487   5.3993925  97.1508361  53.8546110   5.7038523  95.7054978
  56.1917289   2.0756170  96.3064969  56.1778858   1.1797264  95.9697266
  56.9089718   2.0826834  96.9403255  58.0443420   2.5093510  98.3518096
  57.7861198   3.4310581  98.3502426  57.5128461   2.1123945  99.0418560
  62.9889609  15.6144298  91.1308181  63.1626486  15.0490720  90.3782034
  63.4818500  16.4145192  90.9487671  48.8066569   7.6258967  99.1971740
  48.2620037   8.4018775  99.3292014  49.6845919   7.9729771  99.0390862
  55.5954185   0.9570551  91.5752539  55.7170097   0.0287197  91.7743426
  55.3056228   0.9709237  90.6630854  58.4645376  -1.3574539  94.7119259
  58.4867073  -1.2935206  93.7571238  58.8813435  -2.1970030  94.9059765
  68.8429000   8.3780721  92.7498481  69.2860146   7.6288046  92.3517604
  67.9655510   8.3690857  92.3672213  63.9764781  14.9311062  88.2305080
  64.6715686  15.5517755  88.4492394  64.3187932  14.0806413  88.5057458
  49.5932591   6.7528863 102.0901897  48.8514327   6.9011498 102.6766527
  49.2725335   7.0137129 101.2268646  65.8756205  12.3810768  89.7592410
  66.4007529  12.7198040  89.0341730  65.7878557  11.4457783  89.5755545
  57.5376253  16.2944841 101.8882287  57.8463380  16.0493988 102.7604987
  58.3351735  16.4991480 101.4001157  57.5596865  18.4482751  94.1187664
  57.1201856  17.9559129  94.8120520  58.3104982  17.9055718  93.8779739
  50.0389204  14.6394292  94.1212292  50.8647224  14.3398064  93.7410935
  49.6883256  13.8701914  94.5702080  55.0070737  13.9920760  96.1909965
  54.3850747  13.3291465  95.8912193  55.6775604  14.0181892  95.5083613
  48.2397809  12.5580618  95.0801225  47.4029718  12.1302792  94.8985227
  48.2121455  12.7513061  96.0172016  55.0795265   2.4702548 105.7842471
  55.1283420   3.3464671 105.4020241  55.6217779   1.9279941 105.2114115
  65.5650111  13.0143671 105.0643608  64.7745654  12.9967810 104.5248108
  65.3283465  13.5531965 105.8192645  65.6847986   9.8636138 102.3776337
  65.7345991   9.6986145 103.3191860  65.5761909   8.9963397 101.9874218
  54.5684244  12.5424683  89.6668426  54.7172365  13.2260148  89.0135099
  55.3750688  12.5229773  90.1817882  62.9751748   5.8467066 103.6935644
  63.8761611   5.7073530 103.4019641  63.0499723   6.0121520 104.6333821
  57.3094553   3.2233920 102.5388830  56.4397863   3.5167486 102.2671418
  57.5454034   3.8074365 103.2596094  67.1866182  12.2833079 102.6218358
  66.8950991  12.6463060 103.4581819  66.5738314  11.5700087 102.4431691
  68.3861865   9.8485959  95.1420929  69.2208756  10.2875763  95.3058489
  68.5220994   9.3724612  94.3229174  65.4353371   7.4065694 101.0898416
  65.9107492   7.5993340 100.2817268  64.5118936   7.4624880 100.8441800
  52.3236877   8.5689861  90.6729495  52.0782919   7.6652191  90.8709705
  52.4932792   8.5707011  89.7308973  60.0133587  -0.5586463 100.0554250
  60.5315531   0.1774564  99.7300739  59.6588720  -0.2522469 100.8901009
  51.5932525   4.3018218  88.1715656  50.9001770   4.3762573  87.5155692
  51.3484277   3.5378562  88.6937173  60.2646181  -4.1386180  95.5755147
  60.5447935  -4.8062991  96.2015573  61.0496788  -3.9457085  95.0629811
  58.0679650  15.0372814  87.1380173  57.4953617  15.6563001  86.6850645
  58.6412444  15.5872175  87.6720095  64.1355040   4.2831454  99.3226722
  65.0872463   4.3829551  99.3438946  63.9658490   3.4909722  99.8324806
  62.1569419   1.3687037  99.5086123  61.5619351   1.6492050  98.8132612
  61.8719116   1.8580938 100.2802864  61.2876910  15.3209964  88.2688756
  62.2207583  15.2555525  88.4721631  61.2000122  16.1566231  87.8103288
  63.9164926  14.6375834  85.2292703  63.8378558  14.3035698  86.1228461
  64.7374593  15.1297602  85.2284175  66.6143117   7.5037573  98.4369022
  66.5819438   6.5653574  98.6228706  67.2243741   7.5821610  97.7034847
  58.4526448   6.3733626  84.4796226  59.3985553   6.2439835  84.5484644
  58.0740693   5.6348288  84.9565654  66.7637606   4.2948617  98.4827305
  66.2476655   3.5107074  98.2957234  67.6477554   3.9667334  98.6473824
  64.4248333  -1.9610368  94.4423118  64.2273154  -2.2695279  95.3266450
  65.0348038  -1.2348729  94.5721047  72.4319667   8.5653580  97.5775058
  73.1623056   8.3038868  98.1382762  71.8226613   7.8282302  97.6177126
  70.5134964   6.7061443  98.1749510  69.7868128   6.5717408  97.5666001
  70.0982251   7.0138271  98.9806228  58.3365141  10.4251373 105.9396883
  59.2568150  10.6029972 106.1336929  58.3014724   9.4807418 105.7876582
  56.6369365   4.2983603  84.4151111  55.7300821   4.0016716  84.4913825
  56.9145346   4.0013421  83.5485397  47.5547306   5.6189966  94.8650157
  47.2350090   4.7655274  94.5724531  47.0080734   5.8338544  95.6208125
  51.3327213   8.3352407  98.5819664  51.5513223   9.2669515  98.6007698
  51.7452987   7.9760382  99.3674468  58.2531431  -1.1579507  90.5695352
  57.4432160  -1.5032423  90.9450598  58.9415848  -1.4671964  91.1582964
  60.1821980  -2.0801461  92.1919649  60.7353018  -1.6606007  92.8509672
  60.4192066  -3.0065713  92.2342605  56.2055079   3.9085613 107.9722413
  56.1051806   4.8579970 107.9034504  55.9876621   3.5803852 107.0998483
  55.4068150   1.1570538  84.5563090  56.2687314   1.4825436  84.8158907
  55.5918494   0.3702034  84.0436156  47.4235566   9.2392878  96.8343279
  46.7299037   8.8246831  96.3213233  48.1708557   9.2813414  96.2376698
  63.5600787   0.0299064  91.6998313  62.9799456   0.6883869  91.3176366
  63.2936719  -0.7923591  91.2885731  62.0104353  -0.5695878  93.9019633
  62.5104131  -0.4579343  93.0933952  62.6539961  -0.8734825  94.5420442
  56.0686349   7.3382752 106.7887474  55.5853430   8.1383112 106.9951363
  56.1547288   7.3490697 105.8354918  49.3372308   9.1711131  94.7109294
  49.3142997   9.2698819  93.7591177  49.6472945  10.0176282  95.0326460
  51.9959686  11.2287287  98.8255908  52.9502940  11.1971229  98.7585840
  51.7972210  10.7677910  99.6406134  52.5859068   9.7988403 101.3926706
  53.4051957  10.2932481 101.4161543  52.8595876   8.8820371 101.3644273
  62.3425665   2.1899155  90.7554661  61.4551520   2.4748805  90.5374856
  62.7579654   2.0292918  89.9081938  65.6940201   2.2145676  94.4709001
  66.4700591   2.7042128  94.7433617  64.9688335   2.6403730  94.9280870
  68.1312759   2.9273295  95.5282941  68.7257250   2.6869031  94.8176250
  68.2039343   2.2080426  96.1556478  50.3509915  16.7706906  95.8426106
  50.2164383  16.0107307  95.2764104  49.9341977  17.4947806  95.3754895
  61.4868878  11.9543830  84.8502681  62.1904728  12.1593832  85.4660337
  60.7631527  12.5220591  85.1151765  62.3166688   7.7053691  90.9704952
  62.2601890   8.1622242  90.1312584  62.8695031   6.9444375  90.7927794
  66.1271494   3.4943423  91.7955071  65.8708428   3.0940058  92.6263279
  65.5024362   4.2087217  91.6705210  70.4383832   6.2339496  94.3026362
  69.8783390   6.3032685  95.0757925  69.8327335   6.0580481  93.5825859
  53.5079041  17.6676223  96.0544549  53.3911425  18.6121656  95.9523239
  52.6871487  17.3649785  96.4430348  63.3955575  12.3926359  86.9001141
  64.2301179  11.9607557  86.7178616  63.2339918  12.2208372  87.8278036
  63.0501468   8.8958472  88.2657481  62.9950271   8.7302743  87.3245925
  62.4247523   9.6034505  88.4219670  47.8393983   4.1326536 102.0918903
  48.4852846   3.6225490 102.5806128  47.6311134   4.8695218 102.6662328
  60.3647375  11.2007384 107.5911044  61.2338534  11.3748036 107.2297678
  59.8854126  12.0201801 107.4686773  56.3597593  -1.6033419  87.8442799
  56.3476263  -0.6591579  88.0011070  57.2521015  -1.7863274  87.5502260
  54.5333555  18.3204485  99.2700477  55.4360802  18.3528095  99.5866972
  54.3070925  17.3904936  99.2846813  56.2887157  17.0735471  95.9310556
  55.3382788  17.0737333  95.8174928  56.5919643  16.3268206  95.4146590
  60.1749713  -5.0090642  92.0988736  59.4082108  -5.5632156  92.2445418
  60.5860418  -4.9368774  92.9602888  72.0239851  22.9096010  96.9956318
  72.6618261  22.7902757  96.2919658  71.9060693  23.8576854  97.0544270
  68.8329557  22.8623438  96.9317843  68.4948068  22.7464503  96.0438378
  69.7019325  22.4614603  96.9118849  69.3149340  24.0158290 102.8904048
  69.3037981  23.6211088 102.0184552  69.4769979  23.2824362 103.4837820
  62.2380804  26.2110106  95.7598954  63.0302096  25.8700931  95.3445254
  62.4777455  26.3205081  96.6801108  66.0356601  26.7995401 101.8383232
  65.7446467  27.7041032 101.7229899  66.6713585  26.8411929 102.5527302
  66.9612808  24.1772250  98.4284592  67.5576380  23.9528272  97.7141555
  67.0187779  23.4356995  99.0310040  71.5781119  20.6347464  94.0709526
  72.3644208  20.2166887  93.7199943  71.8419823  21.5393556  94.2391175
  76.9789546  20.5722697  94.9742505  77.7114718  20.0021914  95.2080334
  76.2228902  20.1844297  95.4149010  68.5965666  22.9949938  92.1705847
  68.2323873  22.4680559  92.8818769  69.4532782  22.6048407  91.9972333
  74.5014967  14.2844271  99.4337113  74.1698291  15.1539682  99.2098328
  73.9060580  13.9680555 100.1131144  68.2371153  18.0239838  87.1667196
  68.4045555  18.8920075  87.5337667  68.0468322  18.1867120  86.2428485
  70.9946486  26.4856817  98.8333026  70.6947209  27.3881856  98.7248833
  70.6497546  26.2189000  99.6854179  64.4458968  22.9370614  94.8669731
  63.5209464  22.8046828  95.0747422  64.6943381  23.7164833  95.3639673
  74.3943630  19.0039357  96.5130463  73.4860507  18.9354766  96.2189224
  74.3431226  19.4811302  97.3412289  61.8067779  22.5803887  95.7013520
  61.9360160  22.8338366  96.6152931  61.1265230  23.1731595  95.3818175
  68.4684496  20.4229003 104.4565361  67.6917830  20.9822923 104.4468225
  69.1075059  20.9085786 104.9780231  76.2605276  17.2055796  98.2908337
  75.6179657  17.4988329  97.6448132  75.7560205  17.0908716  99.0961534
  73.9145440  20.9518969  88.9794197  74.8263296  21.1846356  88.8041894
  73.4055087  21.5356013  88.4169275  66.7230868  23.2314456 104.0183328
  67.4645552  23.7699500 103.7418151  66.0167853  23.8580745 104.1754879
  72.1986208  25.3743597 102.6155489  72.6069564  24.9326007 101.8710122
  71.4763469  24.7996224 102.8689682  68.5517278  20.3116203  99.9889046
  69.3978473  20.7355617 100.1323695  68.4915915  19.6549828 100.6827609
  72.5215022  25.9344787  96.3707778  71.8923885  26.0990501  95.6683846
  72.1340684  26.3486397  97.1418742  76.4004254  26.8699225  93.7252142
  75.7155292  27.2498126  93.1749175  76.4848103  27.4794552  94.4584090
  71.7016723  17.9720572 101.6470220  71.4577655  18.7262632 101.1104495
  71.9776653  18.3505919 102.4817467  73.6555186  24.5159184 100.3247485
  73.8672081  25.1590944  99.6481866  73.6084934  23.6821501  99.8569415
  71.2581415  17.1277005  97.2284057  70.3965894  17.4258258  97.5200795
  71.2843849  17.3447404  96.2965090  68.0742984  25.6719195  93.6357863
  68.5381330  25.9506898  92.8462486  67.8099782  24.7702640  93.4530954
  64.9667065  25.2190677  96.5737626  65.5368422  25.6477945  95.9355111
  65.5575177  24.9373262  97.2721812  67.0111870  21.7942348  90.4447428
  67.7135914  22.2463391  90.9121355  66.6792499  21.1526167  91.0727321
  65.4592232  20.3854104 104.8198638  64.8290892  21.0670385 105.0534034
  65.3528320  20.2737186 103.8751776  60.7537204  20.0525900  95.7464562
  59.9636258  20.3083429  95.2704672  61.2448451  20.8674238  95.8516602
  74.7701014  27.3931140  98.4969843  75.5918457  26.9911327  98.2152524
  74.7663417  27.2899374  99.4485958  62.7051950  20.4170480  92.7048039
  61.9083113  20.5289174  93.2231534  62.4777542  20.7557132  91.8388929
  68.5357617  26.9415183 100.6530553  68.6002050  27.4035590 101.4888725
  67.8268541  26.3112548 100.7812863  59.0374907  20.3056391  98.1779553
  59.2882946  21.1903401  98.4437129  59.5734456  20.1260992  97.4054644
  82.8607007  23.7369888  94.8454814  82.1070715  23.1677286  94.6898819
  82.9954548  23.7032553  95.7925449  64.7372974  14.6874870 107.1823889
  64.3439920  14.1341069 107.8571533  65.5539115  14.9985449 107.5730406
  67.6540935  16.1032749 104.7744145  68.3950649  16.7039902 104.6948608
  67.8858858  15.3610387 104.2162188  62.7982273  21.2889117 103.0522375
  62.6835789  20.3874374 103.3529474  61.9426791  21.5352813 102.7007192
  69.8774111  29.2306857 104.6509876  69.4337965  28.4443235 104.3330780
  70.5391325  29.4186007 103.9853766  64.6361232  30.7602658  99.1770554
  65.1868657  30.6319722  98.4047548  63.7972708  31.0597547  98.8265447
  71.9755349  29.5109657 102.6791277  71.9573825  30.3318538 102.1871546
  72.8975269  29.3863732 102.9041418  68.4328403  27.0253786 103.5214785
  68.9656740  26.2642074 103.2914093  67.9042484  26.7327438 104.2638940
  71.5998098  12.1313852  99.0508427  71.2562368  13.0215494  98.9747538
  71.9677061  11.9415510  98.1878012  59.6683949  24.4547383  91.8697029
  60.5059171  24.8644391  91.6530737  59.8462217  23.5146825  91.8397223
  69.1495492  16.9672164  92.6166100  68.2937088  16.5779014  92.4371739
  69.5622444  17.0464125  91.7565886  70.6794639  14.5018507  97.0157660
  70.1759434  14.4648643  96.2025466  70.9725246  15.4111250  97.0754317
  66.9237525  14.5857237  96.0223842  67.7890521  14.3900046  95.6629731
  66.9915034  14.3567589  96.9493199  76.5382655  24.8754818  89.4934036
  75.7612098  24.5365977  89.0489198  77.2174136  24.8807441  88.8189001
  71.3534684  19.9949555  89.3840643  71.0484820  20.3095705  90.2350786
  72.3065126  20.0730975  89.4267976  74.7773962  24.3488799  96.1500644
  74.1197637  25.0388061  96.2380772  75.5814361  24.7385231  96.4934630
  64.5299844  16.8159445  93.3940209  65.1043596  16.5934626  92.6613402
  65.1170826  16.8848140  94.1468810  73.5879421  22.7033172  94.2004585
  74.1011303  23.3363164  94.7026295  74.2380645  22.1034367  93.8347945
  66.8322511  13.6900694  92.1215278  66.1786924  13.3749711  91.4971893
  66.7902986  13.0676434  92.8475101  70.0660252  20.1782627  96.4462926
  69.1482813  20.3997574  96.2884614  70.4820395  20.2528938  95.5874633
  70.8495300  21.5774043  91.5765606  71.5967118  22.0895440  91.2672728
  71.1186889  21.2558096  92.4370000  74.3541217  27.6839173  92.3283728
  73.9003544  26.8430083  92.3848918  73.7235184  28.3200572  92.6658508
  73.2974137  18.6131159  93.5584395  72.5596893  18.1008546  93.8894638
  73.5500910  18.1731541  92.7467672  72.7974156  29.5215670  93.2633546
  73.0897131  30.0820727  92.5445912  73.3072777  29.8144231  94.0186705
  73.3985764  11.3907411  94.1526165  73.7044641  10.5304775  93.8652080
  74.1238369  11.9825032  93.9525159  59.6910120  21.7938098  92.5407763
  59.4934520  21.2007459  91.8158829  59.1356784  21.4890308  93.2583701
  67.6706844  21.6861204  94.6602356  67.7255454  20.7335041  94.5844832
  66.8598046  21.8420644  95.1443654  65.6099204  20.3038264  92.4192735
  64.7967069  20.6032435  92.8257927  66.1058198  19.9093953  93.1367217
  67.7607782  30.2996021  94.3526999  67.7183960  30.5256867  93.4235531
  68.6770480  30.0659396  94.5012800  71.2073415  20.7680089 101.2507628
  71.5622803  20.9951562 102.1102094  71.8545547  21.0998465 100.6284884
  76.9371152  23.8898525  91.9556958  76.7989051  24.0800121  91.0278147
  76.5807371  24.6517907  92.4125009  65.1013278  17.8756620  98.0353970
  65.7412658  17.7345379  97.3376933  64.2690809  17.5891133  97.6592572
  76.9640532  25.9575052  96.9668229  77.3977039  25.8650341  97.8151283
  77.6772113  25.9332552  96.3288245  65.8773582  27.1759050  94.1488962
  66.6714181  26.6809370  93.9471537  65.1665275  26.6476913  93.7856668
  70.6968427  29.5577146  98.5001330  70.7505449  30.1268082  99.2679046
  69.8283208  29.7279031  98.1355367  62.1856346  21.3202132  90.2248715
  61.2553934  21.2586587  90.4418677  62.2813818  20.7978085  89.4285356
  62.1041895  17.8456945  92.8126956  62.3648712  18.7602278  92.7036117
  62.9259067  17.3781387  92.9623569  63.5766820  19.2594702  99.9825781
  64.2489874  19.0512064  99.3338430  62.7496607  19.0616788  99.5431013
  77.8256081  25.9998752  99.5001114  78.0191972  26.9044563  99.7460389
  77.7256700  25.5406171 100.3339699  69.4792392  15.8856643 101.9991442
  68.8320307  16.5846592 101.9055918  70.2493408  16.3192787 102.3667690
  72.8871190  26.1505495 105.0741995  72.7356697  25.9216047 104.1572079
  72.8775870  27.1076096 105.0873340  69.6556527  23.7237408 100.0588261
  70.5848587  23.8748567  99.8857229  69.2347557  23.8121428  99.2036908
  68.4544858  27.7488072  97.8286799  68.3155944  27.3806857  98.7012737
  67.6659455  28.2635712  97.6570757  70.0050073  27.1269675  95.2175637
  69.6699906  27.0870445  96.1133287  69.5054019  26.4614391  94.7446047
  63.9794317  22.5337305 100.7428218  63.8414115  21.8017544 101.3439757
  64.8899241  22.4446205 100.4612406  66.6076618  22.2457264 100.2311898
  67.3176237  21.6050456 100.1898516  66.5645926  22.4970159 101.1538078
  74.5963397  29.1824618 103.1518477  74.5375943  28.4983838 102.4849060
  74.9982915  29.9243608 102.6999103  65.3205552  19.2322482 102.0507537
  64.7842909  18.7813221 102.7029133  64.7322261  19.3668391 101.3078002
  63.6154096  35.9986531  95.9452196  63.8550694  36.6305056  96.6231214
  62.7723292  35.6474571  96.2317555  74.5980804  27.1464201 101.3832457
  73.7107583  26.8090123 101.5058855  75.1679355  26.4147233 101.6201222
  56.2509951  23.4788293  94.7075508  56.9380991  23.1650023  94.1196523
  56.0958080  24.3829658  94.4342759  61.0544673  18.3678490  99.1360532
  60.9702862  17.7604159  98.4010942  60.2327380  18.8587508  99.1370028
  68.1281957  31.8065654  98.3493700  68.0552129  32.6120625  98.8613004
  67.6859351  32.0057620  97.5241721  71.2268387  16.8532053  94.5030727
  71.7237087  16.1002016  94.1831797  70.4555369  16.8896370  93.9373936
  79.0798145  22.5572419  96.1449018  79.0688021  23.4397134  95.7742951
  78.2115524  22.2043970  95.9503555  70.5880641  31.7052488 100.5051858
  71.3008613  32.3399953 100.4327760  70.0970670  31.8016354  99.6891860
  67.8103356  18.9949436  94.2302411  67.4401143  18.4420477  94.9183317
  68.3062448  18.3907570  93.6777411  75.6970719  21.4521060  92.6119184
  76.1631171  22.2849051  92.5379487  76.1478220  20.9866041  93.3164443
  65.6392555  29.4546931 101.3257429  66.3402014  30.0883414 101.4786823
  65.1687669  29.7961663 100.5653069  73.6687382  13.8201647  96.6510086
  72.7550462  14.0505874  96.8192293  74.0980483  13.9040091  97.5024118
  73.4393840  22.0091539  99.1509980  72.7865291  22.2567446  98.4962432
  73.8174220  21.1955677  98.8172457  69.4881413  22.7511350 105.6376017
  68.8122051  22.6505479 106.3078392  70.3109047  22.5950564 106.1012014
  61.2360273  28.9883286  98.2588532  61.8213709  28.2426974  98.3916436
  61.0385111  29.2987243  99.1425196  55.8277927  21.5588887  96.9792975
  55.8662027  21.0252477  97.7730093  55.3218220  21.0324092  96.3603952
  68.2304196  34.0578277  99.8733633  68.7822504  34.2209899 100.6382718
  68.5710390  34.6482715  99.2013658  63.2068690  16.4053427 100.4755517
  63.2710016  17.2668258 100.0632915  63.1435810  15.7927429  99.7427876
  62.6820962  18.4776560 104.1228552  63.3093001  18.0953637 104.7366076
  61.8248881  18.2590762 104.4884244  73.0815071  28.8839535 105.7282287
  73.6254975  29.4969493 105.2337242  72.5001916  29.4419113 106.2449300
  59.4586505  20.2852989  90.0546906  59.7539946  19.3763667  90.0013960
  58.5574541  20.2640728  89.7327909  71.3672584  32.0060253  96.8597315
  71.2423723  31.2049993  96.3508260  72.0251675  32.5006446  96.3711285
  62.9880752  18.3608985  96.0374455  62.2667338  18.9744953  95.8981928
  63.7774008  18.8966750  95.9591101  73.4307492  29.8069273  98.4876865
  72.4837828  29.6874624  98.4155192  73.7790265  28.9191771  98.5703126
  65.7907065  15.6963412 102.3115107  66.3141467  15.9425708 103.0741416
  65.5719399  16.5283447 101.8918244  61.1874346  17.9667086  90.1786232
  60.8587053  17.0864465  89.9961338  61.5413717  17.9114755  91.0662621
  70.4353925  29.6021989  94.6881217  70.2878888  28.6738696  94.8688787
  71.2607419  29.6242080  94.2038292  64.3016170  18.2540056  90.5461709
  64.6412242  18.7825977  89.8240318  64.7488290  18.5920462  91.3220276
  74.0388047  30.4250548  95.7746090  74.9634595  30.2193409  95.6370541
  73.8703351  30.1766949  96.6835431  66.9959610  16.6377107  99.9964777
  66.6556431  15.8384920 100.3985457  66.2898617  16.9378818  99.4241611
  67.6476082  13.7226419  98.4492100  68.4702152  13.2486898  98.3270991
  67.8914146  14.5016903  98.9490787  66.2884317  16.7514678  88.7455002
  67.0092679  17.1295931  88.2418719  65.6649621  17.4703555  88.8489980
  70.4315440  17.4559827  89.6813334  70.6479054  18.3384465  89.3802163
  69.9509507  17.0646040  88.9518976  65.1714661  20.4145540  96.2584079
  65.0259242  20.7285843  97.1508361  64.6939865  21.0330440  95.7054978
  67.0311044  17.4048088  96.3064969  67.0172613  16.5089181  95.9697266
  67.7483472  17.4118752  96.9403255  68.8837175  17.8385428  98.3518096
  68.6254952  18.7602499  98.3502426  68.3522215  17.4415863  99.0418560
  59.6460323  22.9550884  99.1971740  59.1013791  23.7310692  99.3292014
  60.5239673  23.3021689  99.0390862  66.4347940  16.2862468  91.5752539
  66.5563851  15.3579114  91.7743426  66.1449982  16.3001154  90.6630854
  69.3039130  13.9717379  94.7119259  69.3260827  14.0356712  93.7571238
  69.7207189  13.1321887  94.9059765  79.6822755  23.7072638  92.7498481
  80.1253901  22.9579963  92.3517604  78.8049265  23.6982775  92.3672213
  60.4326345  22.0820781 102.0901897  59.6908081  22.2303416 102.6766527
  60.1119089  22.3429046 101.2268646  68.3770008  31.6236759 101.8882287
  68.6857134  31.3785906 102.7604987  69.1745490  31.8283397 101.4001157
  68.3990620  33.7774668  94.1187664  67.9595610  33.2851047  94.8120520
  69.1498737  33.2347636  93.8779739  60.8782959  29.9686209  94.1212292
  61.7040979  29.6689981  93.7410935  60.5277011  29.1993832  94.5702080
  65.8464492  29.3212678  96.1909965  65.2244501  28.6583383  95.8912193
  66.5169359  29.3473809  95.5083613  59.0791564  27.8872536  95.0801225
  58.2423472  27.4594710  94.8985227  59.0515209  28.0804979  96.0172016
  65.9189019  17.7994466 105.7842471  65.9677175  18.6756588 105.4020241
  66.4611534  17.2571859 105.2114115  76.4043865  28.3435589 105.0643608
  75.6139409  28.3259728 104.5248108  76.1677220  28.8823883 105.8192645
  76.5241740  25.1928055 102.3776337  76.5739745  25.0278063 103.3191860
  76.4155663  24.3255314 101.9874218  73.8145503  21.1758983 103.6935644
  74.7155365  21.0365448 103.4019641  73.8893477  21.3413438 104.6333821
  68.1488308  18.5525838 102.5388830  67.2791617  18.8459404 102.2671418
  68.3847788  19.1366283 103.2596094  78.0259937  27.6124997 102.6218358
  77.7344745  27.9754977 103.4581819  77.4132068  26.8992005 102.4431691
  79.2255619  25.1777877  95.1420929  80.0602511  25.6167681  95.3058489
  79.3614748  24.7016530  94.3229174  76.2747125  22.7357611 101.0898416
  76.7501247  22.9285258 100.2817268  75.3512691  22.7916797 100.8441800
  70.8527342  14.7705455 100.0554250  71.3709286  15.5066482  99.7300739
  70.4982474  15.0769448 100.8901009  62.4326279  19.6310136  88.1715656
  61.7395524  19.7054491  87.5155692  62.1878031  18.8670480  88.6937173
  71.1039936  11.1905737  95.5755147  71.3841690  10.5228927  96.2015573
  71.8890543  11.3834833  95.0629811  74.9748794  19.6123371  99.3226722
  75.9266217  19.7121469  99.3438946  74.8052245  18.8201640  99.8324806
  72.9963174  16.6978955  99.5086123  72.4013106  16.9783967  98.8132612
  72.7112870  17.1872856 100.2802864  77.4536872  22.8329491  98.4369022
  77.4213192  21.8945492  98.6228706  78.0637496  22.9113528  97.7034847
  77.6031360  19.6240535  98.4827305  77.0870409  18.8398991  98.2957234
  78.4871309  19.2959251  98.6473824  75.2642087  13.3681550  94.4423118
  75.0666909  13.0596638  95.3266450  75.8741793  14.0943189  94.5721047
  83.2713422  23.8945498  97.5775058  84.0016810  23.6330786  98.1382762
  82.6620367  23.1574220  97.6177126  81.3528719  22.0353361  98.1749510
  80.6261883  21.9009325  97.5666001  80.9376006  22.3430189  98.9806228
  69.1758895  25.7543290 105.9396883  70.0961905  25.9321889 106.1336929
  69.1408478  24.8099336 105.7876582  58.3941060  20.9481884  94.8650157
  58.0743845  20.0947192  94.5724531  57.8474489  21.1630462  95.6208125
  62.1720968  23.6644325  98.5819664  62.3906978  24.5961433  98.6007698
  62.5846742  23.3052299  99.3674468  69.0925186  14.1712410  90.5695352
  68.2825914  13.8259495  90.9450598  69.7809603  13.8619954  91.1582964
  71.0215734  13.2490457  92.1919649  71.5746773  13.6685910  92.8509672
  71.2585820  12.3226205  92.2342605  67.0448833  19.2377531 107.9722413
  66.9445560  20.1871888 107.9034504  66.8270375  18.9095770 107.0998483
  66.2461905  16.4862456  84.5563090  67.1081069  16.8117354  84.8158907
  66.4312249  15.6993952  84.0436156  58.2629320  24.5684795  96.8343279
  57.5692792  24.1538748  96.3213233  59.0102311  24.6105332  96.2376698
  74.3994541  15.3590982  91.6998313  73.8193210  16.0175786  91.3176366
  74.1330474  14.5368327  91.2885731  72.8498107  14.7596040  93.9019633
  73.3497886  14.8712574  93.0933952  73.4933715  14.4557093  94.5420442
  66.9080103  22.6674669 106.7887474  66.4247185  23.4675030 106.9951363
  66.9941042  22.6782614 105.8354918  60.1766063  24.5003049  94.7109294
  60.1536751  24.5990736  93.7591177  60.4866699  25.3468200  95.0326460
  62.8353441  26.5579204  98.8255908  63.7896694  26.5263147  98.7585840
  62.6365964  26.0969828  99.6406134  63.4252823  25.1280320 101.3926706
  64.2445712  25.6224399 101.4161543  63.6989631  24.2112288 101.3644273
  73.1819419  17.5191073  90.7554661  72.2945274  17.8040723  90.5374856
  73.5973408  17.3584836  89.9081938  76.5333955  17.5437594  94.4709001
  77.3094345  18.0334046  94.7433617  75.8082089  17.9695648  94.9280870
  78.9706514  18.2565213  95.5282941  79.5651005  18.0160949  94.8176250
  79.0433098  17.5372343  96.1556478  61.1903670  32.0998824  95.8426106
  61.0558137  31.3399225  95.2764104  60.7735732  32.8239724  95.3754895
  76.9665249  18.8235340  91.7955071  76.7102183  18.4231976  92.6263279
  76.3418117  19.5379134  91.6705210  81.2777587  21.5631414  94.3026362
  80.7177145  21.6324603  95.0757925  80.6721090  21.3872398  93.5825859
  64.3472795  32.9968141  96.0544549  64.2305180  33.9413573  95.9523239
  63.5265242  32.6941702  96.4430348  58.6787737  19.4618454 102.0918903
  59.3246601  18.9517408 102.5806128  58.4704888  20.1987136 102.6662328
  71.2041129  26.5299302 107.5911044  72.0732289  26.7039954 107.2297678
  70.7247881  27.3493718 107.4686773  67.1991348  13.7258499  87.8442799
  67.1870017  14.6700339  88.0011070  68.0914769  13.5428644  87.5502260
  65.3727310  33.6496403  99.2700477  66.2754556  33.6820013  99.5866972
  65.1464680  32.7196854  99.2846813  67.1280912  32.4027389  95.9310556
  66.1776543  32.4029251  95.8174928  67.4313398  31.6560124  95.4146590
  71.0143467  10.3201275  92.0988736  70.2475863   9.7659762  92.2445418
  71.4254172  10.3923144  92.9602888  63.0185228  16.6086071 106.1893917
  63.8816690  16.2522876 106.3997242  62.4450639  16.2699966 106.8769321
  82.8633605  38.2387928  96.9956318  83.5012015  38.1194675  96.2919658
  82.7454448  39.1868771  97.0544270  79.6723311  38.1915356  96.9317843
  79.3341823  38.0756420  96.0438378  80.5413080  37.7906521  96.9118849
  75.5310127  40.0450832  92.9214734  74.9674992  39.9540769  92.1531022
  75.4162522  39.2250737  93.4017226  80.1543094  39.3450207 102.8904048
  80.1431735  38.9503006 102.0184552  80.3163734  38.6116280 103.4837820
  73.0774559  41.5402024  95.7598954  73.8695851  41.1992848  95.3445254
  73.3171209  41.6496999  96.6801108  81.1109686  43.7121800  88.2329199
  80.4597666  44.2975880  87.8463213  81.9054049  44.2427995  88.2924236
  76.8750355  42.1287319 101.8383232  76.5840221  43.0332950 101.7229899
  77.5107340  42.1703847 102.5527302  77.8006562  39.5064168  98.4284592
  78.3970135  39.2820190  97.7141555  77.8581534  38.7648913  99.0310040
  82.4174874  35.9639381  94.0709526  83.2037963  35.5458805  93.7199943
  82.6813578  36.8685474  94.2391175  82.5884951  41.4012232  88.7698183
  81.9530784  41.4746858  89.4819088  82.2582357  41.9905831  88.0917262
  87.8183301  35.9014615  94.9742505  88.5508473  35.3313831  95.2080334
  87.0622656  35.5136215  95.4149010  79.4359420  38.3241856  92.1705847
  79.0717628  37.7972477  92.8818769  80.2926536  37.9340325  91.9972333
  85.3408721  29.6136189  99.4337113  85.0092046  30.4831600  99.2098328
  84.7454334  29.2972473 100.1131144  79.0764907  33.3531756  87.1667196
  79.2439310  34.2211992  87.5337667  78.8862076  33.5159037  86.2428485
  81.8340241  41.8148735  98.8333026  81.5340964  42.7173773  98.7248833
  81.4891300  41.5480918  99.6854179  75.2852722  38.2662532  94.8669731
  74.3603219  38.1338746  95.0747422  75.5337135  39.0456751  95.3639673
  85.2337384  34.3331275  96.5130463  84.3254262  34.2646683  96.2189224
  85.1824980  34.8103220  97.3412289  79.0554128  35.8089413  88.1513863
  78.9353753  36.2546464  88.9899343  78.3606717  36.1574731  87.5927401
  72.6461533  37.9095805  95.7013520  72.7753914  38.1630284  96.6152931
  71.9658984  38.5023513  95.3818175  76.8161020  48.5793055  91.8003994
  76.7385050  49.5300880  91.8792474  76.2122664  48.2338928  92.4578920
  79.3078250  35.7520920 104.4565361  78.5311584  36.3114841 104.4468225
  79.9468813  36.2377703 104.9780231  87.0999031  32.5347713  98.2908337
  86.4573411  32.8280246  97.6448132  86.5953959  32.4200634  99.0961534
  84.7539194  36.2810886  88.9794197  85.6657051  36.5138273  88.8041894
  84.2448841  36.8647931  88.4169275  77.5624622  38.5606374 104.0183328
  78.3039307  39.0991418 103.7418151  76.8561608  39.1872663 104.1754879
  83.0379962  40.7035514 102.6155489  83.4463318  40.2617925 101.8710122
  82.3157224  40.1288142 102.8689682  79.3911032  35.6408121  99.9889046
  80.2372227  36.0647535 100.1323695  79.3309670  34.9841745 100.6827609
  83.3608777  41.2636705  96.3707778  82.7317639  41.4282419  95.6683846
  82.9734439  41.6778314  97.1418742  87.2398009  42.1991143  93.7252142
  86.5549047  42.5790044  93.1749175  87.3241858  42.8086469  94.4584090
  82.5410477  33.3012489 101.6470220  82.2971409  34.0554550 101.1104495
  82.8170408  33.6797837 102.4817467  84.4948940  39.8451102 100.3247485
  84.7065835  40.4882862  99.6481866  84.4478688  39.0113418  99.8569415
  82.0975169  32.4568922  97.2284057  81.2359648  32.7550176  97.5200795
  82.1237604  32.6739321  96.2965090  78.9136739  41.0011113  93.6357863
  79.3775084  41.2798816  92.8462486  78.6493537  40.0994558  93.4530954
  75.8060820  40.5482595  96.5737626  76.3762177  40.9769863  95.9355111
  76.3968932  40.2665179  97.2721812  77.8505625  37.1234265  90.4447428
  78.5529668  37.5755309  90.9121355  77.5186253  36.4818084  91.0727321
  76.2985986  35.7146022 104.8198638  75.6684647  36.3962303 105.0534034
  76.1922074  35.6029104 103.8751776  71.5930959  35.3817818  95.7464562
  70.8030013  35.6375347  95.2704672  72.0842206  36.1966156  95.8516602
  85.6094768  42.7223057  98.4969843  86.4312212  42.3203244  98.2152524
  85.6057171  42.6191291  99.4485958  73.5445704  35.7462397  92.7048039
  72.7476867  35.8581092  93.2231534  73.3171296  36.0849049  91.8388929
  79.3751372  42.2707100 100.6530553  79.4395804  42.7327508 101.4888725
  78.6662295  41.6404465 100.7812863  69.8768662  35.6348308  98.1779553
  70.1276700  36.5195318  98.4437129  70.4128210  35.4552910  97.4054644
  93.7000761  39.0661806  94.8454814  92.9464470  38.4969204  94.6898819
  93.8348302  39.0324470  95.7925449  79.0899389  43.9375208  90.5209534
  78.9545064  44.7826744  90.9494381  79.6309202  44.1394486  89.7575467
  75.5766729  30.0166788 107.1823889  75.1833674  29.4632986 107.8571533
  76.3932869  30.3277366 107.5730406  78.4934690  31.4324667 104.7744145
  79.2344403  32.0331820 104.6948608  78.7252613  30.6902305 104.2162188
  73.6376028  36.6181034 103.0522375  73.5229543  35.7166291 103.3529474
  72.7820546  36.8644731 102.7007192  80.7167866  44.5598774 104.6509876
  80.2731720  43.7735153 104.3330780  81.3785079  44.7477925 103.9853766
  75.4754987  46.0894576  99.1770554  76.0262412  45.9611639  98.4047548
  74.6366463  46.3889465  98.8265447  82.8149104  44.8401574 102.6791277
  82.7967579  45.6610455 102.1871546  83.7369024  44.7155650 102.9041418
  79.2722158  42.3545704 103.5214785  79.8050495  41.5933992 103.2914093
  78.7436239  42.0619356 104.2638940  82.4391853  27.4605770  99.0508427
  82.0956122  28.3507412  98.9747538  82.8070815  27.2707428  98.1878012
  82.4042136  37.4514381  87.5580862  81.8888759  38.2218986  87.7969249
  82.1319444  36.7779517  88.1813924  79.9889247  32.2964082  92.6166100
  79.1330843  31.9070932  92.4371739  80.4016198  32.3756043  91.7565886
  81.5188393  29.8310425  97.0157660  81.0153189  29.7940560  96.2025466
  81.8119000  30.7403168  97.0754317  77.7631279  29.9149155  96.0223842
  78.6284276  29.7191963  95.6629731  77.8308788  29.6859507  96.9493199
  87.3776410  40.2046736  89.4934036  86.6005852  39.8657895  89.0489198
  88.0567891  40.2099359  88.8189001  82.1928439  35.3241473  89.3840643
  81.8878574  35.6387622  90.2350786  83.1458881  35.4022893  89.4267976
  80.6374871  41.4831696  91.0333597  80.1096232  40.7484456  90.7206835
  80.1362373  42.2606373  90.7873566  85.6167717  39.6780717  96.1500644
  84.9591391  40.3679978  96.2380772  86.4208116  40.0677149  96.4934630
  75.3693598  32.1451363  93.3940209  75.9437350  31.9226544  92.6613402
  75.9564581  32.2140057  94.1468810  84.4273175  38.0325090  94.2004585
  84.9405057  38.6655081  94.7026295  85.0774399  37.4326285  93.8347945
  77.6716266  29.0192612  92.1215278  77.0180678  28.7041629  91.4971893
  77.6296740  28.3968352  92.8475101  81.6895550  48.0109414  86.9565256
  81.0157248  48.3141111  87.5650214  82.0761372  48.8138494  86.6070713
  80.9054006  35.5074545  96.4462926  79.9876568  35.7289492  96.2884614
  81.3214150  35.5820856  95.5874633  81.6889054  36.9065961  91.5765606
  82.4360873  37.4187358  91.2672728  81.9580644  36.5850014  92.4370000
  79.9615704  39.4024502  88.5592560  79.0526923  39.1183534  88.6565030
  79.9910788  39.8223580  87.6995867  85.1934972  43.0131091  92.3283728
  84.7397299  42.1722001  92.3848918  84.5628938  43.6492489  92.6658508
  84.1367891  33.9423077  93.5584395  83.3990648  33.4300463  93.8894638
  84.3894665  33.5023459  92.7467672  83.6367911  44.8507588  93.2633546
  83.9290885  45.4112645  92.5445912  84.1466531  45.1436149  94.0186705
  84.2379518  26.7199329  94.1526165  84.5438395  25.8596692  93.8652080
  84.9632123  27.3116949  93.9525159  70.5303875  37.1230016  92.5407763
  70.3328274  36.5299376  91.8158829  69.9750539  36.8182226  93.2583701
  78.5100598  37.0153122  94.6602356  78.5649208  36.0626959  94.5844832
  77.6991800  37.1712561  95.1443654  76.4492958  35.6330182  92.4192735
  75.6360824  35.9324352  92.8257927  76.9451952  35.2385871  93.1367217
  78.6001536  45.6287939  94.3526999  78.5577715  45.8548785  93.4235531
  79.5164235  45.3951313  94.5012800  82.0467170  36.0972006 101.2507628
  82.4016558  36.3243479 102.1102094  82.6939301  36.4290383 100.6284884
  87.7764907  39.2190442  91.9556958  87.6382805  39.4092038  91.0278147
  87.4201126  39.9809825  92.4125009  75.9407033  33.2048537  98.0353970
  76.5806412  33.0637296  97.3376933  75.1084563  32.9183051  97.6592572
  87.8034286  41.2866969  96.9668229  88.2370793  41.1942258  97.8151283
  88.5165867  41.2624470  96.3288245  76.7167337  42.5050968  94.1488962
  77.5107935  42.0101288  93.9471537  76.0059029  41.9768831  93.7856668
  81.5362181  44.8869063  98.5001330  81.5899204  45.4560000  99.2679046
  80.6676963  45.0570948  98.1355367  74.4160575  34.5886620  99.9825781
  75.0883628  34.3803982  99.3338430  73.5890361  34.3908706  99.5431013
  88.6649836  41.3290670  99.5001114  88.8585726  42.2336480  99.7460389
  88.5650454  40.8698089 100.3339699  80.3186147  31.2148560 101.9991442
  79.6714062  31.9138510 101.9055918  81.0887162  31.6484704 102.3667690
  83.7264945  41.4797413 105.0741995  83.5750451  41.2507964 104.1572079
  83.7169624  42.4368014 105.0873340  80.4950281  39.0529325 100.0588261
  81.4242341  39.2040485  99.8857229  80.0741311  39.1413346  99.2036908
  79.2938613  43.0779990  97.8286799  79.1549699  42.7098774  98.7012737
  78.5053209  43.5927629  97.6570757  79.8886765  48.1789086  89.1712336
  80.0638520  47.7077129  89.9857958  79.2019553  48.8054852  89.3993596
  80.8443828  42.4561592  95.2175637  80.5093661  42.4162362  96.1133287
  80.3447774  41.7906308  94.7446047  74.8188072  37.8629223 100.7428218
  74.6807870  37.1309461 101.3439757  75.7292995  37.7738123 100.4612406
  83.7803020  39.8017627  85.4912697  83.1632190  39.0764455  85.3945749
  83.3119508  40.5626987  85.1479771  77.4470373  37.5749182 100.2311898
  78.1569991  36.9342374 100.1898516  77.4039681  37.8262077 101.1538078
  85.4357151  44.5116535 103.1518477  85.3769697  43.8275755 102.4849060
  85.8376670  45.2535525 102.6999103  76.1599307  34.5614400 102.0507537
  75.6236664  34.1105138 102.7029133  75.5716015  34.6960309 101.3078002
  74.4547850  51.3278449  95.9452196  74.6944448  51.9596973  96.6231214
  73.6117047  50.9766489  96.2317555  85.4374559  42.4756119 101.3832457
  84.5501337  42.1382041 101.5058855  86.0073110  41.7439150 101.6201222
  67.0903706  38.8080211  94.7075508  67.7774745  38.4941941  94.1196523
  66.9351834  39.7121576  94.4342759  71.8938428  33.6970407  99.1360532
  71.8096617  33.0896077  98.4010942  71.0721134  34.1879426  99.1370028
  78.9675712  47.1357571  98.3493700  78.8945883  47.9412543  98.8613004
  78.5253105  47.3349537  97.5241721  78.7565492  46.3729341  91.8596521
  77.9733013  46.9151022  91.9534746  79.4558237  46.8903321  92.2590762
  82.0662142  32.1823971  94.5030727  82.5630841  31.4293933  94.1831797
  81.2949123  32.2188288  93.9373936  89.9191899  37.8864336  96.1449018
  89.9081775  38.7689052  95.7742951  89.0509279  37.5335887  95.9503555
  81.4274395  47.0344405 100.5051858  82.1402368  47.6691870 100.4327760
  80.9364424  47.1308271  99.6891860  83.1491922  40.9395658  92.0769150
  82.2148201  41.0597121  91.9073854  83.3268591  40.0368125  91.8129160
  78.6497110  34.3241354  94.2302411  78.2794898  33.7712394  94.9183317
  79.1456203  33.7199487  93.6777411  86.5364474  36.7812977  92.6119184
  87.0024926  37.6140969  92.5379487  86.9871974  36.3157959  93.3164443
  76.4786309  44.7838849 101.3257429  77.1795768  45.4175332 101.4786823
  76.0081424  45.1253581 100.5653069  84.6040705  43.1256799  89.6105336
  84.8800549  43.0113393  90.5199210  83.7345204  42.7274284  89.5717509
  84.5081136  29.1493564  96.6510086  83.5944216  29.3797791  96.8192293
  84.9374238  29.2332009  97.5024118  84.2787595  37.3383456  99.1509980
  83.6259045  37.5859364  98.4962432  84.6567975  36.5247595  98.8172457
  81.2394769  47.3743150  93.2538150  81.4217163  46.5564806  93.7165902
  82.0627755  47.5910842  92.8163040  81.5736934  46.3011335  90.5153198
  82.1024701  45.7903789  89.9023360  81.8365154  45.9853865  91.3798731
  80.3275168  38.0803267 105.6376017  79.6515805  37.9797397 106.3078392
  81.1502802  37.9242481 106.1012014  74.9292682  47.3526451  93.2750974
  74.2603058  47.8372579  92.7915014  74.7905552  47.5995672  94.1894353
  66.6671682  36.8880804  96.9792975  66.7055781  36.3544395  97.7730093
  66.1611975  36.3616010  96.3603952  79.0697951  49.3870195  99.8733633
  79.6216259  49.5501816 100.6382718  79.4104144  49.9774633  99.2013658
  74.0462444  31.7345345 100.4755517  74.1103771  32.5960176 100.0632915
  73.9829564  31.1219346  99.7427876  73.5214717  33.8068477 104.1228552
  74.1486755  33.4245555 104.7366076  72.6642635  33.5882679 104.4884244
  83.9208825  44.2131452 105.7282287  84.4648729  44.8261411 105.2337242
  83.3395670  44.7711031 106.2449300  82.2066338  47.3352170  96.8597315
  82.0817478  46.5341910  96.3508260  82.8645429  47.8298364  96.3711285
  73.8274506  33.6900903  96.0374455  73.1061092  34.3036871  95.8981928
  74.6167762  34.2258668  95.9591101  84.2701247  45.1361191  98.4876865
  83.3231582  45.0166542  98.4155192  84.6184020  44.2483689  98.5703126
  76.6300820  31.0255329 102.3115107  77.1535222  31.2717626 103.0741416
  76.4113153  31.8575364 101.8918244  81.2747680  44.9313907  94.6881217
  81.1272642  44.0030614  94.8688787  82.1001173  44.9533997  94.2038292
  84.8781802  45.7542465  95.7746090  85.8028349  45.5485327  95.6370541
  84.7097105  45.5058867  96.6835431  77.8353365  31.9669025  99.9964777
  77.4950185  31.1676838 100.3985457  77.1292371  32.2670735  99.4241611
  78.4869837  29.0518337  98.4492100  79.3095906  28.5778815  98.3270991
  78.7307900  29.8308821  98.9490787  81.2709194  32.7851744  89.6813334
  81.4872809  33.6676382  89.3802163  80.7903261  32.3937958  88.9518976
  76.0108416  35.7437458  96.2584079  75.8652996  36.0577761  97.1508361
  75.5333619  36.3622358  95.7054978  77.8704798  32.7340006  96.3064969
  77.8566367  31.8381099  95.9697266  78.5877227  32.7410669  96.9403255
  79.7230929  33.1677346  98.3518096  79.4648707  34.0894416  98.3502426
  79.1915969  32.7707780  99.0418560  84.6677118  46.2728133  91.1308181
  84.8413995  45.7074555  90.3782034  85.1606009  47.0729028  90.9487671
  70.4854078  38.2842802  99.1971740  69.9407546  39.0602610  99.3292014
  71.3633428  38.6313606  99.0390862  77.2741694  31.6154386  91.5752539
  77.3957606  30.6871032  91.7743426  76.9843737  31.6293072  90.6630854
  80.1432885  29.3009296  94.7119259  80.1654582  29.3648629  93.7571238
  80.5600944  28.4613805  94.9059765  90.5216509  39.0364556  92.7498481
  90.9647655  38.2871881  92.3517604  89.6443019  39.0274692  92.3672213
  85.6552290  45.5894897  88.2305080  86.3503195  46.2101590  88.4492394
  85.9975441  44.7390249  88.5057458  71.2720100  37.4112698 102.0901897
  70.5301836  37.5595334 102.6766527  70.9512844  37.6720964 101.2268646
  87.5543713  43.0394603  89.7592410  88.0795038  43.3781876  89.0341730
  87.4666066  42.1041618  89.5755545  79.2163762  46.9528677 101.8882287
  79.5250889  46.7077823 102.7604987  80.0139244  47.1575315 101.4001157
  79.2384374  49.1066586  94.1187664  78.7989365  48.6142965  94.8120520
  79.9892491  48.5639554  93.8779739  76.6858246  44.6504595  96.1909965
  76.0638256  43.9875300  95.8912193  77.3563113  44.6765727  95.5083613
  76.7582774  33.1286383 105.7842471  76.8070929  34.0048506 105.4020241
  77.3005288  32.5863776 105.2114115  87.2437620  43.6727507 105.0643608
  86.4533163  43.6551645 104.5248108  87.0070974  44.2115800 105.8192645
  87.3635495  40.5219973 102.3776337  87.4133500  40.3569980 103.3191860
  87.2549418  39.6547232 101.9874218  84.6539257  36.5050901 103.6935644
  85.5549120  36.3657366 103.4019641  84.7287232  36.6705356 104.6333821
  78.9882062  33.8817756 102.5388830  78.1185372  34.1751322 102.2671418
  79.2241543  34.4658201 103.2596094  88.8653691  42.9416914 102.6218358
  88.5738500  43.3046895 103.4581819  88.2525823  42.2283923 102.4431691
  90.0649374  40.5069794  95.1420929  90.8996265  40.9459598  95.3058489
  90.2008503  40.0308447  94.3229174  87.1140880  38.0649529 101.0898416
  87.5895001  38.2577175 100.2817268  86.1906445  38.1208715 100.8441800
  81.6921096  30.0997373 100.0554250  82.2103040  30.8358400  99.7300739
  81.3376229  30.4061366 100.8901009  81.9433690  26.5197655  95.5755147
  82.2235444  25.8520844  96.2015573  82.7284297  26.7126751  95.0629811
  79.7467159  45.6956649  87.1380173  79.1741126  46.3146836  86.6850645
  80.3199952  46.2456011  87.6720095  85.8142549  34.9415289  99.3226722
  86.7659972  35.0413387  99.3438946  85.6445999  34.1493558  99.8324806
  83.8356928  32.0270872  99.5086123  83.2406860  32.3075885  98.8132612
  83.5506625  32.5164773 100.2802864  82.9664419  45.9793799  88.2688756
  83.8995092  45.9139361  88.4721631  82.8787631  46.8150066  87.8103288
  85.5952435  45.2959669  85.2292703  85.5166067  44.9619533  86.1228461
  86.4162102  45.7881437  85.2284175  88.2930626  38.1621409  98.4369022
  88.2606947  37.2237410  98.6228706  88.9031250  38.2405446  97.7034847
  88.4425115  34.9532452  98.4827305  87.9264164  34.1690909  98.2957234
  89.3265063  34.6251169  98.6473824  86.1035842  28.6973468  94.4423118
  85.9060663  28.3888556  95.3266450  86.7135547  29.4235107  94.5721047
  94.1107176  39.2237416  97.5775058  94.8410565  38.9622704  98.1382762
  93.5014122  38.4866138  97.6177126  92.1922473  37.3645278  98.1749510
  91.4655637  37.2301243  97.5666001  91.7769760  37.6722107  98.9806228
  80.0152650  41.0835208 105.9396883  80.9355659  41.2613807 106.1336929
  79.9802233  40.1391253 105.7876582  69.2334815  36.2773802  94.8650157
  68.9137599  35.4239110  94.5724531  68.6868243  36.4922380  95.6208125
  73.0114722  38.9936243  98.5819664  73.2300732  39.9253350  98.6007698
  73.4240496  38.6344217  99.3674468  79.9318940  29.5004328  90.5695352
  79.1219669  29.1551413  90.9450598  80.6203357  29.1911872  91.1582964
  81.8609488  28.5782375  92.1919649  82.4140527  28.9977828  92.8509672
  82.0979575  27.6518123  92.2342605  77.8842588  34.5669448 107.9722413
  77.7839315  35.5163805 107.9034504  77.6664130  34.2387687 107.0998483
  69.1023075  39.8976713  96.8343279  68.4086546  39.4830666  96.3213233
  69.8496066  39.9397250  96.2376698  85.2388296  30.6882900  91.6998313
  84.6586965  31.3467704  91.3176366  84.9724228  29.8660244  91.2885731
  83.6891862  30.0887958  93.9019633  84.1891640  30.2004492  93.0933952
  84.3327470  29.7849010  94.5420442  77.7473858  37.9966587 106.7887474
  77.2640939  38.7966947 106.9951363  77.8334797  38.0074532 105.8354918
  71.0159817  39.8294967  94.7109294  70.9930505  39.9282654  93.7591177
  71.3260454  40.6760118  95.0326460  73.6747195  41.8871122  98.8255908
  74.6290449  41.8555064  98.7585840  73.4759719  41.4261746  99.6406134
  74.2646577  40.4572238 101.3926706  75.0839466  40.9516317 101.4161543
  74.5383385  39.5404206 101.3644273  84.0213174  32.8482990  90.7554661
  83.1339029  33.1332641  90.5374856  84.4367163  32.6876754  89.9081938
  87.3727710  32.8729511  94.4709001  88.1488100  33.3625964  94.7433617
  86.6475844  33.2987565  94.9280870  89.8100268  33.5857130  95.5282941
  90.4044759  33.3452866  94.8176250  89.8826852  32.8664261  96.1556478
  83.1656387  42.6127665  84.8502681  83.8692237  42.8177667  85.4660337
  82.4419036  43.1804427  85.1151765  83.9954197  38.3637526  90.9704952
  83.9389399  38.8206078  90.1312584  84.5482540  37.6028211  90.7927794
  87.8059003  34.1527258  91.7955071  87.5495937  33.7523894  92.6263279
  87.1811871  34.8671052  91.6705210  92.1171341  36.8923331  94.3026362
  91.5570899  36.9616521  95.0757925  91.5114844  36.7164316  93.5825859
  75.1866550  48.3260058  96.0544549  75.0698934  49.2705491  95.9523239
  74.3658996  48.0233620  96.4430348  85.0743084  43.0510194  86.9001141
  85.9088688  42.6191393  86.7178616  84.9127427  42.8792208  87.8278036
  84.7288977  39.5542307  88.2657481  84.6737780  39.3886579  87.3245925
  84.1035032  40.2618340  88.4219670  69.5181492  34.7910372 102.0918903
  70.1640355  34.2809326 102.5806128  69.3098643  35.5279053 102.6662328
  82.0434884  41.8591219 107.5911044  82.9126043  42.0331872 107.2297678
  81.5641635  42.6785636 107.4686773  76.2121064  48.9788320  99.2700477
  77.1148311  49.0111931  99.5866972  75.9858434  48.0488771  99.2846813
  77.9674666  47.7319307  95.9310556  77.0170297  47.7321168  95.8174928
  78.2707152  46.9852041  95.4146590  81.8537222  25.6493193  92.0988736
  81.0869617  25.0951680  92.2445418  82.2647927  25.7215062  92.9602888
  73.8578983  31.9377989 106.1893917  74.7210444  31.5814794 106.3997242
  73.2844393  31.5991884 106.8769321  93.7027360  53.5679845  96.9956318
  94.3405770  53.4486593  96.2919658  93.5848202  54.5160689  97.0544270
  90.5117066  53.5207273  96.9317843  90.1735577  53.4048338  96.0438378
  91.3806834  53.1198438  96.9118849  86.3703882  55.3742750  92.9214734
  85.8068747  55.2832687  92.1531022  86.2556277  54.5542654  93.4017226
  90.9936849  54.6742125 102.8904048  90.9825490  54.2794923 102.0184552
  91.1557488  53.9408198 103.4837820  83.9168313  56.8693941  95.7598954
  84.7089605  56.5284766  95.3445254  84.1564964  56.9788916  96.6801108
  91.9503440  59.0413717  88.2329199  91.2991420  59.6267798  87.8463213
  92.7447803  59.5719912  88.2924236  85.8759067  56.1302855  88.6316333
  86.6489943  55.5831842  88.4929209  86.2284466  56.9947104  88.8430794
  87.7144110  57.4579237 101.8383232  87.4233976  58.3624868 101.7229899
  88.3501094  57.4995764 102.5527302  88.6400317  54.8356085  98.4284592
  89.2363889  54.6112108  97.7141555  88.6975288  54.0940831  99.0310040
  93.2568628  51.2931299  94.0709526  94.0431717  50.8750722  93.7199943
  93.5207332  52.1977391  94.2391175  93.4278705  56.7304149  88.7698183
  92.7924538  56.8038776  89.4819088  93.0976112  57.3197748  88.0917262
  98.6577055  51.2306532  94.9742505  99.3902227  50.6605749  95.2080334
  97.9016411  50.8428133  95.4149010  90.2753175  53.6533774  92.1705847
  89.9111382  53.1264395  92.8818769  91.1320291  53.2632243  91.9972333
  96.1802476  44.9428106  99.4337113  95.8485800  45.8123517  99.2098328
  95.5848089  44.6264390 100.1131144  89.9158662  48.6823673  87.1667196
  90.0833064  49.5503910  87.5337667  89.7255831  48.8450955  86.2428485
  92.6733995  57.1440652  98.8333026  92.3734718  58.0465691  98.7248833
  92.3285055  56.8772836  99.6854179  86.1246477  53.5954449  94.8669731
  85.1996973  53.4630663  95.0747422  86.3730890  54.3748668  95.3639673
  96.0731139  49.6623193  96.5130463  95.1648016  49.5938601  96.2189224
  96.0218735  50.1395137  97.3412289  89.8947883  51.1381331  88.1513863
  89.7747508  51.5838382  88.9899343  89.2000471  51.4866649  87.5927401
  83.4855288  53.2387723  95.7013520  83.6147669  53.4922202  96.6152931
  82.8052739  53.8315431  95.3818175  87.6554775  63.9084973  91.8003994
  87.5778805  64.8592798  91.8792474  87.0516418  63.5630845  92.4578920
  90.1472005  51.0812838 104.4565361  89.3705339  51.6406758 104.4468225
  90.7862568  51.5669621 104.9780231  97.9392785  47.8639631  98.2908337
  97.2967165  48.1572164  97.6448132  97.4347714  47.7492551  99.0961534
  95.5932949  51.6102804  88.9794197  96.5050805  51.8430191  88.8041894
  95.0842596  52.1939848  88.4169275  88.4018377  53.8898291 104.0183328
  89.1433061  54.4283335 103.7418151  87.6955362  54.5164580 104.1754879
  93.8773717  56.0327432 102.6155489  94.2857073  55.5909842 101.8710122
  93.1550978  55.4580059 102.8689682  90.2304787  50.9700039  99.9889046
  91.0765982  51.3939452 100.1323695  90.1703424  50.3133663 100.6827609
  94.2002531  56.5928623  96.3707778  93.5711394  56.7574337  95.6683846
  93.8128193  57.0070232  97.1418742  98.0791763  57.5283060  93.7252142
  97.3942801  57.9081962  93.1749175  98.1635612  58.1378387  94.4584090
  93.3804232  48.6304407 101.6470220  93.1365164  49.3846468 101.1104495
  93.6564162  49.0089755 102.4817467  95.3342695  55.1743019 100.3247485
  95.5459590  55.8174779  99.6481866  95.2872443  54.3405336  99.8569415
  92.9368924  47.7860840  97.2284057  92.0753403  48.0842094  97.5200795
  92.9631358  48.0031239  96.2965090  89.7530493  56.3303031  93.6357863
  90.2168839  56.6090734  92.8462486  89.4887291  55.4286475  93.4530954
  86.6454574  55.8774512  96.5737626  87.2155931  56.3061781  95.9355111
  87.2362686  55.5957097  97.2721812  88.6899379  52.4526183  90.4447428
  89.3923422  52.9047227  90.9121355  88.3580008  51.8110002  91.0727321
  87.1379741  51.0437940 104.8198638  86.5078401  51.7254221 105.0534034
  87.0315829  50.9321021 103.8751776  82.4324713  50.7109736  95.7464562
  81.6423767  50.9667264  95.2704672  82.9235960  51.5258074  95.8516602
  96.4488523  58.0514975  98.4969843  97.2705966  57.6495162  98.2152524
  96.4450926  57.9483209  99.4485958  84.3839458  51.0754315  92.7048039
  83.5870622  51.1873009  93.2231534  84.1565051  51.4140967  91.8388929
  90.2145126  57.5999018 100.6530553  90.2789559  58.0619425 101.4888725
  89.5056050  56.9696383 100.7812863  80.7162416  50.9640226  98.1779553
  80.9670454  51.8487236  98.4437129  81.2521964  50.7844828  97.4054644
 104.5394516  54.3953723  94.8454814 103.7858224  53.8261121  94.6898819
 104.6742057  54.3616388  95.7925449  89.9293144  59.2667126  90.5209534
  89.7938819  60.1118661  90.9494381  90.4702956  59.4686403  89.7575467
  86.4160483  45.3458706 107.1823889  86.0227429  44.7924904 107.8571533
  87.2326624  45.6569284 107.5730406  83.3822541  56.7842564  91.0937459
  83.8947062  57.5785814  91.2443023  84.0345254  56.0868854  91.0271060
  85.1917426  59.9008320  93.1760212  85.3684054  60.8226285  92.9881196
  85.9874259  59.5866739  93.6054592  89.3328444  46.7616585 104.7744145
  90.0738158  47.3623738 104.6948608  89.5646367  46.0194222 104.2162188
  84.4769782  51.9472952 103.0522375  84.3623298  51.0458209 103.3529474
  83.6214300  52.1936649 102.7007192  91.5561620  59.8890692 104.6509876
  91.1125474  59.1027071 104.3330780  92.2178834  60.0769843 103.9853766
  86.3148741  61.4186494  99.1770554  86.8656166  61.2903557  98.4047548
  85.4760217  61.7181383  98.8265447  93.6542858  60.1693492 102.6791277
  93.6361334  60.9902373 102.1871546  94.5762778  60.0447567 102.9041418
  90.1115912  57.6837622 103.5214785  90.6444249  56.9225910 103.2914093
  89.5829993  57.3911273 104.2638940  93.2785607  42.7897688  99.0508427
  92.9349877  43.6799329  98.9747538  93.6464570  42.5999345  98.1878012
  81.3471458  55.1131218  91.8697029  82.1846680  55.5228226  91.6530737
  81.5249726  54.1730660  91.8397223  93.2435890  52.7806299  87.5580862
  92.7282513  53.5510903  87.7969249  92.9713198  52.1071435  88.1813924
  90.8283001  47.6255999  92.6166100  89.9724597  47.2362850  92.4371739
  91.2409953  47.7047960  91.7565886  92.3582148  45.1602343  97.0157660
  91.8546943  45.1232478  96.2025466  92.6512755  46.0695085  97.0754317
  88.6025034  45.2441072  96.0223842  89.4678030  45.0483881  95.6629731
  88.6702543  45.0151424  96.9493199  98.2170164  55.5338653  89.4934036
  97.4399607  55.1949813  89.0489198  98.8961645  55.5391276  88.8189001
  93.0322193  50.6533391  89.3840643  92.7272329  50.9679540  90.2350786
  93.9852635  50.7314811  89.4267976  91.4768625  56.8123614  91.0333597
  90.9489987  56.0776374  90.7206835  90.9756128  57.5898290  90.7873566
  96.4561471  55.0072635  96.1500644  95.7985146  55.6971896  96.2380772
  97.2601870  55.3969066  96.4934630  86.2087353  47.4743280  93.3940209
  86.7831105  47.2518462  92.6613402  86.7958335  47.5431975  94.1468810
  95.2666930  53.3617007  94.2004585  95.7798812  53.9946999  94.7026295
  95.9168154  52.7618203  93.8347945  86.5356940  49.5047741  87.4136094
  85.6994252  49.8422428  87.7345369  86.3961709  49.3696721  86.4763231
  88.5110020  44.3484529  92.1215278  87.8574433  44.0333546  91.4971893
  88.4690495  43.7260270  92.8475101  92.5289304  63.3401332  86.9565256
  91.8551003  63.6433028  87.5650214  92.9155126  64.1430412  86.6070713
  91.7447761  50.8366463  96.4462926  90.8270322  51.0581410  96.2884614
  92.1607904  50.9112773  95.5874633  92.5282809  52.2357878  91.5765606
  93.2754627  52.7479276  91.2672728  92.7974398  51.9141931  92.4370000
  90.8009459  54.7316419  88.5592560  89.8920678  54.4475452  88.6565030
  90.8304542  55.1515498  87.6995867  96.0328726  58.3423009  92.3283728
  95.5791053  57.5013919  92.3848918  95.4022693  58.9784407  92.6658508
  94.9761646  49.2714995  93.5584395  94.2384402  48.7592381  93.8894638
  95.2288419  48.8315376  92.7467672  94.4761665  60.1799505  93.2633546
  94.7684640  60.7404562  92.5445912  94.9860286  60.4728066  94.0186705
  95.0773273  42.0491247  94.1526165  95.3832150  41.1888610  93.8652080
  95.8025878  42.6408867  93.9525159  81.3697629  52.4521933  92.5407763
  81.1722029  51.8591294  91.8158829  80.8144293  52.1474144  93.2583701
  89.3494353  52.3445040  94.6602356  89.4042963  51.3918876  94.5844832
  88.5385555  52.5004479  95.1443654  87.2886713  50.9622100  92.4192735
  86.4754578  51.2616270  92.8257927  87.7845707  50.5677788  93.1367217
  89.4395291  60.9579856  94.3526999  89.3971469  61.1840703  93.4235531
  90.3557989  60.7243231  94.5012800  92.8860924  51.4263924 101.2507628
  93.2410312  51.6535397 102.1102094  93.5333056  51.7582301 100.6284884
  98.6158661  54.5482360  91.9556958  98.4776560  54.7383956  91.0278147
  98.2594880  55.3101743  92.4125009  86.7800787  48.5340455  98.0353970
  87.4200167  48.3929214  97.3376933  85.9478318  48.2474968  97.6592572
  98.6428041  56.6158887  96.9668229  99.0764548  56.5234176  97.8151283
  99.3559622  56.5916387  96.3288245  87.5561091  57.8342885  94.1488962
  88.3501690  57.3393206  93.9471537  86.8452784  57.3060749  93.7856668
  92.3755936  60.2160981  98.5001330  92.4292958  60.7851917  99.2679046
  91.5070717  60.3862866  98.1355367  83.8643855  51.9785967  90.2248715
  82.9341443  51.9170423  90.4418677  83.9601327  51.4561920  89.4285356
  83.7829404  48.5040780  92.8126956  84.0436221  49.4186113  92.7036117
  84.6046576  48.0365223  92.9623569  85.2554329  49.9178537  99.9825781
  85.9277383  49.7095899  99.3338430  84.4284116  49.7200623  99.5431013
  99.5043590  56.6582588  99.5001114  99.6979481  57.5628398  99.7460389
  99.4044209  56.1990007 100.3339699  91.1579901  46.5440478 101.9991442
  90.5107816  47.2430428 101.9055918  91.9280917  46.9776622 102.3667690
  94.5658699  56.8089330 105.0741995  94.4144206  56.5799882 104.1572079
  94.5563379  57.7659932 105.0873340  91.3344036  54.3821243 100.0588261
  92.2636096  54.5332403  99.8857229  90.9135066  54.4705264  99.2036908
  90.1332367  58.4071907  97.8286799  89.9943453  58.0390692  98.7012737
  89.3446964  58.9219547  97.6570757  90.7280519  63.5081004  89.1712336
  90.9032275  63.0369047  89.9857958  90.0413307  64.1346770  89.3993596
  91.6837582  57.7853510  95.2175637  91.3487415  57.7454280  96.1133287
  91.1841528  57.1198226  94.7446047  85.6581826  53.1921140 100.7428218
  85.5201624  52.4601379 101.3439757  86.5686750  53.1030040 100.4612406
  94.6196774  55.1309545  85.4912697  94.0025945  54.4056373  85.3945749
  94.1513263  55.8918905  85.1479771  88.2864127  52.9041100 100.2311898
  88.9963746  52.2634292 100.1898516  88.2433435  53.1553994 101.1538078
  96.2750906  59.8408453 103.1518477  96.2163452  59.1567673 102.4849060
  96.6770424  60.5827443 102.6999103  86.9993061  49.8906317 102.0507537
  86.4630418  49.4397056 102.7029133  86.4109770  50.0252226 101.3078002
  85.2941605  66.6570367  95.9452196  85.5338203  67.2888891  96.6231214
  84.4510801  66.3058407  96.2317555  86.4095320  49.3494969  84.6134001
  85.5324786  49.2283770  84.2496247  86.8853073  48.5581047  84.3612889
  96.2768313  57.8048037 101.3832457  95.3895092  57.4673959 101.5058855
  96.8466864  57.0731068 101.6201222  77.9297460  54.1372129  94.7075508
  78.6168500  53.8233859  94.1196523  77.7745589  55.0413493  94.4342759
  82.7332182  49.0262325  99.1360532  82.6490371  48.4187995  98.4010942
  81.9114889  49.5171343  99.1370028  89.8069466  62.4649489  98.3493700
  89.7339638  63.2704461  98.8613004  89.3646860  62.6641455  97.5241721
  89.5959246  61.7021259  91.8596521  88.8126768  62.2442939  91.9534746
  90.2951991  62.2195239  92.2590762  92.9055896  47.5115889  94.5030727
  93.4024596  46.7585851  94.1831797  92.1342878  47.5480205  93.9373936
 100.7585654  53.2156254  96.1449018 100.7475530  54.0980970  95.7742951
  99.8903033  52.8627805  95.9503555  92.2668150  62.3636323 100.5051858
  92.9796122  62.9983788 100.4327760  91.7758179  62.4600189  99.6891860
  93.9885677  56.2687576  92.0769150  93.0541956  56.3889038  91.9073854
  94.1662345  55.3660043  91.8129160  89.4890865  49.6533272  94.2302411
  89.1188652  49.1004312  94.9183317  89.9849957  49.0491405  93.6777411
  97.3758228  52.1104895  92.6119184  97.8418680  52.9432887  92.5379487
  97.8265729  51.6449877  93.3164443  87.3180063  60.1130767 101.3257429
  88.0189523  60.7467250 101.4786823  86.8475178  60.4545498 100.5653069
  95.4434459  58.4548716  89.6105336  95.7194303  58.3405311  90.5199210
  94.5738958  58.0566201  89.5717509  95.3474891  44.4785482  96.6510086
  94.4337971  44.7089709  96.8192293  95.7767992  44.5623926  97.5024118
  95.1181349  52.6675374  99.1509980  94.4652800  52.9151282  98.4962432
  95.4961729  51.8539512  98.8172457  92.0788523  62.7035067  93.2538150
  92.2610918  61.8856723  93.7165902  92.9021509  62.9202760  92.8163040
  92.4130689  61.6303252  90.5153198  92.9418455  61.1195707  89.9023360
  92.6758908  61.3145783  91.3798731  91.1668922  53.4095185 105.6376017
  90.4909559  53.3089314 106.3078392  91.9896556  53.2534399 106.1012014
  82.9147782  59.6467122  98.2588532  83.5001218  58.9010810  98.3916436
  82.7172620  59.9571078  99.1425196  85.7686437  62.6818369  93.2750974
  85.0996812  63.1664497  92.7915014  85.6299306  62.9287590  94.1894353
  77.5065436  52.2172722  96.9792975  77.5449536  51.6836313  97.7730093
  77.0005729  51.6907927  96.3603952  89.9091705  64.7162113  99.8733633
  90.4610013  64.8793734 100.6382718  90.2497899  65.3066550  99.2013658
  84.8856199  47.0637262 100.4755517  84.9497525  47.9252093 100.0632915
  84.8223319  46.4511264  99.7427876  84.3608471  49.1360395 104.1228552
  84.9880510  48.7537472 104.7366076  83.5036390  48.9174597 104.4884244
  94.7602580  59.5423370 105.7282287  95.3042484  60.1553328 105.2337242
  94.1789425  60.1002949 106.2449300  81.1374014  50.9436824  90.0546906
  81.4327455  50.0347502  90.0013960  80.2362050  50.9224564  89.7327909
  93.0460093  62.6644088  96.8597315  92.9211232  61.8633828  96.3508260
  93.7039184  63.1590281  96.3711285  84.6668261  49.0192821  96.0374455
  83.9454847  49.6328788  95.8981928  85.4561517  49.5550585  95.9591101
  95.1095001  60.4653108  98.4876865  94.1625337  60.3458459  98.4155192
  95.4577774  59.5775606  98.5703126  87.4694574  46.3547247 102.3115107
  87.9928976  46.6009544 103.0741416  87.2506908  47.1867282 101.8918244
  82.8661855  48.6250922  90.1786232  82.5374562  47.7448301  89.9961338
  83.2201226  48.5698590  91.0662621  92.1141434  60.2605824  94.6881217
  91.9666397  59.3322532  94.8688787  92.9394928  60.2825915  94.2038292
  85.9803679  48.9123892  90.5461709  86.3199751  49.4409813  89.8240318
  86.4275799  49.2504298  91.3220276  95.7175556  61.0834383  95.7746090
  96.6422104  60.8777244  95.6370541  95.5490860  60.8350784  96.6835431
  88.6747119  47.2960942  99.9964777  88.3343940  46.4968755 100.3985457
  87.9686126  47.5962653  99.4241611  89.3263591  44.3810255  98.4492100
  90.1489661  43.9070733  98.3270991  89.5701655  45.1600738  98.9490787
  87.9671826  47.4098513  88.7455002  88.6880188  47.7879766  88.2418719
  87.3437130  48.1287390  88.8489980  92.1102949  48.1143662  89.6813334
  92.3266563  48.9968300  89.3802163  91.6297016  47.7229875  88.9518976
  86.8502170  51.0729375  96.2584079  86.7046751  51.3869678  97.1508361
  86.3727374  51.6914276  95.7054978  88.7098553  48.0631923  96.3064969
  88.6960122  47.1673017  95.9697266  89.4270981  48.0702587  96.9403255
  90.5624684  48.4969263  98.3518096  90.3042461  49.4186334  98.3502426
  90.0309724  48.0999698  99.0418560  95.5070872  61.6020051  91.1308181
  95.6807750  61.0366473  90.3782034  95.9999764  62.4020945  90.9487671
  81.3247832  53.6134720  99.1971740  80.7801300  54.3894528  99.3292014
  82.2027182  53.9605524  99.0390862  88.1135449  46.9446304  91.5752539
  88.2351360  46.0162950  91.7743426  87.8237491  46.9584990  90.6630854
  90.9826639  44.6301214  94.7119259  91.0048336  44.6940547  93.7571238
  91.3994698  43.7905723  94.9059765 101.3610264  54.3656474  92.7498481
 101.8041410  53.6163799  92.3517604 100.4836774  54.3566610  92.3672213
  96.4946045  60.9186815  88.2305080  97.1896949  61.5393508  88.4492394
  96.8369195  60.0682166  88.5057458  82.1113854  52.7404616 102.0901897
  81.3695590  52.8887251 102.6766527  81.7906598  53.0012882 101.2268646
  98.3937468  58.3686521  89.7592410  98.9188792  58.7073793  89.0341730
  98.3059821  57.4333536  89.5755545  90.0557517  62.2820594 101.8882287
  90.3644643  62.0369741 102.7604987  90.8532999  62.4867233 101.4001157
  90.0778129  64.4358504  94.1187664  89.6383119  63.9434883  94.8120520
  90.8286246  63.8931471  93.8779739  82.5570468  60.6270045  94.1212292
  83.3828488  60.3273817  93.7410935  82.2064520  59.8577667  94.5702080
  87.5252001  59.9796513  96.1909965  86.9032010  59.3167218  95.8912193
  88.1956868  60.0057645  95.5083613  80.7579073  58.5456371  95.0801225
  79.9210981  58.1178545  94.8985227  80.7302718  58.7388814  96.0172016
  87.5976528  48.4578301 105.7842471  87.6464684  49.3340424 105.4020241
  88.1399043  47.9155694 105.2114115  98.0831374  59.0019424 105.0643608
  97.2926918  58.9843563 104.5248108  97.8464729  59.5407718 105.8192645
  98.2029249  55.8511891 102.3776337  98.2527254  55.6861898 103.3191860
  98.0943172  54.9839150 101.9874218  87.0865508  58.5300436  89.6668426
  87.2353628  59.2135901  89.0135099  87.8931951  58.5105526  90.1817882
  95.4933011  51.8342819 103.6935644  96.3942874  51.6949283 103.4019641
  95.5680986  51.9997273 104.6333821  89.8275817  49.2109673 102.5388830
  88.9579126  49.5043239 102.2671418  90.0635297  49.7950118 103.2596094
  99.7047446  58.2708832 102.6218358  99.4132254  58.6338813 103.4581819
  99.0919577  57.5575840 102.4431691 100.9043128  55.8361712  95.1420929
 101.7390020  56.2751516  95.3058489 101.0402257  55.3600365  94.3229174
  97.9534634  53.3941447 101.0898416  98.4288756  53.5869093 100.2817268
  97.0300200  53.4500633 100.8441800  84.8418141  54.5565614  90.6729495
  84.5964183  53.6527944  90.8709705  85.0114055  54.5582764  89.7308973
  92.5314851  45.4289290 100.0554250  93.0496795  46.1650317  99.7300739
  92.1769983  45.7353284 100.8901009  84.1113788  50.2893971  88.1715656
  83.4183033  50.3638326  87.5155692  83.8665540  49.5254315  88.6937173
  92.7827445  41.8489573  95.5755147  93.0629199  41.1812762  96.2015573
  93.5678052  42.0418668  95.0629811  90.5860913  61.0248567  87.1380173
  90.0134880  61.6438754  86.6850645  91.1593707  61.5747928  87.6720095
  96.6536303  50.2707207  99.3226722  97.6053726  50.3705304  99.3438946
  96.4839754  49.4785475  99.8324806  94.6750683  47.3562790  99.5086123
  94.0800615  47.6367803  98.8132612  94.3900379  47.8456691 100.2802864
  93.8058173  61.3085717  88.2688756  94.7388846  61.2431279  88.4721631
  93.7181386  62.1441984  87.8103288  96.4346190  60.6251587  85.2292703
  96.3559821  60.2911451  86.1228461  97.2555857  61.1173355  85.2284175
  99.1324381  53.4913326  98.4369022  99.1000701  52.5529327  98.6228706
  99.7425005  53.5697363  97.7034847  90.9707712  52.3609379  84.4796226
  91.9166817  52.2315588  84.5484644  90.5921957  51.6224041  84.9565654
  99.2818869  50.2824370  98.4827305  98.7657918  49.4982827  98.2957234
 100.1658818  49.9543087  98.6473824  96.9429596  44.0265385  94.4423118
  96.7454417  43.7180474  95.3266450  97.5529302  44.7527024  94.5721047
 104.9500931  54.5529333  97.5775058 105.6804319  54.2914621  98.1382762
 104.3407876  53.8158055  97.6177126 103.0316228  52.6937196  98.1749510
 102.3049391  52.5593161  97.5666001 102.6163515  53.0014025  98.9806228
  90.8546404  56.4127126 105.9396883  91.7749414  56.5905725 106.1336929
  90.8195987  55.4683171 105.7876582  89.1550629  50.2859356  84.4151111
  88.2482084  49.9892469  84.4913825  89.4326610  49.9889174  83.5485397
  80.0728569  51.6065719  94.8650157  79.7531354  50.7531027  94.5724531
  79.5261998  51.8214297  95.6208125  83.8508477  54.3228160  98.5819664
  84.0694487  55.2545268  98.6007698  84.2634251  53.9636135  99.3674468
  90.7712695  44.8296246  90.5695352  89.9613423  44.4843331  90.9450598
  91.4597112  44.5203789  91.1582964  92.7003243  43.9074292  92.1919649
  93.2534282  44.3269746  92.8509672  92.9373329  42.9810040  92.2342605
  88.7236342  49.8961366 107.9722413  88.6233069  50.8455723 107.9034504
  88.5057884  49.5679605 107.0998483  87.9249414  47.1446291  84.5563090
  88.7868578  47.4701189  84.8158907  88.1099758  46.3577787  84.0436156
  79.9416829  55.2268631  96.8343279  79.2480301  54.8122584  96.3213233
  80.6889820  55.2689167  96.2376698  96.0782050  46.0174818  91.6998313
  95.4980719  46.6759622  91.3176366  95.8117983  45.1952162  91.2885731
  94.5285616  45.4179875  93.9019633  95.0285395  45.5296410  93.0933952
  95.1721224  45.1140928  94.5420442  88.5867612  53.3258505 106.7887474
  88.1034694  54.1258865 106.9951363  88.6728551  53.3366450 105.8354918
  81.8553572  55.1586885  94.7109294  81.8324260  55.2574572  93.7591177
  82.1654208  56.0052035  95.0326460  84.5140950  57.2163040  98.8255908
  85.4684203  57.1846982  98.7585840  84.3153473  56.7553663  99.6406134
  85.1040332  55.7864156 101.3926706  85.9233221  56.2808234 101.4161543
  85.3777140  54.8696124 101.3644273  94.8606928  48.1774908  90.7554661
  93.9732783  48.4624559  90.5374856  95.2760917  48.0168671  89.9081938
  98.2121464  48.2021429  94.4709001  98.9881854  48.6917881  94.7433617
  97.4869598  48.6279483  94.9280870 100.6494023  48.9149048  95.5282941
 101.2438514  48.6744784  94.8176250 100.7220607  48.1956179  96.1556478
  82.8691179  62.7582659  95.8426106  82.7345646  61.9983060  95.2764104
  82.4523241  63.4823559  95.3754895  94.0050142  57.9419583  84.8502681
  94.7085992  58.1469585  85.4660337  93.2812790  58.5096344  85.1151765
  94.8347952  53.6929444  90.9704952  94.7783153  54.1497995  90.1312584
  95.3876294  52.9320128  90.7927794  98.6452758  49.4819176  91.7955071
  98.3889692  49.0815811  92.6263279  98.0205626  50.1962970  91.6705210
 102.9565096  52.2215249  94.3026362 102.3964654  52.2908438  95.0757925
 102.3508599  52.0456234  93.5825859  86.0260304  63.6551976  96.0544549
  85.9092689  64.5997409  95.9523239  85.2052751  63.3525538  96.4430348
  95.9136839  58.3802112  86.9001141  96.7482443  57.9483310  86.7178616
  95.7521182  58.2084125  87.8278036  95.5682731  54.8834225  88.2657481
  95.5131535  54.7178497  87.3245925  94.9428786  55.5910258  88.4219670
  80.3575246  50.1202289 102.0918903  81.0034110  49.6101243 102.5806128
  80.1492397  50.8570971 102.6662328  92.8828638  57.1883137 107.5911044
  93.7519798  57.3623789 107.2297678  92.4035390  58.0077554 107.4686773
  88.8778857  44.3842334  87.8442799  88.8657526  45.3284174  88.0011070
  89.7702278  44.2012479  87.5502260  87.0514819  64.3080238  99.2700477
  87.9542065  64.3403848  99.5866972  86.8252189  63.3780689  99.2846813
  88.8068421  63.0611224  95.9310556  87.8564052  63.0613086  95.8174928
  89.1100907  62.3143959  95.4146590  92.6930976  40.9785111  92.0988736
  91.9263372  40.4243597  92.2445418  93.1041681  41.0506979  92.9602888
  84.6972737  47.2669907 106.1893917  85.5604199  46.9106711 106.3997242
  84.1238148  46.9283801 106.8769321 104.5421114  68.8971763  96.9956318
 105.1799524  68.7778510  96.2919658 104.4241957  69.8452607  97.0544270
 101.3510820  68.8499191  96.9317843 101.0129332  68.7340256  96.0438378
 102.2200589  68.4490356  96.9118849  97.2097636  70.7034667  92.9214734
  96.6462501  70.6124604  92.1531022  97.0950031  69.8834572  93.4017226
 101.8330603  70.0034043 102.8904048 101.8219244  69.6086841 102.0184552
 101.9951243  69.2700115 103.4837820  94.7562068  72.1985859  95.7598954
  95.5483360  71.8576684  95.3445254  94.9958718  72.3080834  96.6801108
 102.7897195  74.3705635  88.2329199 102.1385174  74.9559716  87.8463213
 103.5841558  74.9011830  88.2924236  98.5537864  72.7871155 101.8383232
  98.2627730  73.6916785 101.7229899  99.1894849  72.8287682 102.5527302
  99.4794071  70.1648003  98.4284592 100.0757644  69.9404025  97.7141555
  99.5369043  69.4232749  99.0310040  99.0519100  67.6187438  86.2634783
  99.3044620  67.0968960  85.5018246  98.1143659  67.4553584  86.3661467
 104.0962383  66.6223217  94.0709526 104.8825472  66.2042640  93.7199943
 104.3601087  67.5269309  94.2391175 104.2672460  72.0596067  88.7698183
 103.6318293  72.1330694  89.4819088 103.9369866  72.6489666  88.0917262
 109.4970810  66.5598450  94.9742505 110.2295982  65.9897667  95.2080334
 108.7410165  66.1720050  95.4149010  98.7715388  69.5215544  88.4659158
  98.6551647  68.8460448  89.1340242  98.8817648  69.0347918  87.6491311
 101.1146929  68.9825691  92.1705847 100.7505137  68.4556312  92.8818769
 101.9714045  68.5924160  91.9972333 107.0196230  60.2720024  99.4337113
 106.6879555  61.1415435  99.2098328 106.4241843  59.9556308 100.1131144
 100.7552416  64.0115591  87.1667196 100.9226819  64.8795828  87.5337667
 100.5649585  64.1742873  86.2428485 103.5127750  72.4732570  98.8333026
 103.2128473  73.3757609  98.7248833 103.1678809  72.2064753  99.6854179
  96.9640231  68.9246367  94.8669731  96.0390727  68.7922581  95.0747422
  97.2124644  69.7040586  95.3639673 106.9124893  64.9915110  96.5130463
 106.0041771  64.9230519  96.2189224 106.8612489  65.4687055  97.3412289
 100.7341637  66.4673249  88.1513863 100.6141262  66.9130299  88.9899343
 100.0394226  66.8158566  87.5927401  94.3249042  68.5679640  95.7013520
  94.4541423  68.8214119  96.6152931  93.6446493  69.1607348  95.3818175
  98.4948529  79.2376890  91.8003994  98.4172559  80.1884715  91.8792474
  97.8910173  78.8922763  92.4578920 100.9865759  66.4104756 104.4565361
 100.2099093  66.9698676 104.4468225 101.6256322  66.8961539 104.9780231
 108.7786540  63.1931549  98.2908337 108.1360920  63.4864082  97.6448132
 108.2741468  63.0784469  99.0961534 106.4326703  66.9394722  88.9794197
 107.3444560  67.1722109  88.8041894 105.9236350  67.5231766  88.4169275
  99.2412131  69.2190209 104.0183328  99.9826816  69.7575253 103.7418151
  98.5349117  69.8456498 104.1754879 104.7167471  71.3619350 102.6155489
 105.1250827  70.9201760 101.8710122 103.9944733  70.7871977 102.8689682
 101.0698541  66.2991956  99.9889046 101.9159736  66.7231370 100.1323695
 101.0097179  65.6425581 100.6827609 105.0396286  71.9220540  96.3707778
 104.4105148  72.0866254  95.6683846 104.6521948  72.3362150  97.1418742
 108.9185518  72.8574978  93.7252142 108.2336556  73.2373879  93.1749175
 109.0029367  73.4670305  94.4584090 104.2197986  63.9596325 101.6470220
 103.9758918  64.7138385 101.1104495 104.4957917  64.3381672 102.4817467
 106.1736449  70.5034937 100.3247485 106.3853344  71.1466697  99.6481866
 106.1266197  69.6697254  99.8569415 103.7762678  63.1152758  97.2284057
 102.9147157  63.4134011  97.5200795 103.8025113  63.3323157  96.2965090
 100.5924248  71.6594948  93.6357863 101.0562593  71.9382651  92.8462486
 100.3281046  70.7578393  93.4530954  97.4848329  71.2066430  96.5737626
  98.0549686  71.6353698  95.9355111  98.0756440  70.9249015  97.2721812
  99.5293134  67.7818101  90.4447428 100.2317177  68.2339144  90.9121355
  99.1973762  67.1401920  91.0727321  97.9773495  66.3729857 104.8198638
  97.3472156  67.0546138 105.0534034  97.8709583  66.2612939 103.8751776
  93.2718468  66.0401653  95.7464562  92.4817522  66.2959182  95.2704672
  93.7629715  66.8549991  95.8516602 107.2882277  73.3806893  98.4969843
 108.1099721  72.9787080  98.2152524 107.2844680  73.2775127  99.4485958
  95.2233213  66.4046233  92.7048039  94.4264376  66.5164927  93.2231534
  94.9958805  66.7432885  91.8388929 101.0538881  72.9290936 100.6530553
 101.1183313  73.3911343 101.4888725 100.3449804  72.2988301 100.7812863
  91.5556171  66.2932144  98.1779553  91.8064209  67.1779154  98.4437129
  92.0915719  66.1136745  97.4054644 115.3788270  69.7245641  94.8454814
 114.6251979  69.1553039  94.6898819 115.5135811  69.6908306  95.7925449
 100.7686898  74.5959043  90.5209534 100.6332573  75.4410579  90.9494381
 101.3096711  74.7978321  89.7575467  97.2554238  60.6750623 107.1823889
  96.8621183  60.1216822 107.8571533  98.0720378  60.9861202 107.5730406
 100.1722199  62.0908502 104.7744145 100.9131912  62.6915655 104.6948608
 100.4040122  61.3486140 104.2162188  95.3163537  67.2764870 103.0522375
  95.2017052  66.3750127 103.3529474  94.4608055  67.5228566 102.7007192
 102.3955375  75.2182610 104.6509876 101.9519229  74.4318988 104.3330780
 103.0572588  75.4061760 103.9853766  97.1542496  76.7478411  99.1770554
  97.7049921  76.6195475  98.4047548  96.3153972  77.0473300  98.8265447
 104.4936613  75.4985410 102.6791277 104.4755088  76.3194291 102.1871546
 105.4156533  75.3739485 102.9041418 100.9509667  73.0129539 103.5214785
 101.4838004  72.2517827 103.2914093 100.4223748  72.7203191 104.2638940
 104.1179362  58.1189605  99.0508427 103.7743631  59.0091247  98.9747538
 104.4858324  57.9291263  98.1878012 104.0829645  68.1098216  87.5580862
 103.5676268  68.8802821  87.7969249 103.8106953  67.4363352  88.1813924
 101.6676756  62.9547917  92.6166100 100.8118352  62.5654767  92.4371739
 102.0803707  63.0339878  91.7565886 103.1975902  60.4894260  97.0157660
 102.6940698  60.4524396  96.2025466 103.4906509  61.3987003  97.0754317
  99.4418788  60.5732990  96.0223842 100.3071785  60.3775799  95.6629731
  99.5096297  60.3443342  96.9493199 109.0563919  70.8630571  89.4934036
 108.2793361  70.5241730  89.0489198 109.7355400  70.8683194  88.8189001
 103.8715948  65.9825308  89.3840643 103.5666083  66.2971458  90.2350786
 104.8246390  66.0606728  89.4267976 102.3162380  72.1415532  91.0333597
 101.7883741  71.4068291  90.7206835 101.8149882  72.9190208  90.7873566
 107.2955226  70.3364552  96.1500644 106.6378900  71.0263814  96.2380772
 108.0995625  70.7260984  96.4934630  97.0481107  62.8035198  93.3940209
  97.6224859  62.5810380  92.6613402  97.6352090  62.8723893  94.1468810
 106.1060684  68.6908925  94.2004585 106.6192566  69.3238917  94.7026295
 106.7561908  68.0910120  93.8347945  97.3750694  64.8339659  87.4136094
  96.5388007  65.1714346  87.7345369  97.2355464  64.6988639  86.4763231
  99.3503775  59.6776447  92.1215278  98.6968187  59.3625464  91.4971893
  99.3084249  59.0552187  92.8475101 100.4614980  69.9595742  84.0368570
  99.5542041  69.7284995  84.2359719 100.9586012  69.1633361  84.2242552
 103.3683059  78.6693249  86.9565256 102.6944757  78.9724946  87.5650214
 103.7548881  79.4722330  86.6070713 102.5841515  66.1658380  96.4462926
 101.6664077  66.3873327  96.2884614 103.0001659  66.2404691  95.5874633
 103.3676563  67.5649796  91.5765606 104.1148382  68.0771193  91.2672728
 103.6368153  67.2433849  92.4370000 101.6403213  70.0608337  88.5592560
 100.7314432  69.7767370  88.6565030 101.6698297  70.4807415  87.6995867
 106.8722481  73.6714926  92.3283728 106.4184808  72.8305836  92.3848918
 106.2416447  74.3076325  92.6658508 105.8155400  64.6006912  93.5584395
 105.0778157  64.0884299  93.8894638 106.0682174  64.1607294  92.7467672
 105.3155420  75.5091423  93.2633546 105.6078394  76.0696480  92.5445912
 105.8254040  75.8019984  94.0186705 105.9167027  57.3783164  94.1526165
 106.2225904  56.5180528  93.8652080 106.6419632  57.9700785  93.9525159
  92.2091384  67.7813851  92.5407763  92.0115783  67.1883212  91.8158829
  91.6538048  67.4766061  93.2583701 100.1888107  67.6736957  94.6602356
 100.2436717  66.7210794  94.5844832  99.3779309  67.8296397  95.1443654
 101.3379301  71.6017081  85.8980639 100.8998731  70.8852939  85.4386276
 102.0789742  71.8293195  85.3365730  98.1280467  66.2914017  92.4192735
  97.3148333  66.5908188  92.8257927  98.6239461  65.8969706  93.1367217
 100.2789045  76.2871774  94.3526999 100.2365224  76.5132620  93.4235531
 101.1951744  76.0535149  94.5012800 103.7254679  66.7555842 101.2507628
 104.0804067  66.9827315 102.1102094 104.3726810  67.0874218 100.6284884
 109.4552416  69.8774278  91.9556958 109.3170314  70.0675874  91.0278147
 109.0988635  70.6393660  92.4125009  97.6194542  63.8632373  98.0353970
  98.2593921  63.7221132  97.3376933  96.7872072  63.5766886  97.6592572
 109.4821795  71.9450805  96.9668229 109.9158302  71.8526094  97.8151283
 110.1953376  71.9208305  96.3288245  98.3954846  73.1634803  94.1488962
  99.1895444  72.6685123  93.9471537  97.6846538  72.6352666  93.7856668
 103.2149690  75.5452899  98.5001330 103.2686713  76.1143835  99.2679046
 102.3464472  75.7154784  98.1355367  94.7037609  67.3077885  90.2248715
  93.7735197  67.2462340  90.4418677  94.7995081  66.7853838  89.4285356
  94.6223158  63.8332698  92.8126956  94.8829976  64.7478031  92.7036117
  95.4440331  63.3657140  92.9623569  96.0948084  65.2470455  99.9825781
  96.7671137  65.0387817  99.3338430  95.2677870  65.0492541  99.5431013
 110.3437345  71.9874505  99.5001114 110.5373235  72.8920316  99.7460389
 110.2437963  71.5281924 100.3339699 101.9973656  61.8732396 101.9991442
 101.3501571  62.5722345 101.9055918 102.7674671  62.3068540 102.3667690
 105.4052454  72.1381248 105.0741995 105.2537960  71.9091800 104.1572079
 105.3957133  73.0951849 105.0873340 102.1737790  69.7113161 100.0588261
 103.1029850  69.8624320  99.8857229 101.7528820  69.7997182  99.2036908
 100.9726122  73.7363825  97.8286799 100.8337207  73.3682610  98.7012737
 100.1840718  74.2511465  97.6570757 101.5674274  78.8372922  89.1712336
 101.7426029  78.3660965  89.9857958 100.8807062  79.4638688  89.3993596
 102.5231337  73.1145428  95.2175637 102.1881170  73.0746198  96.1133287
 102.0235283  72.4490144  94.7446047  96.4975581  68.5213058 100.7428218
  96.3595379  67.7893297 101.3439757  97.4080504  68.4321958 100.4612406
 105.4590529  70.4601462  85.4912697 104.8419699  69.7348290  85.3945749
 104.9907017  71.2210822  85.1479771  99.1257882  68.2333017 100.2311898
  99.8357500  67.5926209 100.1898516  99.0827190  68.4845912 101.1538078
 107.1144660  75.1700371 103.1518477 107.0557206  74.4859591 102.4849060
 107.5164179  75.9119361 102.6999103  97.8386816  65.2198235 102.0507537
  97.3024173  64.7688974 102.7029133  97.2503524  65.3544144 101.3078002
  97.2489075  64.6786886  84.6134001  96.3718541  64.5575687  84.2496247
  97.7246828  63.8872965  84.3612889 107.1162068  73.1339954 101.3832457
 106.2288846  72.7965876 101.5058855 107.6860619  72.4022986 101.6201222
  88.7691215  69.4664046  94.7075508  89.4562254  69.1525776  94.1196523
  88.6139343  70.3705411  94.4342759  93.5725937  64.3554243  99.1360532
  93.4884126  63.7479912  98.4010942  92.7508643  64.8463261  99.1370028
 100.6463221  77.7941407  98.3493700 100.5733392  78.5996378  98.8613004
 100.2040614  77.9933373  97.5241721 100.4353001  77.0313177  91.8596521
  99.6520522  77.5734857  91.9534746 101.1345746  77.5487156  92.2590762
 103.7449651  62.8407806  94.5030727 104.2418350  62.0877769  94.1831797
 102.9736632  62.8772123  93.9373936 111.5979408  68.5448172  96.1449018
 111.5869284  69.4272887  95.7742951 110.7296787  68.1919723  95.9503555
 103.1061904  77.6928241 100.5051858 103.8189877  78.3275706 100.4327760
 102.6151933  77.7892107  99.6891860 104.8279431  71.5979494  92.0769150
 103.8935710  71.7180956  91.9073854 105.0056100  70.6951960  91.8129160
 100.3284619  64.9825189  94.2302411  99.9582407  64.4296230  94.9183317
 100.8243712  64.3783323  93.6777411 108.2151983  67.4396813  92.6119184
 108.6812435  68.2724804  92.5379487 108.6659483  66.9741794  93.3164443
  98.1573818  75.4422684 101.3257429  98.8583277  76.0759167 101.4786823
  97.6868933  75.7837416 100.5653069 106.2828214  73.7840634  89.6105336
 106.5588058  73.6697229  90.5199210 105.4132713  73.3858119  89.5717509
 106.1868645  59.8077400  96.6510086 105.2731725  60.0381627  96.8192293
 106.6161747  59.8915844  97.5024118 105.9575104  67.9967292  99.1509980
 105.3046554  68.2443199  98.4962432 106.3355484  67.1831430  98.8172457
 103.2524443  76.9595170  90.5153198 103.7812210  76.4487625  89.9023360
 103.5152663  76.6437700  91.3798731 102.0062677  68.7387103 105.6376017
 101.3303314  68.6381232 106.3078392 102.8290311  68.5826317 106.1012014
  93.7541536  74.9759039  98.2588532  94.3394973  74.2302727  98.3916436
  93.5566374  75.2862996  99.1425196  96.6080191  78.0110287  93.2750974
  95.9390567  78.4956414  92.7915014  96.4693061  78.2579507  94.1894353
  88.3459191  67.5464640  96.9792975  88.3843290  67.0128230  97.7730093
  87.8399484  67.0199845  96.3603952 100.7485460  80.0454030  99.8733633
 101.3003768  80.2085652 100.6382718 101.0891653  80.6358468  99.2013658
  95.7249953  62.3929180 100.4755517  95.7891280  63.2544011 100.0632915
  95.6617073  61.7803182  99.7427876  95.2002226  64.4652313 104.1228552
  95.8274264  64.0829390 104.7366076  94.3430144  64.2466515 104.4884244
 105.5996334  74.8715288 105.7282287 106.1436238  75.4845246 105.2337242
 105.0183179  75.4294866 106.2449300  91.9767768  66.2728742  90.0546906
  92.2721209  65.3639420  90.0013960  91.0755804  66.2516481  89.7327909
  95.5062015  64.3484738  96.0374455  94.7848601  64.9620706  95.8981928
  96.2955271  64.8842503  95.9591101 105.9488755  75.7945026  98.4876865
 105.0019091  75.6750377  98.4155192 106.2971529  74.9067524  98.5703126
  98.3088329  61.6839165 102.3115107  98.8322731  61.9301461 103.0741416
  98.0900662  62.5159200 101.8918244  93.7055610  63.9542839  90.1786232
  93.3768316  63.0740218  89.9961338  94.0594981  63.8990508  91.0662621
 102.9535189  75.5897742  94.6881217 102.8060151  74.6614450  94.8688787
 103.7788682  75.6117833  94.2038292  96.8197433  64.2415809  90.5461709
  97.1593506  64.7701730  89.8240318  97.2669554  64.5796215  91.3220276
 106.5569311  76.4126301  95.7746090 107.4815858  76.2069162  95.6370541
 106.3884614  76.1642702  96.6835431  99.5140874  62.6252860  99.9964777
  99.1737694  61.8260673 100.3985457  98.8079880  62.9254571  99.4241611
 100.1657346  59.7102172  98.4492100 100.9883415  59.2362651  98.3270991
 100.4095409  60.4892656  98.9490787  98.8065580  62.7390431  88.7455002
  99.5273943  63.1171684  88.2418719  98.1830884  63.4579308  88.8489980
 102.9496703  63.4435580  89.6813334 103.1660318  64.3260218  89.3802163
 102.4690770  63.0521793  88.9518976  97.6895924  66.4021293  96.2584079
  97.5440505  66.7161596  97.1508361  97.2121128  67.0206193  95.7054978
  99.5492307  63.3923841  96.3064969  99.5353876  62.4964934  95.9697266
 100.2664735  63.3994505  96.9403255 101.4018438  63.8261181  98.3518096
 101.1436216  64.7478252  98.3502426 100.8703478  63.4291616  99.0418560
 106.3464627  76.9311968  91.1308181 106.5201504  76.3658391  90.3782034
 106.8393518  77.7312863  90.9487671  92.1641587  68.9426637  99.1971740
  91.6195055  69.7186445  99.3292014  93.0420937  69.2897442  99.0390862
  98.9529203  62.2738221  91.5752539  99.0745115  61.3454867  91.7743426
  98.6631246  62.2876907  90.6630854 101.8220394  59.9593132  94.7119259
 101.8442091  60.0232465  93.7571238 102.2388453  59.1197640  94.9059765
 112.2004018  69.6948391  92.7498481 112.6435164  68.9455716  92.3517604
 111.3230528  69.6858528  92.3672213 107.3339799  76.2478733  88.2305080
 108.0290704  76.8685425  88.4492394 107.6762949  75.3974084  88.5057458
  92.9507609  68.0696534 102.0901897  92.2089345  68.2179169 102.6766527
  92.6300353  68.3304799 101.2268646 109.2331222  73.6978438  89.7592410
 109.7582547  74.0365711  89.0341730 109.1453575  72.7625454  89.5755545
 100.8951271  77.6112512 101.8882287 101.2038398  77.3661659 102.7604987
 101.6926753  77.8159150 101.4001157 100.9171883  79.7650421  94.1187664
 100.4776874  79.2726800  94.8120520 101.6680000  79.2223389  93.8779739
  93.3964222  75.9561962  94.1212292  94.2222242  75.6565734  93.7410935
  93.0458274  75.1869585  94.5702080  98.3645755  75.3088431  96.1909965
  97.7425765  74.6459136  95.8912193  99.0350622  75.3349562  95.5083613
  91.5972827  73.8748289  95.0801225  90.7604736  73.4470463  94.8985227
  91.5696473  74.0680732  96.0172016  98.4370283  63.7870219 105.7842471
  98.4858438  64.6632341 105.4020241  98.9792797  63.2447612 105.2114115
 108.9225129  74.3311342 105.0643608 108.1320672  74.3135481 104.5248108
 108.6858483  74.8699636 105.8192645 109.0423004  71.1803808 102.3776337
 109.0921009  71.0153816 103.3191860 108.9336927  70.3131067 101.9874218
 106.3326766  67.1634736 103.6935644 107.2336629  67.0241201 103.4019641
 106.4074740  67.3289191 104.6333821 100.6669571  64.5401591 102.5388830
  99.7972881  64.8335157 102.2671418 100.9029052  65.1242036 103.2596094
 110.5441200  73.6000750 102.6218358 110.2526009  73.9630730 103.4581819
 109.9313332  72.8867758 102.4431691 111.7436883  71.1653630  95.1420929
 112.5783774  71.6043434  95.3058489 111.8796012  70.6892283  94.3229174
 108.7928389  68.7233364 101.0898416 109.2682510  68.9161011 100.2817268
 107.8693954  68.7792550 100.8441800 103.3708605  60.7581208 100.0554250
 103.8890549  61.4942235  99.7300739 103.0163738  61.0645201 100.8901009
  94.9507543  65.6185889  88.1715656  94.2576788  65.6930244  87.5155692
  94.7059295  64.8546233  88.6937173 103.6221199  57.1781490  95.5755147
 103.9022953  56.5104680  96.2015573 104.4071806  57.3710586  95.0629811
 101.4254668  76.3540484  87.1380173 100.8528635  76.9730672  86.6850645
 101.9987461  76.9039846  87.6720095 107.4930058  65.5999124  99.3226722
 108.4447481  65.6997222  99.3438946 107.3233508  64.8077393  99.8324806
 105.5144437  62.6854708  99.5086123 104.9194369  62.9659720  98.8132612
 105.2294134  63.1748609 100.2802864 104.6451928  76.6377635  88.2688756
 105.5782601  76.5723196  88.4721631 104.5575140  77.4733901  87.8103288
 107.2739944  75.9543505  85.2292703 107.1953576  75.6203368  86.1228461
 108.0949611  76.4465273  85.2284175 109.9718135  68.8205244  98.4369022
 109.9394456  67.8821245  98.6228706 110.5818759  68.8989281  97.7034847
 101.8101466  67.6901297  84.4796226 102.7560571  67.5607505  84.5484644
 101.4315711  66.9515959  84.9565654 110.1212624  65.6116288  98.4827305
 109.6051673  64.8274744  98.2957234 111.0052572  65.2835004  98.6473824
 107.7823351  59.3557303  94.4423118 107.5848172  59.0472391  95.3266450
 108.3923056  60.0818942  94.5721047 115.7894685  69.8821251  97.5775058
 116.5198074  69.6206539  98.1382762 115.1801631  69.1449973  97.6177126
 113.8709982  68.0229114  98.1749510 113.1443146  67.8885079  97.5666001
 113.4557269  68.3305942  98.9806228 101.6940159  71.7419043 105.9396883
 102.6143168  71.9197642 106.1336929 101.6589742  70.7975089 105.7876582
  99.9944383  65.6151274  84.4151111  99.0875839  65.3184386  84.4913825
 100.2720364  65.3181092  83.5485397  90.9122324  66.9357637  94.8650157
  90.5925108  66.0822945  94.5724531  90.3655752  67.1506215  95.6208125
  94.6902231  69.6520078  98.5819664  94.9088241  70.5837186  98.6007698
  95.1028005  69.2928052  99.3674468 101.6106449  60.1588163  90.5695352
 100.8007177  59.8135248  90.9450598 102.2990866  59.8495707  91.1582964
 103.5396997  59.2366210  92.1919649 104.0928036  59.6561663  92.8509672
 103.7767084  58.3101958  92.2342605  99.5630097  65.2253284 107.9722413
  99.4626824  66.1747641 107.9034504  99.3451639  64.8971523 107.0998483
  98.7643168  62.4738209  84.5563090  99.6262332  62.7993107  84.8158907
  98.9493512  61.6869705  84.0436156  90.7810584  70.5560548  96.8343279
  90.0874055  70.1414501  96.3213233  91.5283575  70.5981085  96.2376698
 106.9175805  61.3466735  91.6998313 106.3374474  62.0051539  91.3176366
 106.6511737  60.5244080  91.2885731 105.3679371  60.7471793  93.9019633
 105.8679149  60.8588327  93.0933952 106.0114979  60.4432846  94.5420442
  99.4261367  68.6550423 106.7887474  98.9428448  69.4550783 106.9951363
  99.5122306  68.6658367 105.8354918  92.6947326  70.4878802  94.7109294
  92.6718014  70.5866489  93.7591177  93.0047963  71.3343953  95.0326460
  95.3534704  72.5454957  98.8255908  96.3077958  72.5138900  98.7585840
  95.1547228  72.0845581  99.6406134  95.9434086  71.1156073 101.3926706
  96.7626975  71.6100152 101.4161543  96.2170894  70.1988041 101.3644273
 105.7000683  63.5066826  90.7554661 104.8126538  63.7916476  90.5374856
 106.1154672  63.3460589  89.9081938 109.0515219  63.5313347  94.4709001
 109.8275609  64.0209799  94.7433617 108.3263353  63.9571401  94.9280870
 111.4887777  64.2440966  95.5282941 112.0832268  64.0036702  94.8176250
 111.5614361  63.5248096  96.1556478  93.7084933  78.0874577  95.8426106
  93.5739401  77.3274978  95.2764104  93.2916995  78.8115477  95.3754895
 104.8443896  73.2711500  84.8502681 105.5479746  73.4761503  85.4660337
 104.1206545  73.8388262  85.1151765 105.6741706  69.0221362  90.9704952
 105.6176908  69.4789913  90.1312584 106.2270049  68.2612046  90.7927794
 109.4846512  64.8111093  91.7955071 109.2283446  64.4107729  92.6263279
 108.8599380  65.5254887  91.6705210 113.7958850  67.5507167  94.3026362
 113.2358408  67.6200356  95.0757925 113.1902353  67.3748151  93.5825859
  96.8654059  78.9843894  96.0544549  96.7486443  79.9289326  95.9523239
  96.0446505  78.6817455  96.4430348 106.7530593  73.7094029  86.9001141
 107.5876197  73.2775228  86.7178616 106.5914936  73.5376043  87.8278036
 106.4076486  70.2126143  88.2657481 106.3525289  70.0470414  87.3245925
 105.7822541  70.9202176  88.4219670  91.1969001  65.4494207 102.0918903
  91.8427864  64.9393161 102.5806128  90.9886152  66.1862889 102.6662328
 103.7222393  72.5175055 107.5911044 104.5913552  72.6915707 107.2297678
 103.2429144  73.3369471 107.4686773  99.7172611  59.7134252  87.8442799
  99.7051281  60.6576092  88.0011070 100.6096033  59.5304397  87.5502260
  97.8908573  79.6372156  99.2700477  98.7935820  79.6695766  99.5866972
  97.6645943  78.7072607  99.2846813  99.6462175  78.3903142  95.9310556
  98.6957806  78.3905004  95.8174928  99.9494661  77.6435877  95.4146590
 103.5324731  56.3077028  92.0988736 102.7657126  55.7535515  92.2445418
 103.9435436  56.3798897  92.9602888  95.5366492  62.5961824 106.1893917
  96.3997953  62.2398629 106.3997242  94.9631902  62.2575719 106.8769321
 115.3814869  84.2263681  96.9956318 116.0193278  84.1070428  96.2919658
 115.2635711  85.1744525  97.0544270 112.1904575  84.1791109  96.9317843
 111.8523086  84.0632173  96.0438378 113.0594343  83.7782274  96.9118849
 112.6724358  85.3325960 102.8904048 112.6612999  84.9378759 102.0184552
 112.8344997  84.5992033 103.4837820 109.3931619  88.1163072 101.8383232
 109.1021485  89.0208703 101.7229899 110.0288603  88.1579600 102.5527302
 110.3187826  85.4939921  98.4284592 110.9151398  85.2695943  97.7141555
 110.3762797  84.7524666  99.0310040 109.8912854  82.9479356  86.2634783
 110.1438375  82.4260877  85.5018246 108.9537413  82.7845501  86.3661467
 114.9356137  81.9515134  94.0709526 115.7219226  81.5334558  93.7199943
 115.1994841  82.8561227  94.2391175 120.3364564  81.8890368  94.9742505
 121.0689736  81.3189584  95.2080334 119.5803920  81.5011968  95.4149010
 117.8589984  75.6011942  99.4337113 117.5273309  76.4707353  99.2098328
 117.2635598  75.2848226 100.1131144 111.5946171  79.3407509  87.1667196
 111.7620573  80.2087745  87.5337667 111.4043340  79.5034791  86.2428485
 114.3521504  87.8024488  98.8333026 114.0522227  88.7049527  98.7248833
 114.0072564  87.5356671  99.6854179 117.7518648  80.3207028  96.5130463
 116.8435525  80.2522436  96.2189224 117.7006244  80.7978973  97.3412289
 111.5735392  81.7965166  88.1513863 111.4535017  82.2422217  88.9899343
 110.8787980  82.1450484  87.5927401 111.8259514  81.7396673 104.4565361
 111.0492848  82.2990594 104.4468225 112.4650077  82.2253456 104.9780231
 119.6180294  78.5223466  98.2908337 118.9754674  78.8155999  97.6448132
 119.1135223  78.4076387  99.0961534 117.2720458  82.2686639  88.9794197
 118.1838314  82.5014026  88.8041894 116.7630105  82.8523684  88.4169275
 110.0805886  84.5482127 104.0183328 110.8220570  85.0867171 103.7418151
 109.3742871  85.1748416 104.1754879 115.5561226  86.6911267 102.6155489
 115.9644582  86.2493678 101.8710122 114.8338487  86.1163895 102.8689682
 111.9092296  81.6283874  99.9889046 112.7553491  82.0523288 100.1323695
 111.8490933  80.9717498 100.6827609 115.8790040  87.2512458  96.3707778
 115.2498903  87.4158172  95.6683846 115.4915702  87.6654067  97.1418742
 119.7579272  88.1866896  93.7252142 119.0730310  88.5665797  93.1749175
 119.8423121  88.7962222  94.4584090 115.0591741  79.2888242 101.6470220
 114.8152673  80.0430303 101.1104495 115.3351671  79.6673590 102.4817467
 117.0130204  85.8326855 100.3247485 117.2247099  86.4758615  99.6481866
 116.9659952  84.9989171  99.8569415 114.6156433  78.4444675  97.2284057
 113.7540912  78.7425929  97.5200795 114.6418867  78.6615074  96.2965090
 108.8167250  81.7021775 104.8198638 108.1865910  82.3838056 105.0534034
 108.7103338  81.5904857 103.8751776 118.1276032  88.7098810  98.4969843
 118.9493475  88.3078998  98.2152524 118.1238435  88.6067044  99.4485958
 126.2182025  85.0537559  94.8454814 125.4645733  84.4844957  94.6898819
 126.3529566  85.0200223  95.7925449 108.0947992  76.0042541 107.1823889
 107.7014938  75.4508739 107.8571533 108.9114133  76.3153119 107.5730406
 111.0115953  77.4200420 104.7744145 111.7525667  78.0207573 104.6948608
 111.2433876  76.6778058 104.2162188 106.1557291  82.6056787 103.0522375
 106.0410807  81.7042044 103.3529474 105.3001809  82.8520484 102.7007192
 113.2349129  90.5474528 104.6509876 112.7912983  89.7610906 104.3330780
 113.8966343  90.7353678 103.9853766 115.3330367  90.8277327 102.6791277
 115.3148843  91.6486208 102.1871546 116.2550287  90.7031403 102.9041418
 111.7903421  88.3421457 103.5214785 112.3231758  87.5809745 103.2914093
 111.2617502  88.0495109 104.2638940 114.9573116  73.4481523  99.0508427
 114.6137386  74.3383165  98.9747538 115.3252079  73.2583181  98.1878012
 114.9223399  83.4390134  87.5580862 114.4070022  84.2094739  87.7969249
 114.6500707  82.7655270  88.1813924 112.5070510  78.2839835  92.6166100
 111.6512106  77.8946685  92.4371739 112.9197462  78.3631796  91.7565886
 114.0369657  75.8186178  97.0157660 113.5334452  75.7816313  96.2025466
 114.3300264  76.7278921  97.0754317 110.2812543  75.9024908  96.0223842
 111.1465539  75.7067716  95.6629731 110.3490051  75.6735260  96.9493199
 119.8957673  86.1922489  89.4934036 119.1187116  85.8533648  89.0489198
 120.5749154  86.1975112  88.8189001 114.7109702  81.3117226  89.3840643
 114.4059838  81.6263375  90.2350786 115.6640144  81.3898646  89.4267976
 118.1348980  85.6656470  96.1500644 117.4772655  86.3555731  96.2380772
 118.9389379  86.0552902  96.4934630 107.8874862  78.1327116  93.3940209
 108.4618614  77.9102297  92.6613402 108.4745844  78.2015810  94.1468810
 116.9454439  84.0200843  94.2004585 117.4586321  84.6530834  94.7026295
 117.5955663  83.4202038  93.8347945 108.2144449  80.1631577  87.4136094
 107.3781761  80.5006263  87.7345369 108.0749218  80.0280557  86.4763231
 110.1897529  75.0068365  92.1215278 109.5361942  74.6917382  91.4971893
 110.1478004  74.3844105  92.8475101 114.2076813  93.9985167  86.9565256
 113.5338512  94.3016864  87.5650214 114.5942635  94.8014247  86.6070713
 113.4235270  81.4950298  96.4462926 112.5057831  81.7165245  96.2884614
 113.8395413  81.5696609  95.5874633 114.2070317  82.8941714  91.5765606
 114.9542136  83.4063111  91.2672728 114.4761907  82.5725767  92.4370000
 116.6549155  79.9298830  93.5584395 115.9171911  79.4176216  93.8894638
 116.9075928  79.4899212  92.7467672 116.7560782  72.7075082  94.1526165
 117.0619659  71.8472446  93.8652080 117.4813387  73.2992702  93.9525159
 112.1773055  86.9308998  85.8980639 111.7392485  86.2144857  85.4386276
 112.9183496  87.1585113  85.3365730 114.5648433  82.0847759 101.2507628
 114.9197821  82.3119233 102.1102094 115.2120565  82.4166136 100.6284884
 120.2946170  85.2066195  91.9556958 120.1564069  85.3967791  91.0278147
 119.9382389  85.9685578  92.4125009 108.4588296  79.1924290  98.0353970
 109.0987676  79.0513050  97.3376933 107.6265827  78.9058804  97.6592572
 120.3215550  87.2742722  96.9668229 120.7552057  87.1818011  97.8151283
 121.0347131  87.2500223  96.3288245 106.9341838  80.5762373  99.9825781
 107.6064892  80.3679735  99.3338430 106.1071625  80.3784459  99.5431013
 121.1831099  87.3166423  99.5001114 121.3766990  88.2212233  99.7460389
 121.0831718  86.8573842 100.3339699 112.8367410  77.2024313 101.9991442
 112.1895325  77.9014263 101.9055918 113.6068426  77.6360457 102.3667690
 116.2446208  87.4673166 105.0741995 116.0931715  87.2383717 104.1572079
 116.2350888  88.4243767 105.0873340 113.0131545  85.0405078 100.0588261
 113.9423605  85.1916238  99.8857229 112.5922575  85.1289099  99.2036908
 112.4068028  94.1664839  89.1712336 112.5819784  93.6952882  89.9857958
 111.7200816  94.7930605  89.3993596 107.3369335  83.8504976 100.7428218
 107.1989133  83.1185214 101.3439757 108.2474259  83.7613876 100.4612406
 116.2984283  85.7893380  85.4912697 115.6813454  85.0640208  85.3945749
 115.8300772  86.5502740  85.1479771 109.9651636  83.5624935 100.2311898
 110.6751255  82.9218127 100.1898516 109.9220944  83.8137830 101.1538078
 117.9538415  90.4992288 103.1518477 117.8950961  89.8151508 102.4849060
 118.3557933  91.2411278 102.6999103 108.6780570  80.5490153 102.0507537
 108.1417927  80.0980891 102.7029133 108.0897278  80.6836062 101.3078002
 108.0882829  80.0078804  84.6134001 107.2112295  79.8867605  84.2496247
 108.5640582  79.2164882  84.3612889 117.9555822  88.4631872 101.3832457
 117.0682601  88.1257794 101.5058855 118.5254373  87.7314903 101.6201222
 104.4119691  79.6846160  99.1360532 104.3277880  79.0771830  98.4010942
 103.5902398  80.1755179  99.1370028 114.5843405  78.1699724  94.5030727
 115.0812105  77.4169686  94.1831797 113.8130387  78.2064041  93.9373936
 122.4373163  83.8740090  96.1449018 122.4263039  84.7564805  95.7742951
 121.5690542  83.5211640  95.9503555 113.9455659  93.0220159 100.5051858
 114.6583631  93.6567623 100.4327760 113.4545688  93.1184025  99.6891860
 111.1678374  80.3117107  94.2302411 110.7976161  79.7588147  94.9183317
 111.6637466  79.7075240  93.6777411 119.0545737  82.7688730  92.6119184
 119.5206189  83.6016722  92.5379487 119.5053238  82.3033712  93.3164443
 117.1221968  89.1132552  89.6105336 117.3981812  88.9989146  90.5199210
 116.2526467  88.7150037  89.5717509 117.0262400  75.1369317  96.6510086
 116.1125480  75.3673544  96.8192293 117.4555501  75.2207762  97.5024118
 116.7968858  83.3259209  99.1509980 116.1440309  83.5735117  98.4962432
 117.1749238  82.5123348  98.8172457 113.7576032  93.3618903  93.2538150
 113.9398427  92.5440559  93.7165902 114.5809018  93.5786595  92.8163040
 114.0918198  92.2887088  90.5153198 114.6205964  91.7779542  89.9023360
 114.3546417  91.9729618  91.3798731 112.8456431  84.0679020 105.6376017
 112.1697068  83.9673150 106.3078392 113.6684065  83.9118234 106.1012014
 111.5879214  95.3745948  99.8733633 112.1397522  95.5377569 100.6382718
 111.9285408  95.9650386  99.2013658 106.5643708  77.7221098 100.4755517
 106.6285034  78.5835929 100.0632915 106.5010828  77.1095099  99.7427876
 106.0395980  79.7944230 104.1228552 106.6668019  79.4121308 104.7366076
 105.1823899  79.5758432 104.4884244 116.4390089  90.2007205 105.7282287
 116.9829993  90.8137164 105.2337242 115.8576934  90.7586784 106.2449300
 114.7247602  93.3227923  96.8597315 114.5998741  92.5217663  96.3508260
 115.3826693  93.8174117  96.3711285 116.7882510  91.1236944  98.4876865
 115.8412846  91.0042295  98.4155192 117.1365283  90.2359442  98.5703126
 109.1482083  77.0131082 102.3115107 109.6716485  77.2593379 103.0741416
 108.9294417  77.8451117 101.8918244 104.5449364  79.2834757  90.1786232
 104.2162071  78.4032136  89.9961338 104.8988735  79.2282426  91.0662621
 117.3963065  91.7418219  95.7746090 118.3209613  91.5361080  95.6370541
 117.2278369  91.4934620  96.6835431 110.3534628  77.9544778  99.9964777
 110.0131449  77.1552591 100.3985457 109.6473635  78.2546488  99.4241611
 111.0051100  75.0394090  98.4492100 111.8277170  74.5654568  98.3270991
 111.2489164  75.8184574  98.9490787 109.6459335  78.0682348  88.7455002
 110.3667697  78.4463601  88.2418719 109.0224639  78.7871225  88.8489980
 113.7890458  78.7727497  89.6813334 114.0054072  79.6552135  89.3802163
 113.3084525  78.3813711  88.9518976 110.3886062  78.7215759  96.3064969
 110.3747631  77.8256852  95.9697266 111.1058490  78.7286422  96.9403255
 112.2412193  79.1553099  98.3518096 111.9829970  80.0770169  98.3502426
 111.7097233  78.7583533  99.0418560 117.1858381  92.2603886  91.1308181
 117.3595259  91.6950308  90.3782034 117.6787273  93.0604781  90.9487671
 109.7922958  77.6030139  91.5752539 109.9138869  76.6746785  91.7743426
 109.5025000  77.6168825  90.6630854 112.6614148  75.2885049  94.7119259
 112.6835845  75.3524382  93.7571238 113.0782207  74.4489558  94.9059765
 123.0397773  85.0240309  92.7498481 123.4828919  84.2747634  92.3517604
 122.1624283  85.0150445  92.3672213 118.1733554  91.5770650  88.2305080
 118.8684458  92.1977343  88.4492394 118.5156704  90.7266002  88.5057458
 120.0724977  89.0270356  89.7592410 120.5976301  89.3657629  89.0341730
 119.9847330  88.0917371  89.5755545 111.7345026  92.9404430 101.8882287
 112.0432152  92.6953576 102.7604987 112.5320508  93.1451068 101.4001157
 109.2764037  79.1162136 105.7842471 109.3252193  79.9924259 105.4020241
 109.8186552  78.5739529 105.2114115 119.7618883  89.6603260 105.0643608
 118.9714427  89.6427398 104.5248108 119.5252238  90.1991553 105.8192645
 119.8816758  86.5095726 102.3776337 119.9314763  86.3445733 103.3191860
 119.7730681  85.6422985 101.9874218 117.1720520  82.4926654 103.6935644
 118.0730383  82.3533119 103.4019641 117.2468495  82.6581109 104.6333821
 111.5063326  79.8693509 102.5388830 110.6366635  80.1627075 102.2671418
 111.7422806  80.4533954 103.2596094 121.3834955  88.9292667 102.6218358
 121.0919763  89.2922648 103.4581819 120.7707086  88.2159676 102.4431691
 122.5830637  86.4945547  95.1420929 123.4177529  86.9335351  95.3058489
 122.7189766  86.0184200  94.3229174 119.6322143  84.0525282 101.0898416
 120.1076265  84.2452928 100.2817268 118.7087709  84.1084468 100.8441800
 114.2102360  76.0873126 100.0554250 114.7284303  76.8234153  99.7300739
 113.8557492  76.3937119 100.8901009 114.4614954  72.5073408  95.5755147
 114.7416708  71.8396597  96.2015573 115.2465561  72.7002504  95.0629811
 118.3323812  80.9291042  99.3226722 119.2841235  81.0289140  99.3438946
 118.1627263  80.1369311  99.8324806 116.3538192  78.0146625  99.5086123
 115.7588124  78.2951638  98.8132612 116.0687888  78.5040526 100.2802864
 115.4845682  91.9669552  88.2688756 116.4176355  91.9015114  88.4721631
 115.3968895  92.8025819  87.8103288 118.1133699  91.2835423  85.2292703
 118.0347330  90.9495286  86.1228461 118.9343366  91.7757190  85.2284175
 120.8111890  84.1497162  98.4369022 120.7788210  83.2113163  98.6228706
 121.4212514  84.2281199  97.7034847 112.6495221  83.0193215  84.4796226
 113.5954326  82.8899423  84.5484644 112.2709466  82.2807877  84.9565654
 120.9606378  80.9408205  98.4827305 120.4445427  80.1566662  98.2957234
 121.8446327  80.6126922  98.6473824 118.6217105  74.6849221  94.4423118
 118.4241926  74.3764309  95.3266450 119.2316811  75.4110860  94.5721047
 126.6288440  85.2113169  97.5775058 127.3591828  84.9498457  98.1382762
 126.0195385  84.4741891  97.6177126 124.7103737  83.3521031  98.1749510
 123.9836900  83.2176996  97.5666001 124.2951024  83.6597860  98.9806228
 112.5333913  87.0710961 105.9396883 113.4536923  87.2489560 106.1336929
 112.4983496  86.1267006 105.7876582 110.8338138  80.9443191  84.4151111
 109.9269593  80.6476304  84.4913825 111.1114119  80.6473009  83.5485397
 105.5295986  84.9811996  98.5819664 105.7481996  85.9129103  98.6007698
 105.9421760  84.6219970  99.3674468 112.4500204  75.4880081  90.5695352
 111.6400932  75.1427166  90.9450598 113.1384621  75.1787625  91.1582964
 114.3790752  74.5658128  92.1919649 114.9321791  74.9853581  92.8509672
 114.6160838  73.6393876  92.2342605 110.4023851  80.5545201 107.9722413
 110.3020578  81.5039558 107.9034504 110.1845393  80.2263440 107.0998483
 109.6036923  77.8030126  84.5563090 110.4656087  78.1285025  84.8158907
 109.7887267  77.0161622  84.0436156 117.7569559  76.6758653  91.6998313
 117.1768228  77.3343457  91.3176366 117.4905492  75.8535997  91.2885731
 116.2073125  76.0763711  93.9019633 116.7072904  76.1880245  93.0933952
 116.8508733  75.7724763  94.5420442 110.2655121  83.9842340 106.7887474
 109.7822203  84.7842700 106.9951363 110.3516060  83.9950285 105.8354918
 106.7827841  86.4447991 101.3926706 107.6020730  86.9392070 101.4161543
 107.0564649  85.5279959 101.3644273 116.5394437  78.8358743  90.7554661
 115.6520292  79.1208394  90.5374856 116.9548426  78.6752507  89.9081938
 119.8908973  78.8605264  94.4709001 120.6669363  79.3501717  94.7433617
 119.1657107  79.2863318  94.9280870 122.3281532  79.5732883  95.5282941
 122.9226023  79.3328619  94.8176250 122.4008116  78.8540014  96.1556478
 115.6837651  88.6003418  84.8502681 116.3873501  88.8053420  85.4660337
 114.9600299  89.1680180  85.1151765 116.5135461  84.3513279  90.9704952
 116.4570662  84.8081831  90.1312584 117.0663803  83.5903964  90.7927794
 120.3240267  80.1403011  91.7955071 120.0677201  79.7399647  92.6263279
 119.6993135  80.8546805  91.6705210 124.6352605  82.8799084  94.3026362
 124.0752163  82.9492274  95.0757925 124.0296108  82.7040069  93.5825859
 117.5924348  89.0385947  86.9001141 118.4269952  88.6067146  86.7178616
 117.4308691  88.8667961  87.8278036 117.2470240  85.5418060  88.2657481
 117.1919044  85.3762332  87.3245925 116.6216295  86.2494093  88.4219670
 102.0362755  80.7786125 102.0918903 102.6821619  80.2685079 102.5806128
 101.8279906  81.5154806 102.6662328 114.5616147  87.8466972 107.5911044
 115.4307307  88.0207625 107.2297678 114.0822899  88.6661389 107.4686773
 110.5566366  75.0426169  87.8442799 110.5445035  75.9868009  88.0011070
 111.4489787  74.8596315  87.5502260 108.7302328  94.9664073  99.2700477
 109.6329574  94.9987684  99.5866972 108.5039698  94.0364524  99.2846813
 114.3718485  71.6368946  92.0988736 113.6050881  71.0827433  92.2445418
 114.7829190  71.7090815  92.9602888 106.3760246  77.9253742 106.1893917
 107.2391708  77.5690547 106.3997242 105.8025657  77.5867637 106.8769321
 126.2208623  99.5555598  96.9956318 126.8587033  99.4362346  96.2919658
 126.1029466 100.5036442  97.0544270 123.0298329  99.5083026  96.9317843
 122.6916841  99.3924091  96.0438378 123.8988097  99.1074191  96.9118849
 118.8885145 101.3618503  92.9214734 118.3250010 101.2708440  92.1531022
 118.7737540 100.5418407  93.4017226 123.5118112 100.6617878 102.8904048
 123.5006753 100.2670676 102.0184552 123.6738752  99.9283951 103.4837820
 116.4349577 102.8569694  95.7598954 117.2270869 102.5160519  95.3445254
 116.6746227 102.9664669  96.6801108 124.4684704 105.0289470  88.2329199
 123.8172683 105.6143551  87.8463213 125.2629067 105.5595665  88.2924236
 118.3940331 102.1178608  88.6316333 119.1671207 101.5707595  88.4929209
 118.7465730 102.9822857  88.8430794 120.2325373 103.4454990 101.8383232
 119.9415239 104.3500621 101.7229899 120.8682358 103.4871517 102.5527302
 121.1581580 100.8231838  98.4284592 121.7545153 100.5987861  97.7141555
 121.2156552 100.0816584  99.0310040 120.7306609  98.2771274  86.2634783
 120.9832129  97.7552795  85.5018246 119.7931168  98.1137419  86.3661467
 125.7749892  97.2807052  94.0709526 126.5612981  96.8626475  93.7199943
 126.0388596  98.1853144  94.2391175 125.9459969 102.7179902  88.7698183
 125.3105802 102.7914529  89.4819088 125.6157375 103.3073501  88.0917262
 131.1758319  97.2182285  94.9742505 131.9083491  96.6481502  95.2080334
 130.4197674  96.8303886  95.4149010 120.4502897 100.1799380  88.4659158
 120.3339156  99.5044283  89.1340242 120.5605157  99.6931754  87.6491311
 122.7934438  99.6409527  92.1705847 122.4292646  99.1140148  92.8818769
 123.6501554  99.2507996  91.9972333 128.6983739  90.9303859  99.4337113
 128.3667064  91.7999270  99.2098328 128.1029352  90.6140143 100.1131144
 122.4339925  94.6699426  87.1667196 122.6014328  95.5379663  87.5337667
 122.2437094  94.8326708  86.2428485 125.1915259 103.1316405  98.8333026
 124.8915982 104.0341444  98.7248833 124.8466318 102.8648589  99.6854179
 118.6427740  99.5830202  94.8669731 117.7178236  99.4506416  95.0747422
 118.8912153 100.3624421  95.3639673 128.5912402  95.6498946  96.5130463
 127.6829280  95.5814354  96.2189224 128.5399998  96.1270891  97.3412289
 122.4129146  97.1257084  88.1513863 122.2928771  97.5714135  88.9899343
 121.7181735  97.4742402  87.5927401 116.0036551  99.2263476  95.7013520
 116.1328932  99.4797955  96.6152931 115.3234002  99.8191184  95.3818175
 120.1736038 109.8960726  91.8003994 120.0960068 110.8468551  91.8792474
 119.5697682 109.5506598  92.4578920 122.6653268  97.0688591 104.4565361
 121.8886602  97.6282511 104.4468225 123.3043831  97.5545374 104.9780231
 130.4574049  93.8515384  98.2908337 129.8148429  94.1447917  97.6448132
 129.9528977  93.7368304  99.0961534 128.1114212  97.5978557  88.9794197
 129.0232068  97.8305944  88.8041894 127.6023859  98.1815601  88.4169275
 120.9199640  99.8774045 104.0183328 121.6614325 100.4159088 103.7418151
 120.2136626 100.5040333 104.1754879 126.3954980 102.0203185 102.6155489
 126.8038336 101.5785596 101.8710122 125.6732242 101.4455812 102.8689682
 122.7486050  96.9575792  99.9889046 123.5947245  97.3815205 100.1323695
 122.6884688  96.3009416 100.6827609 126.7183795 102.5804376  96.3707778
 126.0892657 102.7450090  95.6683846 126.3309457 102.9945985  97.1418742
 130.5973027 103.5158813  93.7252142 129.9124065 103.8957715  93.1749175
 130.6816876 104.1254140  94.4584090 125.8985495  94.6180160 101.6470220
 125.6546427  95.3722221 101.1104495 126.1745426  94.9965508 102.4817467
 127.8523958 101.1618772 100.3247485 128.0640853 101.8050532  99.6481866
 127.8053706 100.3281089  99.8569415 125.4550187  93.7736593  97.2284057
 124.5934666  94.0717847  97.5200795 125.4812622  93.9906992  96.2965090
 122.2711757 102.3178784  93.6357863 122.7350102 102.5966487  92.8462486
 122.0068555 101.4162228  93.4530954 119.1635838 101.8650265  96.5737626
 119.7337195 102.2937534  95.9355111 119.7543949 101.5832850  97.2721812
 121.2080643  98.4401936  90.4447428 121.9104686  98.8922980  90.9121355
 120.8761271  97.7985755  91.0727321 119.6561004  97.0313693 104.8198638
 119.0259665  97.7129974 105.0534034 119.5497092  96.9196774 103.8751776
 114.9505977  96.6985489  95.7464562 114.1605031  96.9543017  95.2704672
 115.4417224  97.5133827  95.8516602 128.9669786 104.0390728  98.4969843
 129.7887230 103.6370915  98.2152524 128.9632189 103.9358962  99.4485958
 116.9020722  97.0630068  92.7048039 116.1051885  97.1748762  93.2231534
 116.6746314  97.4016720  91.8388929 122.7326390 103.5874771 100.6530553
 122.7970822 104.0495178 101.4888725 122.0237313 102.9572136 100.7812863
 113.2343680  96.9515979  98.1779553 113.4851718  97.8362989  98.4437129
 113.7703228  96.7720581  97.4054644 137.0575779 100.3829476  94.8454814
 136.3039488  99.8136874  94.6898819 137.1923320 100.3492141  95.7925449
 122.4474407 105.2542879  90.5209534 122.3120082 106.0994414  90.9494381
 122.9884220 105.4562156  89.7575467 118.9341747  91.3334459 107.1823889
 118.5408692  90.7800657 107.8571533 119.7507887  91.6445037 107.5730406
 115.9003805 102.7718317  91.0937459 116.4128325 103.5661567  91.2443023
 116.5526517 102.0744607  91.0271060 117.7098689 105.8884073  93.1760212
 117.8865318 106.8102038  92.9881196 118.5055523 105.5742492  93.6054592
 121.8509708  92.7492338 104.7744145 122.5919421  93.3499491 104.6948608
 122.0827631  92.0069975 104.2162188 116.9951046  97.9348705 103.0522375
 116.8804561  97.0333962 103.3529474 116.1395564  98.1812402 102.7007192
 124.0742884 105.8766445 104.6509876 123.6306738 105.0902824 104.3330780
 124.7360097 106.0645596 103.9853766 118.8330005 107.4062247  99.1770554
 119.3837430 107.2779310  98.4047548 117.9941481 107.7057136  98.8265447
 126.1724122 106.1569245 102.6791277 126.1542597 106.9778126 102.1871546
 127.0944042 106.0323320 102.9041418 122.6297176 103.6713375 103.5214785
 123.1625513 102.9101663 103.2914093 122.1011257 103.3787026 104.2638940
 125.7966871  88.7773441  99.0508427 125.4531140  89.6675082  98.9747538
 126.1645833  88.5875098  98.1878012 125.7617154  98.7682052  87.5580862
 125.2463777  99.5386656  87.7969249 125.4894462  98.0947188  88.1813924
 123.3464265  93.6131752  92.6166100 122.4905861  93.2238603  92.4371739
 123.7591216  93.6923713  91.7565886 124.8763411  91.1478096  97.0157660
 124.3728207  91.1108231  96.2025466 125.1694018  92.0570838  97.0754317
 121.1206297  91.2316825  96.0223842 121.9859294  91.0359634  95.6629731
 121.1883806  91.0027177  96.9493199 130.7351428 101.5214406  89.4934036
 129.9580870 101.1825566  89.0489198 131.4142909 101.5267029  88.8189001
 125.5503457  96.6409144  89.3840643 125.2453592  96.9555293  90.2350786
 126.5033899  96.7190564  89.4267976 123.9949889 102.7999367  91.0333597
 123.4671250 102.0652127  90.7206835 123.4937391 103.5774043  90.7873566
 128.9742735 100.9948388  96.1500644 128.3166409 101.6847649  96.2380772
 129.7783134 101.3844820  96.4934630 118.7268616  93.4619033  93.3940209
 119.3012368  93.2394215  92.6613402 119.3139599  93.5307728  94.1468810
 127.7848193  99.3492760  94.2004585 128.2980075  99.9822752  94.7026295
 128.4349417  98.7493956  93.8347945 119.0538203  95.4923494  87.4136094
 118.2175516  95.8298181  87.7345369 118.9142973  95.3572474  86.4763231
 121.0291284  90.3360282  92.1215278 120.3755696  90.0209299  91.4971893
 120.9871758  89.7136023  92.8475101 122.1402489 100.6179577  84.0368570
 121.2329550 100.3868831  84.2359719 122.6373521  99.8217197  84.2242552
 125.0470568 109.3277085  86.9565256 124.3732266 109.6308781  87.5650214
 125.4336390 110.1306165  86.6070713 124.2629024  96.8242216  96.4462926
 123.3451586  97.0457163  96.2884614 124.6789168  96.8988526  95.5874633
 125.0464072  98.2233631  91.5765606 125.7935891  98.7355029  91.2672728
 125.3155662  97.9017684  92.4370000 123.3190722 100.7192172  88.5592560
 122.4101941 100.4351205  88.6565030 123.3485806 101.1391251  87.6995867
 128.5509990 104.3298762  92.3283728 128.0972317 103.4889672  92.3848918
 127.9203956 104.9660160  92.6658508 127.4942909  95.2590748  93.5584395
 126.7565666  94.7468134  93.8894638 127.7469683  94.8191129  92.7467672
 126.9942929 106.1675258  93.2633546 127.2865903 106.7280316  92.5445912
 127.5041549 106.4603819  94.0186705 127.5954536  88.0367000  94.1526165
 127.9013413  87.1764363  93.8652080 128.3207141  88.6284620  93.9525159
 121.8675616  98.3320793  94.6602356 121.9224226  97.3794629  94.5844832
 121.0566818  98.4880232  95.1443654 123.0166810 102.2600916  85.8980639
 122.5786240 101.5436775  85.4386276 123.7577251 102.4877031  85.3365730
 119.8067976  96.9497853  92.4192735 118.9935842  97.2492023  92.8257927
 120.3026970  96.5553541  93.1367217 121.9576554 106.9455609  94.3526999
 121.9152733 107.1716456  93.4235531 122.8739253 106.7118984  94.5012800
 125.4042188  97.4139677 101.2507628 125.7591576  97.6411150 102.1102094
 126.0514319  97.7458054 100.6284884 131.1339925 100.5358113  91.9556958
 130.9957823 100.7259709  91.0278147 130.7776144 101.2977496  92.4125009
 119.2982051  94.5216208  98.0353970 119.9381430  94.3804967  97.3376933
 118.4659581  94.2350721  97.6592572 131.1609304 102.6034640  96.9668229
 131.5945811 102.5109929  97.8151283 131.8740885 102.5792140  96.3288245
 120.0742355 103.8218639  94.1488962 120.8682953 103.3268959  93.9471537
 119.3634047 103.2936502  93.7856668 124.8937199 106.2036734  98.5001330
 124.9474222 106.7727670  99.2679046 124.0251981 106.3738619  98.1355367
 116.3825118  97.9661720  90.2248715 115.4522706  97.9046176  90.4418677
 116.4782590  97.4437673  89.4285356 116.3010667  94.4916533  92.8126956
 116.5617485  95.4061866  92.7036117 117.1227840  94.0240976  92.9623569
 117.7735593  95.9054290  99.9825781 118.4458646  95.6971652  99.3338430
 116.9465379  95.7076376  99.5431013 132.0224854 102.6458341  99.5001114
 132.2160744 103.5504151  99.7460389 131.9225472 102.1865760 100.3339699
 123.6761165  92.5316231 101.9991442 123.0289080  93.2306181 101.9055918
 124.4462180  92.9652375 102.3667690 127.0839963 102.7965083 105.0741995
 126.9325469 102.5675635 104.1572079 127.0744642 103.7535685 105.0873340
 123.8525299 100.3696996 100.0588261 124.7817359 100.5208156  99.8857229
 123.4316329 100.4581017  99.2036908 122.6513631 104.3947661  97.8286799
 122.5124716 104.0266445  98.7012737 121.8628227 104.9095300  97.6570757
 123.2461783 109.4956757  89.1712336 123.4213538 109.0244800  89.9857958
 122.5594571 110.1222523  89.3993596 124.2018846 103.7729263  95.2175637
 123.8668679 103.7330033  96.1133287 123.7022792 103.1073979  94.7446047
 118.1763090  99.1796893 100.7428218 118.0382888  98.4477132 101.3439757
 119.0868013  99.0905793 100.4612406 127.1378038 101.1185298  85.4912697
 126.5207208 100.3932126  85.3945749 126.6694526 101.8794658  85.1479771
 120.8045391  98.8916853 100.2311898 121.5145009  98.2510045 100.1898516
 120.7614699  99.1429747 101.1538078 128.7932169 105.8284206 103.1518477
 128.7344715 105.1443426 102.4849060 129.1951688 106.5703196 102.6999103
 119.5174325  95.8782070 102.0507537 118.9811682  95.4272809 102.7029133
 118.9291033  96.0127979 101.3078002 117.8122868 112.6446120  95.9452196
 118.0519466 113.2764644  96.6231214 116.9692065 112.2934160  96.2317555
 118.9276583  95.3370722  84.6134001 118.0506050  95.2159523  84.2496247
 119.4034337  94.5456800  84.3612889 128.7949577 103.7923790 101.3832457
 127.9076355 103.4549712 101.5058855 129.3648128 103.0606821 101.6201222
 115.2513446  95.0138078  99.1360532 115.1671634  94.4063748  98.4010942
 114.4296152  95.5047096  99.1370028 122.3250730 108.4525242  98.3493700
 122.2520901 109.2580214  98.8613004 121.8828123 108.6517208  97.5241721
 122.1140510 107.6897012  91.8596521 121.3308031 108.2318692  91.9534746
 122.8133255 108.2070992  92.2590762 125.4237160  93.4991642  94.5030727
 125.9205859  92.7461604  94.1831797 124.6524141  93.5355958  93.9373936
 133.2766917  99.2032007  96.1449018 133.2656793 100.0856723  95.7742951
 132.4084296  98.8503558  95.9503555 124.7849413 108.3512076 100.5051858
 125.4977386 108.9859541 100.4327760 124.2939442 108.4475942  99.6891860
 126.5066940 102.2563329  92.0769150 125.5723219 102.3764791  91.9073854
 126.6843609 101.3535796  91.8129160 122.0072128  95.6409025  94.2302411
 121.6369916  95.0880065  94.9183317 122.5031221  95.0367158  93.6777411
 129.8939492  98.0980648  92.6119184 130.3599944  98.9308640  92.5379487
 130.3446992  97.6325630  93.3164443 119.8361327 106.1006520 101.3257429
 120.5370786 106.7343003 101.4786823 119.3656442 106.4421251 100.5653069
 127.9615723 104.4424469  89.6105336 128.2375567 104.3281064  90.5199210
 127.0920222 104.0441954  89.5717509 127.8656154  90.4661235  96.6510086
 126.9519234  90.6965462  96.8192293 128.2949256  90.5499679  97.5024118
 127.6362613  98.6551127  99.1509980 126.9834063  98.9027035  98.4962432
 128.0142993  97.8415265  98.8172457 124.5969787 108.6910820  93.2538150
 124.7792181 107.8732476  93.7165902 125.4202773 108.9078513  92.8163040
 124.9311952 107.6179005  90.5153198 125.4599719 107.1071460  89.9023360
 125.1940172 107.3021536  91.3798731 123.6850186  99.3970938 105.6376017
 123.0090823  99.2965068 106.3078392 124.5077820  99.2410152 106.1012014
 115.4329045 105.6342875  98.2588532 116.0182482 104.8886563  98.3916436
 115.2353883 105.9446831  99.1425196 118.2867700 108.6694122  93.2750974
 117.6178075 109.1540250  92.7915014 118.1480570 108.9163343  94.1894353
 122.4272969 110.7037866  99.8733633 122.9791277 110.8669487 100.6382718
 122.7679162 111.2942303  99.2013658 117.4037462  93.0513015 100.4755517
 117.4678789  93.9127846 100.0632915 117.3404582  92.4387017  99.7427876
 116.8789735  95.1236148 104.1228552 117.5061773  94.7413225 104.7366076
 116.0217653  94.9050350 104.4884244 127.2783843 105.5299123 105.7282287
 127.8223747 106.1429081 105.2337242 126.6970688 106.0878702 106.2449300
 113.6555277  96.9312577  90.0546906 113.9508718  96.0223255  90.0013960
 112.7543313  96.9100317  89.7327909 125.5641356 108.6519841  96.8597315
 125.4392496 107.8509581  96.3508260 126.2220447 109.1466035  96.3711285
 117.1849524  95.0068574  96.0374455 116.4636110  95.6204541  95.8981928
 117.9742780  95.5426338  95.9591101 127.6276264 106.4528861  98.4876865
 126.6806600 106.3334212  98.4155192 127.9759038 105.5651359  98.5703126
 119.9875838  92.3423000 102.3115107 120.5110240  92.5885297 103.0741416
 119.7688171  93.1743035 101.8918244 115.3843119  94.6126675  90.1786232
 115.0555825  93.7324054  89.9961338 115.7382490  94.5574343  91.0662621
 124.6322698 106.2481577  94.6881217 124.4847660 105.3198285  94.8688787
 125.4576191 106.2701668  94.2038292 118.4984942  94.8999645  90.5461709
 118.8381015  95.4285566  89.8240318 118.9457063  95.2380051  91.3220276
 128.2356820 107.0710136  95.7746090 129.1603367 106.8652998  95.6370541
 128.0672123 106.8226537  96.6835431 121.1928383  93.2836695  99.9964777
 120.8525203  92.4844508 100.3985457 120.4867389  93.5838406  99.4241611
 121.8444855  90.3686008  98.4492100 122.6670924  89.8946486  98.3270991
 122.0882918  91.1476491  98.9490787 120.4853089  93.3974266  88.7455002
 121.2061452  93.7755519  88.2418719 119.8618393  94.1163143  88.8489980
 124.6284212  94.1019415  89.6813334 124.8447826  94.9844053  89.3802163
 124.1478279  93.7105629  88.9518976 119.3683433  97.0605128  96.2584079
 119.2228014  97.3745431  97.1508361 118.8908637  97.6790029  95.7054978
 121.2279816  94.0507676  96.3064969 121.2141385  93.1548770  95.9697266
 121.9452244  94.0578340  96.9403255 123.0805947  94.4845017  98.3518096
 122.8223725  95.4062087  98.3502426 122.5490987  94.0875451  99.0418560
 128.0252136 107.5895804  91.1308181 128.1989013 107.0242226  90.3782034
 128.5181027 108.3896699  90.9487671 113.8429096  99.6010473  99.1971740
 113.2982564 100.3770281  99.3292014 114.7208446  99.9481277  99.0390862
 120.6316712  92.9322057  91.5752539 120.7532623  92.0038703  91.7743426
 120.3418755  92.9460743  90.6630854 123.5007903  90.6176967  94.7119259
 123.5229600  90.6816300  93.7571238 123.9175962  89.7781476  94.9059765
 133.8791527 100.3532227  92.7498481 134.3222673  99.6039552  92.3517604
 133.0018037 100.3442363  92.3672213 129.0127308 106.9062568  88.2305080
 129.7078213 107.5269261  88.4492394 129.3550458 106.0557919  88.5057458
 114.6295118  98.7280369 102.0901897 113.8876854  98.8763004 102.6766527
 114.3087862  98.9888635 101.2268646 130.9118731 104.3562274  89.7592410
 131.4370056 104.6949546  89.0341730 130.8241084 103.4209289  89.5755545
 122.5738780 108.2696347 101.8882287 122.8825907 108.0245494 102.7604987
 123.3714262 108.4742986 101.4001157 122.5959392 110.4234257  94.1187664
 122.1564382 109.9310636  94.8120520 123.3467509 109.8807225  93.8779739
 115.0751731 106.6145798  94.1212292 115.9009751 106.3149570  93.7410935
 114.7245783 105.8453420  94.5702080 120.0433264 105.9672266  96.1909965
 119.4213274 105.3042971  95.8912193 120.7138131 105.9933398  95.5083613
 113.2760336 104.5332124  95.0801225 112.4392245 104.1054299  94.8985227
 113.2483982 104.7264568  96.0172016 120.1157792  94.4454054 105.7842471
 120.1645947  95.3216177 105.4020241 120.6580306  93.9031447 105.2114115
 130.6012638 104.9895177 105.0643608 129.8108181 104.9719316 104.5248108
 130.3645992 105.5283471 105.8192645 130.7210513 101.8387644 102.3776337
 130.7708517 101.6737651 103.3191860 130.6124436 100.9714903 101.9874218
 119.6046771 104.5176189  89.6668426 119.7534892 105.2011654  89.0135099
 120.4113215 104.4981279  90.1817882 128.0114275  97.8218572 103.6935644
 128.9124138  97.6825036 103.4019641 128.0862249  97.9873026 104.6333821
 122.3457080  95.1985426 102.5388830 121.4760390  95.4918992 102.2671418
 122.5816561  95.7825871 103.2596094 132.2228709 104.2584585 102.6218358
 131.9313518 104.6214566 103.4581819 131.6100841 103.5451593 102.4431691
 133.4224392 101.8237465  95.1420929 134.2571283 102.2627269  95.3058489
 133.5583520 101.3476118  94.3229174 130.4715898  99.3817200 101.0898416
 130.9470019  99.5744846 100.2817268 129.5481463  99.4376386 100.8441800
 117.3599404 100.5441367  90.6729495 117.1145446  99.6403697  90.8709705
 117.5295319 100.5458517  89.7308973 125.0496114  91.4165043 100.0554250
 125.5678058  92.1526070  99.7300739 124.6951247  91.7229037 100.8901009
 116.6295052  96.2769724  88.1715656 115.9364297  96.3514079  87.5155692
 116.3846804  95.5130068  88.6937173 125.3008708  87.8365326  95.5755147
 125.5810462  87.1688515  96.2015573 126.0859315  88.0294421  95.0629811
 123.1042177 107.0124320  87.1380173 122.5316144 107.6314507  86.6850645
 123.6774970 107.5623681  87.6720095 129.1717567  96.2582960  99.3226722
 130.1234990  96.3581057  99.3438946 129.0021017  95.4661228  99.8324806
 127.1931946  93.3438543  99.5086123 126.5981878  93.6243556  98.8132612
 126.9081643  93.8332444 100.2802864 126.3239437 107.2961470  88.2688756
 127.2570110 107.2307032  88.4721631 126.2362649 108.1317737  87.8103288
 128.9527453 106.6127340  85.2292703 128.8741085 106.2787204  86.1228461
 129.7737120 107.1049108  85.2284175 131.6505644  99.4789080  98.4369022
 131.6181965  98.5405080  98.6228706 132.2606268  99.5573116  97.7034847
 123.4888975  98.3485132  84.4796226 124.4348080  98.2191341  84.5484644
 123.1103220  97.6099794  84.9565654 131.8000133  96.2700123  98.4827305
 131.2839182  95.4858580  98.2957234 132.6840081  95.9418840  98.6473824
 129.4610860  90.0141139  94.4423118 129.2635681  89.7056227  95.3266450
 130.0710565  90.7402777  94.5721047 135.5497491  98.6812949  98.1749510
 134.8230655  98.5468914  97.5666001 135.1344778  98.9889778  98.9806228
 123.3727668 102.4002879 105.9396883 124.2930677 102.5781478 106.1336929
 123.3377251 101.4558924 105.7876582 121.6731892  96.2735109  84.4151111
 120.7663348  95.9768222  84.4913825 121.9507873  95.9764927  83.5485397
 116.3689740 100.3103913  98.5819664 116.5875750 101.2421021  98.6007698
 116.7815514  99.9511888  99.3674468 123.2893958  90.8171999  90.5695352
 122.4794686  90.4719084  90.9450598 123.9778375  90.5079542  91.1582964
 125.2184506  89.8950045  92.1919649 125.7715545  90.3145499  92.8509672
 125.4554593  88.9685794  92.2342605 121.2417606  95.8837119 107.9722413
 121.1414333  96.8331476 107.9034504 121.0239148  95.5555358 107.0998483
 120.4430677  93.1322044  84.5563090 121.3049841  93.4576942  84.8158907
 120.6281021  92.3453540  84.0436156 112.4598093 101.2144384  96.8343279
 111.7661564 100.7998337  96.3213233 113.2071084 101.2564920  96.2376698
 128.5963314  92.0050571  91.6998313 128.0161983  92.6635375  91.3176366
 128.3299246  91.1827915  91.2885731 127.0466880  91.4055628  93.9019633
 127.5466658  91.5172163  93.0933952 127.6902488  91.1016681  94.5420442
 121.1048876  99.3134258 106.7887474 120.6215957 100.1134618 106.9951363
 121.1909815  99.3242203 105.8354918 114.3734835 101.1462638  94.7109294
 114.3505523 101.2450325  93.7591177 114.6835472 101.9927788  95.0326460
 117.0322213 103.2038793  98.8255908 117.9865467 103.1722735  98.7585840
 116.8334737 102.7429416  99.6406134 117.6221595 101.7739909 101.3926706
 118.4414484 102.2683987 101.4161543 117.8958403 100.8571877 101.3644273
 127.3788192  94.1650661  90.7554661 126.4914047  94.4500312  90.5374856
 127.7942181  94.0044424  89.9081938 130.7302728  94.1897182  94.4709001
 131.5063118  94.6793634  94.7433617 130.0050862  94.6155236  94.9280870
 133.1675286  94.9024801  95.5282941 133.7619777  94.6620537  94.8176250
 133.2401870  94.1831932  96.1556478 115.3872442 108.7458412  95.8426106
 115.2526910 107.9858813  95.2764104 114.9704504 109.4699312  95.3754895
 126.5231405 103.9295336  84.8502681 127.2267255 104.1345338  85.4660337
 125.7994054 104.4972097  85.1151765 127.3529215  99.6805197  90.9704952
 127.2964417 100.1373748  90.1312584 127.9057558  98.9195881  90.7927794
 131.1634021  95.4694929  91.7955071 130.9070955  95.0691564  92.6263279
 130.5386889  96.1838723  91.6705210 135.4746359  98.2091002  94.3026362
 134.9145917  98.2784191  95.0757925 134.8689862  98.0331987  93.5825859
 118.5441568 109.6427729  96.0544549 118.4273952 110.5873162  95.9523239
 117.7234014 109.3401291  96.4430348 128.4318102 104.3677865  86.9001141
 129.2663706 103.9359063  86.7178616 128.2702445 104.1959878  87.8278036
 128.0863995 100.8709978  88.2657481 128.0312798 100.7054250  87.3245925
 127.4610050 101.5786011  88.4219670 112.8756510  96.1078042 102.0918903
 113.5215373  95.5976996 102.5806128 112.6673661  96.8446724 102.6662328
 125.4009902 103.1758890 107.5911044 126.2701061 103.3499542 107.2297678
 124.9216653 103.9953307 107.4686773 121.3960120  90.3718087  87.8442799
 121.3838790  91.3159927  88.0011070 122.2883542  90.1888233  87.5502260
 119.5696082 110.2955991  99.2700477 120.4723329 110.3279601  99.5866972
 119.3433452 109.3656442  99.2846813 121.3249684 109.0486978  95.9310556
 120.3745315 109.0488839  95.8174928 121.6282170 108.3019712  95.4146590
 125.2112240  86.9660864  92.0988736 124.4444635  86.4119350  92.2445418
 125.6222944  87.0382733  92.9602888 117.2154001  93.2545660 106.1893917
 118.0785462  92.8982464 106.3997242 116.6419411  92.9159554 106.8769321
 133.8692084 114.8374944  96.9317843 133.5310595 114.7216009  96.0438378
 134.7381852 114.4366109  96.9118849 129.7278899 116.6910420  92.9214734
 129.1643765 116.6000357  92.1531022 129.6131295 115.8710325  93.4017226
 127.2743331 118.1861612  95.7598954 128.0664623 117.8452437  95.3445254
 127.5139982 118.2956587  96.6801108 129.2334085 117.4470525  88.6316333
 130.0064961 116.8999512  88.4929209 129.5859484 118.3114775  88.8430794
 131.9975335 116.1523756  98.4284592 132.5938907 115.9279778  97.7141555
 132.0550306 115.4108502  99.0310040 131.5700363 113.6063191  86.2634783
 131.8225884 113.0844713  85.5018246 130.6324922 113.4429337  86.3661467
 136.6143646 112.6098970  94.0709526 137.4006735 112.1918393  93.7199943
 136.8782350 113.5145062  94.2391175 131.2896652 115.5091297  88.4659158
 131.1732910 114.8336201  89.1340242 131.3998912 115.0223671  87.6491311
 133.6328193 114.9701444  92.1705847 133.2686400 114.4432065  92.8818769
 134.4895309 114.5799914  91.9972333 133.2733680 109.9991344  87.1667196
 133.4408082 110.8671581  87.5337667 133.0830849 110.1618626  86.2428485
 129.4821494 114.9122120  94.8669731 128.5571991 114.7798334  95.0747422
 129.7305908 115.6916339  95.3639673 133.2522901 112.4549002  88.1513863
 133.1322526 112.9006052  88.9899343 132.5575489 112.8034319  87.5927401
 126.8430306 114.5555393  95.7013520 126.9722687 114.8089872  96.6152931
 126.1627757 115.1483101  95.3818175 133.5879805 112.2867709  99.9889046
 134.4341000 112.7107123 100.1323695 133.5278442 111.6301334 100.6827609
 136.2943942 109.1028511  97.2284057 135.4328421 109.4009764  97.5200795
 136.3206376 109.3198910  96.2965090 133.1105511 117.6470701  93.6357863
 133.5743857 117.9258404  92.8462486 132.8462309 116.7454146  93.4530954
 130.0029592 117.1942183  96.5737626 130.5730949 117.6229451  95.9355111
 130.5937704 116.9124768  97.2721812 132.0474397 113.7693854  90.4447428
 132.7498440 114.2214897  90.9121355 131.7155026 113.1277673  91.0727321
 125.7899731 112.0277406  95.7464562 124.9998785 112.2834935  95.2704672
 126.2810978 112.8425744  95.8516602 127.7414476 112.3921986  92.7048039
 126.9445640 112.5040680  93.2231534 127.5140069 112.7308638  91.8388929
 124.0737434 112.2807897  98.1779553 124.3245472 113.1654907  98.4437129
 124.6096982 112.1012498  97.4054644 126.7397559 118.1010234  91.0937459
 127.2522080 118.8953485  91.2443023 127.3920272 117.4036525  91.0271060
 128.5492444 121.2175991  93.1760212 128.7259072 122.1393955  92.9881196
 129.3449277 120.9034410  93.6054592 127.8344800 113.2640623 103.0522375
 127.7198315 112.3625880 103.3529474 126.9789318 113.5104319 102.7007192
 136.6360625 104.1065358  99.0508427 136.2924895 104.9967000  98.9747538
 137.0039588 103.9167016  98.1878012 124.7046476 116.4298889  91.8697029
 125.5421698 116.8395897  91.6530737 124.8824744 115.4898331  91.8397223
 136.6010908 114.0973969  87.5580862 136.0857531 114.8678574  87.7969249
 136.3288216 113.4239106  88.1813924 134.1858019 108.9423670  92.6166100
 133.3299615 108.5530521  92.4371739 134.5984971 109.0215631  91.7565886
 135.7157166 106.4770013  97.0157660 135.2121961 106.4400149  96.2025466
 136.0087773 107.3862756  97.0754317 131.9600052 106.5608743  96.0223842
 132.8253048 106.3651552  95.6629731 132.0277560 106.3319095  96.9493199
 136.3897211 111.9701061  89.3840643 136.0847347 112.2847211  90.2350786
 137.3427653 112.0482481  89.4267976 134.8343643 118.1291285  91.0333597
 134.3065005 117.3944044  90.7206835 134.3331146 118.9065961  90.7873566
 129.5662371 108.7910951  93.3940209 130.1406123 108.5686133  92.6613402
 130.1533353 108.8599646  94.1468810 129.8931958 110.8215412  87.4136094
 129.0569270 111.1590099  87.7345369 129.7536727 110.6864392  86.4763231
 131.8685038 105.6652200  92.1215278 131.2149451 105.3501217  91.4971893
 131.8265512 105.0427940  92.8475101 132.9796243 115.9471495  84.0368570
 132.0723305 115.7160748  84.2359719 133.4767275 115.1509114  84.2242552
 135.1022779 112.1534133  96.4462926 134.1845340 112.3749080  96.2884614
 135.5182922 112.2280444  95.5874633 135.8857826 113.5525549  91.5765606
 136.6329645 114.0646946  91.2672728 136.1549416 113.2309602  92.4370000
 134.1584477 116.0484090  88.5592560 133.2495696 115.7643123  88.6565030
 134.1879560 116.4683168  87.6995867 124.7272647 113.7689604  92.5407763
 124.5297047 113.1758965  91.8158829 124.1719311 113.4641814  93.2583701
 132.7069371 113.6612710  94.6602356 132.7617980 112.7086547  94.5844832
 131.8960573 113.8172150  95.1443654 133.8560564 117.5892834  85.8980639
 133.4179994 116.8728692  85.4386276 134.5971005 117.8168948  85.3365730
 130.6461731 112.2789770  92.4192735 129.8329596 112.5783941  92.8257927
 131.1420725 111.8845459  93.1367217 130.1375805 109.8508126  98.0353970
 130.7775185 109.7096885  97.3376933 129.3053336 109.5642639  97.6592572
 130.9136109 119.1510556  94.1488962 131.7076708 118.6560876  93.9471537
 130.2027802 118.6228419  93.7856668 127.2218873 113.2953638  90.2248715
 126.2916461 113.2338093  90.4418677 127.3176345 112.7729591  89.4285356
 127.1404422 109.8208451  92.8126956 127.4011239 110.7353784  92.7036117
 127.9621594 109.3532893  92.9623569 128.6129347 111.2346208  99.9825781
 129.2852401 111.0263570  99.3338430 127.7859134 111.0368294  99.5431013
 134.5154919 107.8608149 101.9991442 133.8682834 108.5598099 101.9055918
 135.2855935 108.2944293 102.3667690 135.0412600 119.1021181  95.2175637
 134.7062433 119.0621951  96.1133287 134.5416546 118.4365897  94.7446047
 129.0156844 114.5088811 100.7428218 128.8776642 113.7769050 101.3439757
 129.9261768 114.4197711 100.4612406 131.6439145 114.2208770 100.2311898
 132.3538764 113.5801962 100.1898516 131.6008453 114.4721665 101.1538078
 130.3568079 111.2073988 102.0507537 129.8205436 110.7564727 102.7029133
 129.7684787 111.3419897 101.3078002 129.7670338 110.6662640  84.6134001
 128.8899804 110.5451440  84.2496247 130.2428091 109.8748718  84.3612889
 121.2872478 115.4539799  94.7075508 121.9743518 115.1401529  94.1196523
 121.1320607 116.3581164  94.4342759 126.0907200 110.3429996  99.1360532
 126.0065389 109.7355665  98.4010942 125.2689907 110.8339014  99.1370028
 136.2630914 108.8283559  94.5030727 136.7599614 108.0753522  94.1831797
 135.4917896 108.8647876  93.9373936 137.3460695 117.5855247  92.0769150
 136.4116974 117.7056709  91.9073854 137.5237363 116.6827713  91.8129160
 132.8465883 110.9700942  94.2302411 132.4763670 110.4171983  94.9183317
 133.3424975 110.3659076  93.6777411 126.2722800 120.9634792  98.2588532
 126.8576236 120.2178480  98.3916436 126.0747638 121.2738749  99.1425196
 120.8640454 113.5340393  96.9792975 120.9024554 113.0003983  97.7730093
 120.3580747 113.0075598  96.3603952 128.2431217 108.3804933 100.4755517
 128.3072543 109.2419764 100.0632915 128.1798337 107.7678935  99.7427876
 127.7183489 110.4528066 104.1228552 128.3455528 110.0705143 104.7366076
 126.8611408 110.2342268 104.4884244 124.4949032 112.2604495  90.0546906
 124.7902473 111.3515173  90.0013960 123.5937068 112.2392234  89.7327909
 128.0243279 110.3360491  96.0374455 127.3029865 110.9496459  95.8981928
 128.8136535 110.8718256  95.9591101 130.8269592 107.6714918 102.3115107
 131.3503994 107.9177214 103.0741416 130.6081926 108.5034953 101.8918244
 126.2236873 109.9418592  90.1786232 125.8949580 109.0615971  89.9961338
 126.5776244 109.8866261  91.0662621 129.3378697 110.2291562  90.5461709
 129.6774769 110.7577483  89.8240318 129.7850817 110.5671968  91.3220276
 132.0322137 108.6128613  99.9964777 131.6918958 107.8136426 100.3985457
 131.3261144 108.9130324  99.4241611 132.6838609 105.6977925  98.4492100
 133.5064679 105.2238404  98.3270991 132.9276673 106.4768409  98.9490787
 131.3246844 108.7266184  88.7455002 132.0455206 109.1047437  88.2418719
 130.7012148 109.4455061  88.8489980 135.4677967 109.4311333  89.6813334
 135.6841581 110.3135971  89.3802163 134.9872034 109.0397546  88.9518976
 130.2077188 112.3897046  96.2584079 130.0621769 112.7037349  97.1508361
 129.7302392 113.0081946  95.7054978 132.0673571 109.3799594  96.3064969
 132.0535140 108.4840687  95.9697266 132.7845999 109.3870258  96.9403255
 133.9199702 109.8136934  98.3518096 133.6617479 110.7354005  98.3502426
 133.3884742 109.4167369  99.0418560 124.6822850 114.9302390  99.1971740
 124.1376318 115.7062198  99.3292014 125.5602200 115.2773195  99.0390862
 131.4710467 108.2613974  91.5752539 131.5926378 107.3330620  91.7743426
 131.1812509 108.2752660  90.6630854 134.3401657 105.9468885  94.7119259
 134.3623354 106.0108218  93.7571238 134.7569716 105.1073393  94.9059765
 125.4688872 114.0572287 102.0901897 124.7270608 114.2054922 102.6766527
 125.1481616 114.3180552 101.2268646 125.9145486 121.9437715  94.1212292
 126.7403506 121.6441487  93.7410935 125.5639538 121.1745338  94.5702080
 130.8827019 121.2964184  96.1909965 130.2607028 120.6334889  95.8912193
 131.5531886 121.3225316  95.5083613 124.1154091 119.8624042  95.0801225
 123.2785999 119.4346216  94.8985227 124.0877736 120.0556485  96.0172016
 130.4440526 119.8468107  89.6668426 130.5928646 120.5303571  89.0135099
 131.2506969 119.8273197  90.1817882 128.1993159 115.8733285  90.6729495
 127.9539201 114.9695615  90.8709705 128.3689073 115.8750435  89.7308973
 135.8889869 106.7456961 100.0554250 136.4071812 107.4817988  99.7300739
 135.5345001 107.0520954 100.8901009 127.4688806 111.6061642  88.1715656
 126.7758051 111.6805997  87.5155692 127.2240558 110.8421986  88.6937173
 136.1402463 103.1657244  95.5755147 136.4204217 102.4980433  96.2015573
 136.9253070 103.3586339  95.0629811 134.3282730 113.6777050  84.4796226
 135.2741834 113.5483258  84.5484644 133.9496975 112.9391712  84.9565654
 132.5125647 111.6027027  84.4151111 131.6057102 111.3060139  84.4913825
 132.7901628 111.3056845  83.5485397 123.4303587 112.9233390  94.8650157
 123.1106372 112.0698698  94.5724531 122.8837015 113.1381968  95.6208125
 127.2083495 115.6395831  98.5819664 127.4269505 116.5712939  98.6007698
 127.6209269 115.2803805  99.3674468 134.1287713 106.1463916  90.5695352
 133.3188441 105.8011001  90.9450598 134.8172130 105.8371460  91.1582964
 136.0578261 105.2241963  92.1919649 136.6109300 105.6437416  92.8509672
 136.2948347 104.2977711  92.2342605 131.2824432 108.4613962  84.5563090
 132.1443596 108.7868860  84.8158907 131.4674776 107.6745458  84.0436156
 123.2991847 116.5436301  96.8343279 122.6055319 116.1290254  96.3213233
 124.0464838 116.5856838  96.2376698 125.2128590 116.4754555  94.7109294
 125.1899278 116.5742242  93.7591177 125.5229226 117.3219706  95.0326460
 127.8715968 118.5330710  98.8255908 128.8259221 118.5014653  98.7585840
 127.6728491 118.0721334  99.6406134 126.2266196 124.0750330  95.8426106
 126.0920664 123.3150731  95.2764104 125.8098259 124.7991230  95.3754895
 123.7150264 111.4369960 102.0918903 124.3609128 110.9268914 102.5806128
 123.5067415 112.1738642 102.6662328 132.2353875 105.7010005  87.8442799
 132.2232544 106.6451845  88.0011070 133.1277296 105.5180150  87.5502260
 136.0505994 102.2952781  92.0988736 135.2838390 101.7411268  92.2445418
 136.4616699 102.3674650  92.9602888  55.1373513  -5.0728658  78.5249300
  55.0597542  -4.1220833  78.6037781  54.5335156  -5.4182785  79.1824227
  53.7967479  -7.5627137  85.9015861  54.3474904  -7.6910073  85.1292855
  52.9578955  -7.2632248  85.5510754  60.0108042  -5.6412299  73.6810563
  59.3369741  -5.3380602  74.2895521  60.3973864  -4.8383219  73.3316020
  58.2099257  -5.4732626  75.8957642  58.3851013  -5.9444583  76.7103265
  57.5232045  -4.8466860  76.1238903  52.7760342  -2.3243264  82.6697502
  53.0156941  -1.6924740  83.3476521  51.9329539  -2.6755224  82.9562862
  57.2888204  -6.5164141  85.0739006  57.2158376  -5.7109170  85.5858311
  56.8465597  -6.3172175  84.2487028  57.0777984  -7.2792371  78.5841828
  56.2945506  -6.7370691  78.6780052  57.7770729  -6.7618392  78.9836069
  59.7486888  -6.6177307  87.2297165  60.4614860  -5.9829842  87.1573067
  59.2576916  -6.5213441  86.4137167  50.3966519  -9.3346509  84.9833839
  50.9819956 -10.0802821  85.1161743  50.1991358  -9.0242552  85.8670502
  53.2505175  -6.2995261  79.9996281  52.5815550  -5.8149134  79.5160321
  53.1118044  -6.0526041  80.9139660  57.3910443  -4.2651518  86.5978939
  57.9428751  -4.1019896  87.3628025  57.7316637  -3.6747080  85.9258964
  57.5376254  -6.6993036  88.6127594  57.8463381  -6.9443889  89.4850293
  58.3351736  -6.4946398  88.1246464  57.5596867  -4.5455127  80.8432970
  57.1201857  -5.0378748  81.5365827  58.3104983  -5.0882159  80.6025045
  50.0389205  -8.3543586  80.8457598  50.8647225  -8.6539814  80.4656242
  49.6883257  -9.1235963  81.2947387  48.2397811 -10.4357259  81.8046532
  47.4029719 -10.8635085  81.6230533  48.2121456 -10.2424816  82.7417323
  50.3509916  -6.2230971  82.5671413  50.2164384  -6.9830571  82.0009411
  49.9341979  -5.4990072  82.1000202  53.5079042  -5.3261654  82.7789855
  53.3911426  -4.3816222  82.6768546  52.6871488  -5.6288093  83.1675655
  54.5333556  -4.6733392  85.9945784  55.4360803  -4.6409782  86.3112279
  54.3070926  -5.6032942  86.0092120  56.2887158  -5.9202406  82.6555862
  55.3382789  -5.9200544  82.5420235  56.5919644  -6.6669671  82.1391897
  72.0239852  -0.0841868  83.7201625  72.6618262  -0.2035120  83.0164965
  71.9060695   0.8638976  83.7789577  68.8329558  -0.1314439  83.6563150
  68.4948070  -0.2473375  82.7683684  69.7019326  -0.5323274  83.6364156
  64.6916374   1.7221037  79.6460040  64.1281239   1.6310974  78.8776328
  64.5768769   0.9020941  80.1262533  69.3149341   1.0220412  89.6149355
  69.3037982   0.6273211  88.7429859  69.4769981   0.2886485  90.2083127
  62.2380806   3.2172229  82.4844261  63.0302098   2.8763053  82.0690560
  62.4777456   3.3267204  83.4046414  70.2715933   5.3892005  74.9574505
  69.6203912   5.9746085  74.5708519  71.0660295   5.9198200  75.0169543
  64.1971560   2.4781142  75.3561640  64.9702436   1.9310129  75.2174516
  64.5496959   3.3425391  75.5676101  66.0356602   3.8057524  88.5628539
  65.7446468   4.7103155  88.4475205  66.6713587   3.8474052  89.2772609
  66.9612809   1.1834373  85.1529899  67.5576381   0.9590395  84.4386862
  67.0187781   0.4419118  85.7555347  66.5337838  -1.3626192  72.9880090
  66.7863358  -1.8844671  72.2263553  65.5962397  -1.5260047  73.0906773
  71.7491198   3.0782437  75.4943490  71.1137031   3.1517063  76.2064394
  71.4188604   3.6676035  74.8162569  66.2534126   0.5401914  75.1904465
  66.1370384  -0.1353183  75.8585549  66.3636386   0.0534288  74.3736618
  68.5965667   0.0012061  78.8951154  68.2323874  -0.5257318  79.6064075
  69.4532783  -0.3889470  78.7217639  70.9946487   3.4918940  85.5578333
  70.6947210   4.3943978  85.4494140  70.6497547   3.2251123  86.4099486
  64.4458969  -0.0567264  81.5915037  63.5209465  -0.1891049  81.7992729
  64.6943382   0.7226956  82.0884980  68.2160375  -2.5140382  74.8759169
  68.0960000  -2.0683331  75.7144649  67.5212963  -2.1655064  74.3172707
  61.8067780  -0.4133990  82.4258826  61.9360161  -0.1599511  83.3398238
  61.1265231   0.1793718  82.1063481  65.9767267  10.2563260  78.5249300
  65.8991297  11.2071085  78.6037781  65.3728911   9.9109132  79.1824227
  68.4684497  -2.5708875  91.1810667  67.6917831  -2.0114954  91.1713532
  69.1075060  -2.0852092  91.7025537  66.7230869   0.2376579  90.7428634
  67.4645554   0.7761623  90.4663458  66.0167855   0.8642867  90.9000186
  72.1986209   2.3805719  89.3400796  72.6069565   1.9388130  88.5955428
  71.4763470   1.8058347  89.5934989  68.5517279  -2.6821674  86.7134353
  69.3978474  -2.2582260  86.8569002  68.4915917  -3.3388050  87.4072916
  72.5215023   2.9406910  83.0953085  71.8923886   3.1052624  82.3929153
  72.1340686   3.3548519  83.8664049  76.4004255   3.8761348  80.4497448
  75.7155294   4.2560249  79.8994482  76.4848105   4.4856674  81.1829396
  73.6555187   1.5221307  87.0492792  73.8672082   2.1653067  86.3727173
  73.6084935   0.6883623  86.5814722  68.0742985   2.6781318  80.3603170
  68.5381331   2.9569021  79.5707792  67.8099783   1.7764762  80.1776260
  64.9667066   2.2252799  83.2982933  65.5368423   2.6540068  82.6600418
  65.5575178   1.9435384  83.9967119  67.0111871  -1.1995530  77.1692735
  67.7135915  -0.7474486  77.6366661  66.6792500  -1.8411711  77.7972628
  65.4592233  -2.6083773  91.5443944  64.8290894  -1.9267492  91.7779341
  65.3528321  -2.7200691  90.5997083  60.7537205  -2.9411977  82.4709868
  59.9636259  -2.6854449  81.9949979  61.2448453  -2.1263639  82.5761909
  74.7701015   4.3993262  85.2215149  75.5918459   3.9973449  84.9397831
  74.7663418   4.2961496  86.1731265  62.7051951  -2.5767398  79.4293345
  61.9083114  -2.4648704  79.9476841  62.4777543  -2.2380746  78.5634236
  68.5357618   3.9477305  87.3775860  68.6002051   4.4097713  88.2134032
  67.8268542   3.3174670  87.5058170  59.0374908  -2.6881487  84.9024859
  59.2882947  -1.8034477  85.1682435  59.5734457  -2.8676885  84.1299951
  68.2505636   5.6145413  77.2454840  68.1151311   6.4596949  77.6739688
  68.7915449   5.8164691  76.4820774  61.7035033   3.1320851  77.8182765
  62.2159554   3.9264101  77.9688330  62.3557746   2.4347141  77.7516367
  63.5129918   6.2486607  79.9005518  63.6896546   7.1704572  79.7126502
  64.3086752   5.9345026  80.3299898  62.7982275  -1.7048761  89.7767682
  62.6835790  -2.6063504  90.0774781  61.9426792  -1.4585064  89.4252498
  69.8774112   6.2368979  91.3755182  69.4337967   5.4505358  91.0576087
  70.5391326   6.4248130  90.7099073  64.6361234   7.7664781  85.9015861
  65.1868659   7.6381844  85.1292855  63.7972710   8.0659670  85.5510754
  71.9755350   6.5171779  89.4036584  71.9573826   7.3380660  88.9116853
  72.8975271   6.3925855  89.6286725  68.4328405   4.0315909  90.2460092
  68.9656741   3.2704197  90.0159400  67.9042486   3.7389561  90.9884246
  59.6683950   1.4609505  78.5942336  60.5059172   1.8706514  78.3776043
  59.8462218   0.5208947  78.5642530  71.5648382  -0.8715414  74.2826169
  71.0495006  -0.1010809  74.5214556  71.2925691  -1.5450278  74.9059230
  76.5382656   1.8816941  76.2179342  75.7612099   1.5428100  75.7734504
  77.2174137   1.8869564  75.5434307  69.7981117   3.1601901  77.7578904
  69.2702479   2.4254661  77.4452141  69.2968620   3.9376578  77.5118872
  74.7773963   1.3550922  82.8745950  74.1197638   2.0450183  82.9626079
  75.5814363   1.7447354  83.2179937  73.5879422  -0.2904706  80.9249892
  74.1011304   0.3425286  81.4271602  74.2380646  -0.8903510  80.5593252
  64.8569432  -4.1473971  74.1381401  64.0206744  -3.8099285  74.4590675
  64.7174202  -4.2824992  73.2008538  67.9433718   0.9782112  70.7613877
  67.0360779   0.7471365  70.9605026  68.4404750   0.1819731  70.9487858
  70.8501796   9.6879619  73.6810563  70.1763495   9.9911316  74.2895521
  71.2367618  10.4908699  73.3316020  70.0660253  -2.8155250  83.1708232
  69.1482814  -2.5940303  83.0129921  70.4820397  -2.7408939  82.3119940
  70.8495301  -1.4163834  78.3010913  71.5967120  -0.9042437  77.9918035
  71.1186890  -1.7379782  79.1615306  69.1221951   1.0794706  75.2837867
  68.2133170   0.7953739  75.3810337  69.1517035   1.4993785  74.4241174
  74.3541218   4.6901296  79.0529035  73.9003545   3.8492206  79.1094225
  73.7235185   5.3262694  79.3903815  72.7974158   6.5277793  79.9878853
  73.0897132   7.0882850  79.2691218  73.3072778   6.8206354  80.7432012
  59.6910121  -1.1999779  79.2653069  59.4934521  -1.7930419  78.5404136
  59.1356785  -1.5047569  79.9829008  67.6706845  -1.3076673  81.3847662
  67.7255455  -2.2602837  81.3090139  66.8598047  -1.1517234  81.8688961
  68.8198039   2.6203450  72.6225946  68.3817469   1.9039309  72.1631583
  69.5608480   2.8479565  72.0611037  65.6099205  -2.6899613  79.1438041
  64.7967070  -2.3905443  79.5503233  66.1058199  -3.0843924  79.8612523
  67.7607783   7.3058144  81.0772306  67.7183962   7.5318990  80.1480838
  68.6770482   7.0721518  81.2258107  71.2073417  -2.2257789  87.9752935
  71.5622804  -1.9986316  88.8347401  71.8545548  -1.8939412  87.3530190
  76.9371154   0.8960647  78.6802264  76.7989052   1.0862243  77.7523453
  76.5807372   1.6580030  79.1370315  76.9640533   2.9637174  83.6913536
  77.3977040   2.8712463  84.5396590  77.6772114   2.9394675  83.0533552
  65.8773584   4.1821173  80.8734269  66.6714182   3.6871493  80.6716844
  65.1665276   3.6539036  80.5101974  70.6968428   6.5639268  85.2246636
  70.7505450   7.1330205  85.9924352  69.8283209   6.7341153  84.8600673
  62.1856347  -1.6735746  76.9494021  61.2553935  -1.7351290  77.1663983
  62.2813819  -2.1959793  76.1530663  62.1041896  -5.1480933  79.5372263
  62.3648713  -4.2335599  79.4281423  62.9259068  -5.6156490  79.6868876
  63.5766821  -3.7343176  86.7071088  64.2489875  -3.9425813  86.0583736
  62.7496608  -3.9321090  86.2676320  77.8256083   3.0060875  86.2246421
  78.0191973   3.9106685  86.4705696  77.7256701   2.5468294  87.0585006
  72.8871191   3.1567618  91.7987302  72.7356698   2.9278169  90.8817385
  72.8775871   4.1138219  91.8118647  69.6556528   0.7299530  86.7833568
  70.5848588   0.8810690  86.6102535  69.2347558   0.8183551  85.9282215
  68.4544860   4.7550195  84.5532106  68.3155945   4.3868979  85.4258044
  67.6659456   5.2697834  84.3816064  69.0493012   9.8559291  75.8957642
  69.2244767   9.3847334  76.7103265  68.3625800  10.4825057  76.1238903
  70.0050075   4.1331797  81.9420944  69.6699907   4.0932567  82.8378593
  69.5054020   3.4676513  81.4691354  63.9794319  -0.4600573  87.4673525
  63.8414117  -1.1920334  88.0685064  64.8899242  -0.5491672  87.1857712
  72.9409266   1.4787832  72.2158003  72.3238437   0.7534660  72.1191056
  72.4725755   2.2397192  71.8725077  66.6076619  -0.7480613  86.9557204
  67.3176238  -1.3887421  86.9143823  66.5645928  -0.4967718  87.8783385
  74.5963398   6.1886740  89.8763784  74.5375944   5.5045960  89.2094367
  74.9982916   6.9305730  89.4244410  65.3205553  -3.7615395  88.7752844
  64.7842910  -4.2124657  89.4274440  64.7322262  -3.6269487  88.0323308
  63.6154097  13.0048654  82.6697502  63.8550695  13.6367178  83.3476521
  62.7723293  12.6536694  82.9562862  64.7307812  -4.3026744  71.3379307
  63.8537279  -4.4237943  70.9741554  65.2065565  -5.0940666  71.0858196
  74.5980805   4.1526324  88.1077763  73.7107584   3.8152246  88.2304162
  75.1679356   3.4209355  88.3446529  56.2509952   0.4850416  81.4320815
  56.9380992   0.1712146  80.8441830  56.0958081   1.3891780  81.1588066
  61.0544675  -4.6259388  85.8605838  60.9702863  -5.2333718  85.1256248
  60.2327381  -4.1350369  85.8615335  68.1281959   8.8127776  85.0739006
  68.0552130   9.6182748  85.5858311  67.6859352   9.0119742  84.2487028
  67.9171738   8.0499546  78.5841828  67.1339260   8.5921227  78.6780052
  68.6164484   8.5673526  78.9836069  70.5880642   8.7114610  87.2297165
  71.3008614   9.3462075  87.1573067  70.0970671   8.8078476  86.4137167
  72.3098169   2.6165863  78.8014457  71.3754448   2.7367326  78.6319161
  72.4874838   1.7138330  78.5374467  65.6392556   6.4609054  88.0502736
  66.3402015   7.0945537  88.2032130  65.1687671   6.8023785  87.2898375
  73.7646952   4.8027004  76.3350643  74.0406795   4.6883598  77.2444517
  72.8951450   4.4044489  76.2962816  73.4393842  -0.9846339  85.8755286
  72.7865292  -0.7370431  85.2207739  73.8174222  -1.7982200  85.5417764
  70.4001016   9.0513355  79.9783457  70.5823410   8.2335010  80.4411209
  71.2234002   9.2681047  79.5408347  70.7343181   7.9781540  77.2398505
  71.2630948   7.4673994  76.6268667  70.9971401   7.6624070  78.1044038
  69.4881415  -0.2426528  92.3621323  68.8122052  -0.3432398  93.0323699
  70.3109049  -0.3987314  92.8257321  61.2360274   5.9945409  84.9833839
  61.8213711   5.2489097  85.1161743  61.0385112   6.3049366  85.8670502
  64.0898929   9.0296656  79.9996281  63.4209304   9.5142784  79.5160321
  63.9511799   9.2765877  80.9139660  55.8277929  -1.4348991  83.7038282
  55.8662028  -1.9685400  84.4975400  55.3218221  -1.9613785  83.0849259
  68.2304198  11.0640400  86.5978939  68.7822506  11.2272021  87.3628025
  68.5710391  11.6544838  85.9258964  62.6820963  -4.5161318  90.8473858
  63.3093002  -4.8984240  91.4611383  61.8248882  -4.7347116  91.2129551
  73.0815072   5.8901657  92.4527594  73.6254976   6.5031616  91.9582549
  72.5001917   6.4481236  92.9694607  59.4586506  -2.7084889  76.7792213
  59.7539947  -3.6174210  76.7259267  58.5574542  -2.7297149  76.4573215
  71.3672585   9.0122375  83.5842622  71.2423724   8.2112115  83.0753567
  72.0251676   9.5068569  83.0956591  62.9880753  -4.6328892  82.7619762
  62.2667339  -4.0192924  82.6227235  63.7774009  -4.0971127  82.6836408
  73.4307493   6.8131395  85.2122172  72.4837829   6.6936747  85.1400498
  73.7790266   5.9253893  85.2948433  61.1874348  -5.0270791  76.9031538
  60.8587054  -5.9073412  76.7206644  61.5413718  -5.0823122  77.7907928
  70.4353927   6.6084112  81.4126524  70.2878889   5.6800819  81.5934094
  71.2607420   6.6304202  80.9283599  64.3016171  -4.7397821  77.2707016
  64.6412243  -4.2111900  76.5485624  64.7488291  -4.4017415  78.0465582
  74.0388048   7.4312670  82.4991397  74.9634596   7.2255532  82.3615848
  73.8703352   7.1829072  83.4080738  65.1714662  -2.5792337  82.9829386
  65.0259243  -2.2652034  83.8753667  64.6939866  -1.9607437  82.4300284
  73.8283365   7.9498338  77.8553488  74.0020242   7.3844760  77.1027340
  74.3212256   8.7499233  77.6732978  59.6460324  -0.0386993  85.9217047
  59.1013793   0.7372815  86.0537321  60.5239674   0.3083811  85.7636168
  74.8158537   7.2665102  74.9550386  75.5109442   7.8871795  75.1737701
  75.1581687   6.4160453  75.2302764  60.4326346  -0.9117097  88.8147204
  59.6908082  -0.7634461  89.4011834  60.1119091  -0.6508831  87.9513953
  76.7149960   4.7164808  76.4837717  77.2401284   5.0552081  75.7587037
  76.6272313   3.7811823  76.3000852  68.3770009   8.6298881  88.6127594
  68.6857135   8.3848028  89.4850293  69.1745491   8.8345520  88.1246464
  68.3990621  10.7836791  80.8432970  67.9595611  10.2913170  81.5365827
  69.1498738  10.2409759  80.6025045  60.8782960   6.9748332  80.8457598
  61.7040980   6.6752104  80.4656242  60.5277012   6.2055954  81.2947387
  65.8464493   6.3274800  82.9155272  65.2244502   5.6645505  82.6157500
  66.5169360   6.3535932  82.2328920  59.0791565   4.8934658  81.8046532
  58.2423473   4.4656833  81.6230533  59.0515210   5.0867102  82.7417323
  76.4043866   5.3497711  91.7888915  75.6139410   5.3321850  91.2493414
  76.1677221   5.8886005  92.5437952  76.5241741   2.1990178  89.1021644
  76.5739746   2.0340185  90.0437166  76.4155665   1.3317437  88.7119524
  65.4078000   4.8778724  76.3913732  65.5566120   5.5614188  75.7380405
  66.2144444   4.8583814  76.9063188  78.0259938   4.6187119  89.3463665
  77.7344747   4.9817100  90.1827126  77.4132069   3.9054128  89.1676997
  79.2255621   2.1839999  81.8666235  80.0602512   2.6229803  82.0303796
  79.3614749   1.7078652  81.0474481  76.2747126  -0.2580266  87.8143723
  76.7501248  -0.0652620  87.0062574  75.3512692  -0.2021080  87.5687107
  63.1630633   0.9043901  77.3974801  62.9176675   0.0006231  77.5955012
  63.3326548   0.9061052  76.4554279  62.4326281  -3.3627741  74.8960963
  61.7395526  -3.2883386  74.2400999  62.1878032  -4.1267398  75.4182480
  68.9073406   7.3726854  73.8625480  68.3347373   7.9917041  73.4095952
  69.4806199   7.9226216  74.3965402  72.1270665   7.6564004  74.9934062
  73.0601339   7.5909566  75.1966938  72.0393878   8.4920271  74.5348595
  74.7558682   6.9729874  71.9538010  74.6772314   6.6389738  72.8473768
  75.5768349   7.4651642  71.9529482  69.2920204  -1.2912333  71.2041532
  70.2379309  -1.4206125  71.2729950  68.9134449  -2.0297671  71.6810961
  69.1758897   2.7605413  92.6642189  70.0961906   2.9384012  92.8582236
  69.1408480   1.8161458  92.5121889  67.4763121  -3.3662357  71.1396418
  66.5694577  -3.6629244  71.2159131  67.7539102  -3.6632539  70.2730704
  58.3941062  -2.0455994  81.5895464  58.0743846  -2.8990685  81.2969838
  57.8474490  -1.8307415  82.3453431  62.1720969   0.6706447  85.3064971
  62.3906979   1.6023555  85.3253004  62.5846743   0.3114422  86.0919774
  67.0448834  -3.7560347  94.6967719  66.9445561  -2.8065990  94.6279811
  66.8270377  -4.0842108  93.8243790  58.2629322   1.5746918  83.5588586
  57.5692793   1.1600871  83.0458540  59.0102313   1.6167454  82.9622004
  66.9080105  -0.3263208  93.5132781  66.4247186   0.4737152  93.7196670
  66.9941044  -0.3155263  92.5600225  60.1766064   1.5065172  81.4354600
  60.1536752   1.6052859  80.4836484  60.4866701   2.3530323  81.7571767
  62.8353442   3.5641327  85.5501215  63.7896696   3.5325269  85.4831146
  62.6365966   3.1031951  86.3651441  63.4252824   2.1342443  88.1172013
  64.2445713   2.6286522  88.1406850  63.6989632   1.2174411  88.0889580
  61.1903671   9.1060946  82.5671413  61.0558139   8.3461347  82.0009411
  60.7735733   9.8301846  82.1000202  72.3262634   4.2897870  71.5747988
  73.0298484   4.4947872  72.1905644  71.6025283   4.8574632  71.8397072
  73.1560444   0.0407731  77.6950258  73.0995646   0.4976283  76.8557891
  73.7088787  -0.7201584  77.5173101  64.3472797  10.0030263  82.7789855
  64.2305181  10.9475696  82.6768546  63.5265243   9.7003825  83.1675655
  74.2349331   4.7280399  73.6246448  75.0694935   4.2961597  73.4423923
  74.0733674   4.5562413  74.5523343  73.8895223   1.2312512  74.9902787
  73.8344027   1.0656784  74.0491232  73.2641279   1.9388545  75.1464977
  58.6787738  -3.5319423  88.8164210  59.3246602  -4.0420469  89.3051435
  58.4704890  -2.7950742  89.3907635  71.2041131   3.5361424  94.3156350
  72.0732290   3.7102076  93.9542985  70.7247882   4.3555841  94.1932080
  65.3727311  10.6558525  85.9945784  66.2754558  10.6882135  86.3112279
  65.1464681   9.7258976  86.0092120  67.1280913   9.4089512  82.6555862
  66.1776544   9.4091373  82.5420235  67.4313399   8.6622246  82.1391897
  82.8633606  15.2450050  83.7201625  83.5012016  15.1256797  83.0164965
  82.7454449  16.1930894  83.7789577  79.6723313  15.1977478  83.6563150
  79.3341824  15.0818543  82.7683684  80.5413081  14.7968643  83.6364156
  75.5310128  17.0512955  79.6460040  74.9674993  16.9602892  78.8776328
  75.4162523  16.2312859  80.1262533  80.1543096  16.3512330  89.6149355
  80.1431736  15.9565128  88.7429859  80.3163735  15.6178403  90.2083127
  73.0774560  18.5464146  82.4844261  73.8695852  18.2054971  82.0690560
  73.3171210  18.6559121  83.4046414  81.1109687  20.7183922  74.9574505
  80.4597667  21.3038003  74.5708519  81.9054050  21.2490117  75.0169543
  75.0365314  17.8073059  75.3561640  75.8096190  17.2602047  75.2174516
  75.3890713  18.6717309  75.5676101  76.8750357  19.1349442  88.5628539
  76.5840223  20.0395073  88.4475205  77.5107341  19.1765969  89.2772609
  77.8006564  16.5126290  85.1529899  78.3970136  16.2882313  84.4386862
  77.8581535  15.7711036  85.7555347  77.3731592  13.9665726  72.9880090
  77.6257113  13.4447247  72.2263553  76.4356151  13.8031871  73.0906773
  82.4174875  12.9701504  80.7954833  83.2037964  12.5520927  80.4445250
  82.6813579  13.8747596  80.9636481  82.5884952  18.4074354  75.4943490
  81.9530785  18.4808981  76.2064394  82.2582359  18.9967953  74.8162569
  87.8183302  12.9076737  81.6987811  88.5508474  12.3375954  81.9325641
  87.0622658  12.5198338  82.1394317  77.0927881  15.8693832  75.1904465
  76.9764139  15.1938735  75.8585549  77.2030141  15.3826206  74.3736618
  79.4359422  15.3303979  78.8951154  79.0717629  14.8034600  79.6064075
  80.2926538  14.9402448  78.7217639  85.3408722   6.6198311  86.1582420
  85.0092047   7.4893722  85.9343635  84.7454336   6.3034595  86.8376450
  79.0764909  10.3593878  73.8912502  79.2439311  11.2274115  74.2582973
  78.8862078  10.5221160  72.9673792  81.8340242  18.8210857  85.5578333
  81.5340965  19.7235896  85.4494140  81.4891301  18.5543040  86.4099486
  75.2852723  15.2724654  81.5915037  74.3603220  15.1400868  81.7992729
  75.5337137  16.0518873  82.0884980  85.2337386  11.3393397  83.2375770
  84.3254263  11.2708806  82.9434531  85.1824981  11.8165342  84.0657596
  79.0554130  12.8151536  74.8759169  78.9353755  13.2608587  75.7144649
  78.3606718  13.1636854  74.3172707  72.6461534  14.9157928  82.4258826
  72.7753916  15.1692407  83.3398238  71.9658986  15.5085636  82.1063481
  76.8161022  25.5855178  78.5249300  76.7385051  26.5363003  78.6037781
  76.2122665  25.2401050  79.1824227  79.3078251  12.7583043  91.1810667
  78.5311585  13.3176963  91.1713532  79.9468814  13.2439826  91.7025537
  87.0999032   9.5409836  85.0153644  86.4573412   9.8342369  84.3693439
  86.5953961   9.4262756  85.8206841  84.7539196  13.2873009  75.7039503
  85.6657052  13.5200396  75.5287201  84.2448843  13.8710053  75.1414582
  77.5624624  15.5668496  90.7428634  78.3039308  16.1053540  90.4663458
  76.8561609  16.1934785  90.9000186  83.0379963  17.7097637  89.3400796
  83.4463319  17.2680047  88.5955428  82.3157225  17.1350264  89.5934989
  79.3911033  12.6470244  86.7134353  80.2372229  13.0709657  86.8569002
  79.3309671  11.9903868  87.4072916  83.3608778  18.2698828  83.0953085
  82.7317640  18.4344542  82.3929153  82.9734440  18.6840437  83.8664049
  87.2398010  19.2053265  80.4497448  86.5549048  19.5852167  79.8994482
  87.3241859  19.8148592  81.1829396  82.5410479  10.3074612  88.3715526
  82.2971411  11.0616673  87.8349802  82.8170409  10.6859960  89.2062773
  84.4948941  16.8513224  87.0492792  84.7065837  17.4944984  86.3727173
  84.4478690  16.0175541  86.5814722  82.0975170   9.4631045  83.9529364
  81.2359649   9.7612299  84.2446102  82.1237605   9.6801444  83.0210397
  78.9136740  18.0073236  80.3603170  79.3775085  18.2860939  79.5707792
  78.6493538  17.1056680  80.1776260  75.8060821  17.5544717  83.2982933
  76.3762178  17.9831986  82.6600418  76.3968933  17.2727302  83.9967119
  77.8505626  14.1296388  77.1692735  78.5529669  14.5817432  77.6366661
  77.5186254  13.4880207  77.7972628  76.2985987  12.7208145  91.5443944
  75.6684648  13.4024425  91.7779341  76.1922075  12.6091226  90.5997083
  71.5930960  12.3879941  82.4709868  70.8030014  12.6437469  81.9949979
  72.0842207  13.2028278  82.5761909  85.6094769  19.7285180  85.2215149
  86.4312213  19.3265367  84.9397831  85.6057172  19.6253414  86.1731265
  73.5445705  12.7524520  79.4293345  72.7476869  12.8643214  79.9476841
  73.3171297  13.0911172  78.5634236  79.3751373  19.2769223  87.3775860
  79.4395805  19.7389630  88.2134032  78.6662297  18.6466588  87.5058170
  69.8768663  12.6410431  84.9024859  70.1276701  13.5257441  85.1682435
  70.4128211  12.4615033  84.1299951  93.7000762  16.0723928  81.5700121
  92.9464471  15.5031326  81.4144125  93.8348304  16.0386593  82.5170755
  79.0899391  20.9437331  77.2454840  78.9545065  21.7888866  77.6739688
  79.6309203  21.1456608  76.4820774  75.5766730   7.0228910  93.9069195
  75.1833676   6.4695109  94.5816840  76.3932870   7.3339489  94.2975713
  72.5428788  18.4612769  77.8182765  73.0553308  19.2556019  77.9688330
  73.1951501  17.7639059  77.7516367  74.3523673  21.5778525  79.9005518
  74.5290301  22.4996490  79.7126502  75.1480506  21.2636944  80.3299898
  78.4934691   8.4386790  91.4989452  79.2344405   9.0393943  91.4193914
  78.7252614   7.6964427  90.9407495  73.6376029  13.6243157  89.7767682
  73.5229544  12.7228414  90.0774781  72.7820547  13.8706854  89.4252498
  80.7167867  21.5660897  91.3755182  80.2731721  20.7797276  91.0576087
  81.3785080  21.7540048  90.7099073  75.4754988  23.0956699  85.9015861
  76.0262413  22.9673762  85.1292855  74.6366464  23.3951588  85.5510754
  82.8149105  21.8463697  89.4036584  82.7967580  22.6672578  88.9116853
  83.7369025  21.7217772  89.6286725  79.2722159  19.3607827  90.2460092
  79.8050496  18.5996115  90.0159400  78.7436240  19.0681478  90.9884246
  82.4391854   4.4667892  85.7753734  82.0956123   5.3569534  85.6992844
  82.8070817   4.2769550  84.9123319  70.5077705  16.7901423  78.5942336
  71.3452927  17.1998431  78.3776043  70.6855972  15.8500865  78.5642530
  82.4042137  14.4576504  74.2826169  81.8888760  15.2281108  74.5214556
  82.1319445  13.7841640  74.9059230  79.9889248   9.3026204  79.3411407
  79.1330844   8.9133055  79.1617046  80.4016200   9.3818165  78.4811193
  81.5188394   6.8372548  83.7402967  81.0153190   6.8002683  82.9270772
  81.8119001   7.7465290  83.7999624  77.7631280   6.9211277  82.7469149
  78.6284277   6.7254086  82.3875038  77.8308789   6.6921629  83.6738505
  87.3776411  17.2108858  76.2179342  86.6005854  16.8720018  75.7734504
  88.0567892  17.2161481  75.5434307  82.1928440  12.3303596  76.1085950
  81.8878576  12.6449745  76.9596093  83.1458882  12.4085016  76.1513283
  80.6374872  18.4893819  77.7578904  80.1096233  17.7546579  77.4452141
  80.1362375  19.2668495  77.5118872  85.6167718  16.6842839  82.8745950
  84.9591392  17.3742101  82.9626079  86.4208117  17.0739271  83.2179937
  75.3693599   9.1513485  80.1185515  75.9437351   8.9288667  79.3858708
  75.9564582   9.2202180  80.8714117  84.4273177  15.0387212  80.9249892
  84.9405058  15.6717204  81.4271602  85.0774401  14.4388408  80.5593252
  75.6963187  11.1817946  74.1381401  74.8600499  11.5192633  74.4590675
  75.5567956  11.0466926  73.2008538  77.6716267   6.0254734  78.8460585
  77.0180679   5.7103751  78.2217200  77.6296741   5.4030475  79.5720408
  78.7827472  16.3074029  70.7613877  77.8754534  16.0763283  70.9605026
  79.2798504  15.5111649  70.9487858  81.6895551  25.0171536  73.6810563
  81.0157250  25.3203233  74.2895521  82.0761373  25.8200617  73.3316020
  80.9054008  12.5136668  83.1708232  79.9876569  12.7351615  83.0129921
  81.3214151  12.5882978  82.3119940  81.6889055  13.9128083  78.3010913
  82.4360874  14.4249481  77.9918035  81.9580645  13.5912136  79.1615306
  79.9615705  16.4086624  75.2837867  79.0526925  16.1245657  75.3810337
  79.9910789  16.8285703  74.4241174  85.1934973  20.0193214  79.0529035
  84.7397300  19.1784123  79.1094225  84.5628940  20.6554612  79.3903815
  84.1367892  10.9485200  80.2829702  83.3990649  10.4362586  80.6139945
  84.3894666  10.5085581  79.4712979  83.6367912  21.8569710  79.9878853
  83.9290886  22.4174767  79.2691218  84.1466533  22.1498271  80.7432012
  84.2379520   3.7261452  80.8771471  84.5438397   2.8658815  80.5897386
  84.9632125   4.3179072  80.6770465  70.5303876  14.1292138  79.2653069
  70.3328276  13.5361499  78.5404136  69.9750540  13.8244348  79.9829008
  78.5100599  14.0215245  81.3847662  78.5649209  13.0689081  81.3090139
  77.6991802  14.1774684  81.8688961  79.6591793  17.9495368  72.6225946
  79.2211223  17.2331227  72.1631583  80.4002234  18.1771483  72.0611037
  76.4492959  12.6392304  79.1438041  75.6360825  12.9386475  79.5503233
  76.9451954  12.2447993  79.8612523  78.6001537  22.6350061  81.0772306
  78.5577716  22.8610908  80.1480838  79.5164236  22.4013436  81.2258107
  82.0467171  13.1034129  87.9752935  82.4016559  13.3305602  88.8347401
  82.6939302  13.4352506  87.3530190  87.7764908  16.2252565  78.6802264
  87.6382807  16.4154161  77.7523453  87.4201127  16.9871948  79.1370315
  75.9407034  10.2110660  84.7599276  76.5806413  10.0699419  84.0622240
  75.1084565   9.9245173  84.3837878  87.8034288  18.2929092  83.6913536
  88.2370794  18.2004381  84.5396590  88.5165868  18.2686592  83.0533552
  76.7167338  19.5113090  80.8734269  77.5107937  19.0163411  80.6716844
  76.0059030  18.9830954  80.5101974  81.5362183  21.8931186  85.2246636
  81.5899205  22.4622122  85.9924352  80.6676964  22.0633071  84.8600673
  73.0250102  13.6556172  76.9494021  72.0947690  13.5940628  77.1663983
  73.1207574  13.1332125  76.1530663  72.9435651  10.1810985  79.5372263
  73.2042468  11.0956318  79.4281423  73.7652823   9.7135428  79.6868876
  74.4160576  11.5948742  86.7071088  75.0883629  11.3866104  86.0583736
  73.5890362  11.3970828  86.2676320  88.6649837  18.3352792  86.2246421
  88.8585727  19.2398603  86.4705696  88.5650455  17.8760212  87.0585006
  80.3186148   8.2210683  88.7236748  79.6714063   8.9200633  88.6301225
  81.0887163   8.6546827  89.0912997  83.7264946  18.4859535  91.7987302
  83.5750452  18.2570087  90.8817385  83.7169625  19.4430137  91.8118647
  80.4950282  16.0591448  86.7833568  81.4242342  16.2102608  86.6102535
  80.0741312  16.1475469  85.9282215  79.2938614  20.0842112  84.5532106
  79.1549700  19.7160897  85.4258044  78.5053210  20.5989752  84.3816064
  79.8886766  25.1851209  75.8957642  80.0638522  24.7139252  76.7103265
  79.2019554  25.8116975  76.1238903  80.8443829  19.4623715  81.9420944
  80.5093662  19.4224485  82.8378593  80.3447775  18.7968431  81.4691354
  74.8188073  14.8691345  87.4673525  74.6807871  14.1371584  88.0685064
  75.7292997  14.7800245  87.1857712  83.7803021  16.8079749  72.2158003
  83.1632192  16.0826578  72.1191056  83.3119509  17.5689110  71.8725077
  77.4470374  14.5811304  86.9557204  78.1569992  13.9404497  86.9143823
  77.4039682  14.8324199  87.8783385  85.4357153  21.5178658  89.8763784
  85.3769699  20.8337878  89.2094367  85.8376671  22.2597648  89.4244410
  76.1599308  11.5676522  88.7752844  75.6236665  11.1167261  89.4274440
  75.5716016  11.7022431  88.0323308  75.5701567  11.0265174  71.3379307
  74.6931033  10.9053975  70.9741554  76.0459320  10.2351252  71.0858196
  85.4374560  19.4818242  88.1077763  84.5501339  19.1444164  88.2304162
  86.0073111  18.7501273  88.3446529  67.0903707  15.8142333  81.4320815
  67.7774747  15.5004063  80.8441830  66.9351836  16.7183698  81.1588066
  71.8938429  10.7032530  85.8605838  71.8096618  10.0958200  85.1256248
  71.0721135  11.1941548  85.8615335  78.9675713  24.1419694  85.0739006
  78.8945885  24.9474666  85.5858311  78.5253106  24.3411660  84.2487028
  78.7565493  23.3791464  78.5841828  77.9733015  23.9213144  78.6780052
  79.4558238  23.8965444  78.9836069  82.0662143   9.1886094  81.2276033
  82.5630842   8.4356056  80.9077104  81.2949124   9.2250410  80.6619243
  89.9191900  14.8926459  82.8694325  89.9081777  15.7751175  82.4988258
  89.0509280  14.5398010  82.6748862  81.4274397  24.0406528  87.2297165
  82.1402369  24.6753993  87.1573067  80.9364425  24.1370394  86.4137167
  83.1491924  17.9457781  78.8014457  82.2148202  18.0659243  78.6319161
  83.3268592  17.0430248  78.5374467  78.6497112  11.3303477  80.9547718
  78.2794899  10.7774517  81.6428624  79.1456204  10.7261610  80.4022718
  86.5364475  13.7875100  79.3364491  87.0024927  14.6203092  79.2624794
  86.9871975  13.3220082  80.0409749  76.4786310  21.7900972  88.0502736
  77.1795770  22.4237455  88.2032130  76.0081425  22.1315703  87.2898375
  84.6040706  20.1318921  76.3350643  84.8800550  20.0175516  77.2444517
  83.7345205  19.7336406  76.2962816  84.5081138   6.1555687  83.3755392
  83.5944218   6.3859914  83.5437599  84.9374239   6.2394131  84.2269425
  84.2787596  14.3445579  85.8755286  83.6259046  14.5921486  85.2207739
  84.6567976  13.5309717  85.5417764  81.2394770  24.3805272  79.9783457
  81.4217165  23.5626928  80.4411209  82.0627756  24.5972964  79.5408347
  81.5736936  23.3073457  77.2398505  82.1024702  22.7965912  76.6268667
  81.8365155  22.9915988  78.1044038  80.3275169  15.0865390  92.3621323
  79.6515806  14.9859519  93.0323699  81.1502803  14.9304604  92.8257321
  74.9292684  24.3588574  79.9996281  74.2603059  24.8434702  79.5160321
  74.7905553  24.6057794  80.9139660  66.6671683  13.8942927  83.7038282
  66.7055783  13.3606518  84.4975400  66.1611976  13.3678132  83.0849259
  79.0697952  26.3932318  86.5978939  79.6216260  26.5563939  87.3628025
  79.4104146  26.9836755  85.9258964  74.0462445   8.7407467  87.2000824
  74.1103772   9.6022298  86.7878222  73.9829566   8.1281469  86.4673183
  73.5214718  10.8130600  90.8473858  74.1486757  10.4307677  91.4611383
  72.6642637  10.5944802  91.2129551  83.9208826  21.2193575  92.4527594
  84.4648730  21.8323533  91.9582549  83.3395671  21.7773153  92.9694607
  70.2980261  12.6207029  76.7792213  70.5933702  11.7117707  76.7259267
  69.3968296  12.5994768  76.4573215  82.2066339  24.3414293  83.5842622
  82.0817479  23.5404033  83.0753567  82.8645431  24.8360486  83.0956591
  73.8274508  10.6963026  82.7619762  73.1061093  11.3098993  82.6227235
  74.6167763  11.2320790  82.6836408  84.2701248  22.1423313  85.2122172
  83.3231583  22.0228664  85.1400498  84.6184021  21.2545811  85.2948433
  76.6300821   8.0317452  89.0360413  77.1535223   8.2779749  89.7986723
  76.4113154   8.8637487  88.6163551  72.0268102  10.3021127  76.9031538
  71.6980808   9.4218506  76.7206644  72.3807473  10.2468795  77.7907928
  81.2747681  21.9376029  81.4126524  81.1272644  21.0092737  81.5934094
  82.1001175  21.9596120  80.9283599  75.1409925  10.5894096  77.2707016
  75.4805998  11.1180018  76.5485624  75.5882046  10.9274503  78.0465582
  84.8781803  22.7604588  82.4991397  85.8028350  22.5547449  82.3615848
  84.7097106  22.5120989  83.4080738  77.8353366   8.9731147  86.7210084
  77.4950187   8.1738960  87.1230764  77.1292372   9.2732858  86.1486917
  78.4869838   6.0580460  85.1737407  79.3095907   5.5840938  85.0516297
  78.7307902   6.8370943  85.6736093  77.1278073   9.0868718  75.4700309
  77.8486435   9.4649971  74.9664026  76.5043377   9.8057595  75.5735287
  81.2709195   9.7913867  76.4058641  81.4872810  10.6738505  76.1047469
  80.7903263   9.4000080  75.6764283  76.0108417  12.7499580  82.9829386
  75.8652997  13.0639883  83.8753667  75.5333620  13.3684481  82.4300284
  77.8704800   9.7402128  83.0310275  77.8566368   8.8443222  82.6942573
  78.5877228   9.7472792  83.6648561  79.7230930  10.1739468  85.0763403
  79.4648708  11.0956539  85.0747733  79.1915971   9.7769903  85.7663867
  84.6677119  23.2790256  77.8553488  84.8413997  22.7136678  77.1027340
  85.1606010  24.0791150  77.6732978  70.4854079  15.2904925  85.9217047
  69.9407547  16.0664733  86.0537321  71.3633429  15.6375729  85.7636168
  77.2741696   8.6216508  78.2997845  77.3957607   7.6933155  78.4988733
  76.9843738   8.6355194  77.3876161  80.1432886   6.3071419  81.4364565
  80.1654583   6.3710752  80.4816545  80.5600945   5.4675928  81.6305071
  90.5216510  16.0426678  79.4743788  90.9647656  15.2934004  79.0762911
  89.6443021  16.0336815  79.0917520  85.6552292  22.5957020  74.9550386
  86.3503196  23.2163713  75.1737701  85.9975442  21.7452371  75.2302764
  71.2720101  14.4174821  88.8147204  70.5301837  14.5657456  89.4011834
  70.9512845  14.6783086  87.9513953  87.5543715  20.0456725  76.4837717
  88.0795039  20.3843998  75.7587037  87.4666067  19.1103741  76.3000852
  79.2163763  23.9590799  88.6127594  79.5250890  23.7139946  89.4850293
  80.0139245  24.1637438  88.1246464  79.2384375  26.1128709  80.8432970
  78.7989366  25.6205087  81.5365827  79.9892492  25.5701676  80.6025045
  71.7176714  22.3040250  80.8457598  72.5434734  22.0044021  80.4656242
  71.3670766  21.5347872  81.2947387  76.6858248  21.6566718  82.9155272
  76.0638257  20.9937423  82.6157500  77.3563115  21.6827850  82.2328920
  69.9185320  20.2226576  81.8046532  69.0817228  19.7948750  81.6230533
  69.8908965  20.4159019  82.7417323  76.7582775  10.1348506  92.5087778
  76.8070931  11.0110629  92.1265548  77.3005289   9.5925899  91.9359421
  87.2437621  20.6789629  91.7888915  86.4533165  20.6613768  91.2493414
  87.0070975  21.2177923  92.5437952  87.3635496  17.5282095  89.1021644
  87.4133501  17.3632103  90.0437166  87.2549419  16.6609355  88.7119524
  76.2471755  20.2070641  76.3913732  76.3959875  20.8906106  75.7380405
  77.0538198  20.1875731  76.9063188  84.6539258  13.5113024  90.4180950
  85.5549121  13.3719488  90.1264948  84.7287233  13.6767478  91.3579128
  78.9882064  10.8879878  89.2634137  78.1185373  11.1813444  88.9916725
  79.2241544  11.4720323  89.9841400  88.8653693  19.9479037  89.3463665
  88.5738501  20.3109018  90.1827126  88.2525824  19.2346045  89.1676997
  90.0649375  17.5131917  81.8666235  90.8996266  17.9521721  82.0303796
  90.2008504  17.0370570  81.0474481  87.1140881  15.0711652  87.8143723
  87.5895003  15.2639298  87.0062574  86.1906446  15.1270837  87.5687107
  74.0024388  16.2335819  77.3974801  73.7570429  15.3298149  77.5955012
  74.1720302  16.2352969  76.4554279  81.6921097   7.1059495  86.7799557
  82.2103041   7.8420522  86.4546046  81.3376230   7.4123488  87.6146316
  73.2720035  11.9664176  74.8960963  72.5789280  12.0408531  74.2400999
  73.0271787  11.2024520  75.4182480  81.9433692   3.5259778  82.3000454
  82.2235445   2.8582967  82.9260880  82.7284299   3.7188873  81.7875117
  79.7467160  22.7018772  73.8625480  79.1741127  23.3208959  73.4095952
  80.3199954  23.2518133  74.3965402  85.8142550  11.9477412  86.0472029
  86.7659973  12.0475509  86.0684253  85.6446000  11.1555680  86.5570113
  83.8356929   9.0332995  86.2331430  83.2406862   9.3138008  85.5377918
  83.5506626   9.5226896  87.0048171  82.9664420  22.9855922  74.9934062
  83.8995093  22.9201483  75.1966938  82.8787633  23.8212189  74.5348595
  85.5952437  22.3021792  71.9538010  85.5166068  21.9681656  72.8473768
  86.4162103  22.7943560  71.9529482  88.2930628  15.1683531  85.1614328
  88.2606948  14.2299532  85.3474012  88.9031251  15.2467568  84.4280153
  80.1313959  14.0379584  71.2041532  81.0773063  13.9085792  71.2729950
  79.7528204  13.2994246  71.6810961  88.4425116  11.9594575  85.2072612
  87.9264165  11.1753031  85.0202540  89.3265065  11.6313291  85.3719131
  86.1035843   5.7035590  81.1668424  85.9060664   5.3950679  82.0511756
  86.7135549   6.4297229  81.2966354  94.1107178  16.2299538  84.3020365
  94.8410566  15.9684826  84.8628068  93.5014123  15.4928260  84.3422433
  92.1922475  14.3707401  84.8994816  91.4655638  14.2363366  84.2911308
  91.7769762  14.6784229  85.7051534  80.0152651  18.0897330  92.6642189
  80.9355661  18.2675930  92.8582236  79.9802234  17.1453376  92.5121889
  78.3156876  11.9629561  71.1396418  77.4088331  11.6662673  71.2159131
  78.5932857  11.6659379  70.2730704  69.2334816  13.2835924  81.5895464
  68.9137600  12.4301232  81.2969838  68.6868244  13.4984502  82.3453431
  73.0114724  15.9998365  85.3064971  73.2300733  16.9315473  85.3253004
  73.4240497  15.6406340  86.0919774  79.9318941   6.5066450  77.2940659
  79.1219670   6.1613535  77.6695905  80.6203358   6.1973994  77.8828270
  81.8609490   5.5844497  78.9164956  82.4140528   6.0039951  79.5754979
  82.0979576   4.6580245  78.9587912  77.8842589  11.5731571  94.6967719
  77.7839316  12.5225928  94.6279811  77.6664131  11.2449810  93.8243790
  77.0855660   8.8216496  71.2808397  77.9474824   9.1471394  71.5404214
  77.2706005   8.0347992  70.7681463  85.2388297   7.6945022  78.4243620
  84.6586966   8.3529826  78.0421672  84.9724230   6.8722367  78.0131037
  83.6891863   7.0950080  80.6264940  84.1891642   7.2066615  79.8179259
  84.3327471   6.7911133  81.2665749  77.7473859  15.0028710  93.5132781
  77.2640941  15.8029070  93.7196670  77.8334798  15.0136655  92.5600225
  71.0159819  16.8357089  81.4354600  70.9930507  16.9344777  80.4836484
  71.3260455  17.6822240  81.7571767  73.6747197  18.8933244  85.5501215
  74.6290450  18.8617187  85.4831146  73.4759720  18.4323868  86.3651441
  74.2646579  17.4634361  88.1172013  75.0839468  17.9578439  88.1406850
  74.5383386  16.5466329  88.0889580  84.0213175   9.8545113  77.4799968
  83.1339030  10.1394763  77.2620163  84.4367164   9.6938876  76.6327245
  87.3727711   9.8791634  81.1954307  88.1488101  10.3688086  81.4678924
  86.6475845  10.3049688  81.6526177  89.8100270  10.5919253  82.2528248
  90.4044760  10.3514989  81.5421556  89.8826853   9.8726384  82.8801784
  83.1656388  19.6189787  71.5747988  83.8692238  19.8239790  72.1905644
  82.4419037  20.1866549  71.8397072  83.9954199  15.3699649  77.6950258
  83.9389400  15.8268200  76.8557891  84.5482541  14.6090333  77.5173101
  87.8059005  11.1589381  78.5200378  87.5495939  10.7586016  79.3508585
  87.1811873  11.8733175  78.3950517  92.1171342  13.8985454  81.0271669
  91.5570900  13.9678643  81.8003231  91.5114846  13.7226438  80.3071165
  75.1866551  25.3322181  82.7789855  75.0698935  26.2767613  82.6768546
  74.3658997  25.0295743  83.1675655  85.0743086  20.0572317  73.6246448
  85.9088690  19.6253515  73.4423923  84.9127429  19.8854330  74.5523343
  84.7288978  16.5604430  74.9902787  84.6737782  16.3948701  74.0491232
  84.1035033  17.2680463  75.1464977  69.5181493  11.7972494  88.8164210
  70.1640356  11.2871448  89.3051435  69.3098644  12.5341176  89.3907635
  82.0434885  18.8653342  94.3156350  82.9126045  19.0393994  93.9542985
  81.5641637  19.6847759  94.1932080  78.0385103   6.0612539  74.5688106
  78.0263773   7.0054379  74.7256377  78.9308525   5.8782684  74.2747567
  77.9674667  24.7381429  82.6555862  77.0170298  24.7383291  82.5420235
  78.2707153  23.9914164  82.1391897  81.8537223   2.6555316  78.8234043
  81.0869619   2.1013802  78.9690725  82.2647928   2.7277184  79.6848194
  73.8578984   8.9440111  92.9139224  74.7210445   8.5876916  93.1242548
  73.2844395   8.6054006  93.6014628  93.7027361  30.5741968  83.7201625
  94.3405771  30.4548715  83.0164965  93.5848204  31.5222812  83.7789577
  90.5117067  30.5269396  83.6563150  90.1735579  30.4110461  82.7683684
  91.3806835  30.1260561  83.6364156  86.3703883  32.3804872  79.6460040
  85.8068748  32.2894809  78.8776328  86.2556278  31.5604777  80.1262533
  90.9936850  31.6804248  89.6149355  90.9825491  31.2857046  88.7429859
  91.1557490  30.9470320  90.2083127  83.9168315  33.8756064  82.4844261
  84.7089607  33.5346889  82.0690560  84.1564965  33.9851039  83.4046414
  91.9503442  36.0475840  74.9574505  91.2991421  36.6329920  74.5708519
  92.7447804  36.5782035  75.0169543  85.8759069  33.1364977  75.3561640
  86.6489945  32.5893964  75.2174516  86.2284468  34.0009226  75.5676101
  87.7144111  34.4641359  88.5628539  87.4233977  35.3686990  88.4475205
  88.3501096  34.5057887  89.2772609  88.6400318  31.8418208  85.1529899
  89.2363890  31.6174230  84.4386862  88.6975290  31.1002953  85.7555347
  88.2125346  29.2957643  72.9880090  88.4650867  28.7739165  72.2263553
  87.2749906  29.1323789  73.0906773  93.2568629  28.2993422  80.7954833
  94.0431719  27.8812845  80.4445250  93.5207334  29.2039514  80.9636481
  93.4278707  33.7366272  75.4943490  92.7924540  33.8100898  76.2064394
  93.0976113  34.3259871  74.8162569  98.6577056  28.2368655  81.6987811
  99.3902228  27.6667872  81.9325641  97.9016412  27.8490255  82.1394317
  87.9321635  31.1985749  75.1904465  87.8157893  30.5230653  75.8585549
  88.0423895  30.7118123  74.3736618  90.2753176  30.6595896  78.8951154
  89.9111383  30.1326517  79.6064075  91.1320292  30.2694365  78.7217639
  96.1802477  21.9490229  86.1582420  95.8485802  22.8185640  85.9343635
  95.5848090  21.6326513  86.8376450  89.9158663  25.6885796  73.8912502
  90.0833065  26.5566032  74.2582973  89.7255832  25.8513078  72.9673792
  92.6733996  34.1502775  85.5578333  92.3734719  35.0527814  85.4494140
  92.3285056  33.8834958  86.4099486  86.1246478  30.6016572  81.5915037
  85.1996974  30.4692786  81.7992729  86.3730891  31.3810791  82.0884980
  96.0731140  26.6685315  83.2375770  95.1648017  26.6000724  82.9434531
  96.0218736  27.1457260  84.0657596  89.8947884  28.1443454  74.8759169
  89.7747509  28.5900504  75.7144649  89.2000472  28.4928771  74.3172707
  83.4855289  30.2449845  82.4258826  83.6147670  30.4984324  83.3398238
  82.8052740  30.8377553  82.1063481  87.6554776  40.9147095  78.5249300
  87.5778806  41.8654920  78.6037781  87.0516420  40.5692968  79.1824227
  90.1472006  28.0874961  91.1810667  89.3705340  28.6468881  91.1713532
  90.7862569  28.5731744  91.7025537  97.9392786  24.8701754  85.0153644
  97.2967167  25.1634287  84.3693439  97.4347715  24.7554674  85.8206841
  95.5932950  28.6164927  75.7039503  96.5050806  28.8492313  75.5287201
  95.0842597  29.2001971  75.1414582  88.4018378  30.8960414  90.7428634
  89.1433063  31.4345458  90.4663458  87.6955364  31.5226703  90.9000186
  93.8773718  33.0389555  89.3400796  94.2857074  32.5971965  88.5955428
  93.1550979  32.4642182  89.5934989  90.2304788  27.9762161  86.7134353
  91.0765983  28.4001575  86.8569002  90.1703426  27.3195786  87.4072916
  94.2002532  33.5990745  83.0953085  93.5711395  33.7636459  82.3929153
  93.8128195  34.0132355  83.8664049  98.0791764  34.5345183  80.4497448
  97.3942803  34.9144084  79.8994482  98.1635614  35.1440510  81.1829396
  93.3804233  25.6366530  88.3715526  93.1365165  26.3908590  87.8349802
  93.6564164  26.0151877  89.2062773  95.3342696  32.1805142  87.0492792
  95.5459591  32.8236902  86.3727173  95.2872444  31.3467459  86.5814722
  92.9368925  24.7922963  83.9529364  92.0753404  25.0904216  84.2446102
  92.9631360  25.0093362  83.0210397  89.7530494  33.3365153  80.3603170
  90.2168840  33.6152856  79.5707792  89.4887292  32.4348598  80.1776260
  86.6454575  32.8836635  83.2982933  87.2155932  33.3123903  82.6600418
  87.2362687  32.6019220  83.9967119  88.6899380  29.4588306  77.1692735
  89.3923424  29.9109349  77.6366661  88.3580009  28.8172124  77.7972628
  87.1379742  28.0500062  91.5443944  86.5078403  28.7316343  91.7779341
  87.0315830  27.9383144  90.5997083  82.4324714  27.7171858  82.4709868
  81.6423768  27.9729387  81.9949979  82.9235962  28.5320196  82.5761909
  96.4488524  35.0577097  85.2215149  97.2705968  34.6557285  84.9397831
  96.4450927  34.9545332  86.1731265  84.3839460  28.0816438  79.4293345
  83.5870623  28.1935132  79.9476841  84.1565052  28.4203090  78.5634236
  90.2145127  34.6061141  87.3775860  90.2789560  35.0681548  88.2134032
  89.5056051  33.9758506  87.5058170  80.7162417  27.9702349  84.9024859
  80.9670456  28.8549359  85.1682435  81.2521966  27.7906950  84.1299951
 104.5394517  31.4015846  81.5700121 103.7858225  30.8323244  81.4144125
 104.6742058  31.3678510  82.5170755  89.9293145  36.2729248  77.2454840
  89.7938820  37.1180784  77.6739688  90.4702958  36.4748526  76.4820774
  86.4160485  22.3520828  93.9069195  86.0227430  21.7987027  94.5816840
  87.2326625  22.6631407  94.2975713  83.3822542  33.7904686  77.8182765
  83.8947063  34.5847937  77.9688330  84.0345255  33.0930977  77.7516367
  85.1917427  36.9070443  79.9005518  85.3684055  37.8288407  79.7126502
  85.9874261  36.5928862  80.3299898  89.3328446  23.7678707  91.4989452
  90.0738159  24.3685860  91.4193914  89.5646368  23.0256345  90.9407495
  84.4769784  28.9535074  89.7767682  84.3623299  28.0520332  90.0774781
  83.6214301  29.1998771  89.4252498  91.5561621  36.8952815  91.3755182
  91.1125476  36.1089193  91.0576087  92.2178835  37.0831965  90.7099073
  86.3148743  38.4248616  85.9015861  86.8656168  38.2965680  85.1292855
  85.4760218  38.7243505  85.5510754  93.6542859  37.1755615  89.4036584
  93.6361335  37.9964496  88.9116853  94.5762780  37.0509690  89.6286725
  90.1115914  34.6899744  90.2460092  90.6444250  33.9288032  90.0159400
  89.5829995  34.3973396  90.9884246  93.2785609  19.7959810  85.7753734
  92.9349878  20.6861452  85.6992844  93.6464571  19.6061468  84.9123319
  81.3471459  32.1193341  78.5942336  82.1846681  32.5290349  78.3776043
  81.5249727  31.1792783  78.5642530  93.2435891  29.7868421  74.2826169
  92.7282515  30.5573026  74.5214556  92.9713200  29.1133557  74.9059230
  90.8283002  24.6318122  79.3411407  89.9724599  24.2424972  79.1617046
  91.2409954  24.7110083  78.4811193  92.3582149  22.1664465  83.7402967
  91.8546945  22.1294600  82.9270772  92.6512756  23.0757208  83.7999624
  88.6025035  22.2503195  82.7469149  89.4678032  22.0546004  82.3875038
  88.6702544  22.0213547  83.6738505  98.2170165  32.5400776  76.2179342
  97.4399608  32.2011935  75.7734504  98.8961646  32.5453399  75.5434307
  93.0322194  27.6595513  76.1085950  92.7272330  27.9741663  76.9596093
  93.9852637  27.7376933  76.1513283  91.4768626  33.8185737  77.7578904
  90.9489988  33.0838496  77.4452141  90.9756129  34.5960413  77.5118872
  96.4561472  32.0134757  82.8745950  95.7985147  32.7034019  82.9626079
  97.2601872  32.4031189  83.2179937  86.2087354  24.4805403  80.1185515
  86.7831106  24.2580584  79.3858708  86.7958336  24.5494097  80.8714117
  95.2666931  30.3679130  80.9249892  95.7798813  31.0009122  81.4271602
  95.9168155  29.7680325  80.5593252  86.5356941  26.5109864  74.1381401
  85.6994253  26.8484551  74.4590675  86.3961711  26.3758844  73.2008538
  88.5110022  21.3546652  78.8460585  87.8574434  21.0395669  78.2217200
  88.4690496  20.7322392  79.5720408  89.6221227  31.6365947  70.7613877
  88.7148288  31.4055200  70.9605026  90.1192258  30.8403566  70.9487858
  92.5289305  40.3463454  73.6810563  91.8551004  40.6495151  74.2895521
  92.9155127  41.1492534  73.3316020  91.7447762  27.8428585  83.1708232
  90.8270323  28.0643532  83.0129921  92.1607906  27.9174896  82.3119940
  92.5282810  29.2420001  78.3010913  93.2754629  29.7541398  77.9918035
  92.7974399  28.9204054  79.1615306  90.8009460  31.7378542  75.2837867
  89.8920679  31.4537575  75.3810337  90.8304544  32.1577620  74.4241174
  96.0328727  35.3485131  79.0529035  95.5791054  34.5076041  79.1094225
  95.4022694  35.9846530  79.3903815  94.9761647  26.2777117  80.2829702
  94.2384404  25.7654504  80.6139945  95.2288420  25.8377499  79.4712979
  94.4761667  37.1861628  79.9878853  94.7684641  37.7466685  79.2691218
  94.9860287  37.4790189  80.7432012  95.0773274  19.0553369  80.8771471
  95.3832151  18.1950733  80.5897386  95.8025879  19.6470990  80.6770465
  81.3697630  29.4584056  79.2653069  81.1722030  28.8653417  78.5404136
  80.8144294  29.1536266  79.9829008  89.3494354  29.3507162  81.3847662
  89.4042964  28.3980999  81.3090139  88.5385556  29.5066601  81.8688961
  90.4985548  33.2787285  72.6225946  90.0604978  32.5623144  72.1631583
  91.2395989  33.5063400  72.0611037  87.2886714  27.9684222  79.1438041
  86.4754579  28.2678393  79.5503233  87.7845708  27.5739911  79.8612523
  89.4395292  37.9641979  81.0772306  89.3971471  38.1902825  80.1480838
  90.3557991  37.7305354  81.2258107  92.8860926  28.4326047  87.9752935
  93.2410313  28.6597520  88.8347401  93.5333057  28.7644423  87.3530190
  98.6158663  31.5544482  78.6802264  98.4776561  31.7446078  77.7523453
  98.2594881  32.3163865  79.1370315  86.7800789  25.5402578  84.7599276
  87.4200168  25.3991337  84.0622240  85.9478319  25.2537091  84.3837878
  98.6428042  33.6221009  83.6913536  99.0764549  33.5296299  84.5396590
  99.3559623  33.5978510  83.0533552  87.5561093  34.8405008  80.8734269
  88.3501691  34.3455328  80.6716844  86.8452785  34.3122871  80.5101974
  92.3755937  37.2223104  85.2246636  92.4292959  37.7914040  85.9924352
  91.5070718  37.3924989  84.8600673  83.8643856  28.9848090  76.9494021
  82.9341444  28.9232545  77.1663983  83.9601328  28.4624043  76.1530663
  83.7829405  25.5102903  79.5372263  84.0436222  26.4248236  79.4281423
  84.6046577  25.0427345  79.6868876  85.2554330  26.9240660  86.7071088
  85.9277384  26.7158022  86.0583736  84.4284117  26.7262746  86.2676320
  99.5043592  33.6644710  86.2246421  99.6979482  34.5690521  86.4705696
  99.4044210  33.2052129  87.0585006  91.1579902  23.5502601  88.7236748
  90.5107817  24.2492550  88.6301225  91.9280918  23.9838745  89.0912997
  94.5658700  33.8151453  91.7987302  94.4144207  33.5862005  90.8817385
  94.5563380  34.7722054  91.8118647  91.3344037  31.3883366  86.7833568
  92.2636097  31.5394525  86.6102535  90.9135067  31.4767386  85.9282215
  90.1332369  35.4134030  84.5532106  89.9943454  35.0452814  85.4258044
  89.3446965  35.9281669  84.3816064  90.7280521  40.5143127  75.8957642
  90.9032276  40.0431170  76.7103265  90.0413309  41.1408893  76.1238903
  91.6837584  34.7915633  81.9420944  91.3487416  34.7516403  82.8378593
  91.1841529  34.1260349  81.4691354  85.6581828  30.1983263  87.4673525
  85.5201626  29.4663502  88.0685064  86.5686751  30.1092163  87.1857712
  94.6196775  32.1371667  72.2158003  94.0025946  31.4118495  72.1191056
  94.1513264  32.8981027  71.8725077  88.2864128  29.9103222  86.9557204
  88.9963747  29.2696414  86.9143823  88.2433436  30.1616117  87.8783385
  96.2750907  36.8470575  89.8763784  96.2163453  36.1629796  89.2094367
  96.6770425  37.5889565  89.4244410  86.9993062  26.8968440  88.7752844
  86.4630419  26.4459178  89.4274440  86.4109771  27.0314349  88.0323308
  85.2941606  43.6632489  82.6697502  85.5338204  44.2951013  83.3476521
  84.4510802  43.3120529  82.9562862  86.4095321  26.3557091  71.3379307
  85.5324788  26.2345892  70.9741554  86.8853074  25.5643170  71.0858196
  96.2768314  34.8110159  88.1077763  95.3895093  34.4736081  88.2304162
  96.8466865  34.0793191  88.3446529  77.9297461  31.1434251  81.4320815
  78.6168501  30.8295981  80.8441830  77.7745590  32.0475616  81.1588066
  82.7332184  26.0324448  85.8605838  82.6490372  25.4250117  85.1256248
  81.9114890  26.5233466  85.8615335  89.8069468  39.4711612  85.0739006
  89.7339639  40.2766583  85.5858311  89.3646861  39.6703578  84.2487028
  89.5959247  38.7083382  78.5841828  88.8126769  39.2505062  78.6780052
  90.2951992  39.2257361  78.9836069  92.9055897  24.5178011  81.2276033
  93.4024597  23.7647974  80.9077104  92.1342879  24.5542328  80.6619243
 100.7585655  30.2218377  82.8694325 100.7475531  31.1043092  82.4988258
  99.8903034  29.8689928  82.6748862  92.2668151  39.3698446  87.2297165
  92.9796123  40.0045911  87.1573067  91.7758180  39.4662312  86.4137167
  93.9885678  33.2749698  78.8014457  93.0541957  33.3951161  78.6319161
  94.1662347  32.3722165  78.5374467  89.4890866  26.6595394  80.9547718
  89.1188654  26.1066435  81.6428624  89.9849959  26.0553528  80.4022718
  97.3758229  29.1167018  79.3364491  97.8418682  29.9495009  79.2624794
  97.8265730  28.6511999  80.0409749  87.3180065  37.1192889  88.0502736
  88.0189524  37.7529372  88.2032130  86.8475180  37.4607621  87.2898375
  95.4434461  35.4610839  76.3350643  95.7194304  35.3467434  77.2444517
  94.5738959  35.0628324  76.2962816  95.3474892  21.4847605  83.3755392
  94.4337972  21.7151832  83.5437599  95.7767994  21.5686049  84.2269425
  95.1181351  29.6737497  85.8755286  94.4652801  29.9213404  85.2207739
  95.4961731  28.8601635  85.5417764  92.0788525  39.7097190  79.9783457
  92.2610919  38.8918846  80.4411209  92.9021511  39.9264882  79.5408347
  92.4130690  38.6365375  77.2398505  92.9418457  38.1257830  76.6268667
  92.6758910  38.3207905  78.1044038  91.1668924  30.4157308  92.3621323
  90.4909561  30.3151437  93.0323699  91.9896558  30.2596521  92.8257321
  82.9147783  36.6529244  84.9833839  83.5001220  35.9072932  85.1161743
  82.7172621  36.9633201  85.8670502  85.7686438  39.6880492  79.9996281
  85.0996813  40.1726619  79.5160321  85.6299308  39.9349712  80.9139660
  77.5065438  29.2234844  83.7038282  77.5449537  28.6898435  84.4975400
  77.0005730  28.6970050  83.0849259  89.9091707  41.7224235  86.5978939
  90.4610015  41.8855857  87.3628025  90.2497900  42.3128673  85.9258964
  84.8856200  24.0699385  87.2000824  84.9497526  24.9314216  86.7878222
  84.8223320  23.4573387  86.4673183  84.3608472  26.1422518  90.8473858
  84.9880511  25.7599595  91.4611383  83.5036391  25.9236719  91.2129551
  94.7602581  36.5485493  92.4527594  95.3042485  37.1615451  91.9582549
  94.1789426  37.1065071  92.9694607  81.1374015  27.9498947  76.7792213
  81.4327456  27.0409625  76.7259267  80.2362051  27.9286686  76.4573215
  93.0460094  39.6706211  83.5842622  92.9211233  38.8695951  83.0753567
  93.7039185  40.1652404  83.0956591  84.6668262  26.0254943  82.7619762
  83.9454848  26.6390911  82.6227235  85.4561518  26.5612708  82.6836408
  95.1095002  37.4715231  85.2122172  94.1625338  37.3520582  85.1400498
  95.4577775  36.5837729  85.2948433  87.4694576  23.3609370  89.0360413
  87.9928977  23.6071666  89.7986723  87.2506909  24.1929405  88.6163551
  82.8661857  25.6313044  76.9031538  82.5374563  24.7510423  76.7206644
  83.2201227  25.5760713  77.7907928  92.1141436  37.2667947  81.4126524
  91.9666398  36.3384654  81.5934094  92.9394929  37.2888038  80.9283599
  85.9803680  25.9186014  77.2707016  86.3199752  26.4471935  76.5485624
  86.4275800  26.2566420  78.0465582  95.7175557  38.0896506  82.4991397
  96.6422105  37.8839367  82.3615848  95.5490861  37.8412907  83.4080738
  88.6747121  24.3023065  86.7210084  88.3343941  23.5030878  87.1230764
  87.9686127  24.6024776  86.1486917  89.3263592  21.3872377  85.1737407
  90.1489662  20.9132855  85.0516297  89.5701656  22.1662861  85.6736093
  87.9671827  24.4160636  75.4700309  88.6880189  24.7941888  74.9664026
  87.3437131  25.1349513  75.5735287  92.1102950  25.1205785  76.4058641
  92.3266564  26.0030423  76.1047469  91.6297017  24.7291998  75.6764283
  86.8502171  28.0791498  82.9829386  86.7046752  28.3931801  83.8753667
  86.3727375  28.6976398  82.4300284  88.7098554  25.0694046  83.0310275
  88.6960123  24.1735139  82.6942573  89.4270982  25.0764710  83.6648561
  90.5624685  25.5031386  85.0763403  90.3042463  26.4248457  85.0747733
  90.0309725  25.1061821  85.7663867  95.5070874  38.6082173  77.8553488
  95.6807751  38.0428596  77.1027340  95.9999765  39.4083068  77.6732978
  81.3247833  30.6196842  85.9217047  80.7801301  31.3956650  86.0537321
  82.2027183  30.9667647  85.7636168  88.1135450  23.9508426  78.2997845
  88.2351361  23.0225072  78.4988733  87.8237492  23.9647112  77.3876161
  90.9826640  21.6363337  81.4364565  91.0048337  21.7002670  80.4816545
  91.3994699  20.7967845  81.6305071 101.3610265  31.3718596  79.4743788
 101.8041411  30.6225921  79.0762911 100.4836775  31.3628733  79.0917520
  96.4946046  37.9248938  74.9550386  97.1896951  38.5455630  75.1737701
  96.8369196  37.0744289  75.2302764  82.1113855  29.7466739  88.8147204
  81.3695591  29.8949374  89.4011834  81.7906600  30.0075004  87.9513953
  98.3937469  35.3748643  76.4837717  98.9188793  35.7135916  75.7587037
  98.3059822  34.4395658  76.3000852  90.0557518  39.2882717  88.6127594
  90.3644644  39.0431864  89.4850293  90.8533000  39.4929355  88.1246464
  90.0778130  41.4420626  80.8432970  89.6383120  40.9497005  81.5365827
  90.8286247  40.8993594  80.6025045  87.5252002  36.9858636  82.9155272
  86.9032011  36.3229341  82.6157500  88.1956869  37.0119767  82.2328920
  80.7579074  35.5518494  81.8046532  79.9210982  35.1240668  81.6230533
  80.7302719  35.7450937  82.7417323  87.5976530  25.4640424  92.5087778
  87.6464685  26.3402546  92.1265548  88.1399044  24.9217817  91.9359421
  98.0831375  36.0081547  91.7888915  97.2926919  35.9905686  91.2493414
  97.8464730  36.5469840  92.5437952  98.2029250  32.8574013  89.1021644
  98.2527255  32.6924021  90.0437166  98.0943174  31.9901272  88.7119524
  87.0865509  35.5362559  76.3913732  87.2353629  36.2198023  75.7380405
  87.8931952  35.5167649  76.9063188  95.4933013  28.8404941  90.4180950
  96.3942875  28.7011406  90.1264948  95.5680987  29.0059396  91.3579128
  89.8275818  26.2171796  89.2634137  88.9579127  26.5105362  88.9916725
  90.0635298  26.8012241  89.9841400  99.7047447  35.2770955  89.3463665
  99.4132255  35.6400935  90.1827126  99.0919578  34.5637963  89.1676997
 100.9043129  32.8423834  81.8666235 101.7390021  33.2813639  82.0303796
 101.0402258  32.3662488  81.0474481  97.9534635  30.4003569  87.8143723
  98.4288757  30.5931216  87.0062574  97.0300201  30.4562755  87.5687107
  84.8418142  31.5627736  77.3974801  84.5964184  30.6590066  77.5955012
  85.0114057  31.5644887  76.4554279  92.5314852  22.4351413  86.7799557
  93.0496796  23.1712440  86.4546046  92.1769985  22.7415406  87.6146316
  84.1113790  27.2956094  74.8960963  83.4183034  27.3700449  74.2400999
  83.8665541  26.5316438  75.4182480  92.7827446  18.8551695  82.3000454
  93.0629200  18.1874884  82.9260880  93.5678053  19.0480791  81.7875117
  90.5860915  38.0310689  73.8625480  90.0134882  38.6500876  73.4095952
  91.1593708  38.5810051  74.3965402  96.6536304  27.2769329  86.0472029
  97.6053727  27.3767427  86.0684253  96.4839755  26.4847598  86.5570113
  94.6750684  24.3624913  86.2331430  94.0800616  24.6429925  85.5377918
  94.3900381  24.8518814  87.0048171  93.8058174  38.3147839  74.9934062
  94.7388848  38.2493401  75.1966938  93.7181387  39.1504106  74.5348595
  96.4346191  37.6313710  71.9538010  96.3559823  37.2973573  72.8473768
  97.2555858  38.1235478  71.9529482  99.1324382  30.4975449  85.1614328
  99.1000702  29.5591450  85.3474012  99.7425006  30.5759486  84.4280153
  90.9707713  29.3671502  71.2041532  91.9166818  29.2377710  71.2729950
  90.5921958  28.6286164  71.6810961  99.2818871  27.2886493  85.2072612
  98.7657919  26.5044949  85.0202540 100.1658819  26.9605209  85.3719131
  96.9429598  21.0327508  81.1668424  96.7454419  20.7242596  82.0511756
  97.5529303  21.7589147  81.2966354 104.9500932  31.5591456  84.3020365
 105.6804321  31.2976744  84.8628068 104.3407878  30.8220178  84.3422433
 103.0316229  29.6999318  84.8994816 102.3049393  29.5655283  84.2911308
 102.6163516  30.0076147  85.7051534  90.8546406  33.4189248  92.6642189
  91.7749415  33.5967847  92.8582236  90.8195989  32.4745294  92.5121889
  89.1550630  27.2921478  71.1396418  88.2482086  26.9954591  71.2159131
  89.4326611  26.9951297  70.2730704  80.0728571  28.6127842  81.5895464
  79.7531355  27.7593150  81.2969838  79.5261999  28.8276420  82.3453431
  83.8508478  31.3290283  85.3064971  84.0694488  32.2607391  85.3253004
  84.2634252  30.9698257  86.0919774  90.7712696  21.8358368  77.2940659
  89.9613424  21.4905453  77.6695905  91.4597113  21.5265912  77.8828270
  92.7003244  20.9136415  78.9164956  93.2534283  21.3331868  79.5754979
  92.9373331  19.9872163  78.9587912  88.7236343  26.9023489  94.6967719
  88.6233070  27.8517846  94.6279811  88.5057886  26.5741727  93.8243790
  87.9249415  24.1508414  71.2808397  88.7868579  24.4763312  71.5404214
  88.1099759  23.3639910  70.7681463  96.0782051  23.0236940  78.4243620
  95.4980720  23.6821744  78.0421672  95.8117984  22.2014285  78.0131037
  94.5285618  22.4241998  80.6264940  95.0285396  22.5358532  79.8179259
  95.1721226  22.1203051  81.2665749  88.5867614  30.3320627  93.5132781
  88.1034695  31.1320988  93.7196670  88.6728553  30.3428572  92.5600225
  81.8553573  32.1649007  81.4354600  81.8324261  32.2636694  80.4836484
  82.1654210  33.0114158  81.7571767  84.5140951  34.2225162  85.5501215
  85.4684205  34.1909104  85.4831146  84.3153475  33.7615786  86.3651441
  85.1040333  32.7926278  88.1172013  85.9233222  33.2870357  88.1406850
  85.3777141  31.8758246  88.0889580  94.8606929  25.1837030  77.4799968
  93.9732784  25.4686681  77.2620163  95.2760918  25.0230794  76.6327245
  98.2121465  25.2083551  81.1954307  98.9881856  25.6980004  81.4678924
  97.4869600  25.6341606  81.6526177 100.6494024  25.9211171  82.2528248
 101.2438515  25.6806907  81.5421556 100.7220608  25.2018301  82.8801784
  82.8691180  39.7644782  82.5671413  82.7345648  39.0045183  82.0009411
  82.4523242  40.4885681  82.1000202  94.0050143  34.9481705  71.5747988
  94.7085993  35.1531708  72.1905644  93.2812792  35.5158467  71.8397072
  94.8347953  30.6991566  77.6950258  94.7783154  31.1560118  76.8557891
  95.3876296  29.9382251  77.5173101  98.6452759  26.4881298  78.5200378
  98.3889693  26.0877934  79.3508585  98.0205627  27.2025092  78.3950517
 102.9565097  29.2277372  81.0271669 102.3964655  29.2970561  81.8003231
 102.3508600  29.0518356  80.3071165  86.0260306  40.6614099  82.7789855
  85.9092690  41.6059531  82.6768546  85.2052752  40.3587660  83.1675655
  95.9136840  35.3864234  73.6246448  96.7482444  34.9545433  73.4423923
  95.7521183  35.2146248  74.5523343  95.5682732  31.8896348  74.9902787
  95.5131536  31.7240619  74.0491232  94.9428788  32.5972381  75.1464977
  80.3575247  27.1264412  88.8164210  81.0034111  26.6163366  89.3051435
  80.1492398  27.8633094  89.3907635  92.8828640  34.1945260  94.3156350
  93.7519799  34.3685912  93.9542985  92.4035391  35.0139676  94.1932080
  88.8778858  21.3904457  74.5688106  88.8657528  22.3346297  74.7256377
  89.7702280  21.2074602  74.2747567  87.0514820  41.3142361  85.9945784
  87.9542066  41.3465971  86.3112279  86.8252190  40.3842811  86.0092120
  88.8068422  40.0673347  82.6555862  87.8564053  40.0675209  82.5420235
  89.1100908  39.3206082  82.1391897  92.6930977  17.9847233  78.8234043
  91.9263373  17.4305720  78.9690725  93.1041682  18.0569102  79.6848194
  84.6972738  24.2732029  92.9139224  85.5604200  23.9168834  93.1242548
  84.1238149  23.9345924  93.6014628 104.5421115  45.9033885  83.7201625
 105.1799525  45.7840633  83.0164965 104.4241958  46.8514729  83.7789577
 101.3510822  45.8561314  83.6563150 101.0129333  45.7402378  82.7683684
 102.2200590  45.4552479  83.6364156  97.2097637  47.7096790  79.6460040
  96.6462502  47.6186727  78.8776328  97.0950032  46.8896694  80.1262533
 101.8330605  47.0096165  89.6149355 101.8219245  46.6148964  88.7429859
 101.9951244  46.2762238  90.2083127  94.7562069  49.2047982  82.4844261
  95.5483361  48.8638806  82.0690560  94.9958719  49.3142957  83.4046414
 102.7897196  51.3767758  74.9574505 102.1385176  51.9621838  74.5708519
 103.5841559  51.9073953  75.0169543  96.7152823  48.4656895  75.3561640
  97.4883699  47.9185882  75.2174516  97.0678222  49.3301144  75.5676101
  98.5537866  49.7933277  88.5628539  98.2627732  50.6978908  88.4475205
  99.1894850  49.8349805  89.2772609  99.4794073  47.1710126  85.1529899
 100.0757645  46.9466148  84.4386862  99.5369044  46.4294871  85.7555347
  99.0519101  44.6249561  72.9880090  99.3044622  44.1031082  72.2263553
  98.1143660  44.4615706  73.0906773 104.0962384  43.6285339  80.7954833
 104.8825473  43.2104762  80.4445250 104.3601088  44.5331432  80.9636481
 104.2672461  49.0658190  75.4943490 103.6318294  49.1392816  76.2064394
 103.9369868  49.6551788  74.8162569 109.4970811  43.5660573  81.6987811
 110.2295983  42.9959789  81.9325641 108.7410167  43.1782173  82.1394317
  98.7715390  46.5277667  75.1904465  98.6551648  45.8522570  75.8585549
  98.8817650  46.0410041  74.3736618 101.1146931  45.9887814  78.8951154
 100.7505138  45.4618435  79.6064075 101.9714047  45.5986283  78.7217639
 107.0196231  37.2782147  86.1582420 106.6879556  38.1477558  85.9343635
 106.4241845  36.9618431  86.8376450 100.7552418  41.0177714  73.8912502
 100.9226820  41.8857950  74.2582973 100.5649587  41.1804995  72.9673792
 103.5127751  49.4794693  85.5578333 103.2128474  50.3819731  85.4494140
 103.1678810  49.2126876  86.4099486  96.9640232  45.9308489  81.5915037
  96.0390729  45.7984704  81.7992729  97.2124645  46.7102709  82.0884980
 106.9124895  41.9977233  83.2375770 106.0041772  41.9292641  82.9434531
 106.8612490  42.4749178  84.0657596 100.7341638  43.4735371  74.8759169
 100.6141264  43.9192422  75.7144649 100.0394227  43.8220689  74.3172707
  94.3249043  45.5741763  82.4258826  94.4541424  45.8276242  83.3398238
  93.6446495  46.1669471  82.1063481  98.4948531  56.2439013  78.5249300
  98.4172560  57.1946838  78.6037781  97.8910174  55.8984885  79.1824227
 100.9865760  43.4166878  91.1810667 100.2099094  43.9760799  91.1713532
 101.6256323  43.9023661  91.7025537 108.7786541  40.1993671  85.0153644
 108.1360921  40.4926204  84.3693439 108.2741470  40.0846592  85.8206841
 106.4326705  43.9456844  75.7039503 107.3444561  44.1784231  75.5287201
 105.9236352  44.5293889  75.1414582  99.2412133  46.2252332  90.7428634
  99.9826817  46.7637376  90.4663458  98.5349118  46.8518621  90.9000186
 104.7167472  48.3681472  89.3400796 105.1250828  47.9263883  88.5955428
 103.9944734  47.7934100  89.5934989 101.0698542  43.3054079  86.7134353
 101.9159738  43.7293493  86.8569002 101.0097180  42.6487703  87.4072916
 105.0396287  48.9282663  83.0953085 104.4105149  49.0928377  82.3929153
 104.6521949  49.3424272  83.8664049 108.9185519  49.8637101  80.4497448
 108.2336557  50.2436002  79.8994482 109.0029368  50.4732427  81.1829396
 104.2197988  40.9658447  88.3715526 103.9758920  41.7200508  87.8349802
 104.4957918  41.3443795  89.2062773 106.1736450  47.5097060  87.0492792
 106.3853346  48.1528820  86.3727173 106.1266199  46.6759376  86.5814722
 103.7762679  40.1214880  83.9529364 102.9147158  40.4196134  84.2446102
 103.8025114  40.3385279  83.0210397 100.5924249  48.6657071  80.3603170
 101.0562594  48.9444774  79.5707792 100.3281047  47.7640516  80.1776260
  97.4848330  48.2128552  83.2982933  98.0549687  48.6415821  82.6600418
  98.0756442  47.9311137  83.9967119  99.5293135  44.7880223  77.1692735
 100.2317178  45.2401267  77.6366661  99.1973763  44.1464042  77.7972628
  97.9773496  43.3791980  91.5443944  97.3472157  44.0608261  91.7779341
  97.8709584  43.2675062  90.5997083  93.2718469  43.0463776  82.4709868
  92.4817523  43.3021305  81.9949979  93.7629716  43.8612114  82.5761909
 107.2882278  50.3869015  85.2215149 108.1099722  49.9849202  84.9397831
 107.2844681  50.2837249  86.1731265  95.2233214  43.4108355  79.4293345
  94.4264378  43.5227049  79.9476841  94.9958806  43.7495007  78.5634236
 101.0538882  49.9353058  87.3775860 101.1183314  50.3973466  88.2134032
 100.3449806  49.3050423  87.5058170  91.5556172  43.2994266  84.9024859
  91.8064210  44.1841276  85.1682435  92.0915720  43.1198868  84.1299951
 115.3788271  46.7307764  81.5700121 114.6251980  46.1615162  81.4144125
 115.5135813  46.6970428  82.5170755 100.7686900  51.6021166  77.2454840
 100.6332574  52.4472702  77.6739688 101.3096712  51.8040444  76.4820774
  97.2554239  37.6812746  93.9069195  96.8621185  37.1278944  94.5816840
  98.0720379  37.9923324  94.2975713  94.2216297  49.1196604  77.8182765
  94.7340817  49.9139854  77.9688330  94.8739010  48.4222894  77.7516367
  96.0311182  52.2362360  79.9005518  96.2077810  53.1580325  79.7126502
  96.8268015  51.9220779  80.3299898 100.1722200  39.0970625  91.4989452
 100.9131914  39.6977778  91.4193914 100.4040123  38.3548263  90.9407495
  95.3163538  44.2826992  89.7767682  95.2017053  43.3812249  90.0774781
  94.4608056  44.5290689  89.4252498 102.3955376  52.2244732  91.3755182
 101.9519230  51.4381111  91.0576087 103.0572589  52.4123883  90.7099073
  97.1542497  53.7540534  85.9015861  97.7049922  53.6257597  85.1292855
  96.3153973  54.0535423  85.5510754 104.4936614  52.5047532  89.4036584
 104.4755089  53.3256413  88.9116853 105.4156534  52.3801608  89.6286725
 100.9509668  50.0191662  90.2460092 101.4838005  49.2579950  90.0159400
 100.4223749  49.7265314  90.9884246 104.1179363  35.1251728  85.7753734
 103.7743632  36.0153369  85.6992844 104.4858326  34.9353385  84.9123319
  92.1865214  47.4485258  78.5942336  93.0240436  47.8582267  78.3776043
  92.3643481  46.5084700  78.5642530 104.0829646  45.1160339  74.2826169
 103.5676269  45.8864944  74.5214556 103.8106954  44.4425475  74.9059230
 101.6676757  39.9610040  79.3411407 100.8118353  39.5716890  79.1617046
 102.0803709  40.0402001  78.4811193 103.1975903  37.4956383  83.7402967
 102.6940699  37.4586518  82.9270772 103.4906510  38.4049126  83.7999624
  99.4418789  37.5795113  82.7469149 100.3071786  37.3837921  82.3875038
  99.5096298  37.3505464  83.6738505 109.0563920  47.8692694  76.2179342
 108.2793363  47.5303853  75.7734504 109.7355401  47.8745317  75.5434307
 103.8715949  42.9887431  76.1085950 103.5666085  43.3033580  76.9596093
 104.8246391  43.0668851  76.1513283 102.3162381  49.1477654  77.7578904
 101.7883742  48.4130414  77.4452141 101.8149884  49.9252331  77.5118872
 107.2955227  47.3426675  82.8745950 106.6378901  48.0325936  82.9626079
 108.0995626  47.7323107  83.2179937  97.0481108  39.8097321  80.1185515
  97.6224860  39.5872502  79.3858708  97.6352091  39.8786015  80.8714117
 106.1060686  45.6971048  80.9249892 106.6192567  46.3301039  81.4271602
 106.7561910  45.0972243  80.5593252  97.3750696  41.8401782  74.1381401
  96.5388008  42.1776468  74.4590675  97.2355465  41.7050761  73.2008538
  99.3503776  36.6838570  78.8460585  98.6968188  36.3687587  78.2217200
  99.3084250  36.0614310  79.5720408 100.4614981  46.9657865  70.7613877
  99.5542043  46.7347118  70.9605026 100.9586013  46.1695484  70.9487858
 103.3683060  55.6755372  73.6810563 102.6944759  55.9787069  74.2895521
 103.7548882  56.4784452  73.3316020 102.5841516  43.1720503  83.1708232
 101.6664078  43.3935450  83.0129921 103.0001660  43.2466814  82.3119940
 103.3676564  44.5711919  78.3010913 104.1148383  45.0833316  77.9918035
 103.6368154  44.2495971  79.1615306 101.6403214  47.0670459  75.2837867
 100.7314434  46.7829492  75.3810337 101.6698298  47.4869538  74.4241174
 106.8722482  50.6777049  79.0529035 106.4184809  49.8367959  79.1094225
 106.2416449  51.3138447  79.3903815 105.8155401  41.6069035  80.2829702
 105.0778158  41.0946421  80.6139945 106.0682175  41.1669417  79.4712979
 105.3155421  52.5153546  79.9878853 105.6078395  53.0758603  79.2691218
 105.8254042  52.8082107  80.7432012 105.9167029  34.3845287  80.8771471
 106.2225906  33.5242650  80.5897386 106.6419634  34.9762907  80.6770465
  92.2091385  44.7875974  79.2653069  92.0115785  44.1945334  78.5404136
  91.6538049  44.4828184  79.9829008 100.1888108  44.6799080  81.3847662
 100.2436718  43.7272916  81.3090139  99.3779311  44.8358519  81.8688961
 101.3379302  48.6079203  72.6225946 100.8998732  47.8915062  72.1631583
 102.0789743  48.8355318  72.0611037  98.1280468  43.2976140  79.1438041
  97.3148334  43.5970310  79.5503233  98.6239463  42.9031829  79.8612523
 100.2789046  53.2933897  81.0772306 100.2365225  53.5194743  80.1480838
 101.1951745  53.0597271  81.2258107 103.7254680  43.7617964  87.9752935
 104.0804068  43.9889437  88.8347401 104.3726811  44.0936341  87.3530190
 109.4552417  46.8836400  78.6802264 109.3170316  47.0737996  77.7523453
 109.0988636  47.6455783  79.1370315  97.6194543  40.8694495  84.7599276
  98.2593922  40.7283254  84.0622240  96.7872074  40.5829009  84.3837878
 109.4821797  48.9512927  83.6913536 109.9158303  48.8588216  84.5396590
 110.1953377  48.9270428  83.0533552  98.3954847  50.1696926  80.8734269
  99.1895446  49.6747246  80.6716844  97.6846539  49.6414789  80.5101974
 103.2149692  52.5515021  85.2246636 103.2686714  53.1205958  85.9924352
 102.3464473  52.7216906  84.8600673  94.7037611  44.3140007  76.9494021
  93.7735199  44.2524463  77.1663983  94.7995083  43.7915960  76.1530663
  94.6223160  40.8394820  79.5372263  94.8829977  41.7540154  79.4281423
  95.4440332  40.3719263  79.6868876  96.0948085  42.2532577  86.7071088
  96.7671138  42.0449940  86.0583736  95.2677871  42.0554663  86.2676320
 110.3437346  48.9936628  86.2246421 110.5373236  49.8982438  86.4705696
 110.2437964  48.5344047  87.0585006 101.9973657  38.8794518  88.7236748
 101.3501572  39.5784468  88.6301225 102.7674672  39.3130662  89.0912997
 105.4052455  49.1443371  91.7987302 105.2537961  48.9153922  90.8817385
 105.3957134  50.1013972  91.8118647 102.1737791  46.7175283  86.7833568
 103.1029851  46.8686443  86.6102535 101.7528821  46.8059304  85.9282215
 100.9726123  50.7425948  84.5532106 100.8337209  50.3744732  85.4258044
 100.1840719  51.2573587  84.3816064 101.5674275  55.8435044  75.8957642
 101.7426031  55.3723087  76.7103265 100.8807063  56.4700810  76.1238903
 102.5231338  50.1207550  81.9420944 102.1881171  50.0808320  82.8378593
 102.0235284  49.4552266  81.4691354  96.4975582  45.5275180  87.4673525
  96.3595380  44.7955419  88.0685064  97.4080506  45.4384081  87.1857712
 105.4590530  47.4663585  72.2158003 104.8419700  46.7410413  72.1191056
 104.9907018  48.2272945  71.8725077  99.1257883  45.2395140  86.9557204
  99.8357501  44.5988332  86.9143823  99.0827191  45.4908035  87.8783385
 107.1144662  52.1762493  89.8763784 107.0557208  51.4921713  89.2094367
 107.5164180  52.9181483  89.4244410  97.8386817  42.2260358  88.7752844
  97.3024174  41.7751096  89.4274440  97.2503525  42.3606267  88.0323308
  96.1335360  58.9924407  82.6697502  96.3731959  59.6242931  83.3476521
  95.2904557  58.6412447  82.9562862  97.2489076  41.6849009  71.3379307
  96.3718542  41.5637810  70.9741554  97.7246829  40.8935087  71.0858196
 107.1162069  50.1402077  88.1077763 106.2288848  49.8027999  88.2304162
 107.6860620  49.4085108  88.3446529  88.7691216  46.4726169  81.4320815
  89.4562256  46.1587899  80.8441830  88.6139345  47.3767533  81.1588066
  93.5725938  41.3616365  85.8605838  93.4884127  40.7542035  85.1256248
  92.7508644  41.8525384  85.8615335 100.6463222  54.8003529  85.0739006
 100.5733394  55.6058501  85.5858311 100.2040615  54.9995495  84.2487028
 100.4353002  54.0375299  78.5841828  99.6520524  54.5796980  78.6780052
 101.1345747  54.5549279  78.9836069 103.7449652  39.8469929  81.2276033
 104.2418351  39.0939891  80.9077104 102.9736633  39.8834246  80.6619243
 111.5979409  45.5510294  82.8694325 111.5869286  46.4335010  82.4988258
 110.7296789  45.1981845  82.6748862 103.1061906  54.6990363  87.2297165
 103.8189878  55.3337828  87.1573067 102.6151934  54.7954229  86.4137167
 104.8279433  48.6041616  78.8014457 103.8935711  48.7243079  78.6319161
 105.0056101  47.7014083  78.5374467 100.3284621  41.9887312  80.9547718
  99.9582408  41.4358352  81.6428624 100.8243713  41.3845445  80.4022718
 108.2151984  44.4458935  79.3364491 108.6812436  45.2786927  79.2624794
 108.6659484  43.9803917  80.0409749  98.1573819  52.4484807  88.0502736
  98.8583279  53.0821290  88.2032130  97.6868934  52.7899538  87.2898375
 106.2828215  50.7902757  76.3350643 106.5588059  50.6759351  77.2444517
 105.4132714  50.3920242  76.2962816 106.1868647  36.8139522  83.3755392
 105.2731726  37.0443749  83.5437599 106.6161748  36.8977966  84.2269425
 105.9575105  45.0029414  85.8755286 105.3046555  45.2505322  85.2207739
 106.3355485  44.1893553  85.5417764 102.9182279  55.0389108  79.9783457
 103.1004674  54.2210763  80.4411209 103.7415265  55.2556800  79.5408347
 103.2524445  53.9657293  77.2398505 103.7812211  53.4549747  76.6268667
 103.5152664  53.6499823  78.1044038 102.0062678  45.7449225  92.3621323
 101.3303315  45.6443355  93.0323699 102.8290312  45.5888439  92.8257321
  93.7541537  51.9821162  84.9833839  94.3394974  51.2364850  85.1161743
  93.5566376  52.2925119  85.8670502  96.6080193  55.0172409  79.9996281
  95.9390568  55.5018537  79.5160321  96.4693062  55.2641630  80.9139660
  88.3459192  44.5526762  83.7038282  88.3843292  44.0190353  84.4975400
  87.8399485  44.0261968  83.0849259 100.7485461  57.0516153  86.5978939
 101.3003769  57.2147774  87.3628025 101.0891655  57.6420591  85.9258964
  95.7249954  39.3991303  87.2000824  95.7891281  40.2606134  86.7878222
  95.6617075  38.7865304  86.4673183  95.2002227  41.4714435  90.8473858
  95.8274266  41.0891513  91.4611383  94.3430146  41.2528637  91.2129551
 105.5996335  51.8777410  92.4527594 106.1436239  52.4907369  91.9582549
 105.0183180  52.4356989  92.9694607  91.9767770  43.2790864  76.7792213
  92.2721211  42.3701543  76.7259267  91.0755805  43.2578604  76.4573215
 103.8853848  54.9998128  83.5842622 103.7604988  54.1987868  83.0753567
 104.5432939  55.4944322  83.0956591  95.5062017  41.3546861  82.7619762
  94.7848602  41.9682829  82.6227235  96.2955272  41.8904626  82.6836408
 105.9488757  52.8007148  85.2122172 105.0019092  52.6812500  85.1400498
 106.2971530  51.9129647  85.2948433  98.3088330  38.6901287  89.0360413
  98.8322732  38.9363584  89.7986723  98.0900663  39.5221322  88.6163551
  93.7055611  40.9604962  76.9031538  93.3768317  40.0802341  76.7206644
  94.0594982  40.9052631  77.7907928 102.9535190  52.5959865  81.4126524
 102.8060152  51.6676572  81.5934094 103.7788684  52.6179955  80.9283599
  96.8197434  41.2477932  77.2707016  97.1593507  41.7763853  76.5485624
  97.2669555  41.5858338  78.0465582 106.5569312  53.4188423  82.4991397
 107.4815859  53.2131285  82.3615848 106.3884615  53.1704825  83.4080738
  99.5140875  39.6314983  86.7210084  99.1737696  38.8322796  87.1230764
  98.8079881  39.9316693  86.1486917 100.1657347  36.7164295  85.1737407
 100.9883416  36.2424773  85.0516297 100.4095411  37.4954779  85.6736093
  98.8065581  39.7452553  75.4700309  99.5273944  40.1233806  74.9664026
  98.1830886  40.4641430  75.5735287 102.9496704  40.4497702  76.4058641
 103.1660319  41.3322340  76.1047469 102.4690772  40.0583916  75.6764283
  97.6895926  43.4083416  82.9829386  97.5440506  43.7223719  83.8753667
  97.2121129  44.0268316  82.4300284  99.5492309  40.3985964  83.0310275
  99.5353877  39.5027057  82.6942573 100.2664737  40.4056627  83.6648561
 101.4018439  40.8323304  85.0763403 101.1436217  41.7540374  85.0747733
 100.8703480  40.4353738  85.7663867 106.3464628  53.9374091  77.8553488
 106.5201506  53.3720513  77.1027340 106.8393519  54.7374986  77.6732978
  92.1641588  45.9488760  85.9217047  91.6195056  46.7248568  86.0537321
  93.0420938  46.2959564  85.7636168  98.9529205  39.2800344  78.2997845
  99.0745116  38.3516990  78.4988733  98.6631247  39.2939030  77.3876161
 101.8220395  36.9655254  81.4364565 101.8442092  37.0294587  80.4816545
 102.2388454  36.1259763  81.6305071 112.2004019  46.7010514  79.4743788
 112.6435165  45.9517839  79.0762911 111.3230530  46.6920650  79.0917520
 107.3339801  53.2540855  74.9550386 108.0290705  53.8747548  75.1737701
 107.6762951  52.4036207  75.2302764  92.9507610  45.0758656  88.8147204
  92.2089346  45.2241292  89.4011834  92.6300354  45.3366922  87.9513953
 109.2331224  50.7040561  76.4837717 109.7582548  51.0427834  75.7587037
 109.1453576  49.7687576  76.3000852 100.8951272  54.6174634  88.6127594
 101.2038399  54.3723781  89.4850293 101.6926754  54.8221273  88.1246464
 100.9171884  56.7712544  80.8432970 100.4776875  56.2788923  81.5365827
 101.6680001  56.2285512  80.6025045  93.3964223  52.9624085  80.8457598
  94.2222243  52.6627857  80.4656242  93.0458275  52.1931707  81.2947387
  98.3645757  52.3150553  82.9155272  97.7425766  51.6521258  82.6157500
  99.0350624  52.3411685  82.2328920  91.5972828  50.8810411  81.8046532
  90.7604737  50.4532586  81.6230533  91.5696474  51.0742855  82.7417323
  98.4370284  40.7932341  92.5087778  98.4858440  41.6694464  92.1265548
  98.9792798  40.2509734  91.9359421 108.9225130  51.3373464  91.7888915
 108.1320673  51.3197603  91.2493414 108.6858484  51.8761758  92.5437952
 109.0423005  48.1865931  89.1021644 109.0921010  48.0215938  90.0437166
 108.9336928  47.3193190  88.7119524  97.9259264  50.8654477  76.3913732
  98.0747384  51.5489941  75.7380405  98.7325707  50.8459567  76.9063188
 106.3326767  44.1696859  90.4180950 107.2336630  44.0303324  90.1264948
 106.4074742  44.3351314  91.3579128 100.6669573  41.5463714  89.2634137
  99.7972882  41.8397280  88.9916725 100.9029053  42.1304159  89.9841400
 110.5441202  50.6062872  89.3463665 110.2526010  50.9692853  90.1827126
 109.9313333  49.8929881  89.1676997 111.7436884  48.1715752  81.8666235
 112.5783775  48.6105556  82.0303796 111.8796013  47.6954405  81.0474481
 108.7928390  45.7295487  87.8143723 109.2682511  45.9223133  87.0062574
 107.8693955  45.7854673  87.5687107  95.6811897  46.8919654  77.3974801
  95.4357938  45.9881984  77.5955012  95.8507811  46.8936805  76.4554279
 103.3708606  37.7643331  86.7799557 103.8890550  38.5004357  86.4546046
 103.0163739  38.0707324  87.6146316  94.9507544  42.6248012  74.8960963
  94.2576789  42.6992367  74.2400999  94.7059296  41.8608355  75.4182480
 103.6221201  34.1843613  82.3000454 103.9022954  33.5166802  82.9260880
 104.4071807  34.3772709  81.7875117 101.4254669  53.3602607  73.8625480
 100.8528636  53.9792794  73.4095952 101.9987463  53.9101969  74.3965402
 107.4930059  42.6061247  86.0472029 108.4447482  42.7059345  86.0684253
 107.3233509  41.8139516  86.5570113 105.5144438  39.6916830  86.2331430
 104.9194370  39.9721843  85.5377918 105.2294135  40.1810731  87.0048171
 104.6451929  53.6439757  74.9934062 105.5782602  53.5785319  75.1966938
 104.5575142  54.4796024  74.5348595 107.2739946  52.9605627  71.9538010
 107.1953577  52.6265491  72.8473768 108.0949612  53.4527395  71.9529482
 109.9718137  45.8267367  85.1614328 109.9394457  44.8883367  85.3474012
 110.5818760  45.9051403  84.4280153 101.8101468  44.6963420  71.2041532
 102.7560572  44.5669628  71.2729950 101.4315713  43.9578082  71.6810961
 110.1212625  42.6178410  85.2072612 109.6051674  41.8336867  85.0202540
 111.0052574  42.2897127  85.3719131 107.7823352  36.3619426  81.1668424
 107.5848173  36.0534514  82.0511756 108.3923058  37.0881065  81.2966354
 115.7894687  46.8883374  84.3020365 116.5198075  46.6268662  84.8628068
 115.1801632  46.1512096  84.3422433 113.8709984  45.0291236  84.8994816
 113.1443147  44.8947201  84.2911308 113.4557271  45.3368065  85.7051534
 101.6940160  48.7481166  92.6642189 102.6143170  48.9259765  92.8582236
 101.6589743  47.8037211  92.5121889  99.9944385  42.6213396  71.1396418
  99.0875840  42.3246509  71.2159131 100.2720366  42.3243214  70.2730704
  90.9122325  43.9419760  81.5895464  90.5925109  43.0885068  81.2969838
  90.3655753  44.1568338  82.3453431  94.6902233  46.6582201  85.3064971
  94.9088242  47.5899308  85.3253004  95.1028006  46.2990175  86.0919774
 101.6106450  37.1650286  77.2940659 100.8007179  36.8197371  77.6695905
 102.2990867  36.8557830  77.8828270 103.5396999  36.2428333  78.9164956
 104.0928037  36.6623786  79.5754979 103.7767085  35.3164081  78.9587912
  99.5630098  42.2315406  94.6967719  99.4626825  43.1809763  94.6279811
  99.3451640  41.9033645  93.8243790  98.7643169  39.4800331  71.2808397
  99.6262333  39.8055230  71.5404214  98.9493513  38.6931827  70.7681463
  90.7810585  47.5622671  83.5588586  90.0874057  47.1476624  83.0458540
  91.5283576  47.6043208  82.9622004 106.9175806  38.3528858  78.4243620
 106.3374475  39.0113662  78.0421672 106.6511738  37.5306202  78.0131037
 105.3679372  37.7533916  80.6264940 105.8679151  37.8650450  79.8179259
 106.0114980  37.4494968  81.2665749  99.4261368  45.6612545  93.5132781
  98.9428450  46.4612905  93.7196670  99.5122307  45.6720490  92.5600225
  92.6947328  47.4940925  81.4354600  92.6718016  47.5928612  80.4836484
  93.0047964  48.3406076  81.7571767  95.3534705  49.5517080  85.5501215
  96.3077959  49.5201022  85.4831146  95.1547229  49.0907704  86.3651441
  95.9434088  48.1218196  88.1172013  96.7626977  48.6162275  88.1406850
  96.2170895  47.2050164  88.0889580 105.7000684  40.5128948  77.4799968
 104.8126539  40.7978599  77.2620163 106.1154673  40.3522712  76.6327245
 109.0515220  40.5375469  81.1954307 109.8275610  41.0271922  81.4678924
 108.3263354  40.9633523  81.6526177 111.4887779  41.2503088  82.2528248
 112.0832269  41.0098824  81.5421556 111.5614362  40.5310219  82.8801784
  93.7084934  55.0936699  82.5671413  93.5739402  54.3337100  82.0009411
  93.2916997  55.8177599  82.1000202 104.8443897  50.2773623  71.5747988
 105.5479747  50.4823625  72.1905644 104.1206546  50.8450385  71.8397072
 105.6741708  46.0283484  77.6950258 105.6176909  46.4852036  76.8557891
 106.2270050  45.2674169  77.5173101 109.4846513  41.8173216  78.5200378
 109.2283448  41.4169852  79.3508585 108.8599382  42.5317010  78.3950517
 113.7958851  44.5569289  81.0271669 113.2358409  44.6262479  81.8003231
 113.1902355  44.3810274  80.3071165  96.8654060  55.9906016  82.7789855
  96.7486444  56.9351449  82.6768546  96.0446506  55.6879578  83.1675655
 106.7530595  50.7156152  73.6246448 107.5876199  50.2837351  73.4423923
 106.5914938  50.5438166  74.5523343 106.4076487  47.2188265  74.9902787
 106.3525291  47.0532537  74.0491232 105.7822542  47.9264298  75.1464977
  91.1969002  42.4556330  88.8164210  91.8427865  41.9455284  89.3051435
  90.9886153  43.1925011  89.3907635 103.7222394  49.5237177  94.3156350
 104.5913554  49.6977830  93.9542985 103.2429146  50.3431594  94.1932080
  99.7172612  36.7196374  74.5688106  99.7051282  37.6638214  74.7256377
 100.6096034  36.5366520  74.2747567  97.8908574  56.6434278  85.9945784
  98.7935821  56.6757888  86.3112279  97.6645944  55.7134729  86.0092120
  99.6462176  55.3965265  82.6555862  98.6957807  55.3967126  82.5420235
  99.9494662  54.6497999  82.1391897 103.5324732  33.3139151  78.8234043
 102.7657128  32.7597638  78.9690725 103.9435437  33.3861020  79.6848194
  95.5366493  39.6023947  92.9139224  96.3997954  39.2460752  93.1242548
  94.9631904  39.2637842  93.6014628 115.3814870  61.2325803  83.7201625
 116.0193280  61.1132551  83.0164965 115.2635713  62.1806647  83.7789577
 112.1904576  61.1853231  83.6563150 111.8523088  61.0694296  82.7683684
 113.0594344  60.7844396  83.6364156 108.0491392  63.0388708  79.6460040
 107.4856257  62.9478645  78.8776328 107.9343787  62.2188612  80.1262533
 112.6724359  62.3388083  89.6149355 112.6613000  61.9440881  88.7429859
 112.8344999  61.6054156  90.2083127 105.5955824  64.5339899  82.4844261
 106.3877116  64.1930724  82.0690560 105.8352474  64.6434874  83.4046414
 113.6290950  66.7059675  74.9574505 112.9778930  67.2913756  74.5708519
 114.4235313  67.2365870  75.0169543 107.5546578  63.7948813  75.3561640
 108.3277454  63.2477800  75.2174516 107.9071977  64.6593062  75.5676101
 109.3931620  65.1225195  88.5628539 109.1021486  66.0270826  88.4475205
 110.0288605  65.1641722  89.2772609 110.3187827  62.5002043  85.1529899
 110.9151399  62.2758066  84.4386862 110.3762799  61.7586789  85.7555347
 109.8912855  59.9541479  72.9880090 110.1438376  59.4323000  72.2263553
 108.9537415  59.7907624  73.0906773 114.9356138  58.9577257  80.7954833
 115.7219228  58.5396680  80.4445250 115.1994843  59.8623349  80.9636481
 115.1066216  64.3950107  75.4943490 114.4712049  64.4684734  76.2064394
 114.7763622  64.9843706  74.8162569 120.3364565  58.8952490  81.6987811
 121.0689737  58.3251707  81.9325641 119.5803921  58.5074091  82.1394317
 109.6109144  61.8569585  75.1904465 109.4945402  61.1814488  75.8585549
 109.7211404  61.3701959  74.3736618 111.9540685  61.3179732  78.8951154
 111.5898892  60.7910353  79.6064075 112.8107801  60.9278201  78.7217639
 117.8589986  52.6074064  86.1582420 117.5273311  53.4769475  85.9343635
 117.2635599  52.2910348  86.8376450 111.5946172  56.3469631  73.8912502
 111.7620574  57.2149868  74.2582973 111.4043341  56.5096913  72.9673792
 114.3521505  64.8086610  85.5578333 114.0522228  65.7111649  85.4494140
 114.0072565  64.5418794  86.4099486 107.8033987  61.2600407  81.5915037
 106.8784483  61.1276621  81.7992729 108.0518400  62.0394626  82.0884980
 117.7518649  57.3269150  83.2375770 116.8435526  57.2584559  82.9434531
 117.7006245  57.8041095  84.0657596 111.5735393  58.8027289  74.8759169
 111.4535018  59.2484340  75.7144649 110.8787981  59.1512607  74.3172707
 105.1642798  60.9033681  82.4258826 105.2935179  61.1568160  83.3398238
 104.4840249  61.4961389  82.1063481 109.3342285  71.5730931  78.5249300
 109.2566315  72.5238756  78.6037781 108.7303929  71.2276803  79.1824227
 111.8259515  58.7458796  91.1810667 111.0492849  59.3052716  91.1713532
 112.4650078  59.2315579  91.7025537 119.6180295  55.5285589  85.0153644
 118.9754676  55.8218122  84.3693439 119.1135224  55.4138509  85.8206841
 117.2720459  59.2748762  75.7039503 118.1838315  59.5076149  75.5287201
 116.7630106  59.8585806  75.1414582 110.0805887  61.5544249  90.7428634
 110.8220572  62.0929293  90.4663458 109.3742873  62.1810538  90.9000186
 115.5561227  63.6973390  89.3400796 115.9644583  63.2555800  88.5955428
 114.8338488  63.1226017  89.5934989 111.9092297  58.6345997  86.7134353
 112.7553492  59.0585410  86.8569002 111.8490935  57.9779621  87.4072916
 115.8790041  64.2574581  83.0953085 115.2498904  64.4220295  82.3929153
 115.4915704  64.6716190  83.8664049 119.7579273  65.1929018  80.4497448
 119.0730311  65.5727920  79.8994482 119.8423123  65.8024345  81.1829396
 115.0591742  56.2950365  88.3715526 114.8152674  57.0492426  87.8349802
 115.3351673  56.6735713  89.2062773 117.0130205  62.8388977  87.0492792
 117.2247100  63.4820737  86.3727173 116.9659953  62.0051294  86.5814722
 114.6156434  55.4506798  83.9529364 113.7540913  55.7488052  84.2446102
 114.6418869  55.6677197  83.0210397 111.4318003  63.9948989  80.3603170
 111.8956349  64.2736692  79.5707792 111.1674801  63.0932433  80.1776260
 108.3242084  63.5420470  83.2982933 108.8943441  63.9707739  82.6600418
 108.9150196  63.2603055  83.9967119 110.3686889  60.1172141  77.1692735
 111.0710933  60.5693185  77.6366661 110.0367518  59.4755960  77.7972628
 108.8167251  58.7083898  91.5443944 108.1865911  59.3900178  91.7779341
 108.7103339  58.5966979  90.5997083 104.1112223  58.3755694  82.4709868
 103.3211277  58.6313222  81.9949979 104.6023471  59.1904032  82.5761909
 118.1276033  65.7160933  85.2215149 118.9493477  65.3141120  84.9397831
 118.1238436  65.6129167  86.1731265 106.0626969  58.7400273  79.4293345
 105.2658132  58.8518967  79.9476841 105.8352561  59.0786925  78.5634236
 111.8932636  65.2644976  87.3775860 111.9577069  65.7265383  88.2134032
 111.1843560  64.6342341  87.5058170 102.3949926  58.6286184  84.9024859
 102.6457965  59.5133194  85.1682435 102.9309475  58.4490786  84.1299951
 126.2182026  62.0599681  81.5700121 125.4645734  61.4907079  81.4144125
 126.3529567  62.0262346  82.5170755 111.6080654  66.9313084  77.2454840
 111.4726329  67.7764619  77.6739688 112.1490467  67.1332361  76.4820774
 108.0947994  53.0104663  93.9069195 107.7014939  52.4570862  94.5816840
 108.9114134  53.3215242  94.2975713 105.0610051  64.4488522  77.8182765
 105.5734572  65.2431772  77.9688330 105.7132764  63.7514812  77.7516367
 106.8704936  67.5654278  79.9005518 107.0471564  68.4872243  79.7126502
 107.6661770  67.2512697  80.3299898 111.0115955  54.4262543  91.4989452
 111.7525668  55.0269696  91.4193914 111.2433877  53.6840180  90.9407495
 106.1557293  59.6118910  89.7767682 106.0410808  58.7104167  90.0774781
 105.3001810  59.8582607  89.4252498 113.2349130  67.5536650  91.3755182
 112.7912985  66.7673029  91.0576087 113.8966344  67.7415801  90.7099073
 107.9936252  69.0832452  85.9015861 108.5443677  68.9549515  85.1292855
 107.1547727  69.3827341  85.5510754 115.3330368  67.8339450  89.4036584
 115.3148844  68.6548331  88.9116853 116.2550288  67.7093525  89.6286725
 111.7903423  65.3483580  90.2460092 112.3231759  64.5871868  90.0159400
 111.2617504  65.0557231  90.9884246 114.9573118  50.4543645  85.7753734
 114.6137387  51.3445287  85.6992844 115.3252080  50.2645303  84.9123319
 103.0258968  62.7777176  78.5942336 103.8634190  63.1874184  78.3776043
 103.2037236  61.8376618  78.5642530 114.9223400  60.4452257  74.2826169
 114.4070024  61.2156861  74.5214556 114.6500709  59.7717393  74.9059230
 112.5070511  55.2901957  79.3411407 111.6512108  54.9008808  79.1617046
 112.9197463  55.3693918  78.4811193 114.0369658  52.8248301  83.7402967
 113.5334454  52.7878436  82.9270772 114.3300265  53.7341043  83.7999624
 110.2812544  52.9087030  82.7469149 111.1465541  52.7129839  82.3875038
 110.3490053  52.6797382  83.6738505 119.8957674  63.1984611  76.2179342
 119.1187117  62.8595771  75.7734504 120.5749155  63.2037234  75.5434307
 114.7109703  58.3179349  76.1085950 114.4059839  58.6325498  76.9596093
 115.6640146  58.3960769  76.1513283 113.1556135  64.4769572  77.7578904
 112.6277497  63.7422332  77.4452141 112.6543638  65.2544248  77.5118872
 118.1348981  62.6718593  82.8745950 117.4772656  63.3617854  82.9626079
 118.9389381  63.0615024  83.2179937 107.8874863  55.1389238  80.1185515
 108.4618615  54.9164420  79.3858708 108.4745845  55.2077933  80.8714117
 116.9454440  61.0262965  80.9249892 117.4586322  61.6592957  81.4271602
 117.5955664  60.4264161  80.5593252 108.2144450  57.1693699  74.1381401
 107.3781762  57.5068386  74.4590675 108.0749220  57.0342679  73.2008538
 110.1897531  52.0130487  78.8460585 109.5361943  51.6979504  78.2217200
 110.1478005  51.3906228  79.5720408 111.3008735  62.2949782  70.7613877
 110.3935797  62.0639036  70.9605026 111.7979767  61.4987402  70.9487858
 114.2076814  71.0047289  73.6810563 113.5338513  71.3078986  74.2895521
 114.5942636  71.8076370  73.3316020 113.4235271  58.5012421  83.1708232
 112.5057832  58.7227368  83.0129921 113.8395415  58.5758731  82.3119940
 114.2070319  59.9003836  78.3010913 114.9542138  60.4125234  77.9918035
 114.4761908  59.5787889  79.1615306 112.4796969  62.3962377  75.2837867
 111.5708188  62.1121410  75.3810337 112.5092053  62.8161456  74.4241174
 117.7116236  66.0068967  79.0529035 117.2578563  65.1659877  79.1094225
 117.0810203  66.6430365  79.3903815 116.6549156  56.9360953  80.2829702
 115.9171913  56.4238339  80.6139945 116.9075929  56.4961334  79.4712979
 116.1549176  67.8445463  79.9878853 116.4472150  68.4050520  79.2691218
 116.6647796  68.1374024  80.7432012 116.7560783  49.7137205  80.8771471
 117.0619660  48.8534568  80.5897386 117.4813388  50.3054825  80.6770465
 103.0485139  60.1167891  79.2653069 102.8509539  59.5237252  78.5404136
 102.4931803  59.8120101  79.9829008 111.0281863  60.0090998  81.3847662
 111.0830473  59.0564834  81.3090139 110.2173065  60.1650437  81.8688961
 112.1773057  63.9371121  72.6225946 111.7392487  63.2206980  72.1631583
 112.9183498  64.1647236  72.0611037 108.9674223  58.6268057  79.1438041
 108.1542088  58.9262228  79.5503233 109.4633217  58.2323746  79.8612523
 111.1182801  68.6225814  81.0772306 111.0758980  68.8486661  80.1480838
 112.0345500  68.3889189  81.2258107 114.5648435  59.0909882  87.9752935
 114.9197822  59.3181355  88.8347401 115.2120566  59.4228259  87.3530190
 120.2946172  62.2128318  78.6802264 120.1564070  62.4029914  77.7523453
 119.9382390  62.9747701  79.1370315 108.4588298  56.1986413  84.7599276
 109.0987677  56.0575172  84.0622240 107.6265828  55.9120926  84.3837878
 120.3215551  64.2804845  83.6913536 120.7552058  64.1880134  84.5396590
 121.0347132  64.2562345  83.0533552 109.2348602  65.4988843  80.8734269
 110.0289200  65.0039164  80.6716844 108.5240294  64.9706707  80.5101974
 114.0543446  67.8806939  85.2246636 114.1080468  68.4497875  85.9924352
 113.1858227  68.0508824  84.8600673 105.5431365  59.6431925  76.9494021
 104.6128953  59.5816381  77.1663983 105.6388837  59.1207878  76.1530663
 105.4616914  56.1686738  79.5372263 105.7223731  57.0832071  79.4281423
 106.2834086  55.7011181  79.6868876 106.9341839  57.5824495  86.7071088
 107.6064893  57.3741857  86.0583736 106.1071626  57.3846581  86.2676320
 121.1831101  64.3228546  86.2246421 121.3766991  65.2274356  86.4705696
 121.0831719  63.8635965  87.0585006 112.8367411  54.2086436  88.7236748
 112.1895326  54.9076386  88.6301225 113.6068427  54.6422580  89.0912997
 116.2446209  64.4735288  91.7987302 116.0931716  64.2445840  90.8817385
 116.2350889  65.4305890  91.8118647 113.0131546  62.0467201  86.7833568
 113.9423606  62.1978361  86.6102535 112.5922576  62.1351222  85.9282215
 111.8119878  66.0717865  84.5532106 111.6730963  65.7036650  85.4258044
 111.0234474  66.5865505  84.3816064 112.4068030  71.1726962  75.8957642
 112.5819785  70.7015005  76.7103265 111.7200818  71.7992728  76.1238903
 113.3625093  65.4499468  81.9420944 113.0274925  65.4100238  82.8378593
 112.8629038  64.7844184  81.4691354 107.3369337  60.8567098  87.4673525
 107.1989135  60.1247337  88.0685064 108.2474260  60.7675998  87.1857712
 116.2984284  62.7955502  72.2158003 115.6813455  62.0702331  72.1191056
 115.8300773  63.5564863  71.8725077 109.9651637  60.5687057  86.9557204
 110.6751256  59.9280250  86.9143823 109.9220945  60.8199952  87.8783385
 117.9538416  67.5054411  89.8763784 117.8950962  66.8213631  89.2094367
 118.3557934  68.2473401  89.4244410 108.6780571  57.5552275  88.7752844
 108.1417928  57.1043014  89.4274440 108.0897280  57.6898184  88.0323308
 106.9729115  74.3216325  82.6697502 107.2125713  74.9534849  83.3476521
 106.1298311  73.9704365  82.9562862 108.0882830  57.0140927  71.3379307
 107.2112297  56.8929728  70.9741554 108.5640583  56.2227005  71.0858196
 117.9555823  65.4693995  88.1077763 117.0682602  65.1319917  88.2304162
 118.5254374  64.7377026  88.3446529  99.6084970  61.8018086  81.4320815
 100.2956010  61.4879817  80.8441830  99.4533099  62.7059451  81.1588066
 104.4119693  56.6908283  85.8605838 104.3277881  56.0833953  85.1256248
 103.5902399  57.1817301  85.8615335 111.4856977  70.1295447  85.0739006
 111.4127148  70.9350419  85.5858311 111.0434370  70.3287413  84.2487028
 111.2746756  69.3667217  78.5841828 110.4914278  69.9088897  78.6780052
 111.9739501  69.8841197  78.9836069 114.5843406  55.1761847  81.2276033
 115.0812106  54.4231809  80.9077104 113.8130388  55.2126163  80.6619243
 122.4373164  60.8802212  82.8694325 122.4263040  61.7626928  82.4988258
 121.5690543  60.5273763  82.6748862 113.9455660  70.0282281  87.2297165
 114.6583632  70.6629746  87.1573067 113.4545689  70.1246147  86.4137167
 115.6673187  63.9333534  78.8014457 114.7329466  64.0534996  78.6319161
 115.8449856  63.0306001  78.5374467 111.1678375  57.3179230  80.9547718
 110.7976163  56.7650270  81.6428624 111.6637468  56.7137363  80.4022718
 119.0545738  59.7750853  79.3364491 119.5206191  60.6078845  79.2624794
 119.5053239  59.3095835  80.0409749 108.9967574  67.7776725  88.0502736
 109.6977033  68.4113208  88.2032130 108.5262689  68.1191456  87.2898375
 117.1221970  66.1194674  76.3350643 117.3981813  66.0051269  77.2444517
 116.2526468  65.7212159  76.2962816 117.0262401  52.1431440  83.3755392
 116.1125481  52.3735667  83.5437599 117.4555503  52.2269884  84.2269425
 116.7968860  60.3321332  85.8755286 116.1440310  60.5797239  85.2207739
 117.1749240  59.5185470  85.5417764 113.7576034  70.3681025  79.9783457
 113.9398428  69.5502681  80.4411209 114.5809020  70.5848717  79.5408347
 114.0918199  69.2949210  77.2398505 114.6205965  68.7841665  76.6268667
 114.3546419  68.9791741  78.1044038 112.8456433  61.0741143  92.3621323
 112.1697070  60.9735272  93.0323699 113.6684067  60.9180357  92.8257321
 104.5935292  67.3113080  84.9833839 105.1788729  66.5656768  85.1161743
 104.3960130  67.6217036  85.8670502 107.4473947  70.3464327  79.9996281
 106.7784322  70.8310455  79.5160321 107.3086817  70.5933547  80.9139660
  99.1852947  59.8818680  83.7038282  99.2237046  59.3482271  84.4975400
  98.6793239  59.3553885  83.0849259 111.5879216  72.3808071  86.5978939
 112.1397524  72.5439692  87.3628025 111.9285409  72.9712508  85.9258964
 106.5643709  54.7283220  87.2000824 106.6285035  55.5898051  86.7878222
 106.5010829  54.1157222  86.4673183 106.0395981  56.8006353  90.8473858
 106.6668020  56.4183430  91.4611383 105.1823900  56.5820555  91.2129551
 116.4390090  67.2069328  92.4527594 116.9829994  67.8199286  91.9582549
 115.8576935  67.7648906  92.9694607 102.8161524  58.6082782  76.7792213
 103.1114965  57.6993460  76.7259267 101.9149560  58.5870521  76.4573215
 114.7247603  70.3290046  83.5842622 114.5998742  69.5279786  83.0753567
 115.3826694  70.8236239  83.0956591 106.3455771  56.6838779  82.7619762
 105.6242357  57.2974746  82.6227235 107.1349027  57.2196543  82.6836408
 116.7882511  68.1299066  85.2122172 115.8412847  68.0104417  85.1400498
 117.1365284  67.2421564  85.2948433 109.1482085  54.0193205  89.0360413
 109.6716486  54.2655502  89.7986723 108.9294418  54.8513240  88.6163551
 104.5449366  56.2896880  76.9031538 104.2162072  55.4094259  76.7206644
 104.8988736  56.2344548  77.7907928 113.7928945  67.9251782  81.4126524
 113.6453907  66.9968490  81.5934094 114.6182438  67.9471873  80.9283599
 107.6591189  56.5769849  77.2707016 107.9987261  57.1055771  76.5485624
 108.1063309  56.9150256  78.0465582 117.3963066  68.7480341  82.4991397
 118.3209614  68.5423202  82.3615848 117.2278370  68.4996742  83.4080738
 110.3534630  54.9606900  86.7210084 110.0131450  54.1614713  87.1230764
 109.6473636  55.2608611  86.1486917 111.0051101  52.0456213  85.1737407
 111.8277171  51.5716691  85.0516297 111.2489165  52.8246696  85.6736093
 109.6459336  55.0744471  75.4700309 110.3667698  55.4525724  74.9664026
 109.0224640  55.7933348  75.5735287 113.7890459  55.7789620  76.4058641
 114.0054073  56.6614258  76.1047469 113.3084526  55.3875833  75.6764283
 108.5289680  58.7375333  82.9829386 108.3834261  59.0515636  83.8753667
 108.0514884  59.3560234  82.4300284 110.3886063  55.7277881  83.0310275
 110.3747632  54.8318975  82.6942573 111.1058491  55.7348545  83.6648561
 112.2412194  56.1615221  85.0763403 111.9829972  57.0832292  85.0747733
 111.7097234  55.7645656  85.7663867 117.1858383  69.2666009  77.8553488
 117.3595260  68.7012431  77.1027340 117.6787274  70.0666903  77.6732978
 103.0035342  61.2780678  85.9217047 102.4588810  62.0540486  86.0537321
 103.8814692  61.6251482  85.7636168 109.7922959  54.6092262  78.2997845
 109.9138870  53.6808908  78.4988733 109.5025001  54.6230947  77.3876161
 112.6614149  52.2947172  81.4364565 112.6835846  52.3586505  80.4816545
 113.0782208  51.4551681  81.6305071 123.0397774  62.0302432  79.4743788
 123.4828920  61.2809757  79.0762911 122.1624284  62.0212568  79.0917520
 118.1733555  68.5832773  74.9550386 118.8684460  69.2039466  75.1737701
 118.5156705  67.7328124  75.2302764 103.7901364  60.4050574  88.8147204
 103.0483100  60.5533209  89.4011834 103.4694109  60.6658840  87.9513953
 120.0724978  66.0332478  76.4837717 120.5976302  66.3719751  75.7587037
 119.9847331  65.0979494  76.3000852 111.7345027  69.9466552  88.6127594
 112.0432153  69.7015699  89.4850293 112.5320509  70.1513191  88.1246464
 111.7565639  72.1004462  80.8432970 111.3170629  71.6080840  81.5365827
 112.5073756  71.5577429  80.6025045 104.2357978  68.2916003  80.8457598
 105.0615998  67.9919774  80.4656242 103.8852030  67.5223625  81.2947387
 109.2039511  67.6442471  82.9155272 108.5819520  66.9813176  82.6157500
 109.8744378  67.6703603  82.2328920 102.4366583  66.2102329  81.8046532
 101.5998491  65.7824503  81.6230533 102.4090228  66.4034772  82.7417323
 109.2764039  56.1224259  92.5087778 109.3252194  56.9986382  92.1265548
 109.8186553  55.5801652  91.9359421 119.7618884  66.6665382  91.7888915
 118.9714428  66.6489521  91.2493414 119.5252239  67.2053676  92.5437952
 119.8816759  63.5157849  89.1021644 119.9314764  63.3507856  90.0437166
 119.7730683  62.6485108  88.7119524 108.7653018  66.1946394  76.3913732
 108.9141138  66.8781859  75.7380405 109.5719461  66.1751484  76.9063188
 117.1720522  59.4988777  90.4180950 118.0730384  59.3595241  90.1264948
 117.2468496  59.6643231  91.3579128 111.5063327  56.8755631  89.2634137
 110.6366636  57.1689197  88.9916725 111.7422807  57.4596076  89.9841400
 121.3834956  65.9354790  89.3463665 121.0919764  66.2984771  90.1827126
 120.7707087  65.2221798  89.1676997 122.5830638  63.5007670  81.8666235
 123.4177530  63.9397474  82.0303796 122.7189767  63.0246323  81.0474481
 119.6322144  61.0587405  87.8143723 120.1076266  61.2515051  87.0062574
 118.7087710  61.1146590  87.5687107 106.5205651  62.2211572  77.3974801
 106.2751693  61.3173902  77.5955012 106.6901566  62.2228722  76.4554279
 114.2102361  53.0935248  86.7799557 114.7284305  53.8296275  86.4546046
 113.8557494  53.3999242  87.6146316 105.7901299  57.9539929  74.8960963
 105.0970543  58.0284284  74.2400999 105.5453050  57.1900273  75.4182480
 114.4614955  49.5135531  82.3000454 114.7416709  48.8458720  82.9260880
 115.2465562  49.7064626  81.7875117 112.2648424  68.6894525  73.8625480
 111.6922391  69.3084712  73.4095952 112.8381217  69.2393886  74.3965402
 118.3323813  57.9353165  86.0472029 119.2841236  58.0351262  86.0684253
 118.1627264  57.1431433  86.5570113 116.3538193  55.0208748  86.2331430
 115.7588125  55.3013761  85.5377918 116.0687890  55.5102649  87.0048171
 115.4845683  68.9731675  74.9934062 116.4176356  68.9077236  75.1966938
 115.3968896  69.8087942  74.5348595 118.1133700  68.2897545  71.9538010
 118.0347332  67.9557409  72.8473768 118.9343367  68.7819313  71.9529482
 120.8111891  61.1559284  85.1614328 120.7788211  60.2175285  85.3474012
 121.4212515  61.2343321  84.4280153 112.6495222  60.0255337  71.2041532
 113.5954327  59.8961546  71.2729950 112.2709467  59.2869999  71.6810961
 120.9606380  57.9470328  85.2072612 120.4445428  57.1628784  85.0202540
 121.8446328  57.6189044  85.3719131 118.6217107  51.6911343  81.1668424
 118.4241928  51.3826432  82.0511756 119.2316812  52.4172982  81.2966354
 126.6288441  62.2175291  84.3020365 127.3591830  61.9560579  84.8628068
 126.0195387  61.4804013  84.3422433 124.7103738  60.3583154  84.8994816
 123.9836902  60.2239119  84.2911308 124.2951025  60.6659982  85.7051534
 112.5333915  64.0773084  92.6642189 113.4536924  64.2551683  92.8582236
 112.4983498  63.1329129  92.5121889 110.8338139  57.9505314  71.1396418
 109.9269595  57.6538426  71.2159131 111.1114120  57.6535132  70.2730704
 101.7516080  59.2711677  81.5895464 101.4318864  58.4176985  81.2969838
 101.2049508  59.4860255  82.3453431 105.5295987  61.9874118  85.3064971
 105.7481997  62.9191226  85.3253004 105.9421761  61.6282093  86.0919774
 112.4500205  52.4942204  77.2940659 111.6400933  52.1489288  77.6695905
 113.1384622  52.1849747  77.8828270 114.3790753  51.5720250  78.9164956
 114.9321792  51.9915704  79.5754979 114.6160840  50.6455998  78.9587912
 110.4023852  57.5607324  94.6967719 110.3020579  58.5101681  94.6279811
 110.1845394  57.2325563  93.8243790 109.6036924  54.8092249  71.2808397
 110.4656088  55.1347147  71.5404214 109.7887268  54.0223745  70.7681463
 101.6204340  62.8914589  83.5588586 100.9267811  62.4768541  83.0458540
 102.3677331  62.9335125  82.9622004 117.7569560  53.6820775  78.4243620
 117.1768229  54.3405579  78.0421672 117.4905493  52.8598120  78.0131037
 116.2073127  53.0825833  80.6264940 116.7072905  53.1942368  79.8179259
 116.8508735  52.7786886  81.2665749 110.2655122  60.9904463  93.5132781
 109.7822204  61.7904823  93.7196670 110.3516062  61.0012408  92.5600225
 103.5341082  62.8232842  81.4354600 103.5111770  62.9220530  80.4836484
 103.8441719  63.6697993  81.7571767 106.1928460  64.8808997  85.5501215
 107.1471714  64.8492940  85.4831146 105.9940984  64.4199621  86.3651441
 106.7827842  63.4510114  88.1172013 107.6020731  63.9454192  88.1406850
 107.0564650  62.5342082  88.0889580 116.5394438  55.8420866  77.4799968
 115.6520293  56.1270516  77.2620163 116.9548427  55.6814629  76.6327245
 119.8908974  55.8667387  81.1954307 120.6669365  56.3563839  81.4678924
 119.1657109  56.2925441  81.6526177 122.3281533  56.5795006  82.2528248
 122.9226024  56.3390742  81.5421556 122.4008117  55.8602137  82.8801784
 104.5478689  70.4228617  82.5671413 104.4133157  69.6629018  82.0009411
 104.1310751  71.1469517  82.1000202 115.6837652  65.6065541  71.5747988
 116.3873502  65.8115543  72.1905644 114.9600301  66.1742302  71.8397072
 116.5135462  61.3575402  77.6950258 116.4570663  61.8143953  76.8557891
 117.0663805  60.5966086  77.5173101 120.3240268  57.1465134  78.5200378
 120.0677202  56.7461769  79.3508585 119.6993136  57.8608928  78.3950517
 124.6352606  59.8861207  81.0271669 124.0752164  59.9554396  81.8003231
 124.0296109  59.7102192  80.3071165 107.7047815  71.3197934  82.7789855
 107.5880199  72.2643366  82.6768546 106.8840261  71.0171496  83.1675655
 117.5924349  66.0448070  73.6246448 118.4269953  65.6129268  73.4423923
 117.4308692  65.8730083  74.5523343 117.2470241  62.5480183  74.9902787
 117.1919045  62.3824454  74.0491232 116.6216297  63.2556216  75.1464977
 102.0362756  57.7848247  88.8164210 102.6821620  57.2747201  89.3051435
 101.8279907  58.5216929  89.3907635 114.5616149  64.8529095  94.3156350
 115.4307308  65.0269747  93.9542985 114.0822900  65.6723512  94.1932080
 110.5566367  52.0488292  74.5688106 110.5445037  52.9930132  74.7256377
 111.4489789  51.8658437  74.2747567 108.7302329  71.9726196  85.9945784
 109.6329575  72.0049806  86.3112279 108.5039699  71.0426647  86.0092120
 110.4855931  70.7257182  82.6555862 109.5351562  70.7259044  82.5420235
 110.7888417  69.9789917  82.1391897 114.3718486  48.6431069  78.8234043
 113.6050882  48.0889555  78.9690725 114.7829191  48.7152937  79.6848194
 106.3760247  54.9315864  92.9139224 107.2391709  54.5752669  93.1242548
 105.8025658  54.5929759  93.6014628 126.2208624  76.5617721  83.7201625
 126.8587034  76.4424468  83.0164965 126.1029467  77.5098565  83.7789577
 123.0298331  76.5145149  83.6563150 122.6916842  76.3986214  82.7683684
 123.8988099  76.1136314  83.6364156 118.8885146  78.3680625  79.6460040
 118.3250011  78.2770562  78.8776328 118.7737541  77.5480530  80.1262533
 123.5118114  77.6680001  89.6149355 123.5006754  77.2732799  88.7429859
 123.6738753  76.9346073  90.2083127 116.4349578  79.8631817  82.4844261
 117.2270870  79.5222642  82.0690560 116.6746228  79.9726792  83.4046414
 124.4684705  82.0351593  74.9574505 123.8172685  82.6205673  74.5708519
 125.2629068  82.5657788  75.0169543 118.3940332  79.1240730  75.3561640
 119.1671208  78.5769717  75.2174516 118.7465731  79.9884980  75.5676101
 120.2325375  80.4517112  88.5628539 119.9415241  81.3562743  88.4475205
 120.8682359  80.4933640  89.2772609 121.1581582  77.8293961  85.1529899
 121.7545154  77.6049983  84.4386862 121.2156553  77.0878706  85.7555347
 120.7306610  75.2833396  72.9880090 120.9832131  74.7614918  72.2263553
 119.7931169  75.1199542  73.0906773 125.7749893  74.2869175  80.7954833
 126.5612982  73.8688598  80.4445250 126.0388597  75.1915267  80.9636481
 125.9459970  79.7242025  75.4943490 125.3105803  79.7976652  76.2064394
 125.6157377  80.3135624  74.8162569 131.1758320  74.2244408  81.6987811
 131.9083492  73.6543625  81.9325641 130.4197676  73.8366008  82.1394317
 120.4502899  77.1861502  75.1904465 120.3339157  76.5106406  75.8585549
 120.5605159  76.6993876  74.3736618 122.7934440  76.6471649  78.8951154
 122.4292647  76.1202270  79.6064075 123.6501556  76.2570118  78.7217639
 128.6983740  67.9365982  86.1582420 128.3667065  68.8061393  85.9343635
 128.1029354  67.6202266  86.8376450 122.4339927  71.6761549  73.8912502
 122.6014329  72.5441785  74.2582973 122.2437096  71.8388831  72.9673792
 125.1915260  80.1378528  85.5578333 124.8915983  81.0403567  85.4494140
 124.8466319  79.8710711  86.4099486 118.6427741  76.5892325  81.5915037
 117.7178238  76.4568539  81.7992729 118.8912154  77.3686544  82.0884980
 128.5912404  72.6561068  83.2375770 127.6829281  72.5876477  82.9434531
 128.5399999  73.1333013  84.0657596 122.4129147  74.1319207  74.8759169
 122.2928773  74.5776257  75.7144649 121.7181736  74.4804524  74.3172707
 116.0036552  76.2325598  82.4258826 116.1328933  76.4860077  83.3398238
 115.3234004  76.8253306  82.1063481 120.1736040  86.9022848  78.5249300
 120.0960069  87.8530673  78.6037781 119.5697683  86.5568721  79.1824227
 122.6653269  74.0750714  91.1810667 121.8886603  74.6344634  91.1713532
 123.3043832  74.5607497  91.7025537 130.4574050  70.8577507  85.0153644
 129.8148430  71.1510040  84.3693439 129.9528978  70.7430427  85.8206841
 128.1114214  74.6040680  75.7039503 129.0232070  74.8368067  75.5287201
 127.6023861  75.1877724  75.1414582 120.9199642  76.8836167  90.7428634
 121.6614326  77.4221211  90.4663458 120.2136627  77.5102456  90.9000186
 126.3954981  79.0265308  89.3400796 126.8038337  78.5847718  88.5955428
 125.6732243  78.4517935  89.5934989 122.7486051  73.9637914  86.7134353
 123.5947247  74.3877328  86.8569002 122.6884689  73.3071539  87.4072916
 126.7183796  79.5866498  83.0953085 126.0892658  79.7512212  82.3929153
 126.3309458  80.0008108  83.8664049 130.5973028  80.5220936  80.4497448
 129.9124066  80.9019837  79.8994482 130.6816877  81.1316263  81.1829396
 125.8985497  71.6242283  88.3715526 125.6546429  72.3784343  87.8349802
 126.1745427  72.0027630  89.2062773 127.8523959  78.1680895  87.0492792
 128.0640855  78.8112655  86.3727173 127.8053708  77.3343212  86.5814722
 125.4550188  70.7798716  83.9529364 124.5934667  71.0779969  84.2446102
 125.4812623  70.9969115  83.0210397 122.2711758  79.3240906  80.3603170
 122.7350103  79.6028609  79.5707792 122.0068556  78.4224351  80.1776260
 119.1635839  78.8712388  83.2982933 119.7337196  79.2999656  82.6600418
 119.7543951  78.5894973  83.9967119 121.2080644  75.4464059  77.1692735
 121.9104687  75.8985102  77.6366661 120.8761272  74.8047878  77.7972628
 119.6561005  74.0375815  91.5443944 119.0259666  74.7192096  91.7779341
 119.5497093  73.9258897  90.5997083 114.9505978  73.7047611  82.4709868
 114.1605032  73.9605140  81.9949979 115.4417225  74.5195949  82.5761909
 128.9669787  81.0452851  85.2215149 129.7887231  80.6433038  84.9397831
 128.9632190  80.9421085  86.1731265 116.9020723  74.0692191  79.4293345
 116.1051886  74.1810885  79.9476841 116.6746315  74.4078843  78.5634236
 122.7326391  80.5936894  87.3775860 122.7970823  81.0557301  88.2134032
 122.0237315  79.9634259  87.5058170 113.2343681  73.9578102  84.9024859
 113.4851719  74.8425112  85.1682435 113.7703229  73.7782703  84.1299951
 137.0575780  77.3891599  81.5700121 136.3039489  76.8198997  81.4144125
 137.1923322  77.3554263  82.5170755 122.4474408  82.2605001  77.2454840
 122.3120083  83.1056537  77.6739688 122.9884221  82.4624279  76.4820774
 118.9341748  68.3396581  93.9069195 118.5408694  67.7862780  94.5816840
 119.7507888  68.6507160  94.2975713 115.9003806  79.7780439  77.8182765
 116.4128326  80.5723690  77.9688330 116.5526519  79.0806730  77.7516367
 117.7098691  82.8946196  79.9005518 117.8865319  83.8164160  79.7126502
 118.5055524  82.5804615  80.3299898 121.8509709  69.7554460  91.4989452
 122.5919422  70.3561613  91.4193914 122.0827632  69.0132098  90.9407495
 116.9951047  74.9410827  89.7767682 116.8804562  74.0396085  90.0774781
 116.1395565  75.1874524  89.4252498 124.0742885  82.8828568  91.3755182
 123.6306739  82.0964946  91.0576087 124.7360098  83.0707718  90.7099073
 118.8330006  84.4124369  85.9015861 119.3837431  84.2841433  85.1292855
 117.9941482  84.7119258  85.5510754 126.1724123  83.1631368  89.4036584
 126.1542598  83.9840249  88.9116853 127.0944043  83.0385443  89.6286725
 122.6297177  80.6775497  90.2460092 123.1625514  79.9163785  90.0159400
 122.1011258  80.3849149  90.9884246 125.7966872  65.7835563  85.7753734
 125.4531141  66.6737205  85.6992844 126.1645835  65.5937221  84.9123319
 113.8652723  78.1069094  78.5942336 114.7027945  78.5166102  78.3776043
 114.0430990  77.1668536  78.5642530 125.7617155  75.7744174  74.2826169
 125.2463778  76.5448779  74.5214556 125.4894463  75.1009310  74.9059230
 123.3464266  70.6193875  79.3411407 122.4905862  70.2300725  79.1617046
 123.7591218  70.6985836  78.4811193 124.8763412  68.1540218  83.7402967
 124.3728208  68.1170353  82.9270772 125.1694019  69.0632961  83.7999624
 121.1206298  68.2378948  82.7469149 121.9859295  68.0421757  82.3875038
 121.1883807  68.0089300  83.6738505 130.7351429  78.5276529  76.2179342
 129.9580872  78.1887688  75.7734504 131.4142910  78.5329152  75.5434307
 125.5503458  73.6471266  76.1085950 125.2453594  73.9617416  76.9596093
 126.5033900  73.7252686  76.1513283 123.9949890  79.8061490  77.7578904
 123.4671251  79.0714249  77.4452141 123.4937393  80.5836166  77.5118872
 128.9742736  78.0010510  82.8745950 128.3166410  78.6909772  82.9626079
 129.7783135  78.3906942  83.2179937 118.7268617  70.4681156  80.1185515
 119.3012369  70.2456337  79.3858708 119.3139600  70.5369850  80.8714117
 127.7848195  76.3554883  80.9249892 128.2980076  76.9884875  81.4271602
 128.4349419  75.7556078  80.5593252 121.0291285  67.3422405  78.8460585
 120.3755697  67.0271422  78.2217200 120.9871759  66.7198145  79.5720408
 125.0470569  86.3339207  73.6810563 124.3732268  86.6370904  74.2895521
 125.4336391  87.1368287  73.3316020 124.2629025  73.8304338  83.1708232
 123.3451587  74.0519285  83.0129921 124.6789169  73.9050649  82.3119940
 125.0464073  75.2295754  78.3010913 125.7935892  75.7417151  77.9918035
 125.3155663  74.9079807  79.1615306 123.3190723  77.7254295  75.2837867
 122.4101943  77.4413328  75.3810337 123.3485807  78.1453373  74.4241174
 128.5509991  81.3360884  79.0529035 128.0972318  80.4951794  79.1094225
 127.9203958  81.9722283  79.3903815 127.4942910  72.2652870  80.2829702
 126.7565667  71.7530257  80.6139945 127.7469684  71.8253252  79.4712979
 126.9942930  83.1737381  79.9878853 127.2865904  83.7342438  79.2691218
 127.5041551  83.4665942  80.7432012 127.5954538  65.0429122  80.8771471
 127.9013415  64.1826486  80.5897386 128.3207143  65.6346743  80.6770465
 113.8878894  75.4459809  79.2653069 113.6903294  74.8529170  78.5404136
 113.3325558  75.1412019  79.9829008 121.8675617  75.3382915  81.3847662
 121.9224227  74.3856752  81.3090139 121.0566819  75.4942355  81.8688961
 123.0166811  79.2663038  72.6225946 122.5786241  78.5498897  72.1631583
 123.7577252  79.4939153  72.0611037 119.8067977  73.9559975  79.1438041
 118.9935843  74.2554146  79.5503233 120.3026972  73.5615664  79.8612523
 121.9576555  83.9517732  81.0772306 121.9152734  84.1778578  80.1480838
 122.8739254  83.7181107  81.2258107 125.4042189  74.4201800  87.9752935
 125.7591577  74.6473273  88.8347401 126.0514320  74.7520176  87.3530190
 131.1339926  77.5420236  78.6802264 130.9957825  77.7321832  77.7523453
 130.7776145  78.3039618  79.1370315 119.2982052  71.5278331  84.7599276
 119.9381431  71.3867090  84.0622240 118.4659583  71.2412844  84.3837878
 131.1609306  79.6096763  83.6913536 131.5945812  79.5172052  84.5396590
 131.8740886  79.5854263  83.0533552 120.0742356  80.8280761  80.8734269
 120.8682955  80.3331081  80.6716844 119.3634048  80.2998624  80.5101974
 124.8937201  83.2098857  85.2246636 124.9474223  83.7789793  85.9924352
 124.0251982  83.3800742  84.8600673 116.3010669  71.4978656  79.5372263
 116.5617486  72.4123989  79.4281423 117.1227841  71.0303098  79.6868876
 117.7735594  72.9116413  86.7071088 118.4458647  72.7033775  86.0583736
 116.9465380  72.7138499  86.2676320 132.0224855  79.6520463  86.2246421
 132.2160745  80.5566274  86.4705696 131.9225473  79.1927882  87.0585006
 123.6761166  69.5378354  88.7236748 123.0289081  70.2368303  88.6301225
 124.4462181  69.9714498  89.0912997 127.0839964  79.8027206  91.7987302
 126.9325470  79.5737758  90.8817385 127.0744643  80.7597807  91.8118647
 123.8525300  77.3759119  86.7833568 124.7817360  77.5270278  86.6102535
 123.4316330  77.4643139  85.9282215 122.6513632  81.4009783  84.5532106
 122.5124718  81.0328567  85.4258044 121.8628228  81.9157423  84.3816064
 123.2461784  86.5018880  75.8957642 123.4213540  86.0306923  76.7103265
 122.5594572  87.1284646  76.1238903 124.2018847  80.7791386  81.9420944
 123.8668680  80.7392156  82.8378593 123.7022793  80.1136102  81.4691354
 118.1763091  76.1859016  87.4673525 118.0382889  75.4539255  88.0685064
 119.0868015  76.0967916  87.1857712 127.1378039  78.1247420  72.2158003
 126.5207209  77.3994248  72.1191056 126.6694527  78.8856780  71.8725077
 120.8045392  75.8978975  86.9557204 121.5145010  75.2572167  86.9143823
 120.7614700  76.1491870  87.8783385 128.7932170  82.8346328  89.8763784
 128.7344717  82.1505549  89.2094367 129.1951689  83.5765318  89.4244410
 119.5174326  72.8844193  88.7752844 118.9811683  72.4334931  89.4274440
 118.9291034  73.0190102  88.0323308 117.8122869  89.6508242  82.6697502
 118.0519468  90.2826766  83.3476521 116.9692066  89.2996282  82.9562862
 128.7949578  80.7985912  88.1077763 127.9076357  80.4611834  88.2304162
 129.3648129  80.0668944  88.3446529 110.4478725  77.1310004  81.4320815
 111.1349765  76.8171734  80.8441830 110.2926854  78.0351369  81.1588066
 115.2513447  72.0200201  85.8605838 115.1671636  71.4125870  85.1256248
 114.4296153  72.5109219  85.8615335 122.3250731  85.4587365  85.0739006
 122.2520903  86.2642336  85.5858311 121.8828124  85.6579331  84.2487028
 122.1140511  84.6959135  78.5841828 121.3308033  85.2380815  78.6780052
 122.8133256  85.2133114  78.9836069 125.4237161  70.5053764  81.2276033
 125.9205860  69.7523727  80.9077104 124.6524142  70.5418081  80.6619243
 133.2766918  76.2094130  82.8694325 133.2656795  77.0918845  82.4988258
 132.4084298  75.8565681  82.6748862 124.7849415  85.3574199  87.2297165
 125.4977387  85.9921664  87.1573067 124.2939443  85.4538065  86.4137167
 126.5066942  79.2625451  78.8014457 125.5723220  79.3826914  78.6319161
 126.6843610  78.3597918  78.5374467 122.0072130  72.6471147  80.9547718
 121.6369917  72.0942188  81.6428624 122.5031222  72.0429281  80.4022718
 129.8939493  75.1042771  79.3364491 130.3599945  75.9370762  79.2624794
 130.3446993  74.6387752  80.0409749 119.8361328  83.1068642  88.0502736
 120.5370788  83.7405125  88.2032130 119.3656443  83.4483374  87.2898375
 127.9615724  81.4486592  76.3350643 128.2375568  81.3343187  77.2444517
 127.0920223  81.0504077  76.2962816 127.8656156  67.4723358  83.3755392
 126.9519235  67.7027585  83.5437599 128.2949257  67.5561802  84.2269425
 127.6362614  75.6613250  85.8755286 126.9834064  75.9089157  85.2207739
 128.0142994  74.8477388  85.5417764 124.5969788  85.6972943  79.9783457
 124.7792183  84.8794599  80.4411209 125.4202774  85.9140635  79.5408347
 124.9311954  84.6241128  77.2398505 125.4599720  84.1133583  76.6268667
 125.1940173  84.3083658  78.1044038 123.6850187  76.4033061  92.3621323
 123.0090824  76.3027190  93.0323699 124.5077821  76.2472275  92.8257321
 115.4329046  82.6404997  84.9833839 116.0182483  81.8948685  85.1161743
 115.2353885  82.9508954  85.8670502 118.2867701  85.6756245  79.9996281
 117.6178077  86.1602372  79.5160321 118.1480571  85.9225465  80.9139660
 110.0246701  75.2110598  83.7038282 110.0630801  74.6774188  84.4975400
 109.5186994  74.6845803  83.0849259 122.4272970  87.7099988  86.5978939
 122.9791278  87.8731610  87.3628025 122.7679164  88.3004426  85.9258964
 117.4037463  70.0575138  87.2000824 117.4678790  70.9189969  86.7878222
 117.3404584  69.4449140  86.4673183 116.8789736  72.1298271  90.8473858
 117.5061775  71.7475348  91.4611383 116.0217655  71.9112473  91.2129551
 127.2783844  82.5361246  92.4527594 127.8223748  83.1491204  91.9582549
 126.6970689  83.0940824  92.9694607 113.6555279  73.9374700  76.7792213
 113.9508720  73.0285378  76.7259267 112.7543314  73.9162439  76.4573215
 125.5641357  85.6581964  83.5842622 125.4392497  84.8571704  83.0753567
 126.2220448  86.1528157  83.0956591 117.1849526  72.0130696  82.7619762
 116.4636111  72.6266664  82.6227235 117.9742781  72.5488461  82.6836408
 127.6276266  83.4590984  85.2122172 126.6806601  83.3396335  85.1400498
 127.9759039  82.5713482  85.2948433 119.9875839  69.3485123  89.0360413
 120.5110241  69.5947419  89.7986723 119.7688172  70.1805158  88.6163551
 115.3843120  71.6188797  76.9031538 115.0555826  70.7386176  76.7206644
 115.7382491  71.5636466  77.7907928 124.6322699  83.2543700  81.4126524
 124.4847661  82.3260407  81.5934094 125.4576193  83.2763791  80.9283599
 118.4984943  71.9061767  77.2707016 118.8381016  72.4347688  76.5485624
 118.9457064  72.2442173  78.0465582 128.2356821  84.0772259  82.4991397
 129.1603368  83.8715120  82.3615848 128.0672124  83.8288660  83.4080738
 121.1928384  70.2898818  86.7210084 120.8525205  69.4906631  87.1230764
 120.4867390  70.5900529  86.1486917 121.8444856  67.3748130  85.1737407
 122.6670925  66.9008608  85.0516297 122.0882920  68.1538614  85.6736093
 120.4853090  70.4036389  75.4700309 121.2061453  70.7817642  74.9664026
 119.8618395  71.1225266  75.5735287 124.6284213  71.1081538  76.4058641
 124.8447828  71.9906176  76.1047469 124.1478280  70.7167751  75.6764283
 119.3683435  74.0667251  82.9829386 119.2228015  74.3807554  83.8753667
 118.8908638  74.6852151  82.4300284 121.2279818  71.0569799  83.0310275
 121.2141386  70.1610892  82.6942573 121.9452246  71.0640463  83.6648561
 123.0805948  71.4907139  85.0763403 122.8223726  72.4124210  85.0747733
 122.5490989  71.0937574  85.7663867 128.0252137  84.5957926  77.8553488
 128.1989015  84.0304349  77.1027340 128.5181028  85.3958821  77.6732978
 113.8429097  76.6072595  85.9217047 113.2982565  77.3832403  86.0537321
 114.7208447  76.9543400  85.7636168 120.6316714  69.9384179  78.2997845
 120.7532625  69.0100825  78.4988733 120.3418756  69.9522865  77.3876161
 123.5007904  67.6239090  81.4364565 123.5229601  67.6878423  80.4816545
 123.9175963  66.7843598  81.6305071 133.8791528  77.3594349  79.4743788
 134.3222674  76.6101674  79.0762911 133.0018039  77.3504486  79.0917520
 129.0127310  83.9124691  74.9550386 129.7078214  84.5331383  75.1737701
 129.3550460  83.0620042  75.2302764 114.6295119  75.7342492  88.8147204
 113.8876855  75.8825127  89.4011834 114.3087863  75.9950757  87.9513953
 130.9118733  81.3624396  76.4837717 131.4370057  81.7011669  75.7587037
 130.8241085  80.4271411  76.3000852 122.5738781  85.2758470  88.6127594
 122.8825908  85.0307617  89.4850293 123.3714263  85.4805108  88.1246464
 122.5959393  87.4296379  80.8432970 122.1564384  86.9372758  81.5365827
 123.3467510  86.8869347  80.6025045 115.0751732  83.6207920  80.8457598
 115.9009752  83.3211692  80.4656242 114.7245784  82.8515543  81.2947387
 120.0433266  82.9734389  82.9155272 119.4213275  82.3105094  82.6157500
 120.7138132  82.9995520  82.2328920 113.2760337  81.5394247  81.8046532
 112.4392246  81.1116421  81.6230533 113.2483983  81.7326690  82.7417323
 120.1157793  71.4516177  92.5087778 120.1645949  72.3278299  92.1265548
 120.6580307  70.9093570  91.9359421 130.6012639  81.9957300  91.7888915
 129.8108182  81.9781439  91.2493414 130.3645993  82.5345594  92.5437952
 130.7210514  78.8449766  89.1021644 130.7708519  78.6799774  90.0437166
 130.6124437  77.9777025  88.7119524 119.6046773  81.5238312  76.3913732
 119.7534893  82.2073776  75.7380405 120.4113216  81.5043402  76.9063188
 128.0114276  74.8280694  90.4180950 128.9124139  74.6887159  90.1264948
 128.0862251  74.9935149  91.3579128 122.3457082  72.2047549  89.2634137
 121.4760391  72.4981115  88.9916725 122.5816562  72.7887994  89.9841400
 132.2228711  81.2646708  89.3463665 131.9313519  81.6276688  90.1827126
 131.6100842  80.5513716  89.1676997 133.4224393  78.8299587  81.8666235
 134.2571284  79.2689392  82.0303796 133.5583522  78.3538241  81.0474481
 130.4715899  76.3879322  87.8143723 130.9470020  76.5806969  87.0062574
 129.5481464  76.4438508  87.5687107 117.3599405  77.5503490  77.3974801
 117.1145447  76.6465820  77.5955012 117.5295320  77.5520640  76.4554279
 125.0496115  68.4227166  86.7799557 125.5678059  69.1588193  86.4546046
 124.6951248  68.7291159  87.6146316 125.3008710  64.8427448  82.3000454
 125.5810463  64.1750637  82.9260880 126.0859316  65.0356544  81.7875117
 123.1042178  84.0186442  73.8625480 122.5316145  84.6376629  73.4095952
 123.6774972  84.5685804  74.3965402 129.1717568  73.2645082  86.0472029
 130.1234991  73.3643180  86.0684253 129.0021018  72.4723351  86.5570113
 127.1931947  70.3500666  86.2331430 126.5981879  70.6305678  85.5377918
 126.9081644  70.8394567  87.0048171 126.3239438  84.3023592  74.9934062
 127.2570111  84.2369154  75.1966938 126.2362651  85.1379859  74.5348595
 128.9527454  83.6189463  71.9538010 128.8741086  83.2849326  72.8473768
 129.7737121  84.1111231  71.9529482 131.6505646  76.4851202  85.1614328
 131.6181966  75.5467203  85.3474012 132.2606269  76.5635239  84.4280153
 131.8000134  73.2762246  85.2072612 131.2839183  72.4920702  85.0202540
 132.6840083  72.9480962  85.3719131 129.4610861  67.0203261  81.1668424
 129.2635682  66.7118349  82.0511756 130.0710567  67.7464900  81.2966354
 135.5497493  75.6875072  84.8994816 134.8230656  75.5531036  84.2911308
 135.1344780  75.9951900  85.7051534 123.3727669  79.4065001  92.6642189
 124.2930679  79.5843600  92.8582236 123.3377252  78.4621047  92.5121889
 121.6731894  73.2797231  71.1396418 120.7663349  72.9830344  71.2159131
 121.9507875  72.9827050  70.2730704 112.5909834  74.6003595  81.5895464
 112.2712618  73.7468903  81.2969838 112.0443262  74.8152173  82.3453431
 116.3689742  77.3166036  85.3064971 116.5875751  78.2483144  85.3253004
 116.7815515  76.9574010  86.0919774 123.2893959  67.8234121  77.2940659
 122.4794688  67.4781206  77.6695905 123.9778376  67.5141665  77.8828270
 125.2184508  66.9012168  78.9164956 125.7715546  67.3207621  79.5754979
 125.4554594  65.9747916  78.9587912 121.2417607  72.8899242  94.6967719
 121.1414334  73.8393599  94.6279811 121.0239149  72.5617481  93.8243790
 120.4430678  70.1384167  71.2808397 121.3049842  70.4639065  71.5404214
 120.6281022  69.3515663  70.7681463 112.4598094  78.2206506  83.5588586
 111.7661565  77.8060459  83.0458540 113.2071085  78.2627043  82.9622004
 128.5963315  69.0112693  78.4243620 128.0161984  69.6697497  78.0421672
 128.3299247  68.1890038  78.0131037 127.0466881  68.4117751  80.6264940
 127.5466660  68.5234285  79.8179259 127.6902489  68.1078804  81.2665749
 121.1048877  76.3196380  93.5132781 120.6215959  77.1196741  93.7196670
 121.1909816  76.3304325  92.5600225 114.3734837  78.1524760  81.4354600
 114.3505525  78.2512447  80.4836484 114.6835473  78.9989911  81.7571767
 117.0322214  80.2100915  85.5501215 117.9865468  80.1784858  85.4831146
 116.8334738  79.7491539  86.3651441 117.6221597  78.7802031  88.1172013
 118.4414486  79.2746110  88.1406850 117.8958404  77.8633999  88.0889580
 127.3788193  71.1712784  77.4799968 126.4914048  71.4562434  77.2620163
 127.7942182  71.0106547  76.6327245 130.7302729  71.1959305  81.1954307
 131.5063119  71.6855757  81.4678924 130.0050863  71.6217359  81.6526177
 133.1675288  71.9086924  82.2528248 133.7619778  71.6682660  81.5421556
 133.2401871  71.1894054  82.8801784 115.3872443  85.7520535  82.5671413
 115.2526911  84.9920936  82.0009411 114.9704506  86.4761435  82.1000202
 126.5231406  80.9357458  71.5747988 127.2267256  81.1407461  72.1905644
 125.7994055  81.5034220  71.8397072 127.3529217  76.6867319  77.6950258
 127.2964418  77.1435871  76.8557891 127.9057559  75.9258004  77.5173101
 131.1634022  72.4757051  78.5200378 130.9070957  72.0753687  79.3508585
 130.5386890  73.1900845  78.3950517 135.4746360  75.2153125  81.0271669
 134.9145918  75.2846314  81.8003231 134.8689864  75.0394109  80.3071165
 118.5441569  86.6489852  82.7789855 118.4273953  87.5935284  82.6768546
 117.7234015  86.3463413  83.1675655 128.4318104  81.3739987  73.6246448
 129.2663708  80.9421186  73.4423923 128.2702447  81.2022001  74.5523343
 128.0863996  77.8772101  74.9902787 128.0312800  77.7116372  74.0491232
 127.4610051  78.5848134  75.1464977 112.8756511  73.1140165  88.8164210
 113.5215374  72.6039119  89.3051435 112.6673662  73.8508847  89.3907635
 125.4009903  80.1821013  94.3156350 126.2701063  80.3561665  93.9542985
 124.9216655  81.0015429  94.1932080 121.3960121  67.3780210  74.5688106
 121.3838791  68.3222050  74.7256377 122.2883543  67.1950355  74.2747567
 119.5696083  87.3018114  85.9945784 120.4723330  87.3341724  86.3112279
 119.3433453  86.3718565  86.0092120 121.3249685  86.0549100  82.6555862
 120.3745316  86.0550962  82.5420235 121.6282171  85.3081835  82.1391897
 125.2112241  63.9722986  78.8234043 124.4444637  63.4181473  78.9690725
 125.6222946  64.0444855  79.6848194 117.2154002  70.2607782  92.9139224
 118.0785463  69.9044587  93.1242548 116.6419412  69.9221677  93.6014628
 133.8692085  91.8437067  83.6563150 133.5310597  91.7278131  82.7683684
 134.7381853  91.4428232  83.6364156 129.7278901  93.6972543  79.6460040
 129.1643766  93.6062480  78.8776328 129.6131296  92.8772447  80.1262533
 134.3511868  92.9971918  89.6149355 134.3400509  92.6024717  88.7429859
 134.5132508  92.2637991  90.2083127 127.2743333  95.1923735  82.4844261
 128.0664625  94.8514559  82.0690560 127.5139983  95.3018710  83.4046414
 135.3078459  97.3643511  74.9574505 134.6566439  97.9497591  74.5708519
 136.1022822  97.8949706  75.0169543 129.2334087  94.4532648  75.3561640
 130.0064963  93.9061635  75.2174516 129.5859485  95.3176897  75.5676101
 131.0719129  95.7809030  88.5628539 130.7808995  96.6854661  88.4475205
 131.7076114  95.8225558  89.2772609 131.9975336  93.1585879  85.1529899
 132.5938908  92.9341901  84.4386862 132.0550308  92.4170624  85.7555347
 131.5700364  90.6125314  72.9880090 131.8225885  90.0906835  72.2263553
 130.6324924  90.4491459  73.0906773 136.6143647  89.6161092  80.7954833
 137.4006736  89.1980516  80.4445250 136.8782352  90.5207185  80.9636481
 136.7853725  95.0533943  75.4943490 136.1499558  95.1268569  76.2064394
 136.4551131  95.6427542  74.8162569 131.2896653  92.5153420  75.1904465
 131.1732911  91.8398323  75.8585549 131.3998913  92.0285794  74.3736618
 133.6328194  91.9763567  78.8951154 133.2686401  91.4494188  79.6064075
 134.4895310  91.5862036  78.7217639 133.2733681  87.0053467  73.8912502
 133.4408083  87.8733703  74.2582973 133.0830850  87.1680748  72.9673792
 136.0309014  95.4670446  85.5578333 135.7309737  96.3695484  85.4494140
 135.6860074  95.2002629  86.4099486 129.4821496  91.9184243  81.5915037
 128.5571992  91.7860457  81.7992729 129.7305909  92.6978462  82.0884980
 133.2522902  89.4611124  74.8759169 133.1322527  89.9068175  75.7144649
 132.5575490  89.8096442  74.3172707 126.8430307  91.5617516  82.4258826
 126.9722688  91.8151995  83.3398238 126.1627758  92.1545224  82.1063481
 131.0129794 102.2314766  78.5249300 130.9353824 103.1822591  78.6037781
 130.4091438 101.8860639  79.1824227 133.5047024  89.4042631  91.1810667
 132.7280358  89.9636552  91.1713532 134.1437587  89.8899414  91.7025537
 131.7593396  92.2128085  90.7428634 132.5008081  92.7513129  90.4663458
 131.0530382  92.8394374  90.9000186 137.2348736  94.3557225  89.3400796
 137.6432092  93.9139636  88.5955428 136.5125997  93.7809853  89.5934989
 133.5879806  89.2929832  86.7134353 134.4341001  89.7169246  86.8569002
 133.5278443  88.6363456  87.4072916 137.5577550  94.9158416  83.0953085
 136.9286413  95.0804130  82.3929153 137.1703213  95.3300025  83.8664049
 136.7379251  86.9534200  88.3715526 136.4940183  87.7076261  87.8349802
 137.0139182  87.3319548  89.2062773 136.2943943  86.1090633  83.9529364
 135.4328422  86.4071887  84.2446102 136.3206378  86.3261032  83.0210397
 133.1105512  94.6532824  80.3603170 133.5743858  94.9320527  79.5707792
 132.8462310  93.7516269  80.1776260 130.0029593  94.2004306  83.2982933
 130.5730950  94.6291574  82.6600418 130.5937705  93.9186890  83.9967119
 132.0474398  90.7755976  77.1692735 132.7498442  91.2277020  77.6366661
 131.7155027  90.1339795  77.7972628 130.4954760  89.3667733  91.5443944
 129.8653420  90.0484014  91.7779341 130.3890848  89.2550815  90.5997083
 125.7899732  89.0339529  82.4709868 124.9998786  89.2897058  81.9949979
 126.2810980  89.8487867  82.5761909 127.7414478  89.3984108  79.4293345
 126.9445641  89.5102803  79.9476841 127.5140070  89.7370760  78.5634236
 133.5720145  95.9228811  87.3775860 133.6364578  96.3849219  88.2134032
 132.8631069  95.2926176  87.5058170 124.0737435  89.2870019  84.9024859
 124.3245474  90.1717029  85.1682435 124.6096984  89.1074621  84.1299951
 133.2868163  97.5896919  77.2454840 133.1513838  98.4348455  77.6739688
 133.8277975  97.7916197  76.4820774 129.7735503  83.6688499  93.9069195
 129.3802448  83.1154697  94.5816840 130.5901643  83.9799077  94.2975713
 126.7397560  95.1072357  77.8182765 127.2522081  95.9015607  77.9688330
 127.3920273  94.4098647  77.7516367 128.5492445  98.2238113  79.9005518
 128.7259073  99.1456078  79.7126502 129.3449279  97.9096532  80.3299898
 132.6903464  85.0846378  91.4989452 133.4313177  85.6853531  91.4193914
 132.9221386  84.3424016  90.9407495 127.8344802  90.2702745  89.7767682
 127.7198317  89.3688002  90.0774781 126.9789319  90.5166442  89.4252498
 134.9136639  98.2120485  91.3755182 134.4700494  97.4256864  91.0576087
 135.5753853  98.3999636  90.7099073 129.6723761  99.7416287  85.9015861
 130.2231186  99.6133350  85.1292855 128.8335236 100.0411176  85.5510754
 133.4690932  96.0067415  90.2460092 134.0019268  95.2455703  90.0159400
 132.9405013  95.7141067  90.9884246 136.6360627  81.1127481  85.7753734
 136.2924896  82.0029123  85.6992844 137.0039589  80.9229138  84.9123319
 124.7046477  93.4361011  78.5942336 125.5421699  93.8458020  78.3776043
 124.8824745  92.4960453  78.5642530 136.6010909  91.1036092  74.2826169
 136.0857533  91.8740697  74.5214556 136.3288218  90.4301228  74.9059230
 134.1858020  85.9485793  79.3411407 133.3299617  85.5592643  79.1617046
 134.5984972  86.0277754  78.4811193 135.7157167  83.4832136  83.7402967
 135.2121963  83.4462271  82.9270772 136.0087774  84.3924879  83.7999624
 131.9600053  83.5670866  82.7469149 132.8253050  83.3713674  82.3875038
 132.0277562  83.3381217  83.6738505 136.3897212  88.9763184  76.1085950
 136.0847348  89.2909333  76.9596093 137.3427655  89.0544604  76.1513283
 134.8343644  95.1353407  77.7578904 134.3065006  94.4006167  77.4452141
 134.3331147  95.9128084  77.5118872 129.5662372  85.7973074  80.1185515
 130.1406124  85.5748255  79.3858708 130.1533354  85.8661768  80.8714117
 129.8931959  87.8277535  74.1381401 129.0569271  88.1652221  74.4590675
 129.7536729  87.6926514  73.2008538 131.8685040  82.6714323  78.8460585
 131.2149452  82.3563340  78.2217200 131.8265514  82.0490063  79.5720408
 132.9796244  92.9533618  70.7613877 132.0723306  92.7222871  70.9605026
 133.4767276  92.1571237  70.9487858 135.8864323 101.6631125  73.6810563
 135.2126022 101.9662822  74.2895521 136.2730145 102.4660205  73.3316020
 135.1022780  89.1596256  83.1708232 134.1845341  89.3811203  83.0129921
 135.5182924  89.2342567  82.3119940 135.8857828  90.5587672  78.3010913
 136.6329647  91.0709069  77.9918035 136.1549417  90.2371724  79.1615306
 134.1584478  93.0546212  75.2837867 133.2495697  92.7705245  75.3810337
 134.1879562  93.4745291  74.4241174 124.7272648  90.7751727  79.2653069
 124.5297048  90.1821087  78.5404136 124.1719312  90.4703937  79.9829008
 132.7069372  90.6674833  81.3847662 132.7617982  89.7148669  81.3090139
 131.8960574  90.8234272  81.8688961 133.8560566  94.5954956  72.6225946
 133.4179996  93.8790815  72.1631583 134.5971007  94.8231071  72.0611037
 130.6461732  89.2851893  79.1438041 129.8329597  89.5846063  79.5503233
 131.1420726  88.8907582  79.8612523 132.7970310  99.2809650  81.0772306
 132.7546489  99.5070496  80.1480838 133.7133009  99.0473024  81.2258107
 136.2435944  89.7493717  87.9752935 136.5985331  89.9765190  88.8347401
 136.8908075  90.0812094  87.3530190 130.1375807  86.8570248  84.7599276
 130.7775186  86.7159007  84.0622240 129.3053337  86.5704762  84.3837878
 130.9136111  96.1572679  80.8734269 131.7076709  95.6622999  80.6716844
 130.2027803  95.6290542  80.5101974 135.7330955  98.5390774  85.2246636
 135.7867977  99.1081711  85.9924352 134.8645736  98.7092659  84.8600673
 127.2218874  90.3015761  76.9494021 126.2916462  90.2400216  77.1663983
 127.3176346  89.7791713  76.1530663 127.1404423  86.8270573  79.5372263
 127.4011240  87.7415907  79.4281423 127.9621595  86.3595016  79.6868876
 128.6129348  88.2408331  86.7071088 129.2852402  88.0325693  86.0583736
 127.7859135  88.0430417  86.2676320 134.5154920  84.8670271  88.7236748
 133.8682835  85.5660221  88.6301225 135.2855936  85.3006415  89.0912997
 134.6919055  92.7051036  86.7833568 135.6211115  92.8562196  86.6102535
 134.2710085  92.7935057  85.9282215 133.4907387  96.7301701  84.5532106
 133.3518472  96.3620485  85.4258044 132.7021983  97.2449340  84.3816064
 134.0855538 101.8310797  75.8957642 134.2607294 101.3598840  76.7103265
 133.3988327 102.4576563  76.1238903 135.0412602  96.1083303  81.9420944
 134.7062434  96.0684073  82.8378593 134.5416547  95.4428019  81.4691354
 129.0156846  91.5150933  87.4673525 128.8776644  90.7831172  88.0685064
 129.9261769  91.4259834  87.1857712 131.6439146  91.2270893  86.9557204
 132.3538765  90.5864085  86.9143823 131.6008454  91.4783788  87.8783385
 130.3568080  88.2136111  88.7752844 129.8205437  87.7626849  89.4274440
 129.7684789  88.3482020  88.0323308 128.6516624 104.9800160  82.6697502
 128.8913222 105.6118684  83.3476521 127.8085820 104.6288200  82.9562862
 129.7670339  87.6724762  71.3379307 128.8899806  87.5513563  70.9741554
 130.2428092  86.8810840  71.0858196 121.2872479  92.4601922  81.4320815
 121.9743519  92.1463652  80.8441830 121.1320608  93.3643286  81.1588066
 126.0907202  87.3492118  85.8605838 126.0065390  86.7417788  85.1256248
 125.2689908  87.8401137  85.8615335 133.1644486 100.7879282  85.0739006
 133.0914657 101.5934254  85.5858311 132.7221879 100.9871248  84.2487028
 132.9534265 100.0251052  78.5841828 132.1701787 100.5672733  78.6780052
 133.6527010 100.5425032  78.9836069 136.2630915  85.8345682  81.2276033
 136.7599615  85.0815644  80.9077104 135.4917897  85.8709999  80.6619243
 135.6243169 100.6866116  87.2297165 136.3371141 101.3213581  87.1573067
 135.1333198 100.7829982  86.4137167 137.3460696  94.5917369  78.8014457
 136.4116975  94.7118832  78.6319161 137.5237365  93.6889836  78.5374467
 132.8465884  87.9763065  80.9547718 132.4763672  87.4234105  81.6428624
 133.3424977  87.3721198  80.4022718 130.6755083  98.4360560  88.0502736
 131.3764542  99.0697043  88.2032130 130.2050198  98.7775291  87.2898375
 135.4363543 101.0264861  79.9783457 135.6185937 100.2086516  80.4411209
 136.2596529 101.2432553  79.5408347 135.7705708  99.9533046  77.2398505
 136.2993474  99.4425500  76.6268667 136.0333928  99.6375576  78.1044038
 134.5243942  91.7324978  92.3621323 133.8484579  91.6319108  93.0323699
 135.3471576  91.5764192  92.8257321 126.2722801  97.9696915  84.9833839
 126.8576238  97.2240603  85.1161743 126.0747639  98.2800872  85.8670502
 129.1261456 101.0048162  79.9996281 128.4571831 101.4894290  79.5160321
 128.9874326 101.2517383  80.9139660 120.8640455  90.5402515  83.7038282
 120.9024555  90.0066106  84.4975400 120.3580748  90.0137721  83.0849259
 133.2666725 103.0391906  86.5978939 133.8185033 103.2023527  87.3628025
 133.6072918 103.6296344  85.9258964 128.2431218  85.3867056  87.2000824
 128.3072544  86.2481887  86.7878222 128.1798338  84.7741057  86.4673183
 127.7183490  87.4590188  90.8473858 128.3455529  87.0767266  91.4611383
 126.8611409  87.2404390  91.2129551 124.4949033  89.2666617  76.7792213
 124.7902474  88.3577296  76.7259267 123.5937069  89.2454357  76.4573215
 136.4035112 100.9873881  83.5842622 136.2786251 100.1863621  83.0753567
 137.0614203 101.4820075  83.0956591 128.0243280  87.3422614  82.7619762
 127.3029866  87.9558582  82.6227235 128.8136536  87.8780379  82.6836408
 130.8269594  84.6777040  89.0360413 131.3503995  84.9239337  89.7986723
 130.6081927  85.5097075  88.6163551 126.2236875  86.9480715  76.9031538
 125.8949581  86.0678094  76.7206644 126.5776245  86.8928384  77.7907928
 135.4716454  98.5835618  81.4126524 135.3241416  97.6552325  81.5934094
 136.2969947  98.6055708  80.9283599 129.3378698  87.2353685  77.2707016
 129.6774770  87.7639606  76.5485624 129.7850818  87.5734091  78.0465582
 132.0322139  85.6190736  86.7210084 131.6918959  84.8198549  87.1230764
 131.3261145  85.9192446  86.1486917 132.6838610  82.7040048  85.1737407
 133.5064680  82.2300526  85.0516297 132.9276674  83.4830532  85.6736093
 131.3246845  85.7328306  75.4700309 132.0455207  86.1109559  74.9664026
 130.7012149  86.4517183  75.5735287 135.4677968  86.4373455  76.4058641
 135.6841582  87.3198093  76.1047469 134.9872035  86.0459669  75.6764283
 130.2077189  89.3959169  82.9829386 130.0621770  89.7099472  83.8753667
 129.7302393  90.0144069  82.4300284 132.0673572  86.3861717  83.0310275
 132.0535141  85.4902810  82.6942573 132.7846000  86.3932380  83.6648561
 133.9199703  86.8199057  85.0763403 133.6617481  87.7416127  85.0747733
 133.3884743  86.4229491  85.7663867 124.6822851  91.9364513  85.9217047
 124.1376319  92.7124321  86.0537321 125.5602201  92.2835317  85.7636168
 131.4710468  85.2676097  78.2997845 131.5926379  84.3392743  78.4988733
 131.1812510  85.2814783  77.3876161 134.3401658  82.9531007  81.4364565
 134.3623355  83.0170340  80.4816545 134.7569717  82.1135516  81.6305071
 125.4688873  91.0634409  88.8147204 124.7270609  91.2117045  89.4011834
 125.1481618  91.3242675  87.9513953 133.4132536 100.6050387  88.6127594
 133.7219662 100.3599534  89.4850293 134.2108018 100.8097026  88.1246464
 133.4353148 102.7588297  80.8432970 132.9958138 102.2664676  81.5365827
 134.1861265 102.2161265  80.6025045 125.9145487  98.9499838  80.8457598
 126.7403507  98.6503610  80.4656242 125.5639539  98.1807460  81.2947387
 130.8827020  98.3026306  82.9155272 130.2607029  97.6397011  82.6157500
 131.5531887  98.3287438  82.2328920 124.1154092  96.8686164  81.8046532
 123.2786000  96.4408339  81.6230533 124.0877737  97.0618608  82.7417323
 130.9551548  86.7808094  92.5087778 131.0039703  87.6570217  92.1265548
 131.4974062  86.2385487  91.9359421 130.4440527  96.8530230  76.3913732
 130.5928647  97.5365694  75.7380405 131.2506970  96.8335320  76.9063188
 133.1850836  87.5339467  89.2634137 132.3154145  87.8273033  88.9916725
 133.4210316  88.1179912  89.9841400 128.1993160  92.8795407  77.3974801
 127.9539202  91.9757737  77.5955012 128.3689075  92.8812558  76.4554279
 135.8889870  83.7519084  86.7799557 136.4071814  84.4880110  86.4546046
 135.5345003  84.0583077  87.6146316 127.4688808  88.6123765  74.8960963
 126.7758052  88.6868120  74.2400999 127.2240559  87.8484108  75.4182480
 136.1402464  80.1719366  82.3000454 136.4204218  79.5042555  82.9260880
 136.9253071  80.3648462  81.7875117 133.9435933  99.3478360  73.8625480
 133.3709900  99.9668547  73.4095952 134.5168726  99.8977722  74.3965402
 134.3282731  90.6839173  71.2041532 135.2741836  90.5545381  71.2729950
 133.9496976  89.9453835  71.6810961 134.2121424  94.7356919  92.6642189
 135.1324433  94.9135518  92.8582236 134.1771007  93.7912964  92.5121889
 132.5125648  88.6089149  71.1396418 131.6057104  88.3122262  71.2159131
 132.7901629  88.3118967  70.2730704 123.4303589  89.9295513  81.5895464
 123.1106373  89.0760821  81.2969838 122.8837017  90.1444091  82.3453431
 127.2083496  92.6457954  85.3064971 127.4269506  93.5775061  85.3253004
 127.6209270  92.2865928  86.0919774 134.1287714  83.1526039  77.2940659
 133.3188442  82.8073124  77.6695905 134.8172131  82.8433583  77.8828270
 136.0578262  82.2304086  78.9164956 136.6109301  82.6499539  79.5754979
 136.2948349  81.3039834  78.9587912 132.0811361  88.2191159  94.6967719
 131.9808088  89.1685516  94.6279811 131.8632903  87.8909398  93.8243790
 131.2824433  85.4676084  71.2808397 132.1443597  85.7930983  71.5404214
 131.4674777  84.6807580  70.7681463 123.2991849  93.5498424  83.5588586
 122.6055320  93.1352377  83.0458540 124.0464840  93.5918961  82.9622004
 131.9442631  91.6488298  93.5132781 131.4609713  92.4488658  93.7196670
 132.0303571  91.6596243  92.5600225 125.2128591  93.4816678  81.4354600
 125.1899279  93.5804365  80.4836484 125.5229228  94.3281829  81.7571767
 127.8715969  95.5392833  85.5501215 128.8259223  95.5076775  85.4831146
 127.6728493  95.0783457  86.3651441 128.4615351  94.1093949  88.1172013
 129.2808240  94.6038028  88.1406850 128.7352159  93.1925917  88.0889580
 126.2266198 101.0812452  82.5671413 126.0920666 100.3212853  82.0009411
 125.8098260 101.8053352  82.1000202 129.3835324 101.9781769  82.7789855
 129.2667708 102.9227202  82.6768546 128.5627770 101.6755331  83.1675655
 123.7150265  88.4432083  88.8164210 124.3609129  87.9331037  89.3051435
 123.5067416  89.1800764  89.3907635 136.2403658  95.5112930  94.3156350
 137.1094817  95.6853583  93.9542985 135.7610409  96.3307347  94.1932080
 132.2353876  82.7072127  74.5688106 132.2232546  83.6513967  74.7256377
 133.1277298  82.5242273  74.2747567 130.4089838 102.6310031  85.9945784
 131.3117084 102.6633642  86.3112279 130.1827208 101.7010482  86.0092120
 132.1643440 101.3841018  82.6555862 131.2139071 101.3842879  82.5420235
 132.4675926 100.6373752  82.1391897 136.0505995  79.3014904  78.8234043
 135.2838391  78.7473391  78.9690725 136.4616700  79.3736773  79.6848194
 128.0547756  85.5899700  92.9139224 128.9179218  85.2336505  93.1242548
 127.4813167  85.2513595  93.6014628 136.6293487 104.3631447  82.4709868
 135.8392541 104.6188975  81.9949979 137.1204734 105.1779785  82.5761909
 134.9131190 104.6161937  84.9024859 135.1639228 105.5008947  85.1682435
 135.4490738 104.4366539  84.1299951 135.5440232 108.7652929  78.5942336
 136.3815454 109.1749937  78.3776043 135.7218499 107.8252371  78.5642530
 135.5666403 106.1043644  79.2653069 135.3690803 105.5113005  78.5404136
 135.0113067 105.7995854  79.9829008 132.1266234 107.7893840  81.4320815
 132.8137274 107.4755570  80.8441830 131.9714363 108.6935204  81.1588066
 136.9300956 102.6784036  85.8605838 136.8459145 102.0709706  85.1256248
 136.1083662 103.1693054  85.8615335 131.7034210 105.8694433  83.7038282
 131.7418309 105.3358024  84.4975400 131.1974503 105.3429638  83.0849259
 135.3342788 104.5958535  76.7792213 135.6296229 103.6869213  76.7259267
 134.4330823 104.5746274  76.4573215 137.0630629 102.2772633  76.9031538
 136.7343335 101.3970012  76.7206644 137.4170000 102.2220301  77.7907928
 135.5216606 107.2656431  85.9217047 134.9770074 108.0416239  86.0537321
 136.3995956 107.6127235  85.7636168 136.3082628 106.3926327  88.8147204
 135.5664364 106.5408962  89.4011834 135.9875372 106.6534593  87.9513953
 136.7539241 114.2791756  80.8457598 137.5797261 113.9795528  80.4656242
 136.4033293 113.5099378  81.2947387 134.9547846 112.1978082  81.8046532
 134.1179755 111.7700256  81.6230533 134.9271492 112.3910525  82.7417323
 134.2697343 105.2587430  81.5895464 133.9500127 104.4052738  81.2969838
 133.7230771 105.4736008  82.3453431 134.1385603 108.8790342  83.5588586
 133.4449074 108.4644295  83.0458540 134.8858594 108.9210878  82.9622004
 136.0522346 108.8108595  81.4354600 136.0293034 108.9096283  80.4836484
 136.3622982 109.6573746  81.7571767 137.0659952 116.4104370  82.5671413
 136.9314420 115.6504771  82.0009411 136.6492015 117.1345270  82.1000202
 134.5544020 103.7724000  88.8164210 135.2002883 103.2622954  89.3051435
 134.3461171 104.5092682  89.3907635  76.8161023   2.5917300  65.2494607
  76.7385053   3.5425125  65.3283088  76.2122666   2.2463173  65.9069533
  75.4754989   0.1018821  72.6261167  76.0262414  -0.0264115  71.8538161
  74.6366465   0.4013710  72.2756060  81.6895552   2.0233659  60.4055870
  81.0157251   2.3265356  61.0140828  82.0761374   2.8262739  60.0561327
  79.8886767   2.1913331  62.6202949  80.0638523   1.7201375  63.4348572
  79.2019555   2.8179098  62.8484210  74.4547853   5.3402694  69.3942809
  74.6944451   5.9721218  70.0721828  73.6117049   4.9890734  69.6808168
  78.9675714   1.1481817  71.7984313  78.8945886   1.9536788  72.3103618
  78.5253108   1.3473782  70.9732334  78.7565494   0.3853587  65.3087135
  77.9733016   0.9275267  65.4025359  79.4558239   0.9027566  65.7081376
  81.4274398   1.0468651  73.9542472  82.1402370   1.6816116  73.8818373
  80.9364427   1.1432517  73.1382474  72.0754030  -1.6700551  71.7079145
  72.6607466  -2.4156863  71.8407049  71.8778868  -1.3596594  72.5915809
  74.9292685   1.3650697  66.7241588  74.2603060   1.8496824  66.2405628
  74.7905554   1.6119917  67.6384966  79.0697953   3.3994440  73.3224246
  79.6216261   3.5626062  74.0873331  79.4104147   3.9898878  72.6504271
  79.2163765   0.9652922  75.3372900  79.5250891   0.7202068  76.2095600
  80.0139247   1.1699560  74.8491771  79.2384377   3.1190831  67.5678277
  78.7989367   2.6267210  68.2611134  79.9892494   2.5763799  67.3270352
  71.7176716  -0.6897628  67.5702905  72.5434736  -0.9893856  67.1901548
  71.3670768  -1.4590005  68.0192694  69.9185321  -2.7711301  68.5291839
  69.0817229  -3.1989127  68.3475840  69.8908966  -2.5778858  69.4662630
  72.0297427   1.4414987  69.2916719  71.8951894   0.6815387  68.7254717
  71.6129489   2.1655886  68.8245508  75.1866552   2.3384304  69.5035162
  75.0698937   3.2829736  69.4013852  74.3658999   2.0357865  69.8920961
  76.2121067   2.9912565  72.7191090  77.1148313   3.0236176  73.0357585
  75.9858437   2.0613016  72.7337426  77.9674669   1.7443552  69.3801169
  77.0170300   1.7445414  69.2665541  78.2707155   0.9976287  68.8637204
  93.7027362   7.5804090  70.4446931  94.3405772   7.4610838  69.7410272
  93.5848205   8.5284934  70.5034884  90.5117068   7.5331519  70.3808456
  90.1735580   7.4172583  69.4928991  91.3806837   7.1322684  70.3609462
  86.3703884   9.3866995  66.3705347  85.8068749   9.2956932  65.6021635
  86.2556279   8.5666899  66.8507840  90.9936851   8.6866370  76.3394662
  90.9825492   8.2919169  75.4675165  91.1557491   7.9532443  76.9328433
  83.9168316  10.8818187  69.2089568  84.7089608  10.5409011  68.7935867
  84.1564966  10.9913162  70.1291721  91.9503443  13.0537963  61.6819812
  91.2991423  13.6392043  61.2953826  92.7447806  13.5844158  61.7414849
  85.8759070  10.1427100  62.0806946  86.6489946   9.5956087  61.9419822
  86.2284469  11.0071349  62.2921408  87.7144112  11.4703482  75.2873846
  87.4233978  12.3749113  75.1720512  88.3501097  11.5120010  76.0017915
  88.6400319   8.8480331  71.8775205  89.2363892   8.6236353  71.1632168
  88.6975291   8.1065076  72.4800653  88.2125348   6.3019766  59.7125396
  88.4650868   5.7801287  58.9508859  87.2749907   6.1385911  59.8152080
  93.4278708  10.7428395  62.2188796  92.7924541  10.8163021  62.9309701
  93.0976114  11.3321993  61.5407876  87.9321636   8.2047872  61.9149771
  87.8157895   7.5292775  62.5830856  88.0423896   7.7180246  61.0981924
  90.2753177   7.6658019  65.6196460  89.9111385   7.1388640  66.3309382
  91.1320293   7.2756488  65.4462946  92.6733998  11.1564898  72.2823639
  92.3734721  12.0589936  72.1739447  92.3285057  10.8897081  73.1344792
  86.1246479   7.6078694  68.3160344  85.1996976   7.4754908  68.5238036
  86.3730892   8.3872914  68.8130286  89.8947885   5.1505576  61.6004476
  89.7747510   5.5962627  62.4389956  89.2000474   5.4990894  61.0418014
  83.4855290   7.2511968  69.1504133  83.6147671   7.5046447  70.0643545
  82.8052741   7.8439676  68.8308788  87.6554777  17.9209218  65.2494607
  87.5778807  18.8717043  65.3283088  87.0516421  17.5755090  65.9069533
  90.1472007   5.0937083  77.9055974  89.3705341   5.6531003  77.8958839
  90.7862570   5.5793866  78.4270844  88.4018379   7.9022537  77.4673941
  89.1433064   8.4407581  77.1908765  87.6955365   8.5288825  77.6245493
  93.8773719  10.0451677  76.0646102  94.2857075   9.6034088  75.3200735
  93.1550981   9.4704305  76.3180295  90.2304789   4.9824284  73.4379659
  91.0765984   5.4063697  73.5814308  90.1703427   4.3257908  74.1318223
  94.2002534  10.6052868  69.8198391  93.5711396  10.7698582  69.1174459
  93.8128196  11.0194477  70.5909355  98.0791766  11.5407306  67.1742755
  97.3942804  11.9206207  66.6239788  98.1635615  12.1502632  67.9074703
  95.3342697   9.1867265  73.7738099  95.5459592   9.8299025  73.0972480
  95.2872445   8.3529581  73.3060029  89.7530496  10.3427276  67.0848476
  90.2168841  10.6214979  66.2953099  89.4887294   9.4410720  66.9021567
  86.6454577   9.8898757  70.0228240  87.2155934  10.3186026  69.3845724
  87.2362689   9.6081342  70.7212425  88.6899382   6.4650428  63.8938042
  89.3923425   6.9171472  64.3611968  88.3580010   5.8234247  64.5217935
  87.1379743   5.0562185  78.2689251  86.5078404   5.7378466  78.5024648
  87.0315831   4.9445266  77.3242389  82.4324716   4.7233981  69.1955175
  81.6423770   4.9791509  68.7195286  82.9235963   5.5382319  69.3007216
  96.4488525  12.0639220  71.9460456  97.2705969  11.6619407  71.6643138
  96.4450928  11.9607454  72.8976572  84.3839461   5.0878560  66.1538652
  83.5870624   5.1997254  66.6722148  84.1565053   5.4265212  65.2879542
  90.2145129  11.6123263  74.1021166  90.2789561  12.0743671  74.9379338
  89.5056053  10.9820628  74.2303476  80.7162419   4.9764471  71.6270166
  80.9670457   5.8611481  71.8927742  81.2521967   4.7969073  70.8545258
  89.9293146  13.2791371  63.9700147  89.7938821  14.1242907  64.3984995
  90.4702959  13.4810648  63.2066081  83.3822544  10.7966809  64.5428072
  83.8947064  11.5910059  64.6933637  84.0345256  10.0993099  64.4761673
  85.1917428  13.9132565  66.6250825  85.3684057  14.8350530  66.4371809
  85.9874262  13.5990984  67.0545205  84.4769785   5.9597197  76.5012988
  84.3623300   5.0582454  76.8020087  83.6214303   6.2060894  76.1497805
  91.5561623  13.9014937  78.1000489  91.1125477  13.1151316  77.7821393
  92.2178836  14.0894088  77.4344380  86.3148744  15.4310739  72.6261167
  86.8656169  15.3027802  71.8538161  85.4760220  15.7305628  72.2756060
  93.6542861  14.1817737  76.1281890  93.6361336  15.0026618  75.6362159
  94.5762781  14.0571813  76.3532031  90.1115915  11.6961867  76.9705399
  90.6444252  10.9350155  76.7404706  89.5829996  11.4035519  77.7129553
  81.3471460   9.1255463  65.3187642  82.1846682   9.5352472  65.1021350
  81.5249728   8.1854905  65.2887836  93.2435893   6.7930544  61.0071475
  92.7282516   7.5635148  61.2459863  92.9713201   6.1195680  61.6304537
  98.2170167   9.5462898  62.9424649  97.4399609   9.2074058  62.4979811
  98.8961648   9.5515522  62.2679614  91.4768628  10.8247859  64.4824211
  90.9489989  10.0900619  64.1697448  90.9756130  11.6022536  64.2364179
  96.4561474   9.0196880  69.5991257  95.7985148   9.7096141  69.6871385
  97.2601873   9.4093312  69.9425243  95.2666932   7.3741252  67.6495199
  95.7798814   8.0071244  68.1516908  95.9168156   6.7742448  67.2838559
  86.5356942   3.5171987  60.8626707  85.6994255   3.8546673  61.1835982
  86.3961712   3.3820966  59.9253844  89.6221228   8.6428070  57.4859184
  88.7148290   8.4117323  57.6850333  90.1192260   7.8465689  57.6733165
  92.5289307  17.3525577  60.4055870  91.8551005  17.6557273  61.0140828
  92.9155129  18.1554657  60.0561327  91.7447763   4.8490708  69.8953539
  90.8270325   5.0705655  69.7375227  92.1607907   4.9237018  69.0365246
  92.5282811   6.2482124  65.0256219  93.2754630   6.7603521  64.7163341
  92.7974401   5.9266176  65.8860613  90.8009461   8.7440664  62.0083174
  89.8920680   8.4599697  62.1055643  90.8304545   9.1639743  61.1486481
  96.0328729  12.3547254  65.7774341  95.5791056  11.5138164  65.8339532
  95.4022695  12.9908652  66.1149121  94.4761668  14.1923751  66.7124159
  94.7684642  14.7528808  65.9936525  94.9860288  14.4852312  67.4677318
  81.3697632   6.4646179  65.9898376  81.1722031   5.8715539  65.2649442
  80.8144296   6.1598389  66.7074315  89.3494355   6.3569285  68.1092969
  89.4042965   5.4043121  68.0335446  88.5385557   6.5128724  68.5934267
  90.4985549  10.2849408  59.3471252  90.0604979   9.5685267  58.8876890
  91.2395990  10.5125523  58.7856344  87.2886715   4.9746345  65.8683348
  86.4754581   5.2740515  66.2748540  87.7845709   4.5802034  66.5857830
  89.4395293  14.9704102  67.8017613  89.3971472  15.1964948  66.8726145
  90.3557992  14.7367476  67.9503414  92.8860927   5.4388169  74.6998242
  93.2410315   5.6659642  75.5592708  93.5333058   5.7706546  74.0775497
  98.6158664   8.5606605  65.4047571  98.4776562   8.7508201  64.4768760
  98.2594883   9.3225988  65.8615622  98.6428043  10.6283132  70.4158842
  99.0764550  10.5358421  71.2641896  99.3559624  10.6040633  69.7778858
  87.5561094  11.8467131  67.5979575  88.3501692  11.3517451  67.3962150
  86.8452786  11.3184994  67.2347281  92.3755938  14.2285226  71.9491943
  92.4292961  14.7976163  72.7169659  91.5070720  14.3987111  71.5845980
  83.8643857   5.9910212  63.6739328  82.9341445   5.9294668  63.8909290
  83.9601329   5.4686165  62.8775969  83.7829406   2.5165025  66.2617570
  84.0436224   3.4310358  66.1526730  84.6046579   2.0489468  66.4114182
  85.2554332   3.9302782  73.4316394  85.9277385   3.7220145  72.7829043
  84.4284118   3.7324868  72.9921626  99.5043593  10.6706833  72.9491728
  99.6979483  11.5752643  73.1951003  99.4044211  10.2114252  73.7830313
  94.5658702  10.8213576  78.5232608  94.4144208  10.5924127  77.6062692
  94.5563381  11.7784177  78.5363953  91.3344038   8.3945488  73.5078875
  92.2636098   8.5456648  73.3347842  90.9135068   8.4829509  72.6527521
  90.1332370  12.4196153  71.2777412  89.9943456  12.0514937  72.1503350
  89.3446966  12.9343792  71.1061370  90.7280522  17.5205249  62.6202949
  90.9032277  17.0493292  63.4348572  90.0413310  18.1471015  62.8484210
  91.6837585  11.7977755  68.6666250  91.3487418  11.7578525  69.5623900
  91.1841531  11.1322471  68.1936660  85.6581829   7.2045385  74.1918831
  85.5201627   6.4725624  74.7930370  86.5686752   7.1154285  73.9103019
  94.6196777   9.1433790  58.9403310  94.0025947   8.4180618  58.8436362
  94.1513265   9.9043150  58.5970384  88.2864130   6.9165345  73.6802511
  88.9963748   6.2758537  73.6389129  88.2433438   7.1678240  74.6028692
  96.2750908  13.8532698  76.6009090  96.2163454  13.1691918  75.9339673
  96.6770427  14.5951688  76.1489716  86.9993064   3.9030563  75.4998150
  86.4630421   3.4521301  76.1519747  86.4109772   4.0376471  74.7568615
  85.2941607  20.6694612  69.3942809  85.5338205  21.3013136  70.0721828
  84.4510804  20.3182652  69.6808168  86.4095323   3.3619214  58.0624614
  85.5324789   3.2408015  57.6986861  86.8853076   2.5705292  57.8103503
  96.2768316  11.8172282  74.8323070  95.3895094  11.4798204  74.9549469
  96.8466867  11.0855313  75.0691835  77.9297463   8.1496374  68.1566121
  78.6168503   7.8358104  67.5687137  77.7745591   9.0537738  67.8833373
  82.7332185   3.0386570  72.5851145  82.6490374   2.4312240  71.8501555
  81.9114891   3.5295589  72.5860641  89.8069469  16.4773734  71.7984313
  89.7339640  17.2828706  72.3103618  89.3646862  16.6765700  70.9732334
  89.5959249  15.7145504  65.3087135  88.8126770  16.2567185  65.4025359
  90.2951994  16.2319484  65.7081376  92.2668152  16.3760568  73.9542472
  92.9796125  17.0108033  73.8818373  91.7758181  16.4724434  73.1382474
  93.9885679  10.2811821  65.5259763  93.0541958  10.4013284  65.3564468
  94.1662348   9.3784288  65.2619773  87.3180066  14.1255012  74.7748043
  88.0189525  14.7591495  74.9277437  86.8475181  14.4669743  74.0143682
  95.4434462  12.4672962  63.0595950  95.7194306  12.3529556  63.9689824
  94.5738961  12.0690446  63.0208123  95.1181352   6.6799619  72.6000593
  94.4652802   6.9275527  71.9453046  95.4961732   5.8663757  72.2663070
  92.0788526  16.7159312  66.7028763  92.2610920  15.8980968  67.1656516
  92.9021512  16.9327005  66.2653653  92.4130691  15.6427498  63.9643812
  92.9418458  15.1319952  63.3513974  92.6758911  15.3270028  64.8289345
  91.1668925   7.4219430  79.0866630  90.4909562   7.3213560  79.7569005
  91.9896559   7.2658644  79.5502627  82.9147784  13.6591367  71.7079145
  83.5001221  12.9135055  71.8407049  82.7172623  13.9695324  72.5915809
  85.7686439  16.6942614  66.7241588  85.0996815  17.1788742  66.2405628
  85.6299309  16.9411835  67.6384966  77.5065439   6.2296967  70.4283588
  77.5449538   5.6960558  71.2220706  77.0005732   5.7032173  69.8094566
  89.9091708  18.7286358  73.3224246  90.4610016  18.8917979  74.0873331
  90.2497901  19.3190796  72.6504271  84.3608474   3.1484640  77.5719165
  84.9880512   2.7661717  78.1856689  83.5036392   2.9298842  77.9374857
  94.7602582  13.5547615  79.1772900  95.3042486  14.1677574  78.6827855
  94.1789427  14.1127194  79.6939913  81.1374016   4.9561069  63.5037520
  81.4327457   4.0471748  63.4504573  80.2362052   4.9348809  63.1818522
  93.0460095  16.6768333  70.3087928  92.9211235  15.8758073  69.7998874
  93.7039186  17.1714527  69.8201898  84.6668263   3.0317066  69.4865068
  83.9454849   3.6453034  69.3472542  85.4561519   3.5674831  69.4081714
  95.1095004  14.4777353  71.9367478  94.1625339  14.3582705  71.8645805
  95.4577777  13.5899851  72.0193740  82.8661858   2.6375167  63.6276845
  82.5374564   1.7572546  63.4451951  83.2201229   2.5822836  64.5153234
  92.1141437  14.2730070  68.1371830  91.9666399  13.3446777  68.3179400
  92.9394930  14.2950160  67.6528906  85.9803681   2.9248137  63.9952323
  86.3199754   3.4534058  63.2730931  86.4275802   3.2628543  64.7710889
  95.7175559  15.0958628  69.2236703  96.6422106  14.8901490  69.0861154
  95.5490862  14.8475030  70.1326045  86.8502173   5.0853620  69.7074692
  86.7046753   5.3993924  70.5998974  86.3727376   5.7038521  69.1545591
  95.5070875  15.6144296  64.5798795  95.6807752  15.0490718  63.8272647
  95.9999766  16.4145191  64.3978285  81.3247835   7.6258965  72.6462353
  80.7801303   8.4018773  72.7782628  82.2027185   7.9729769  72.4881475
  96.4946047  14.9311060  61.6795693  97.1896952  15.5517753  61.8983008
  96.8369198  14.0806411  61.9548071  82.1113857   6.7528861  75.5392510
  81.3695593   6.9011497  76.1257141  81.7906601   7.0137127  74.6759260
  98.3937470  12.3810766  63.2083024  98.9188795  12.7198038  62.4832344
  98.3059823  11.4457781  63.0246158  90.0557519  16.2944839  75.3372900
  90.3644646  16.0493986  76.2095600  90.8533001  16.4991478  74.8491771
  90.0778131  18.4482749  67.5678277  89.6383122  17.9559128  68.2611134
  90.8286248  17.9055717  67.3270352  82.5570470  14.6394290  67.5702905
  83.3828490  14.3398062  67.1901548  82.2064522  13.8701912  68.0192694
  87.5252003  13.9920758  69.6400579  86.9032013  13.3291463  69.3402806
  88.1956870  14.0181890  68.9574226  80.7579075  12.5580616  68.5291839
  79.9210984  12.1302791  68.3475840  80.7302721  12.7513060  69.4662630
  98.0831377  13.0143669  78.5134222  97.2926920  12.9967808  77.9738721
  97.8464731  13.5531963  79.2683258  98.2029252   9.8636136  75.8266950
  98.2527257   9.6986143  76.7682473  98.0943175   8.9963395  75.4364831
  87.0865510  12.5424681  63.1159039  87.2353631  13.2260146  62.4625712
  87.8931954  12.5229772  63.6308495  99.7047448  12.2833077  76.0708972
  99.4132257  12.6463058  76.9072433  99.0919580  11.5700086  75.8922304
 100.9043131   9.8485957  68.5911542 101.7390022  10.2875761  68.7549102
 101.0402260   9.3724610  67.7719788  97.9534637   7.4065692  74.5389030
  98.4288758   7.5993338  73.7307881  97.0300202   7.4624878  74.2932413
  84.8418143   8.5689859  64.1220108  84.5964185   7.6652189  64.3200318
  85.0114058   8.5707010  63.1799586  84.1113791   4.3018217  61.6206269
  83.4183036   4.3762572  60.9646305  83.8665543   3.5378560  62.1427786
  90.5860916  15.0372812  60.5870787  90.0134883  15.6562999  60.1341258
  91.1593709  15.5872174  61.1210708  93.8058176  15.3209962  61.7179369
  94.7388849  15.2555524  61.9212244  93.7181388  16.1566229  61.2593901
  96.4346192  14.6375832  58.6783316  96.3559824  14.3035696  59.5719074
  97.2555859  15.1297600  58.6774789  90.9707714   6.3733625  57.9286839
  91.9166819   6.2439833  57.9975257  90.5921959   5.6348287  58.4056267
  90.8546407  10.4251371  79.3887496  91.7749416  10.6029970  79.5827543
  90.8195990   9.4807416  79.2367195  89.1550631   4.2983601  57.8641724
  88.2482087   4.0016714  57.9404438  89.4326612   4.0013419  56.9976010
  80.0728572   5.6189964  68.3140771  79.7531356   4.7655273  68.0215145
  79.5262000   5.8338543  69.0698738  83.8508479   8.3352405  72.0310277
  84.0694489   9.2669513  72.0498311  84.2634253   7.9760380  72.8165081
  88.7236345   3.9085611  81.4213026  88.6233072   4.8579968  81.3525117
  88.5057887   3.5803850  80.5489096  79.9416832   9.2392876  70.2833892
  79.2480303   8.8246829  69.7703847  80.6889823   9.2813412  69.6867311
  88.5867615   7.3382750  80.2378088  88.1034696   8.1383110  80.4441977
  88.6728554   7.3490695  79.2845532  81.8553574   9.1711130  68.1599907
  81.8324262   9.2698817  67.2081790  82.1654211  10.0176281  68.4817073
  84.5140952  11.2287285  72.2746522  85.4684206  11.1971227  72.2076453
  84.3153476  10.7677908  73.0896747  85.1040334   9.7988401  74.8417319
  85.9233223  10.2932479  74.8652156  85.3777142   8.8820369  74.8134887
  82.8691181  16.7706904  69.2916719  82.7345649  16.0107305  68.7254717
  82.4523243  17.4947804  68.8245508  94.0050144  11.9543828  58.2993295
  94.7085994  12.1593830  58.9150950  93.2812793  12.5220590  58.5642378
  94.8347954   7.7053689  64.4195565  94.7783156   8.1622240  63.5803197
  95.3876297   6.9444374  64.2418408  86.0260307  17.6676221  69.5035162
  85.9092691  18.6121654  69.4013852  85.2052753  17.3649783  69.8920961
  95.9136841  12.3926357  60.3491755  96.7482445  11.9607555  60.1669230
  95.7521184  12.2208371  61.2768649  95.5682734   8.8958470  61.7148094
  95.5131537   8.7302742  60.7736538  94.9428789   9.6034503  61.8710284
  80.3575249   4.1326535  75.5409516  81.0034112   3.6225489  76.0296741
  80.1492400   4.8695216  76.1152941  92.8828641  11.2007382  81.0401657
  93.7519800  11.3748034  80.6788292  92.4035392  12.0201799  80.9177386
  87.0514821  18.3204483  72.7191090  87.9542068  18.3528093  73.0357585
  86.8252191  17.3904934  72.7337426  88.8068423  17.0735470  69.3801169
  87.8564054  17.0737331  69.2665541  89.1100909  16.3268204  68.8637204
 104.5421117  22.9096008  70.4446931 105.1799527  22.7902755  69.7410272
 104.4241959  23.8576852  70.5034884 101.3510823  22.8623436  70.3808456
 101.0129334  22.7464501  69.4928991 102.2200591  22.4614601  70.3609462
  97.2097639  24.7158913  66.3705347  96.6462504  24.6248850  65.6021635
  97.0950034  23.8958817  66.8507840 101.8330606  24.0158288  76.3394662
 101.8219247  23.6211086  75.4675165 101.9951245  23.2824361  76.9328433
  94.7562070  26.2110104  69.2089568  95.5483362  25.8700929  68.7935867
  94.9958721  26.3205079  70.1291721 102.7897197  28.3829880  61.6819812
 102.1385177  28.9683961  61.2953826 103.5841560  28.9136075  61.7414849
  96.7152824  25.4719017  62.0806946  97.4883700  24.9248005  61.9419822
  97.0678223  26.3363267  62.2921408  98.5537867  26.7995400  75.2873846
  98.2627733  27.7041031  75.1720512  99.1894851  26.8411927  76.0017915
  99.4794074  24.1772248  71.8775205 100.0757646  23.9528271  71.1632168
  99.5369045  23.4356994  72.4800653  99.0519102  21.6311684  59.7125396
  99.3044623  21.1093205  58.9508859  98.1143661  21.4677829  59.8152080
 104.0962385  20.6347462  67.5200140 104.8825474  20.2166885  67.1690557
 104.3601089  21.5393554  67.6881788 104.2672462  26.0720312  62.2188796
 103.6318295  26.1454939  62.9309701 103.9369869  26.6613911  61.5407876
 109.4970812  20.5722695  68.4233118 110.2295984  20.0021912  68.6570948
 108.7410168  20.1844296  68.8639624  98.7715391  23.5339790  61.9149771
  98.6551649  22.8584693  62.5830856  98.8817651  23.0472163  61.0981924
 101.1146932  22.9949937  65.6196460 100.7505139  22.4680558  66.3309382
 101.9714048  22.6048406  65.4462946 107.0196233  14.2844269  72.8827727
 106.6879557  15.1539680  72.6588942 106.4241846  13.9680553  73.5621757
 100.7552419  18.0239836  60.6157809 100.9226821  18.8920073  60.9828280
 100.5649588  18.1867118  59.6919098 103.5127752  26.4856815  72.2823639
 103.2128475  27.3881854  72.1739447 103.1678812  26.2188998  73.1344792
  96.9640234  22.9370612  68.3160344  96.0390730  22.8046826  68.5238036
  97.2124647  23.7164831  68.8130286 106.9124896  19.0039355  69.9621077
 106.0041773  18.9354764  69.6679838 106.8612492  19.4811300  70.7902902
 100.7341640  20.4797494  61.6004476 100.6141265  20.9254545  62.4389956
 100.0394228  20.8282811  61.0418014  94.3249045  22.5803886  69.1504133
  94.4541426  22.8338365  70.0643545  93.6446496  23.1731594  68.8308788
  98.4948532  33.2501136  65.2494607  98.4172562  34.2008961  65.3283088
  97.8910175  32.9047008  65.9069533 100.9865762  20.4229001  77.9055974
 100.2099096  20.9822921  77.8958839 101.6256325  20.9085784  78.4270844
 108.7786542  17.2055794  71.7398951 108.1360922  17.4988327  71.0938745
 108.2741471  17.0908714  72.5452147 106.4326706  20.9518967  62.4284810
 107.3444562  21.1846354  62.2532507 105.9236353  21.5356011  61.8659888
  99.2412134  23.2314454  77.4673941  99.9826818  23.7699498  77.1908765
  98.5349119  23.8580743  77.6245493 104.7167474  25.3743595  76.0646102
 105.1250830  24.9326005  75.3200735 103.9944735  24.7996222  76.3180295
 101.0698544  20.3116202  73.4379659 101.9159739  20.7355615  73.5814308
 101.0097181  19.6549826  74.1318223 105.0396288  25.9344785  69.8198391
 104.4105151  26.0990500  69.1174459 104.6521950  26.3486395  70.5909355
 108.9185520  26.8699223  67.1742755 108.2336558  27.2498125  66.6239788
 109.0029369  27.4794550  67.9074703 104.2197989  17.9720570  75.0960833
 103.9758921  18.7262630  74.5595109 104.4957919  18.3505918  75.9308080
 106.1736452  24.5159182  73.7738099 106.3853347  25.1590942  73.0972480
 106.1266200  23.6821499  73.3060029 103.7762681  17.1277003  70.6774671
 102.9147160  17.4258257  70.9691408 103.8025115  17.3447402  69.7455703
 100.5924250  25.6719194  67.0848476 101.0562596  25.9506897  66.2953099
 100.3281048  24.7702638  66.9021567  97.4848331  25.2190675  70.0228240
  98.0549688  25.6477943  69.3845724  98.0756443  24.9373260  70.7212425
  99.5293136  21.7942346  63.8938042 100.2317179  22.2463390  64.3611968
  99.1973765  21.1526165  64.5217935  97.9773498  20.3854103  78.2689251
  97.3472158  21.0670383  78.5024648  97.8709586  20.2737184  77.3242389
  93.2718470  20.0525899  69.1955175  92.4817524  20.3083427  68.7195286
  93.7629717  20.8674236  69.3007216 107.2882280  27.3931138  71.9460456
 108.1099723  26.9911325  71.6643138 107.2844683  27.2899372  72.8976572
  95.2233215  20.4170478  66.1538652  94.4264379  20.5289172  66.6722148
  94.9958808  20.7557130  65.2879542 101.0538883  26.9415181  74.1021166
 101.1183316  27.4035588  74.9379338 100.3449807  26.3112546  74.2303476
  91.5556173  20.3056389  71.6270166  91.8064212  21.1903399  71.8927742
  92.0915721  20.1260991  70.8545258 115.3788273  23.7369886  68.2945427
 114.6251981  23.1677284  68.1389432 115.5135814  23.7032551  69.2416062
 100.7686901  28.6083289  63.9700147 100.6332576  29.4534824  64.3984995
 101.3096713  28.8102566  63.2066081  97.2554240  14.6874868  80.6314502
  96.8621186  14.1341067  81.3062146  98.0720381  14.9985447  81.0221020
  94.2216298  26.1258727  64.5428072  94.7340819  26.9201977  64.6933637
  94.8739011  25.4285017  64.4761673  96.0311183  29.2424483  66.6250825
  96.2077811  30.1642448  66.4371809  96.8268016  28.9282902  67.0545205
 100.1722201  16.1032747  78.2234759 100.9131915  16.7039901  78.1439221
 100.4040124  15.3610385  77.6652801  95.3163539  21.2889115  76.5012988
  95.2017055  20.3874372  76.8020087  94.4608057  21.5352811  76.1497805
 102.3955377  29.2306855  78.1000489 101.9519231  28.4443234  77.7821393
 103.0572591  29.4186006  77.4344380  97.1542498  30.7602657  72.6261167
  97.7049923  30.6319720  71.8538161  96.3153974  31.0597546  72.2756060
 104.4936615  29.5109655  76.1281890 104.4755091  30.3318536  75.6362159
 105.4156535  29.3863730  76.3532031 100.9509669  27.0253784  76.9705399
 101.4838006  26.2642073  76.7404706 100.4223750  26.7327436  77.7129553
 104.1179364  12.1313850  72.4999040 103.7743634  13.0215492  72.4238151
 104.4858327  11.9415508  71.6368625  92.1865215  24.4547381  65.3187642
  93.0240437  24.8644389  65.1021350  92.3643483  23.5146823  65.2887836
 104.0829647  22.1222462  61.0071475 103.5676270  22.8927066  61.2459863
 103.8106956  21.4487598  61.6304537 101.6676758  16.9672162  66.0656714
 100.8118354  16.5779013  65.8862352 102.0803710  17.0464123  65.2056499
 103.1975905  14.5018506  70.4648273 102.6940700  14.4648641  69.6516079
 103.4906512  15.4111248  70.5244930  99.4418791  14.5857235  69.4714455
 100.3071787  14.3900044  69.1120345  99.5096300  14.3567587  70.3983812
 109.0563921  24.8754816  62.9424649 108.2793364  24.5365976  62.4979811
 109.7355402  24.8807439  62.2679614 103.8715950  19.9949554  62.8331257
 103.5666086  20.3095703  63.6841400 104.8246392  20.0730974  62.8758590
 102.3162382  26.1539777  64.4824211 101.7883744  25.4192537  64.1697448
 101.8149885  26.9314453  64.2364179 107.2955228  24.3488797  69.5991257
 106.6378903  25.0388059  69.6871385 108.0995627  24.7385229  69.9425243
  97.0481110  16.8159443  66.8430822  97.6224862  16.5934625  66.1104015
  97.6352092  16.8848138  67.5959423 106.1060687  22.7033170  67.6495199
 106.6192569  23.3363162  68.1516908 106.7561911  22.1034366  67.2838559
  97.3750697  18.8463904  60.8626707  96.5388009  19.1838591  61.1835982
  97.2355466  18.7112884  59.9253844  99.3503777  13.6900692  65.5705891
  98.6968190  13.3749709  64.9462506  99.3084252  13.0676433  66.2965714
 100.4614982  23.9719987  57.4859184  99.5542044  23.7409241  57.6850333
 100.9586014  23.1757606  57.6733165 103.3683061  32.6817494  60.4055870
 102.6944760  32.9849191  61.0140828 103.7548883  33.4846575  60.0561327
 102.5841518  20.1782626  69.8953539 101.6664079  20.3997573  69.7375227
 103.0001661  20.2528936  69.0365246 103.3676566  21.5774041  65.0256219
 104.1148384  22.0895439  64.7163341 103.6368155  21.2558094  65.8860613
 101.6403216  24.0732582  62.0083174 100.7314435  23.7891615  62.1055643
 101.6698299  24.4931661  61.1486481 106.8722483  27.6839172  65.7774341
 106.4184810  26.8430081  65.8339532 106.2416450  28.3200570  66.1149121
 105.8155403  18.6131158  67.0075009 105.0778159  18.1008544  67.3385251
 106.0682176  18.1731539  66.1958286 105.3155422  29.5215668  66.7124159
 105.6078397  30.0820725  65.9936525 105.8254043  29.8144229  67.4677318
 105.9167030  11.3907410  67.6016778 106.2225907  10.5304773  67.3142693
 106.6419635  11.9825030  67.4015772  92.2091386  21.7938096  65.9898376
  92.0115786  21.2007457  65.2649442  91.6538050  21.4890306  66.7074315
 100.1888110  21.6861203  68.1092969 100.2436720  20.7335039  68.0335446
  99.3779312  21.8420642  68.5934267 101.3379303  25.6141326  59.3471252
 100.8998733  24.8977185  58.8876890 102.0789744  25.8417441  58.7856344
  98.1280470  20.3038262  65.8683348  97.3148335  20.6032433  66.2748540
  98.6239464  19.9093951  66.5857830 100.2789048  30.2996019  67.8017613
 100.2365226  30.5256866  66.8726145 101.1951746  30.0659394  67.9503414
 103.7254681  20.7680087  74.6998242 104.0804069  20.9951560  75.5592708
 104.3726813  21.0998464  74.0775497 109.4552418  23.8898523  65.4047571
 109.3170317  24.0800119  64.4768760 109.0988637  24.6517906  65.8615622
  97.6194544  17.8756618  71.4844583  98.2593924  17.7345377  70.7867546
  96.7872075  17.5891131  71.1083185 109.4821798  25.9575050  70.4158842
 109.9158305  25.8650339  71.2641896 110.1953379  25.9332550  69.7778858
  98.3954848  27.1759048  67.5979575  99.1895447  26.6809368  67.3962150
  97.6846541  26.6476911  67.2347281 103.2149693  29.5577144  71.9491943
 103.2686715  30.1268080  72.7169659 102.3464474  29.7279029  71.5845980
  94.7037612  21.3202130  63.6739328  93.7735200  21.2586586  63.8909290
  94.7995084  20.7978083  62.8775969  94.6223161  17.8456943  66.2617570
  94.8829978  18.7602276  66.1526730  95.4440333  17.3781385  66.4114182
  96.0948086  19.2594700  73.4316394  96.7671140  19.0512062  72.7829043
  95.2677873  19.0616786  72.9921626 110.3437347  25.9998750  72.9491728
 110.5373238  26.9044561  73.1951003 110.2437966  25.5406170  73.7830313
 101.9973658  15.8856641  75.4482055 101.3501573  16.5846591  75.3546531
 102.7674674  16.3192785  75.8158303 105.4052456  26.1505493  78.5232608
 105.2537963  25.9216045  77.6062692 105.3957136  27.1076095  78.5363953
 102.1737793  23.7237406  73.5078875 103.1029853  23.8748566  73.3347842
 101.7528823  23.8121427  72.6527521 100.9726124  27.7488070  71.2777412
 100.8337210  27.3806855  72.1503350 100.1840721  28.2635710  71.1061370
 101.5674276  32.8497167  62.6202949 101.7426032  32.3785210  63.4348572
 100.8807064  33.4762933  62.8484210 102.5231339  27.1269673  68.6666250
 102.1881172  27.0870443  69.5623900 102.0235285  26.4614389  68.1936660
  96.4975583  22.5337303  74.1918831  96.3595381  21.8017542  74.7930370
  97.4080507  22.4446203  73.9103019 105.4590531  24.4725707  58.9403310
 104.8419702  23.7472536  58.8436362 104.9907020  25.2335068  58.5970384
  99.1257884  22.2457262  73.6802511  99.8357503  21.6050455  73.6389129
  99.0827192  22.4970157  74.6028692 107.1144663  29.1824616  76.6009090
 107.0557209  28.4983836  75.9339673 107.5164181  29.9243606  76.1489716
  97.8386818  19.2322480  75.4998150  97.3024175  18.7813219  76.1519747
  97.2503527  19.3668389  74.7568615  96.1335362  35.9986530  69.3942809
  96.3731960  36.6305054  70.0721828  95.2904558  35.6474570  69.6808168
  97.2489077  18.6911132  58.0624614  96.3718543  18.5699932  57.6986861
  97.7246830  17.8997210  57.8103503 107.1162070  27.1464200  74.8323070
 106.2288849  26.8090121  74.9549469 107.6860621  26.4147231  75.0691835
  88.7691217  23.4788291  68.1566121  89.4562257  23.1650021  67.5687137
  88.6139346  24.3829656  67.8833373  93.5725939  18.3678488  72.5851145
  93.4884128  17.7604158  71.8501555  92.7508646  18.8587506  72.5860641
 100.6463223  31.8065652  71.7984313 100.5733395  32.6120624  72.3103618
 100.2040617  32.0057618  70.9732334 100.4353003  31.0437422  65.3087135
  99.6520525  31.5859102  65.4025359 101.1345748  31.5611402  65.7081376
 103.7449653  16.8532052  67.9521340 104.2418353  16.1002014  67.6322410
 102.9736635  16.8896368  67.3864549 111.5979411  22.5572417  69.5939631
 111.5869287  23.4397132  69.2233565 110.7296790  22.2043968  69.3994169
 103.1061907  31.7052486  73.9542472 103.8189879  32.3399951  73.8818373
 102.6151936  31.8016352  73.1382474 104.8279434  25.6103739  65.5259763
 103.8935713  25.7305201  65.3564468 105.0056102  24.7076205  65.2619773
 100.3284622  18.9949434  67.6793025  99.9582409  18.4420475  68.3673930
 100.8243714  18.3907568  67.1268025 108.2151985  21.4521058  66.0609798
 108.6812437  22.2849050  65.9870100 108.6659486  20.9866040  66.7655056
  98.1573820  29.4546930  74.7748043  98.8583280  30.0883412  74.9277437
  97.6868935  29.7961661  74.0143682 106.2828216  27.7964879  63.0595950
 106.5588060  27.6821474  63.9689824 105.4132715  27.3982364  63.0208123
 106.1868648  13.8201645  70.1000699 105.2731728  14.0505872  70.2682906
 106.6161749  13.9040089  70.9514731 105.9575106  22.0091537  72.6000593
 105.3046557  22.2567444  71.9453046 106.3355486  21.1955675  72.2663070
 102.9182280  32.0451230  66.7028763 103.1004675  31.2272886  67.1656516
 103.7415266  32.2618922  66.2653653 103.2524446  30.9719415  63.9643812
 103.7812212  30.4611870  63.3513974 103.5152665  30.6561945  64.8289345
 102.0062679  22.7511348  79.0866630 101.3303316  22.6505477  79.7569005
 102.8290313  22.5950562  79.5502627  93.7541539  28.9883285  71.7079145
  94.3394975  28.2426972  71.8407049  93.5566377  29.2987241  72.5915809
  96.6080194  32.0234532  66.7241588  95.9390569  32.5080660  66.2405628
  96.4693063  32.2703752  67.6384966  88.3459193  21.5588885  70.4283588
  88.3843293  21.0252475  71.2220706  87.8399486  21.0324090  69.8094566
 100.7485462  34.0578275  73.3224246 101.3003770  34.2209897  74.0873331
 101.0891656  34.6482713  72.6504271  95.7249956  16.4053425  73.9246131
  95.7891282  17.2668256  73.5123528  95.6617076  15.7927427  73.1918489
  95.2002228  18.4776558  77.5719165  95.8274267  18.0953635  78.1856689
  94.3430147  18.2590760  77.9374857 105.5996337  28.8839533  79.1772900
 106.1436241  29.4969491  78.6827855 105.0183182  29.4419111  79.6939913
  91.9767771  20.2852987  63.5037520  92.2721212  19.3763665  63.4504573
  91.0755807  20.2640726  63.1818522 103.8853850  32.0060251  70.3087928
 103.7604989  31.2049991  69.7998874 104.5432941  32.5006444  69.8201898
  95.5062018  18.3608983  69.4865068  94.7848604  18.9744951  69.3472542
  96.2955274  18.8966748  69.4081714 105.9488758  29.8069271  71.9367478
 105.0019094  29.6874622  71.8645805 106.2971531  28.9191769  72.0193740
  98.3088331  15.6963410  75.7605720  98.8322733  15.9425707  76.5232029
  98.0900665  16.5283445  75.3408857  93.7055612  17.9667085  63.6276845
  93.3768319  17.0864464  63.4451951  94.0594983  17.9114753  64.5153234
 102.9535191  29.6021987  68.1371830 102.8060154  28.6738695  68.3179400
 103.7788685  29.6242078  67.6528906  96.8197436  18.2540054  63.9952323
  97.1593508  18.7825976  63.2730931  97.2669556  18.5920461  64.7710889
 106.5569313  30.4250546  69.2236703 107.4815861  30.2193407  69.0861154
 106.3884617  30.1766947  70.1326045  99.5140876  16.6377105  73.4455391
  99.1737697  15.8384918  73.8476071  98.8079883  16.9378816  72.8732224
 100.1657348  13.7226418  71.8982714 100.9883418  13.2486896  71.7761604
 100.4095412  14.5016901  72.3981400  98.8065583  16.7514676  62.1945615
  99.5273945  17.1295929  61.6909332  98.1830887  17.4703553  62.2980593
 102.9496706  17.4559825  63.1303948 103.1660320  18.3384463  62.8292776
 102.4690773  17.0646038  62.4009590  97.6895927  20.4145538  69.7074692
  97.5440508  20.7285841  70.5998974  97.2121131  21.0330438  69.1545591
  99.5492310  17.4048086  69.7555582  99.5353879  16.5089179  69.4187880
 100.2664738  17.4118750  70.3893868 101.4018441  17.8385426  71.8008709
 101.1436218  18.7602497  71.7993040 100.8703481  17.4415861  72.4909173
 106.3464629  30.9436213  64.5798795 106.5201507  30.3782636  63.8272647
 106.8393521  31.7437108  64.3978285  92.1641589  22.9550883  72.6462353
  91.6195057  23.7310691  72.7782628  93.0420939  23.3021687  72.4881475
  98.9529206  16.2862466  65.0243152  99.0745117  15.3579113  65.2234039
  98.6631248  16.3001152  64.1121467 101.8220396  13.9717377  68.1609872
 101.8442093  14.0356710  67.2061851 102.2388455  13.1321886  68.3550378
 112.2004021  23.7072636  66.1989094 112.6435167  22.9579962  65.8008218
 111.3230531  23.6982773  65.8162826 107.3339802  30.2602978  61.6795693
 108.0290706  30.8809671  61.8983008 107.6762952  29.4098329  61.9548071
  92.9507611  22.0820779  75.5392510  92.2089347  22.2303414  76.1257141
  92.6300355  22.3429044  74.6759260 109.2331225  27.7102683  63.2083024
 109.7582549  28.0489956  62.4832344 109.1453578  26.7749699  63.0246158
 100.8951274  31.6236757  75.3372900 101.2038400  31.3785904  76.2095600
 101.6926756  31.8283396  74.8491771 100.9171886  33.7774667  67.5678277
 100.4776876  33.2851045  68.2611134 101.6680003  33.2347634  67.3270352
  93.3964225  29.9686208  67.5702905  94.2222245  29.6689979  67.1901548
  93.0458277  29.1993830  68.0192694  98.3645758  29.3212676  69.6400579
  97.7425767  28.6583381  69.3402806  99.0350625  29.3473808  68.9574226
  91.5972830  27.8872534  68.5291839  90.7604738  27.4594708  68.3475840
  91.5696475  28.0804977  69.4662630  98.4370285  17.7994464  79.2333085
  98.4858441  18.6756587  78.8510854  98.9792800  17.2571857  78.6604728
 108.9225131  28.3435587  78.5134222 108.1320675  28.3259726  77.9738721
 108.6858486  28.8823881  79.2683258 109.0423006  25.1928053  75.8266950
 109.0921011  25.0278061  76.7682473 108.9336929  24.3255312  75.4364831
  97.9259265  27.8716599  63.1159039  98.0747385  28.5552064  62.4625712
  98.7325708  27.8521689  63.6308495 106.3326768  21.1758981  77.1426257
 107.2336631  21.0365446  76.8510255 106.4074743  21.3413436  78.0824434
 100.6669574  18.5525836  75.9879443  99.7972883  18.8459402  75.7162032
 100.9029054  19.1366281  76.7086707 110.5441203  27.6124995  76.0708972
 110.2526011  27.9754975  76.9072433 109.9313334  26.8992003  75.8922304
 111.7436885  25.1777875  68.5911542 112.5783777  25.6167679  68.7549102
 111.8796014  24.7016528  67.7719788 108.7928391  22.7357610  74.5389030
 109.2682513  22.9285256  73.7307881 107.8693957  22.7916795  74.2932413
  95.6811898  23.8981777  64.1220108  95.4357940  22.9944107  64.3200318
  95.8507812  23.8998927  63.1799586 103.3708608  14.7705453  73.5044864
 103.8890552  15.5066480  73.1791352 103.0163740  15.0769446  74.3391623
  94.9507545  19.6310134  61.6206269  94.2576790  19.7054489  60.9646305
  94.7059297  18.8670478  62.1427786 103.6221202  11.1905736  69.0245760
 103.9022956  10.5228925  69.6506187 104.4071809  11.3834831  68.5120424
 101.4254670  30.3664730  60.5870787 100.8528637  30.9854917  60.1341258
 101.9987464  30.9164091  61.1210708 107.4930060  19.6123370  72.7717335
 108.4447483  19.7121467  72.7929559 107.3233511  18.8201638  73.2815420
 105.5144440  16.6978953  72.9576736 104.9194372  16.9783966  72.2623225
 105.2294136  17.1872854  73.7293477 104.6451930  30.6501880  61.7179369
 105.5782603  30.5847441  61.9212244 104.5575143  31.4858147  61.2593901
 107.2739947  29.9667750  58.6783316 107.1953578  29.6327614  59.5719074
 108.0949614  30.4589518  58.6774789 109.9718138  22.8329489  71.8859635
 109.9394458  21.8945490  72.0719319 110.5818762  22.9113526  71.1525460
 101.8101469  21.7025542  57.9286839 102.7560574  21.5731750  57.9975257
 101.4315714  20.9640204  58.4056267 110.1212626  19.6240533  71.9317918
 109.6051675  18.8398989  71.7447847 111.0052575  19.2959249  72.0964438
 107.7823353  13.3681548  67.8913731 107.5848174  13.0596637  68.7757063
 108.3923059  14.0943187  68.0211661 115.7894688  23.8945496  71.0265672
 116.5198076  23.6330784  71.5873375 115.1801633  23.1574218  71.0667740
 113.8709985  22.0353359  71.6240123 113.1443149  21.9009324  71.0156615
 113.4557272  22.3430187  72.4296841 101.6940161  25.7543288  79.3887496
 102.6143171  25.9321887  79.5827543 101.6589744  24.8099334  79.2367195
  99.9944386  19.6275519  57.8641724  99.0875841  19.3308631  57.9404438
 100.2720367  19.3305337  56.9976010  90.9122326  20.9481882  68.3140771
  90.5925111  20.0947190  68.0215145  90.3655755  21.1630460  69.0698738
  94.6902234  23.6644323  72.0310277  94.9088244  24.5961431  72.0498311
  95.1028008  23.3052298  72.8165081 101.6106452  14.1712408  64.0185966
 100.8007180  13.8259493  64.3941212 102.2990869  13.8619952  64.6073577
 103.5397000  13.2490455  65.6410262 104.0928039  13.6685909  66.3000285
 103.7767086  12.3226203  65.6833218  99.5630099  19.2377529  81.4213026
  99.4626826  20.1871886  81.3525117  99.3451641  18.9095768  80.5489096
  98.7643171  16.4862454  58.0053703  99.6262335  16.8117352  58.2649521
  98.9493515  15.6993950  57.4926769  90.7810586  24.5684794  70.2833892
  90.0874058  24.1538746  69.7703847  91.5283577  24.6105330  69.6867311
 106.9175807  15.3590980  65.1488926 106.3374476  16.0175784  64.7666979
 106.6511740  14.5368325  64.7376344 105.3679373  14.7596038  67.3510247
 105.8679152  14.8712573  66.5424566 106.0114981  14.4557091  67.9911055
  99.4261369  22.6674668  80.2378088  98.9428451  23.4675028  80.4441977
  99.5122308  22.6782613  79.2845532  92.6947329  24.5003047  68.1599907
  92.6718017  24.5990735  67.2081790  93.0047965  25.3468198  68.4817073
  95.3534707  26.5579202  72.2746522  96.3077960  26.5263145  72.2076453
  95.1547230  26.0969826  73.0896747  95.9434089  25.1280318  74.8417319
  96.7626978  25.6224397  74.8652156  96.2170897  24.2112287  74.8134887
 105.7000685  17.5191071  64.2045275 104.8126540  17.8040721  63.9865469
 106.1154674  17.3584834  63.3572552 109.0515221  17.5437592  67.9199614
 109.8275611  18.0334044  68.1924231 108.3263355  17.9695646  68.3771483
 111.4887780  18.2565211  68.9773555 112.0832271  18.0160947  68.2666863
 111.5614364  17.5372342  69.6047091  93.7084936  32.0998822  69.2916719
  93.5739403  31.3399223  68.7254717  93.2916998  32.8239722  68.8245508
 104.8443899  27.2835745  58.2993295 105.5479749  27.4885748  58.9150950
 104.1206547  27.8512507  58.5642378 105.6741709  23.0345607  64.4195565
 105.6176910  23.4914158  63.5803197 106.2270051  22.2736291  64.2418408
 109.4846515  18.8235339  65.2445684 109.2283449  18.4231974  66.0753892
 108.8599383  19.5379133  65.1195824 113.7958853  21.5631412  67.7516976
 113.2358411  21.6324601  68.5248538 113.1902356  21.3872396  67.0316472
  96.8654061  32.9968139  69.5035162  96.7486446  33.9413571  69.4013852
  96.0446508  32.6941700  69.8920961 106.7530596  27.7218275  60.3491755
 107.5876200  27.2899473  60.1669230 106.5914939  27.5500288  61.2768649
 106.4076488  24.2250388  61.7148094 106.3525292  24.0594659  60.7736538
 105.7822543  24.9326421  61.8710284  91.1969003  19.4618452  75.5409516
  91.8427867  18.9517406  76.0296741  90.9886154  20.1987134  76.1152941
 103.7222395  26.5299300  81.0401657 104.5913555  26.7039952  80.6788292
 103.2429147  27.3493717  80.9177386  99.7172614  13.7258497  61.2933412
  99.7051283  14.6700337  61.4501683 100.6096035  13.5428642  60.9992874
  97.8908576  33.6496401  72.7191090  98.7935822  33.6820011  73.0357585
  97.6645946  32.7196852  72.7337426  99.6462178  32.4027387  69.3801169
  98.6957809  32.4029249  69.2665541  99.9494664  31.6560122  68.8637204
 103.5324733  10.3201274  65.5479349 102.7657129   9.7659760  65.6936032
 103.9435438  10.3923142  66.4093501  95.5366494  16.6086069  79.6384530
  96.3997956  16.2522874  79.8487855  94.9631905  16.2699964  80.3259935
 115.3814871  38.2387926  70.4446931 116.0193281  38.1194673  69.7410272
 115.2635714  39.1868770  70.5034884 112.1904577  38.1915354  70.3808456
 111.8523089  38.0756419  69.4928991 113.0594346  37.7906519  70.3609462
 108.0491393  40.0450830  66.3705347 107.4856258  39.9540767  65.6021635
 107.9343788  39.2250735  66.8507840 112.6724360  39.3450206  76.3394662
 112.6613001  38.9503004  75.4675165 112.8345000  38.6116278  76.9328433
 105.5955825  41.5402022  69.2089568 106.3877117  41.1992847  68.7935867
 105.8352475  41.6496997  70.1291721 113.6290952  43.7121798  61.6819812
 112.9778931  44.2975878  61.2953826 114.4235315  44.2427993  61.7414849
 107.5546579  40.8010935  62.0806946 108.3277455  40.2539922  61.9419822
 107.9071978  41.6655184  62.2921408 109.3931621  42.1287317  75.2873846
 109.1021487  43.0332948  75.1720512 110.0288606  42.1703845  76.0017915
 110.3187828  39.5064166  71.8775205 110.9151401  39.2820188  71.1632168
 110.3762800  38.7648911  72.4800653 109.8912857  36.9603601  59.7125396
 110.1438377  36.4385123  58.9508859 108.9537416  36.7969747  59.8152080
 114.9356140  35.9639380  67.5200140 115.7219229  35.5458803  67.1690557
 115.1994844  36.8685472  67.6881788 115.1066217  41.4012230  62.2188796
 114.4712050  41.4746856  62.9309701 114.7763623  41.9905829  61.5407876
 120.3364567  35.9014613  68.4233118 121.0689739  35.3313830  68.6570948
 119.5803922  35.5136213  68.8639624 109.6109145  38.8631707  61.9149771
 109.4945404  38.1876611  62.5830856 109.7211405  38.3764081  61.0981924
 111.9540686  38.3241854  65.6196460 111.5898894  37.7972475  66.3309382
 112.8107802  37.9340323  65.4462946 117.8589987  29.6136187  72.8827727
 117.5273312  30.4831598  72.6588942 117.2635600  29.2972471  73.5621757
 111.5946173  33.3531754  60.6157809 111.7620576  34.2211990  60.9828280
 111.4043342  33.5159036  59.6919098 114.3521507  41.8148733  72.2823639
 114.0522230  42.7173772  72.1739447 114.0072566  41.5480916  73.1344792
 107.8033988  38.2662530  68.3160344 106.8784484  38.1338744  68.5238036
 108.0518401  39.0456749  68.8130286 117.7518650  34.3331273  69.9621077
 116.8435528  34.2646682  69.6679838 117.7006246  34.8103218  70.7902902
 111.5735394  35.8089411  61.6004476 111.4535019  36.2546462  62.4389956
 110.8787983  36.1574729  61.0418014 105.1642799  37.9095803  69.1504133
 105.2935180  38.1630282  70.0643545 104.4840250  38.5023511  68.8308788
 109.3342286  48.5793053  65.2494607 109.2566316  49.5300878  65.3283088
 108.7303930  48.2338926  65.9069533 111.8259516  35.7520919  77.9055974
 111.0492850  36.3114839  77.8958839 112.4650079  36.2377702  78.4270844
 119.6180297  32.5347711  71.7398951 118.9754677  32.8280245  71.0938745
 119.1135225  32.4200632  72.5452147 117.2720460  36.2810885  62.4284810
 118.1838317  36.5138271  62.2532507 116.7630107  36.8647929  61.8659888
 110.0805888  38.5606372  77.4673941 110.8220573  39.0991416  77.1908765
 109.3742874  39.1872661  77.6245493 115.5561228  40.7035513  76.0646102
 115.9644584  40.2617923  75.3200735 114.8338490  40.1288140  76.3180295
 111.9092298  35.6408119  73.4379659 112.7553493  36.0647533  73.5814308
 111.8490936  34.9841744  74.1318223 115.8790043  41.2636703  69.8198391
 115.2498905  41.4282417  69.1174459 115.4915705  41.6778313  70.5909355
 119.7579275  42.1991141  67.1742755 119.0730313  42.5790042  66.6239788
 119.8423124  42.8086468  67.9074703 115.0591743  33.3012488  75.0960833
 114.8152675  34.0554548  74.5595109 115.3351674  33.6797835  75.9308080
 117.0130206  39.8451100  73.7738099 117.2247101  40.4882860  73.0972480
 116.9659954  39.0113417  73.3060029 114.6156435  32.4568921  70.6774671
 113.7540914  32.7550174  70.9691408 114.6418870  32.6739320  69.7455703
 111.4318005  41.0011111  67.0848476 111.8956350  41.2798814  66.2953099
 111.1674803  40.0994556  66.9021567 108.3242086  40.5482593  70.0228240
 108.8943443  40.9769861  69.3845724 108.9150197  40.2665177  70.7212425
 110.3686891  37.1234264  63.8938042 111.0710934  37.5755307  64.3611968
 110.0367519  36.4818082  64.5217935 108.8167252  35.7146020  78.2689251
 108.1865913  36.3962301  78.5024648 108.7103340  35.6029102  77.3242389
 104.1112225  35.3817816  69.1955175 103.3211279  35.6375345  68.7195286
 104.6023472  36.1966154  69.3007216 118.1276034  42.7223055  71.9460456
 118.9493478  42.3203243  71.6643138 118.1238437  42.6191290  72.8976572
 106.0626970  35.7462395  66.1538652 105.2658133  35.8581090  66.6722148
 105.8352562  36.0849048  65.2879542 111.8932638  42.2707099  74.1021166
 111.9577070  42.7327506  74.9379338 111.1843561  41.6404464  74.2303476
 102.3949928  35.6348307  71.6270166 102.6457966  36.5195317  71.8927742
 102.9309476  35.4552908  70.8545258 126.2182027  39.0661804  68.2945427
 125.4645736  38.4969202  68.1389432 126.3529568  39.0324468  69.2416062
 111.6080655  43.9375206  63.9700147 111.4726330  44.7826742  64.3984995
 112.1490468  44.1394484  63.2066081 108.0947995  30.0166786  80.6314502
 107.7014940  29.4632985  81.3062146 108.9114135  30.3277365  81.0221020
 105.0610053  41.4550644  64.5428072 105.5734573  42.2493894  64.6933637
 105.7132765  40.7576935  64.4761673 106.8704937  44.5716401  66.6250825
 107.0471566  45.4934365  66.4371809 107.6661771  44.2574820  67.0545205
 111.0115956  31.4324665  78.2234759 111.7525669  32.0331818  78.1439221
 111.2433879  30.6902303  77.6652801 106.1557294  36.6181032  76.5012988
 106.0410809  35.7166290  76.8020087 105.3001812  36.8644729  76.1497805
 113.2349132  44.5598773  78.1000489 112.7912986  43.7735151  77.7821393
 113.8966345  44.7477923  77.4344380 107.9936253  46.0894574  72.6261167
 108.5443678  45.9611638  71.8538161 107.1547729  46.3889463  72.2756060
 115.3330370  44.8401573  76.1281890 115.3148845  45.6610454  75.6362159
 116.2550290  44.7155648  76.3532031 111.7903424  42.3545702  76.9705399
 112.3231761  41.5933990  76.7404706 111.2617505  42.0619354  77.7129553
 114.9573119  27.4605768  72.4999040 114.6137388  28.3507410  72.4238151
 115.3252081  27.2707426  71.6368625 103.0258969  39.7839299  65.3187642
 103.8634191  40.1936307  65.1021350 103.2037237  38.8438741  65.2887836
 114.9223402  37.4514379  61.0071475 114.4070025  38.2218984  61.2459863
 114.6500710  36.7779515  61.6304537 112.5070513  32.2964080  66.0656714
 111.6512109  31.9070930  65.8862352 112.9197464  32.3756041  65.2056499
 114.0369659  29.8310423  70.4648273 113.5334455  29.7940558  69.6516079
 114.3300266  30.7403166  70.5244930 110.2812545  29.9149153  69.4714455
 111.1465542  29.7191962  69.1120345 110.3490054  29.6859505  70.3983812
 119.8957676  40.2046734  62.9424649 119.1187118  39.8657893  62.4979811
 120.5749157  40.2099357  62.2679614 114.7109705  35.3241471  62.8331257
 114.4059840  35.6387620  63.6841400 115.6640147  35.4022891  62.8758590
 113.1556137  41.4831695  64.4824211 112.6277498  40.7484454  64.1697448
 112.6543639  42.2606371  64.2364179 118.1348983  39.6780715  69.5991257
 117.4772657  40.3679976  69.6871385 118.9389382  40.0677147  69.9425243
 107.8874864  32.1451361  66.8430822 108.4618616  31.9226542  66.1104015
 108.4745847  32.2140055  67.5959423 116.9454441  38.0325088  67.6495199
 117.4586323  38.6655080  68.1516908 117.5955665  37.4326283  67.2838559
 108.2144451  34.1755822  60.8626707 107.3781764  34.5130508  61.1835982
 108.0749221  34.0404802  59.9253844 110.1897532  29.0192610  65.5705891
 109.5361944  28.7041627  64.9462506 110.1478006  28.3968350  66.2965714
 111.3008737  39.3011905  57.4859184 110.3935798  39.0701158  57.6850333
 111.7979769  38.5049524  57.6733165 114.2076816  48.0109412  60.4055870
 113.5338514  48.3141109  61.0140828 114.5942638  48.8138492  60.0561327
 113.4235272  35.5074543  69.8953539 112.5057834  35.7289490  69.7375227
 113.8395416  35.5820854  69.0365246 114.2070320  36.9065959  65.0256219
 114.9542139  37.4187356  64.7163341 114.4761910  36.5850012  65.8860613
 112.4796970  39.4024500  62.0083174 111.5708189  39.1183533  62.1055643
 112.5092054  39.8223578  61.1486481 117.7116238  43.0131089  65.7774341
 117.2578565  42.1721999  65.8339532 117.0810204  43.6492488  66.1149121
 116.6549157  33.9423075  67.0075009 115.9171914  33.4300461  67.3385251
 116.9075931  33.5023457  66.1958286 116.1549177  44.8507586  66.7124159
 116.4472151  45.4112643  65.9936525 116.6647797  45.1436147  67.4677318
 116.7560784  26.7199327  67.6016778 117.0619661  25.8596691  67.3142693
 117.4813389  27.3116947  67.4015772 103.0485141  37.1230014  65.9898376
 102.8509540  36.5299375  65.2649442 102.4931805  36.8182224  66.7074315
 111.0281864  37.0153120  68.1092969 111.0830474  36.0626957  68.0335446
 110.2173066  37.1712559  68.5934267 112.1773058  40.9433243  59.3471252
 111.7392488  40.2269102  58.8876890 112.9183499  41.1709358  58.7856344
 108.9674224  35.6330180  65.8683348 108.1542090  35.9324351  66.2748540
 109.4633218  35.2385869  66.5857830 111.1182802  45.6287937  67.8017613
 111.0758981  45.8548783  66.8726145 112.0345501  45.3951312  67.9503414
 114.5648436  36.0972005  74.6998242 114.9197824  36.3243478  75.5592708
 115.2120567  36.4290381  74.0775497 120.2946173  39.2190440  65.4047571
 120.1564071  39.4092036  64.4768760 119.9382392  39.9809823  65.8615622
 108.4588299  33.2048536  71.4844583 109.0987678  33.0637295  70.7867546
 107.6265829  32.9183049  71.1083185 120.3215552  41.2866967  70.4158842
 120.7552059  41.1942257  71.2641896 121.0347133  41.2624468  69.7778858
 109.2348603  42.5050966  67.5979575 110.0289201  42.0101286  67.3962150
 108.5240295  41.9768829  67.2347281 114.0543447  44.8869062  71.9491943
 114.1080470  45.4559998  72.7169659 113.1858229  45.0570947  71.5845980
 105.5431366  36.6494048  63.6739328 104.6128954  36.5878503  63.8909290
 105.6388838  36.1270001  62.8775969 105.4616915  33.1748861  66.2617570
 105.7223733  34.0894194  66.1526730 106.2834088  32.7073303  66.4114182
 106.9341841  34.5886618  73.4316394 107.6064894  34.3803980  72.7829043
 106.1071627  34.3908704  72.9921626 121.1831102  41.3290668  72.9491728
 121.3766992  42.2336479  73.1951003 121.0831720  40.8698087  73.7830313
 112.8367413  31.2148559  75.4482055 112.1895328  31.9138508  75.3546531
 113.6068428  31.6484703  75.8158303 116.2446211  41.4797411  78.5232608
 116.0931717  41.2507963  77.6062692 116.2350890  42.4368012  78.5363953
 113.0131547  39.0529324  73.5078875 113.9423607  39.2040483  73.3347842
 112.5922577  39.1413344  72.6527521 111.8119879  43.0779988  71.2777412
 111.6730964  42.7098772  72.1503350 111.0234475  43.5927627  71.1061370
 112.4068031  48.1789084  62.6202949 112.5819786  47.7077128  63.4348572
 111.7200819  48.8054851  62.8484210 113.3625094  42.4561591  68.6666250
 113.0274927  42.4162361  69.5623900 112.8629040  41.7906307  68.1936660
 107.3369338  37.8629221  74.1918831 107.1989136  37.1309460  74.7930370
 108.2474261  37.7738121  73.9103019 116.2984286  39.8017625  58.9403310
 115.6813456  39.0764453  58.8436362 115.8300774  40.5626985  58.5970384
 109.9651639  37.5749180  73.6802511 110.6751257  36.9342372  73.6389129
 109.9220947  37.8262075  74.6028692 117.9538417  44.5116533  76.6009090
 117.8950963  43.8275754  75.9339673 118.3557936  45.2535523  76.1489716
 108.6780573  34.5614398  75.4998150 108.1417930  34.1105136  76.1519747
 108.0897281  34.6960307  74.7568615 106.9729116  51.3278447  69.3942809
 107.2125714  51.9596971  70.0721828 106.1298313  50.9766487  69.6808168
 108.0882832  34.0203049  58.0624614 107.2112298  33.8991850  57.6986861
 108.5640585  33.2289128  57.8103503 117.9555825  42.4756117  74.8323070
 117.0682603  42.1382039  74.9549469 118.5254376  41.7439149  75.0691835
  99.6084972  38.8080209  68.1566121 100.2956011  38.4941939  67.5687137
  99.4533100  39.7121574  67.8833373 104.4119694  33.6970406  72.5851145
 104.3277883  33.0896075  71.8501555 103.5902400  34.1879424  72.5860641
 111.4856978  47.1357570  71.7984313 111.4127149  47.9412541  72.3103618
 111.0434371  47.3349536  70.9732334 111.2746758  46.3729340  65.3087135
 110.4914279  46.9151020  65.4025359 111.9739503  46.8903319  65.7081376
 114.5843408  32.1823969  67.9521340 115.0812107  31.4293932  67.6322410
 113.8130389  32.2188286  67.3864549 122.4373165  37.8864335  69.5939631
 122.4263041  38.7689050  69.2233565 121.5690544  37.5335886  69.3994169
 113.9455661  47.0344404  73.9542472 114.6583634  47.6691869  73.8818373
 113.4545690  47.1308270  73.1382474 115.6673188  40.9395656  65.5259763
 114.7329467  41.0597119  65.3564468 115.8449857  40.0368123  65.2619773
 111.1678376  34.3241352  67.6793025 110.7976164  33.7712393  68.3673930
 111.6637469  33.7199486  67.1268025 119.0545740  36.7812976  66.0609798
 119.5206192  37.6140967  65.9870100 119.5053240  36.3157957  66.7655056
 108.9967575  44.7838847  74.7748043 109.6977034  45.4175330  74.9277437
 108.5262690  45.1253579  74.0143682 117.1221971  43.1256797  63.0595950
 117.3981815  43.0113392  63.9689824 116.2526470  42.7274282  63.0208123
 117.0262402  29.1493563  70.1000699 116.1125482  29.3797790  70.2682906
 117.4555504  29.2332007  70.9514731 116.7968861  37.3383455  72.6000593
 116.1440311  37.5859362  71.9453046 117.1749241  36.5247593  72.2663070
 113.7576035  47.3743148  66.7028763 113.9398429  46.5564804  67.1656516
 114.5809021  47.5910840  66.2653653 114.0918200  46.3011333  63.9643812
 114.6205967  45.7903788  63.3513974 114.3546420  45.9853863  64.8289345
 112.8456434  38.0803266  79.0866630 112.1697071  37.9797395  79.7569005
 113.6684068  37.9242479  79.5502627 104.5935293  44.3175202  71.7079145
 105.1788730  43.5718890  71.8407049 104.3960131  44.6279159  72.5915809
 107.4473948  47.3526450  66.7241588 106.7784324  47.8372577  66.2405628
 107.3086818  47.5995670  67.6384966  99.1852948  36.8880802  70.4283588
  99.2237047  36.3544393  71.2220706  98.6793241  36.3616008  69.8094566
 111.5879217  49.3870193  73.3224246 112.1397525  49.5501815  74.0873331
 111.9285410  49.9774631  72.6504271 106.5643710  31.7345343  73.9246131
 106.6285037  32.5960174  73.5123528 106.5010830  31.1219345  73.1918489
 106.0395983  33.8068475  77.5719165 106.6668021  33.4245553  78.1856689
 105.1823901  33.5882677  77.9374857 116.4390091  44.2131451  79.1772900
 116.9829995  44.8261409  78.6827855 115.8576936  44.7711029  79.6939913
 102.8161525  35.6144905  63.5037520 103.1114966  34.7055583  63.4504573
 101.9149561  35.5932644  63.1818522 114.7247604  47.3352169  70.3087928
 114.5998744  46.5341909  69.7998874 115.3826695  47.8298362  69.8201898
 106.3455772  33.6900901  69.4865068 105.6242358  34.3036869  69.3472542
 107.1349028  34.2258666  69.4081714 116.7882513  45.1361189  71.9367478
 115.8412848  45.0166540  71.8645805 117.1365286  44.2483687  72.0193740
 109.1482086  31.0255328  75.7605720 109.6716488  31.2717624  76.5232029
 108.9294419  31.8575362  75.3408857 104.5449367  33.2959002  63.6276845
 104.2162073  32.4156381  63.4451951 104.8988738  33.2406671  64.5153234
 113.7928946  44.9313905  68.1371830 113.6453908  44.0030612  68.3179400
 114.6182439  44.9533996  67.6528906 107.6591190  33.5831972  63.9952323
 107.9987263  34.1117893  63.2730931 108.1063311  33.9212378  64.7710889
 117.3963068  45.7542464  69.2236703 118.3209615  45.5485325  69.0861154
 117.2278371  45.5058865  70.1326045 110.3534631  31.9669023  73.4455391
 110.0131451  31.1676836  73.8476071 109.6473637  32.2670734  72.8732224
 111.0051103  29.0518335  71.8982714 111.8277172  28.5778813  71.7761604
 111.2489166  29.8308819  72.3981400 109.6459337  32.0806594  62.1945615
 110.3667700  32.4587846  61.6909332 109.0224641  32.7995470  62.2980593
 113.7890460  32.7851743  63.1303948 114.0054075  33.6676380  62.8292776
 113.3084527  32.3937956  62.4009590 108.5289682  35.7437456  69.7074692
 108.3834262  36.0577759  70.5998974 108.0514885  36.3622356  69.1545591
 110.3886064  32.7340004  69.7555582 110.3747633  31.8381097  69.4187880
 111.1058492  32.7410668  70.3893868 112.2412195  33.1677344  71.8008709
 111.9829973  34.0894415  71.7993040 111.7097235  32.7707779  72.4909173
 117.1858384  46.2728131  64.5798795 117.3595261  45.7074554  63.8272647
 117.6787275  47.0729026  64.3978285 103.0035344  38.2842800  72.6462353
 102.4588812  39.0602608  72.7782628 103.8814694  38.6313605  72.4881475
 109.7922960  31.6154384  65.0243152 109.9138872  30.6871030  65.2234039
 109.5025003  31.6293070  64.1121467 112.6614151  29.3009295  68.1609872
 112.6835848  29.3648628  67.2061851 113.0782210  28.4613803  68.3550378
 123.0397775  39.0364554  66.1989094 123.4828921  38.2871879  65.8008218
 122.1624285  39.0274690  65.8162826 118.1733556  45.5894896  61.6795693
 118.8684461  46.2101588  61.8983008 118.5156706  44.7390247  61.9548071
 103.7901366  37.4112697  75.5392510 103.0483102  37.5595332  76.1257141
 103.4694110  37.6720962  74.6759260 120.0724979  43.0394601  63.2083024
 120.5976304  43.3781874  62.4832344 119.9847332  42.1041616  63.0246158
 111.7345028  46.9528675  75.3372900 112.0432155  46.7077822  76.2095600
 112.5320510  47.1575313  74.8491771 111.7565640  49.1066584  67.5678277
 111.3170631  48.6142963  68.2611134 112.5073757  48.5639552  67.3270352
 104.2357979  45.2978125  67.5702905 105.0615999  44.9981897  67.1901548
 103.8852031  44.5285748  68.0192694 109.2039512  44.6504593  69.6400579
 108.5819522  43.9875298  69.3402806 109.8744379  44.6765725  68.9574226
 102.4366584  43.2164452  68.5291839 101.5998493  42.7886626  68.3475840
 102.4090230  43.4096895  69.4662630 109.2764040  33.1286381  79.2333085
 109.3252195  34.0048504  78.8510854 109.8186554  32.5863775  78.6604728
 119.7618886  43.6727505  78.5134222 118.9714429  43.6551644  77.9738721
 119.5252240  44.2115798  79.2683258 119.8816761  40.5219971  75.8266950
 119.9314766  40.3569979  76.7682473 119.7730684  39.6547230  75.4364831
 108.7653019  43.2008517  63.1159039 108.9141140  43.8843981  62.4625712
 109.5719463  43.1813607  63.6308495 117.1720523  36.5050899  77.1426257
 118.0730386  36.3657364  76.8510255 117.2468497  36.6705354  78.0824434
 111.5063328  33.8817754  75.9879443 110.6366638  34.1751320  75.7162032
 111.7422809  34.4658199  76.7086707 121.3834957  42.9416913  76.0708972
 121.0919766  43.3046893  76.9072433 120.7707089  42.2283921  75.8922304
 122.5830640  40.5069792  68.5911542 123.4177531  40.9459596  68.7549102
 122.7189769  40.0308446  67.7719788 119.6322146  38.0649527  74.5389030
 120.1076267  38.2577174  73.7307881 118.7087711  38.1208713  74.2932413
 106.5205652  39.2273694  64.1220108 106.2751694  38.3236024  64.3200318
 106.6901567  39.2290845  63.1799586 114.2102362  30.0997371  73.5044864
 114.7284306  30.8358398  73.1791352 113.8557495  30.4061364  74.3391623
 105.7901300  34.9602052  61.6206269 105.0970545  35.0346407  60.9646305
 105.5453052  34.1962396  62.1427786 114.4614956  26.5197653  69.0245760
 114.7416710  25.8520842  69.6506187 115.2465563  26.7126749  68.5120424
 112.2648425  45.6956647  60.5870787 111.6922392  46.3146834  60.1341258
 112.8381218  46.2456009  61.1210708 118.3323815  34.9415287  72.7717335
 119.2841238  35.0413385  72.7929559 118.1627265  34.1493556  73.2815420
 116.3538194  32.0270871  72.9576736 115.7588126  32.3075883  72.2623225
 116.0687891  32.5164771  73.7293477 115.4845685  45.9793797  61.7179369
 116.4176358  45.9139359  61.9212244 115.3968897  46.8150064  61.2593901
 118.1133701  45.2959668  58.6783316 118.0347333  44.9619531  59.5719074
 118.9343368  45.7881436  58.6774789 120.8111892  38.1621407  71.8859635
 120.7788213  37.2237408  72.0719319 121.4212516  38.2405444  71.1525460
 112.6495223  37.0317460  57.9286839 113.5954328  36.9023668  57.9975257
 112.2709468  36.2932122  58.4056267 120.9606381  34.9532450  71.9317918
 120.4445430  34.1690907  71.7447847 121.8446329  34.6251167  72.0964438
 118.6217108  28.6973466  67.8913731 118.4241929  28.3888554  68.7757063
 119.2316813  29.4235105  68.0211661 126.6288442  39.2237414  71.0265672
 127.3591831  38.9622702  71.5873375 126.0195388  38.4866136  71.0667740
 124.7103739  37.3645276  71.6240123 123.9836903  37.2301241  71.0156615
 124.2951026  37.6722105  72.4296841 112.5333916  41.0835206  79.3887496
 113.4536925  41.2613805  79.5827543 112.4983499  40.1391251  79.2367195
 110.8338140  34.9567436  57.8641724 109.9269596  34.6600549  57.9404438
 111.1114121  34.6597254  56.9976010 101.7516081  36.2773800  68.3140771
 101.4318865  35.4239108  68.0215145 101.2049509  36.4922378  69.0698738
 105.5295988  38.9936241  72.0310277 105.7481998  39.9253349  72.0498311
 105.9421762  38.6344215  72.8165081 112.4500206  29.5004326  64.0185966
 111.6400934  29.1551411  64.3941212 113.1384623  29.1911870  64.6073577
 114.3790754  28.5782373  65.6410262 114.9321793  28.9977826  66.3000285
 114.6160841  27.6518121  65.6833218 110.4023854  34.5669447  81.4213026
 110.3020581  35.5163804  81.3525117 110.1845396  34.2387685  80.5489096
 109.6036925  31.8154372  58.0053703 110.4656089  32.1409270  58.2649521
 109.7887269  31.0285868  57.4926769 101.6204341  39.8976711  70.2833892
 100.9267812  39.4830664  69.7703847 102.3677332  39.9397248  69.6867311
 117.7569562  30.6882898  65.1488926 117.1768231  31.3467702  64.7666979
 117.4905494  29.8660243  64.7376344 116.2073128  30.0887956  67.3510247
 116.7072906  30.2004490  66.5424566 116.8508736  29.7849009  67.9911055
 110.2655124  37.9966585  80.2378088 109.7822205  38.7966946  80.4441977
 110.3516063  38.0074530  79.2845532 103.5341083  39.8294965  68.1599907
 103.5111771  39.9282652  67.2081790 103.8441720  40.6760116  68.4817073
 106.1928461  41.8871120  72.2746522 107.1471715  41.8555062  72.2076453
 105.9940985  41.4261744  73.0896747 106.7827843  40.4572236  74.8417319
 107.6020732  40.9516315  74.8652156 107.0564651  39.5404204  74.8134887
 116.5394440  32.8482988  64.2045275 115.6520295  33.1332639  63.9865469
 116.9548429  32.6876752  63.3572552 119.8908976  32.8729509  67.9199614
 120.6669366  33.3625962  68.1924231 119.1657110  33.2987564  68.3771483
 122.3281534  33.5857129  68.9773555 122.9226025  33.3452865  68.2666863
 122.4008118  32.8664259  69.6047091 104.5478690  47.4290740  69.2916719
 104.4133158  46.6691140  68.7254717 104.1310752  48.1531639  68.8245508
 115.6837653  42.6127663  58.2993295 116.3873503  42.8177666  58.9150950
 114.9600302  43.1804425  58.5642378 116.5135463  38.3637524  64.4195565
 116.4570665  38.8206076  63.5803197 117.0663806  37.6028209  64.2418408
 120.3240269  34.1527256  65.2445684 120.0677203  33.7523892  66.0753892
 119.6993137  34.8671050  65.1195824 124.6352607  36.8923329  67.7516976
 124.0752165  36.9616519  68.5248538 124.0296110  36.7164314  67.0316472
 107.7047816  48.3260057  69.5035162 107.5880200  49.2705489  69.4013852
 106.8840262  48.0233618  69.8920961 117.5924350  43.0510192  60.3491755
 118.4269954  42.6191391  60.1669230 117.4308693  42.8792206  61.2768649
 117.2470243  39.5542306  61.7148094 117.1919046  39.3886577  60.7736538
 116.6216298  40.2618339  61.8710284 102.0362758  34.7910370  75.5409516
 102.6821621  34.2809324  76.0296741 101.8279909  35.5279052  76.1152941
 114.5616150  41.8591217  81.0401657 115.4307309  42.0331870  80.6788292
 114.0822901  42.6785634  80.9177386 110.5566368  29.0550415  61.2933412
 110.5445038  29.9992255  61.4501683 111.4489790  28.8720560  60.9992874
 108.7302330  48.9788318  72.7191090 109.6329577  49.0111929  73.0357585
 108.5039700  48.0488769  72.7337426 110.4855932  47.7319305  69.3801169
 109.5351563  47.7321167  69.2665541 110.7888418  46.9852040  68.8637204
 114.3718488  25.6493191  65.5479349 113.6050883  25.0951678  65.6936032
 114.7829193  25.7215060  66.4093501 106.3760249  31.9377987  79.6384530
 107.2391710  31.5814792  79.8487855 105.8025659  31.5991882  80.3259935
 126.2208626  53.5679843  70.4446931 126.8587035  53.4486591  69.7410272
 126.1029468  54.5160687  70.5034884 123.0298332  53.5207272  70.3808456
 122.6916843  53.4048336  69.4928991 123.8988100  53.1198437  70.3609462
 118.8885148  55.3742748  66.3705347 118.3250013  55.2832685  65.6021635
 118.7737543  54.5542652  66.8507840 123.5118115  54.6742123  76.3394662
 123.5006756  54.2794922  75.4675165 123.6738754  53.9408196  76.9328433
 116.4349579  56.8693940  69.2089568 117.2270871  56.5284764  68.7935867
 116.6746230  56.9788915  70.1291721 124.4684706  59.0413716  61.6819812
 123.8172686  59.6267796  61.2953826 125.2629069  59.5719911  61.7414849
 118.3940333  56.1302853  62.0806946 119.1671209  55.5831840  61.9419822
 118.7465732  56.9947102  62.2921408 120.2325376  57.4579235  75.2873846
 119.9415242  58.3624866  75.1720512 120.8682360  57.4995763  76.0017915
 121.1581583  54.8356084  71.8775205 121.7545155  54.6112106  71.1632168
 121.2156554  54.0940829  72.4800653 120.7306611  52.2895519  59.7125396
 120.9832132  51.7677040  58.9508859 119.7931170  52.1261664  59.8152080
 125.7749894  51.2931297  67.5200140 126.5612983  50.8750720  67.1690557
 126.0388598  52.1977389  67.6881788 125.9459971  56.7304148  62.2188796
 125.3105804  56.8038774  62.9309701 125.6157378  57.3197746  61.5407876
 131.1758321  51.2306530  68.4233118 131.9083493  50.6605747  68.6570948
 130.4197677  50.8428131  68.8639624 120.4502900  54.1923625  61.9149771
 120.3339158  53.5168528  62.5830856 120.5605160  53.7055999  61.0981924
 122.7934441  53.6533772  65.6196460 122.4292648  53.1264393  66.3309382
 123.6501557  53.2632241  65.4462946 128.6983741  44.9428105  72.8827727
 128.3667066  45.8123516  72.6588942 128.1029355  44.6264389  73.5621757
 122.4339928  48.6823672  60.6157809 122.6014330  49.5503908  60.9828280
 122.2437097  48.8450953  59.6919098 125.1915261  57.1440651  72.2823639
 124.8915984  58.0465689  72.1739447 124.8466321  56.8772834  73.1344792
 118.6427743  53.5954447  68.3160344 117.7178239  53.4630662  68.5238036
 118.8912156  54.3748667  68.8130286 128.5912405  49.6623191  69.9621077
 127.6829282  49.5938599  69.6679838 128.5400001  50.1395136  70.7902902
 122.4129149  51.1381329  61.6004476 122.2928774  51.5838380  62.4389956
 121.7181737  51.4866647  61.0418014 116.0036554  53.2387721  69.1504133
 116.1328935  53.4922200  70.0643545 115.3234005  53.8315429  68.8308788
 120.1736041  63.9084971  65.2494607 120.0960071  64.8592796  65.3283088
 119.5697684  63.5630843  65.9069533 122.6653271  51.0812836  77.9055974
 121.8886605  51.6406756  77.8958839 123.3043834  51.5669619  78.4270844
 130.4574051  47.8639629  71.7398951 129.8148431  48.1572162  71.0938745
 129.9528980  47.7492549  72.5452147 128.1114215  51.6102802  62.4284810
 129.0232071  51.8430189  62.2532507 127.6023862  52.1939847  61.8659888
 120.9199643  53.8898290  77.4673941 121.6614327  54.4283334  77.1908765
 120.2136628  54.5164578  77.6245493 126.3954983  56.0327430  76.0646102
 126.8038339  55.5909841  75.3200735 125.6732244  55.4580058  76.3180295
 122.7486053  50.9700037  73.4379659 123.5947248  51.3939451  73.5814308
 122.6884690  50.3133661  74.1318223 126.7183797  56.5928621  69.8198391
 126.0892660  56.7574335  69.1174459 126.3309459  57.0070230  70.5909355
 130.5973029  57.5283059  67.1742755 129.9124067  57.9081960  66.6239788
 130.6816878  58.1378385  67.9074703 125.8985498  48.6304405  75.0960833
 125.6546430  49.3846466  74.5595109 126.1745428  49.0089753  75.9308080
 127.8523961  55.1743018  73.7738099 128.0640856  55.8174778  73.0972480
 127.8053709  54.3405334  73.3060029 125.4550190  47.7860838  70.6774671
 124.5934669  48.0842092  70.9691408 125.4812624  48.0031237  69.7455703
 122.2711759  56.3303029  67.0848476 122.7350105  56.6090732  66.2953099
 122.0068557  55.4286473  66.9021567 119.1635840  55.8774510  70.0228240
 119.7337197  56.3061779  69.3845724 119.7543952  55.5957095  70.7212425
 121.2080645  52.4526181  63.8938042 121.9104688  52.9047225  64.3611968
 120.8761274  51.8110000  64.5217935 119.6561007  51.0437938  78.2689251
 119.0259667  51.7254219  78.5024648 119.5497095  50.9321019  77.3242389
 114.9505979  50.7109734  69.1955175 114.1605033  50.9667262  68.7195286
 115.4417226  51.5258072  69.3007216 128.9669789  58.0514973  71.9460456
 129.7887232  57.6495160  71.6643138 128.9632192  57.9483207  72.8976572
 116.9020724  51.0754313  66.1538652 116.1051888  51.1873007  66.6722148
 116.6746317  51.4140965  65.2879542 122.7326392  57.5999016  74.1021166
 122.7970825  58.0619424  74.9379338 122.0237316  56.9696381  74.2303476
 113.2343682  50.9640224  71.6270166 113.4851720  51.8487234  71.8927742
 113.7703230  50.7844826  70.8545258 137.0575782  54.3953722  68.2945427
 136.3039490  53.8261120  68.1389432 137.1923323  54.3616386  69.2416062
 122.4474410  59.2667124  63.9700147 122.3120085  60.1118660  64.3984995
 122.9884222  59.4686402  63.2066081 118.9341749  45.3458704  80.6314502
 118.5408695  44.7924902  81.3062146 119.7507890  45.6569282  81.0221020
 115.9003807  56.7842562  64.5428072 116.4128328  57.5785812  64.6933637
 116.5526520  56.0868852  64.4761673 117.7098692  59.9008318  66.6250825
 117.8865320  60.8226283  66.4371809 118.5055525  59.5866737  67.0545205
 121.8509710  46.7616583  78.2234759 122.5919424  47.3623736  78.1439221
 122.0827633  46.0194221  77.6652801 116.9951048  51.9472950  76.5012988
 116.8804564  51.0458207  76.8020087 116.1395566  52.1936647  76.1497805
 124.0742886  59.8890690  78.1000489 123.6306740  59.1027069  77.7821393
 124.7360100  60.0769841  77.4344380 118.8330007  61.4186492  72.6261167
 119.3837432  61.2903555  71.8538161 117.9941483  61.7181381  72.2756060
 126.1724124  60.1693490  76.1281890 126.1542600  60.9902371  75.6362159
 127.0944044  60.0447566  76.3532031 122.6297178  57.6837620  76.9705399
 123.1625515  56.9225908  76.7404706 122.1011259  57.3911272  77.7129553
 125.7966873  42.7897686  72.4999040 125.4531143  43.6799327  72.4238151
 126.1645836  42.5999343  71.6368625 113.8652724  55.1131216  65.3187642
 114.7027946  55.5228225  65.1021350 114.0430992  54.1730658  65.2887836
 125.7617156  52.7806297  61.0071475 125.2463779  53.5510902  61.2459863
 125.4894464  52.1071433  61.6304537 123.3464267  47.6255998  66.0656714
 122.4905863  47.2362848  65.8862352 123.7591219  47.7047958  65.2056499
 124.8763414  45.1602341  70.4648273 124.3728209  45.1232476  69.6516079
 125.1694021  46.0695084  70.5244930 121.1206300  45.2441071  69.4714455
 121.9859296  45.0483879  69.1120345 121.1883808  45.0151422  70.3983812
 130.7351430  55.5338652  62.9424649 129.9580873  55.1949811  62.4979811
 131.4142911  55.5391275  62.2679614 125.5503459  50.6533389  62.8331257
 125.2453595  50.9679538  63.6841400 126.5033901  50.7314809  62.8758590
 123.9949891  56.8123612  64.4824211 123.4671253  56.0776372  64.1697448
 123.4937394  57.5898289  64.2364179 128.9742737  55.0072633  69.5991257
 128.3166412  55.6971894  69.6871385 129.7783136  55.3969065  69.9425243
 118.7268619  47.4743279  66.8430822 119.3012371  47.2518460  66.1104015
 119.3139601  47.5431973  67.5959423 127.7848196  53.3617005  67.6495199
 128.2980078  53.9946997  68.1516908 128.4349420  52.7618201  67.2838559
 119.0538206  49.5047740  60.8626707 118.2175518  49.8422426  61.1835982
 118.9142975  49.3696719  59.9253844 121.0291286  44.3484527  65.5705891
 120.3755699  44.0333545  64.9462506 120.9871761  43.7260268  66.2965714
 122.1402491  54.6303823  57.4859184 121.2329553  54.3993076  57.6850333
 122.6373523  53.8341442  57.6733165 125.0470570  63.3401330  60.4055870
 124.3732269  63.6433026  61.0140828 125.4336392  64.1430410  60.0561327
 124.2629027  50.8366461  69.8953539 123.3451588  51.0581408  69.7375227
 124.6789170  50.9112771  69.0365246 125.0464074  52.2357877  65.0256219
 125.7935893  52.7479274  64.7163341 125.3155664  51.9141929  65.8860613
 123.3190725  54.7316417  62.0083174 122.4101944  54.4475450  62.1055643
 123.3485808  55.1515496  61.1486481 128.5509992  58.3423007  65.7774341
 128.0972319  57.5013917  65.8339532 127.9203959  58.9784405  66.1149121
 127.4942912  49.2714993  67.0075009 126.7565668  48.7592379  67.3385251
 127.7469685  48.8315375  66.1958286 126.9942931  60.1799504  66.7124159
 127.2865906  60.7404561  65.9936525 127.5041552  60.4728065  67.4677318
 127.5954539  42.0491245  67.6016778 127.9013416  41.1888608  67.3142693
 128.3207144  42.6408865  67.4015772 113.8878895  52.4521932  65.9898376
 113.6903295  51.8591292  65.2649442 113.3325559  52.1474142  66.7074315
 121.8675619  52.3445038  68.1092969 121.9224228  51.3918874  68.0335446
 121.0566821  52.5004477  68.5934267 123.0166812  56.2725161  59.3471252
 122.5786242  55.5561020  58.8876890 123.7577253  56.5001276  58.7856344
 119.8067979  50.9622098  65.8683348 118.9935844  51.2616268  66.2748540
 120.3026973  50.5677787  66.5857830 121.9576557  60.9579855  67.8017613
 121.9152735  61.1840701  66.8726145 122.8739255  60.7243229  67.9503414
 125.4042190  51.4263922  74.6998242 125.7591578  51.6535395  75.5592708
 126.0514322  51.7582299  74.0775497 131.1339927  54.5482358  65.4047571
 130.9957826  54.7383954  64.4768760 130.7776146  55.3101741  65.8615622
 119.2982053  48.5340453  71.4844583 119.9381433  48.3929212  70.7867546
 118.4659584  48.2474967  71.1083185 131.1609307  56.6158885  70.4158842
 131.5945814  56.5234174  71.2641896 131.8740888  56.5916386  69.7778858
 120.0742357  57.8342884  67.5979575 120.8682956  57.3393204  67.3962150
 119.3634050  57.3060747  67.2347281 124.8937202  60.2160979  71.9491943
 124.9474224  60.7851916  72.7169659 124.0251983  60.3862864  71.5845980
 116.3825121  51.9785965  63.6739328 115.4522709  51.9170421  63.8909290
 116.4782593  51.4561918  62.8775969 116.3010670  48.5040778  66.2617570
 116.5617487  49.4186112  66.1526730 117.1227842  48.0365221  66.4114182
 117.7735595  49.9178535  73.4316394 118.4458649  49.7095898  72.7829043
 116.9465382  49.7200621  72.9921626 132.0224856  56.6582586  72.9491728
 132.2160747  57.5628396  73.1951003 131.9225475  56.1990005  73.7830313
 123.6761167  46.5440476  75.4482055 123.0289082  47.2430426  75.3546531
 124.4462183  46.9776620  75.8158303 127.0839965  56.8089329  78.5232608
 126.9325472  56.5799880  77.6062692 127.0744645  57.7659930  78.5363953
 123.8525302  54.3821241  73.5078875 124.7817362  54.5332401  73.3347842
 123.4316332  54.4705262  72.6527521 122.6513633  58.4071906  71.2777412
 122.5124719  58.0390690  72.1503350 121.8628230  58.9219545  71.1061370
 123.2461785  63.5081002  62.6202949 123.4213541  63.0369045  63.4348572
 122.5594573  64.1346768  62.8484210 124.2018848  57.7853508  68.6666250
 123.8668681  57.7454278  69.5623900 123.7022794  57.1198224  68.1936660
 118.1763092  53.1921138  74.1918831 118.0382890  52.4601377  74.7930370
 119.0868016  53.1030039  73.9103019 127.1378040  55.1309543  58.9403310
 126.5207211  54.4056371  58.8436362 126.6694529  55.8918903  58.5970384
 120.8045393  52.9041098  73.6802511 121.5145012  52.2634290  73.6389129
 120.7614701  53.1553993  74.6028692 128.7932172  59.8408451  76.6009090
 128.7344718  59.1567671  75.9339673 129.1951690  60.5827441  76.1489716
 119.5174327  49.8906316  75.4998150 118.9811684  49.4397054  76.1519747
 118.9291035  50.0252224  74.7568615 117.8122871  66.6570365  69.3942809
 118.0519469  67.2888889  70.0721828 116.9692067  66.3058405  69.6808168
 118.9276586  49.3494967  58.0624614 118.0506052  49.2283768  57.6986861
 119.4034339  48.5581045  57.8103503 128.7949579  57.8048035  74.8323070
 127.9076358  57.4673957  74.9549469 129.3648130  57.0731066  75.0691835
 110.4478726  54.1372127  68.1566121 111.1349766  53.8233857  67.5687137
 110.2926855  55.0413491  67.8833373 115.2513448  49.0262323  72.5851145
 115.1671637  48.4187993  71.8501555 114.4296155  49.5171342  72.5860641
 122.3250732  62.4649487  71.7984313 122.2520904  63.2704459  72.3103618
 121.8828126  62.6641453  70.9732334 122.1140512  61.7021257  65.3087135
 121.3308034  62.2442938  65.4025359 122.8133257  62.2195237  65.7081376
 125.4237162  47.5115887  67.9521340 125.9205862  46.7585849  67.6322410
 124.6524144  47.5480204  67.3864549 133.2766920  53.2156252  69.5939631
 133.2656796  54.0980968  69.2233565 132.4084299  52.8627803  69.3994169
 124.7849416  62.3636321  73.9542472 125.4977388  62.9983786  73.8818373
 124.2939445  62.4600187  73.1382474 126.5066943  56.2687574  65.5259763
 125.5723222  56.3889037  65.3564468 126.6843611  55.3660041  65.2619773
 122.0072131  49.6533270  67.6793025 121.6369918  49.1004310  68.3673930
 122.5031223  49.0491403  67.1268025 129.8939494  52.1104893  66.0609798
 130.3599946  52.9432885  65.9870100 130.3446995  51.6449875  66.7655056
 119.8361329  60.1130765  74.7748043 120.5370789  60.7467248  74.9277437
 119.3656444  60.4545496  74.0143682 127.9615725  58.4548715  63.0595950
 128.2375569  58.3405309  63.9689824 127.0920224  58.0566200  63.0208123
 127.8656157  44.4785480  70.1000699 126.9519237  44.7089707  70.2682906
 128.2949258  44.5623924  70.9514731 127.6362615  52.6675372  72.6000593
 126.9834066  52.9151280  71.9453046 128.0142995  51.8539511  72.2663070
 124.5969789  62.7035065  66.7028763 124.7792184  61.8856721  67.1656516
 125.4202775  62.9202758  66.2653653 124.9311955  61.6303251  63.9643812
 125.4599721  61.1195705  63.3513974 125.1940174  61.3145781  64.8289345
 123.6850188  53.4095183  79.0866630 123.0090825  53.3089313  79.7569005
 124.5077822  53.2534397  79.5502627 115.4329048  59.6467120  71.7079145
 116.0182484  58.9010808  71.8407049 115.2353886  59.9571077  72.5915809
 118.2867703  62.6818367  66.7241588 117.6178078  63.1664495  66.2405628
 118.1480572  62.9287588  67.6384966 110.0246702  52.2172720  70.4283588
 110.0630802  51.6836311  71.2220706 109.5186995  51.6907926  69.8094566
 122.4272971  64.7162111  73.3224246 122.9791279  64.8793732  74.0873331
 122.7679165  65.3066549  72.6504271 117.4037465  47.0637261  73.9246131
 117.4678791  47.9252092  73.5123528 117.3404585  46.4511262  73.1918489
 116.8789737  49.1360393  77.5719165 117.5061776  48.7537470  78.1856689
 116.0217656  48.9174595  77.9374857 127.2783846  59.5423368  79.1772900
 127.8223750  60.1553327  78.6827855 126.6970691  60.1002947  79.6939913
 113.6555280  50.9436822  63.5037520 113.9508721  50.0347501  63.4504573
 112.7543316  50.9224562  63.1818522 125.5641359  62.6644086  70.3087928
 125.4392498  61.8633826  69.7998874 126.2220450  63.1590280  69.8201898
 117.1849527  49.0192819  69.4865068 116.4636113  49.6328787  69.3472542
 117.9742783  49.5550584  69.4081714 127.6276267  60.4653106  71.9367478
 126.6806603  60.3458458  71.8645805 127.9759040  59.5775604  72.0193740
 119.9875840  46.3547245  75.7605720 120.5110242  46.6009542  76.5232029
 119.7688174  47.1867280  75.3408857 115.3843121  48.6250920  63.6276845
 115.0555828  47.7448299  63.4451951 115.7382492  48.5698589  64.5153234
 124.6322700  60.2605823  68.1371830 124.4847663  59.3322530  68.3179400
 125.4576194  60.2825913  67.6528906 118.4984945  48.9123890  63.9952323
 118.8381017  49.4409811  63.2730931 118.9457065  49.2504296  64.7710889
 128.2356822  61.0834381  69.2236703 129.1603370  60.8777243  69.0861154
 128.0672126  60.8350783  70.1326045 121.1928385  47.2960940  73.4455391
 120.8525206  46.4968754  73.8476071 120.4867392  47.5962651  72.8732224
 121.8444857  44.3810253  71.8982714 122.6670927  43.9070731  71.7761604
 122.0882921  45.1600737  72.3981400 120.4853092  47.4098511  62.1945615
 121.2061454  47.7879764  61.6909332 119.8618396  48.1287388  62.2980593
 124.6284215  48.1143660  63.1303948 124.8447829  48.9968298  62.8292776
 124.1478282  47.7229874  62.4009590 119.3683436  51.0729374  69.7074692
 119.2228017  51.3869677  70.5998974 118.8908640  51.6914274  69.1545591
 121.2279819  48.0631922  69.7555582 121.2141388  47.1673015  69.4187880
 121.9452247  48.0702585  70.3893868 123.0805950  48.4969262  71.8008709
 122.8223727  49.4186332  71.7993040 122.5490990  48.0999696  72.4909173
 128.0252138  61.6020049  64.5798795 128.1989016  61.0366471  63.8272647
 128.5181030  62.4020944  64.3978285 113.8429098  53.6134718  72.6462353
 113.2982566  54.3894526  72.7782628 114.7208448  53.9605522  72.4881475
 120.6316715  46.9446302  65.0243152 120.7532626  46.0162948  65.2234039
 120.3418757  46.9584988  64.1121467 123.5007905  44.6301212  68.1609872
 123.5229602  44.6940545  67.2061851 123.9175964  43.7905721  68.3550378
 133.8791530  54.3656472  66.1989094 134.3222676  53.6163797  65.8008218
 133.0018040  54.3566608  65.8162826 129.0127311  60.9186813  61.6795693
 129.7078215  61.5393506  61.8983008 129.3550461  60.0682164  61.9548071
 114.6295120  52.7404614  75.5392510 113.8876856  52.8887250  76.1257141
 114.3087864  53.0012880  74.6759260 130.9118734  58.3686519  63.2083024
 131.4370058  58.7073792  62.4832344 130.8241087  57.4333534  63.0246158
 122.5738783  62.2820592  75.3372900 122.8825909  62.0369739  76.2095600
 123.3714265  62.4867231  74.8491771 115.0751734  60.6270043  67.5702905
 115.9009754  60.3273815  67.1901548 114.7245786  59.8577665  68.0192694
 120.0433267  59.9796511  69.6400579 119.4213276  59.3167216  69.3402806
 120.7138134  60.0057643  68.9574226 113.2760339  58.5456369  68.5291839
 112.4392247  58.1178544  68.3475840 113.2483984  58.7388813  69.4662630
 120.1157794  48.4578299  79.2333085 120.1645950  49.3340422  78.8510854
 120.6580309  47.9155692  78.6604728 130.6012640  59.0019422  78.5134222
 129.8108184  58.9843561  77.9738721 130.3645995  59.5407716  79.2683258
 130.7210515  55.8511889  75.8266950 130.7708520  55.6861896  76.7682473
 130.6124438  54.9839148  75.4364831 119.6046774  58.5300434  63.1159039
 119.7534894  59.2135899  62.4625712 120.4113217  58.5105525  63.6308495
 128.0114277  51.8342817  77.1426257 128.9124140  51.6949282  76.8510255
 128.0862252  51.9997272  78.0824434 122.3457083  49.2109672  75.9879443
 121.4760392  49.5043238  75.7162032 122.5816563  49.7950117  76.7086707
 132.2228712  58.2708830  76.0708972 131.9313520  58.6338811  76.9072433
 131.6100843  57.5575839  75.8922304 133.4224394  55.8361710  68.5911542
 134.2571286  56.2751514  68.7549102 133.5583523  55.3600363  67.7719788
 130.4715900  53.3941445  74.5389030 130.9470022  53.5869091  73.7307881
 129.5481466  53.4500631  74.2932413 117.3599407  54.5565612  64.1220108
 117.1145449  53.6527942  64.3200318 117.5295321  54.5582763  63.1799586
 125.0496117  45.4289288  73.5044864 125.5678060  46.1650315  73.1791352
 124.6951249  45.7353282  74.3391623 116.6295054  50.2893970  61.6206269
 115.9364299  50.3638325  60.9646305 116.3846806  49.5254313  62.1427786
 125.3008711  41.8489571  69.0245760 125.5810465  41.1812760  69.6506187
 126.0859318  42.0418667  68.5120424 123.1042179  61.0248565  60.5870787
 122.5316146  61.6438752  60.1341258 123.6774973  61.5747927  61.1210708
 129.1717569  50.2707205  72.7717335 130.1234992  50.3705303  72.7929559
 129.0021020  49.4785474  73.2815420 127.1931949  47.3562788  72.9576736
 126.5981881  47.6367801  72.2623225 126.9081645  47.8456689  73.7293477
 126.3239439  61.3085715  61.7179369 127.2570112  61.2431277  61.9212244
 126.2362652  62.1441982  61.2593901 128.9527456  60.6251585  58.6783316
 128.8741087  60.2911449  59.5719074 129.7737123  61.1173353  58.6774789
 131.6505647  53.4913325  71.8859635 131.6181967  52.5529325  72.0719319
 132.2606271  53.5697361  71.1525460 123.4888978  52.3609378  57.9286839
 124.4348083  52.2315586  57.9975257 123.1103223  51.6224040  58.4056267
 131.8000135  50.2824368  71.9317918 131.2839184  49.4982825  71.7447847
 132.6840084  49.9543085  72.0964438 129.4610862  44.0265384  67.8913731
 129.2635683  43.7180472  68.7757063 130.0710568  44.7527023  68.0211661
 135.5497494  52.6937194  71.6240123 134.8230657  52.5593159  71.0156615
 135.1344781  53.0014023  72.4296841 123.3727670  56.4127124  79.3887496
 124.2930680  56.5905723  79.5827543 123.3377253  55.4683169  79.2367195
 121.6731895  50.2859354  57.8641724 120.7663350  49.9892467  57.9404438
 121.9507876  49.9889172  56.9976010 112.5909835  51.6065717  68.3140771
 112.2712620  50.7531026  68.0215145 112.0443264  51.8214296  69.0698738
 116.3689743  54.3228158  72.0310277 116.5875753  55.2545266  72.0498311
 116.7815517  53.9636133  72.8165081 123.2893961  44.8296244  64.0185966
 122.4794689  44.4843329  64.3941212 123.9778378  44.5203788  64.6073577
 125.2184509  43.9074291  65.6410262 125.7715548  44.3269744  66.3000285
 125.4554595  42.9810039  65.6833218 121.2417608  49.8961364  81.4213026
 121.1414335  50.8455721  81.3525117 121.0239150  49.5679603  80.5489096
 120.4430680  47.1446289  58.0053703 121.3049844  47.4701188  58.2649521
 120.6281024  46.3577785  57.4926769 112.4598095  55.2268629  70.2833892
 111.7661567  54.8122582  69.7703847 113.2071086  55.2689165  69.6867311
 128.5963316  46.0174816  65.1488926 128.0161985  46.6759620  64.7666979
 128.3299249  45.1952160  64.7376344 127.0466882  45.4179873  67.3510247
 127.5466661  45.5296408  66.5424566 127.6902490  45.1140926  67.9911055
 121.1048878  53.3258503  80.2378088 120.6215960  54.1258863  80.4441977
 121.1909817  53.3366448  79.2845532 114.3734838  55.1586883  68.1599907
 114.3505526  55.2574570  67.2081790 114.6835474  56.0052034  68.4817073
 117.0322216  57.2163038  72.2746522 117.9865469  57.1846980  72.2076453
 116.8334739  56.7553662  73.0896747 117.6221598  55.7864154  74.8417319
 118.4414487  56.2808232  74.8652156 117.8958406  54.8696122  74.8134887
 127.3788194  48.1774906  64.2045275 126.4914049  48.4624557  63.9865469
 127.7942183  48.0168669  63.3572552 130.7302730  48.2021427  67.9199614
 131.5063120  48.6917880  68.1924231 130.0050864  48.6279481  68.3771483
 133.1675289  48.9149046  68.9773555 133.7619780  48.6744782  68.2666863
 133.2401873  48.1956177  69.6047091 115.3872445  62.7582657  69.2916719
 115.2526912  61.9983058  68.7254717 114.9704507  63.4823557  68.8245508
 126.5231408  57.9419581  58.2993295 127.2267258  58.1469583  58.9150950
 125.7994056  58.5096343  58.5642378 127.3529218  53.6929442  64.4195565
 127.2964419  54.1497993  63.5803197 127.9057560  52.9320127  64.2418408
 131.1634024  49.4819174  65.2445684 130.9070958  49.0815810  66.0753892
 130.5386892  50.1962968  65.1195824 135.4746362  52.2215247  67.7516976
 134.9145920  52.2908436  68.5248538 134.8689865  52.0456232  67.0316472
 118.5441570  63.6551974  69.5035162 118.4273955  64.5997407  69.4013852
 117.7234017  63.3525536  69.8920961 128.4318105  58.3802110  60.3491755
 129.2663709  57.9483308  60.1669230 128.2702448  58.2084124  61.2768649
 128.0863997  54.8834223  61.7148094 128.0312801  54.7178495  60.7736538
 127.4610052  55.5910256  61.8710284 112.8756512  50.1202288  75.5409516
 113.5215376  49.6101242  76.0296741 112.6673663  50.8570969  76.1152941
 125.4009904  57.1883135  81.0401657 126.2701064  57.3623787  80.6788292
 124.9216656  58.0077552  80.9177386 121.3960123  44.3842332  61.2933412
 121.3838792  45.3284172  61.4501683 122.2883544  44.2012478  60.9992874
 119.5696085  64.3080236  72.7191090 120.4723331  64.3403846  73.0357585
 119.3433455  63.3780687  72.7337426 121.3249687  63.0611223  69.3801169
 120.3745318  63.0613084  69.2665541 121.6282173  62.3143957  68.8637204
 125.2112242  40.9785109  65.5479349 124.4444638  40.4243596  65.6936032
 125.6222947  41.0506978  66.4093501 117.2154003  47.2669905  79.6384530
 118.0785465  46.9106710  79.8487855 116.6419414  46.9283800  80.3259935
 133.8692086  68.8499189  70.3808456 133.5310598  68.7340254  69.4928991
 134.7381854  68.4490354  70.3609462 129.7278902  70.7034666  66.3705347
 129.1643767  70.6124603  65.6021635 129.6131297  69.8834570  66.8507840
 134.3511869  70.0034041  76.3394662 134.3400510  69.6086839  75.4675165
 134.5132509  69.2700114  76.9328433 127.2743334  72.1985857  69.2089568
 128.0664626  71.8576682  68.7935867 127.5139984  72.3080832  70.1291721
 135.3078461  74.3705633  61.6819812 134.6566440  74.9559714  61.2953826
 136.1022824  74.9011828  61.7414849 129.2334088  71.4594770  62.0806946
 130.0064964  70.9123758  61.9419822 129.5859487  72.3239020  62.2921408
 131.0719130  72.7871153  75.2873846 130.7808996  73.6916784  75.1720512
 131.7076115  72.8287680  76.0017915 131.9975337  70.1648001  71.8775205
 132.5938910  69.9404024  71.1632168 132.0550309  69.4232747  72.4800653
 131.5700366  67.6187437  59.7125396 131.8225886  67.0968958  58.9508859
 130.6324925  67.4553582  59.8152080 136.6143649  66.6223215  67.5200140
 137.4006738  66.2042638  67.1690557 136.8782353  67.5269307  67.6881788
 136.7853726  72.0596065  62.2188796 136.1499559  72.1330692  62.9309701
 136.4551132  72.6489664  61.5407876 131.2896654  69.5215543  61.9149771
 131.1732913  68.8460446  62.5830856 131.3998914  69.0347916  61.0981924
 133.6328195  68.9825690  65.6196460 133.2686403  68.4556311  66.3309382
 134.4895311  68.5924159  65.4462946 133.2733682  64.0115589  60.6157809
 133.4408085  64.8795826  60.9828280 133.0830851  64.1742871  59.6919098
 136.0309016  72.4732568  72.2823639 135.7309739  73.3757607  72.1739447
 135.6860075  72.2064751  73.1344792 129.4821497  68.9246365  68.3160344
 128.5571993  68.7922579  68.5238036 129.7305910  69.7040584  68.8130286
 133.2522903  66.4673247  61.6004476 133.1322528  66.9130298  62.4389956
 132.5575492  66.8158565  61.0418014 126.8430308  68.5679639  69.1504133
 126.9722689  68.8214118  70.0643545 126.1627759  69.1607347  68.8308788
 131.0129795  79.2376889  65.2494607 130.9353825  80.1884714  65.3283088
 130.4091439  78.8922761  65.9069533 133.5047025  66.4104754  77.9055974
 132.7280359  66.9698674  77.8958839 134.1437588  66.8961537  78.4270844
 131.7593397  69.2190207  77.4673941 132.5008082  69.7575251  77.1908765
 131.0530383  69.8456496  77.6245493 137.2348737  71.3619348  76.0646102
 137.6432093  70.9201758  75.3200735 136.5125999  70.7871975  76.3180295
 133.5879807  66.2991955  73.4379659 134.4341002  66.7231368  73.5814308
 133.5278445  65.6425579  74.1318223 137.5577552  71.9220538  69.8198391
 136.9286414  72.0866253  69.1174459 137.1703214  72.3362148  70.5909355
 136.7379252  63.9596323  75.0960833 136.4940184  64.7138384  74.5595109
 137.0139183  64.3381671  75.9308080 136.2943944  63.1152756  70.6774671
 135.4328423  63.4134010  70.9691408 136.3206379  63.3323155  69.7455703
 133.1105514  71.6594947  67.0848476 133.5743859  71.9382650  66.2953099
 132.8462312  70.7578391  66.9021567 130.0029595  71.2066428  70.0228240
 130.5730952  71.6353696  69.3845724 130.5937706  70.9249013  70.7212425
 132.0474400  67.7818099  63.8938042 132.7498443  68.2339143  64.3611968
 131.7155028  67.1401918  64.5217935 130.4954761  66.3729856  78.2689251
 129.8653422  67.0546136  78.5024648 130.3890849  66.2612937  77.3242389
 125.7899734  66.0401652  69.1955175 124.9998788  66.2959180  68.7195286
 126.2810981  66.8549989  69.3007216 127.7414479  66.4046231  66.1538652
 126.9445642  66.5164925  66.6722148 127.5140071  66.7432883  65.2879542
 133.5720147  72.9290934  74.1021166 133.6364579  73.3911341  74.9379338
 132.8631070  72.2988299  74.2303476 124.0737437  66.2932142  71.6270166
 124.3245475  67.1779152  71.8927742 124.6096985  66.1136744  70.8545258
 133.2868164  74.5959042  63.9700147 133.1513839  75.4410577  64.3984995
 133.8277977  74.7978319  63.2066081 129.7735504  60.6750621  80.6314502
 129.3802449  60.1216820  81.3062146 130.5901644  60.9861200  81.0221020
 128.5492446  75.2300236  66.6250825 128.7259075  76.1518201  66.4371809
 129.3449280  74.9158655  67.0545205 132.6903465  62.0908500  78.2234759
 133.4313178  62.6915654  78.1439221 132.9221388  61.3486138  77.6652801
 127.8344803  67.2764868  76.5012988 127.7198318  66.3750125  76.8020087
 126.9789321  67.5228565  76.1497805 134.9136641  75.2182608  78.1000489
 134.4700495  74.4318987  77.7821393 135.5753854  75.4061759  77.4344380
 129.6723762  76.7478410  72.6261167 130.2231187  76.6195473  71.8538161
 128.8335238  77.0473299  72.2756060 133.4690933  73.0129537  76.9705399
 134.0019270  72.2517826  76.7404706 132.9405014  72.7203189  77.7129553
 136.6360628  58.1189603  72.4999040 136.2924897  59.0091245  72.4238151
 137.0039590  57.9291261  71.6368625 136.6010911  68.1098215  61.0071475
 136.0857534  68.8802819  61.2459863 136.3288219  67.4363351  61.6304537
 134.1858022  62.9547915  66.0656714 133.3299618  62.5654766  65.8862352
 134.5984973  63.0339876  65.2056499 135.7157168  60.4894259  70.4648273
 135.2121964  60.4524394  69.6516079 136.0087775  61.3987001  70.5244930
 131.9600054  60.5732988  69.4714455 132.8253051  60.3775797  69.1120345
 132.0277563  60.3443340  70.3983812 136.3897214  65.9825307  62.8331257
 136.0847349  66.2971456  63.6841400 137.3427656  66.0606727  62.8758590
 134.8343646  72.1415530  64.4824211 134.3065007  71.4068290  64.1697448
 134.3331148  72.9190206  64.2364179 129.5662373  62.8035196  66.8430822
 130.1406125  62.5810378  66.1104015 130.1533356  62.8723891  67.5959423
 129.8931960  64.8339657  60.8626707 129.0569273  65.1714344  61.1835982
 129.7536730  64.6988637  59.9253844 131.8685041  59.6776445  65.5705891
 131.2149453  59.3625462  64.9462506 131.8265515  59.0552186  66.2965714
 132.9796246  69.9595740  57.4859184 132.0723307  69.7284994  57.6850333
 133.4767278  69.1633359  57.6733165 135.8864325  78.6693247  60.4055870
 135.2126023  78.9724944  61.0140828 136.2730147  79.4722328  60.0561327
 135.1022781  66.1658379  69.8953539 134.1845343  66.3873326  69.7375227
 135.5182925  66.2404689  69.0365246 135.8857829  67.5649794  65.0256219
 136.6329648  68.0771192  64.7163341 136.1549419  67.2433847  65.8860613
 134.1584479  70.0608335  62.0083174 133.2495698  69.7767368  62.1055643
 134.1879563  70.4807414  61.1486481 132.7069373  67.6736956  68.1092969
 132.7617983  66.7210792  68.0335446 131.8960575  67.8296395  68.5934267
 133.8560567  71.6017079  59.3471252 133.4179997  70.8852938  58.8876890
 134.5971008  71.8293194  58.7856344 130.6461733  66.2914015  65.8683348
 129.8329599  66.5908186  66.2748540 131.1420727  65.8969704  66.5857830
 132.7970311  76.2871772  67.8017613 132.7546490  76.5132619  66.8726145
 133.7133010  76.0535147  67.9503414 136.2435945  66.7555840  74.6998242
 136.5985333  66.9827313  75.5592708 136.8908076  67.0874217  74.0775497
 130.1375808  63.8632371  71.4844583 130.7775187  63.7221130  70.7867546
 129.3053338  63.5766884  71.1083185 130.9136112  73.1634801  67.5979575
 131.7076710  72.6685122  67.3962150 130.2027804  72.6352665  67.2347281
 135.7330956  75.5452897  71.9491943 135.7867979  76.1143833  72.7169659
 134.8645738  75.7154782  71.5845980 127.1404424  63.8332696  66.2617570
 127.4011242  64.7478029  66.1526730 127.9621597  63.3657139  66.4114182
 128.6129350  65.2470453  73.4316394 129.2852403  65.0387815  72.7829043
 127.7859136  65.0492539  72.9921626 134.5154922  61.8732394  75.4482055
 133.8682837  62.5722344  75.3546531 135.2855937  62.3068538  75.8158303
 134.6919056  69.7113159  73.5078875 135.6211116  69.8624319  73.3347842
 134.2710086  69.7997180  72.6527521 133.4907388  73.7363823  71.2777412
 133.3518473  73.3682608  72.1503350 132.7021984  74.2511463  71.1061370
 134.0855540  78.8372920  62.6202949 134.2607295  78.3660963  63.4348572
 133.3988328  79.4638686  62.8484210 135.0412603  73.1145426  68.6666250
 134.7062436  73.0746196  69.5623900 134.5416549  72.4490142  68.1936660
 129.0156847  68.5213056  74.1918831 128.8776645  67.7893295  74.7930370
 129.9261770  68.4321956  73.9103019 131.6439148  68.2333015  73.6802511
 132.3538766  67.5926208  73.6389129 131.6008456  68.4845910  74.6028692
 130.3568082  65.2198233  75.4998150 129.8205439  64.7688972  76.1519747
 129.7684790  65.3544142  74.7568615 128.6516625  81.9862283  69.3942809
 128.8913223  82.6180807  70.0721828 127.8085822  81.6350323  69.6808168
 129.7670340  64.6786885  58.0624614 128.8899807  64.5575685  57.6986861
 130.2428094  63.8872963  57.8103503 121.2872481  69.4664044  68.1566121
 121.9743520  69.1525774  67.5687137 121.1320609  70.3705409  67.8833373
 126.0907203  64.3554241  72.5851145 126.0065392  63.7479911  71.8501555
 125.2689909  64.8463259  72.5860641 133.1644487  77.7941405  71.7984313
 133.0914658  78.5996377  72.3103618 132.7221880  77.9933371  70.9732334
 132.9534267  77.0313175  65.3087135 132.1701788  77.5734855  65.4025359
 133.6527012  77.5487155  65.7081376 136.2630917  62.8407805  67.9521340
 136.7599616  62.0877767  67.6322410 135.4917898  62.8772121  67.3864549
 135.6243170  77.6928239  73.9542472 136.3371143  78.3275704  73.8818373
 135.1333199  77.7892105  73.1382474 137.3460697  71.5979492  65.5259763
 136.4116976  71.7180954  65.3564468 137.5237366  70.6951959  65.2619773
 132.8465885  64.9825188  67.6793025 132.4763673  64.4296228  68.3673930
 133.3424978  64.3783321  67.1268025 130.6755084  75.4422683  74.7748043
 131.3764543  76.0759166  74.9277437 130.2050199  75.7837414  74.0143682
 135.4363544  78.0326983  66.7028763 135.6185938  77.2148639  67.1656516
 136.2596530  78.2494675  66.2653653 135.7705709  76.9595168  63.9643812
 136.2993476  76.4487623  63.3513974 136.0333929  76.6437699  64.8289345
 134.5243943  68.7387101  79.0866630 133.8484580  68.6381230  79.7569005
 135.3471577  68.5826315  79.5502627 120.8640457  67.5464638  70.4283588
 120.9024556  67.0128228  71.2220706 120.3580750  67.0199843  69.8094566
 133.2666726  80.0454028  73.3224246 133.8185034  80.2085650  74.0873331
 133.6072919  80.6358466  72.6504271 128.2431219  62.3929178  73.9246131
 128.3072546  63.2544009  73.5123528 128.1798339  61.7803180  73.1918489
 127.7183492  64.4652311  77.5719165 128.3455530  64.0829388  78.1856689
 126.8611410  64.2466513  77.9374857 136.4035113  77.9936004  70.3087928
 136.2786253  77.1925744  69.7998874 137.0614204  78.4882197  69.8201898
 128.0243281  64.3484737  69.4865068 127.3029867  64.9620704  69.3472542
 128.8136537  64.8842501  69.4081714 130.8269595  61.6839163  75.7605720
 131.3503997  61.9301460  76.5232029 130.6081928  62.5159198  75.3408857
 126.2236876  63.9542838  63.6276845 125.8949582  63.0740217  63.4451951
 126.5776247  63.8990506  64.5153234 135.4716455  75.5897740  68.1371830
 135.3241417  74.6614448  68.3179400 136.2969948  75.6117831  67.6528906
 129.3378699  64.2415807  63.9952323 129.6774772  64.7701729  63.2730931
 129.7850820  64.5796214  64.7710889 132.0322140  62.6252858  73.4455391
 131.6918960  61.8260671  73.8476071 131.3261146  62.9254569  72.8732224
 132.6838612  59.7102171  71.8982714 133.5064681  59.2362649  71.7761604
 132.9276675  60.4892654  72.3981400 131.3246846  62.7390429  62.1945615
 132.0455209  63.1171682  61.6909332 130.7012150  63.4579306  62.2980593
 135.4677969  63.4435578  63.1303948 135.6841583  64.3260216  62.8292776
 134.9872036  63.0521791  62.4009590 130.2077190  66.4021291  69.7074692
 130.0621771  66.7161594  70.5998974 129.7302394  67.0206192  69.1545591
 132.0673573  63.3923839  69.7555582 132.0535142  62.4964932  69.4187880
 132.7846001  63.3994503  70.3893868 133.9199704  63.8261179  71.8008709
 133.6617482  64.7478250  71.7993040 133.3884744  63.4291614  72.4909173
 124.6822853  68.9426636  72.6462353 124.1376321  69.7186444  72.7782628
 125.5602203  69.2897440  72.4881475 131.4710469  62.2738219  65.0243152
 131.5926380  61.3454866  65.2234039 131.1812512  62.2876905  64.1121467
 134.3401660  59.9593130  68.1609872 134.3623357  60.0232463  67.2061851
 134.7569719  59.1197639  68.3550378 125.4688875  68.0696532  75.5392510
 124.7270611  68.2179167  76.1257141 125.1481619  68.3304797  74.6759260
 133.4132537  77.6112510  75.3372900 133.7219664  77.3661657  76.2095600
 134.2108019  77.8159149  74.8491771 133.4353149  79.7650420  67.5678277
 132.9958139  79.2726798  68.2611134 134.1861266  79.2223387  67.3270352
 130.8827021  75.3088429  69.6400579 130.2607031  74.6459134  69.3402806
 131.5531888  75.3349561  68.9574226 130.9551549  63.7870217  79.2333085
 131.0039704  64.6632340  78.8510854 131.4974063  63.2447610  78.6604728
 130.4440528  73.8592352  63.1159039 130.5928649  74.5427817  62.4625712
 131.2506972  73.8397442  63.6308495 133.1850837  64.5401589  75.9879443
 132.3154147  64.8335155  75.7162032 133.4210318  65.1242034  76.7086707
 128.1993161  69.8857530  64.1220108 127.9539203  68.9819860  64.3200318
 128.3689076  69.8874680  63.1799586 135.8889871  60.7581206  73.5044864
 136.4071815  61.4942233  73.1791352 135.5345004  61.0645199  74.3391623
 127.4688809  65.6185887  61.6206269 126.7758054  65.6930242  60.9646305
 127.2240561  64.8546231  62.1427786 136.1402465  57.1781489  69.0245760
 136.4204219  56.5104678  69.6506187 136.9253072  57.3710584  68.5120424
 133.9435934  76.3540483  60.5870787 133.3709901  76.9730670  60.1341258
 134.5168727  76.9039844  61.1210708 134.3282732  67.6901295  57.9286839
 135.2741837  67.5607503  57.9975257 133.9496977  66.9515957  58.4056267
 134.2121425  71.7419041  79.3887496 135.1324434  71.9197640  79.5827543
 134.1771008  70.7975087  79.2367195 132.5125649  65.6151272  57.8641724
 131.6057105  65.3184384  57.9404438 132.7901630  65.3181090  56.9976010
 127.2083497  69.6520076  72.0310277 127.4269507  70.5837184  72.0498311
 127.6209271  69.2928051  72.8165081 134.1287715  60.1588161  64.0185966
 133.3188443  59.8135246  64.3941212 134.8172132  59.8495705  64.6073577
 136.0578263  59.2366208  65.6410262 136.6109302  59.6561662  66.3000285
 136.2948350  58.3101956  65.6833218 132.0811363  65.2253282  81.4213026
 131.9808090  66.1747639  81.3525117 131.8632905  64.8971521  80.5489096
 131.2824434  62.4738207  58.0053703 132.1443598  62.7993105  58.2649521
 131.4674778  61.6869703  57.4926769 123.2991850  70.5560547  70.2833892
 122.6055321  70.1414499  69.7703847 124.0464841  70.5981083  69.6867311
 131.9442633  68.6550421  80.2378088 131.4609714  69.4550781  80.4441977
 132.0303572  68.6658366  79.2845532 125.2128592  70.4878800  68.1599907
 125.1899280  70.5866488  67.2081790 125.5229229  71.3343951  68.4817073
 127.8715970  72.5454955  72.2746522 128.8259224  72.5138898  72.2076453
 127.6728494  72.0845579  73.0896747 128.4615352  71.1156071  74.8417319
 129.2808241  71.6100150  74.8652156 128.7352160  70.1988040  74.8134887
 129.3835325  78.9843892  69.5035162 129.2667709  79.9289324  69.4013852
 128.5627771  78.6817454  69.8920961 123.7150267  65.4494205  75.5409516
 124.3609130  64.9393159  76.0296741 123.5067418  66.1862887  76.1152941
 136.2403659  72.5175053  81.0401657 137.1094818  72.6915705  80.6788292
 135.7610410  73.3369470  80.9177386 132.2353877  59.7134250  61.2933412
 132.2232547  60.6576090  61.4501683 133.1277299  59.5304395  60.9992874
 130.4089839  79.6372154  72.7191090 131.3117086  79.6695764  73.0357585
 130.1827209  78.7072605  72.7337426 132.1643441  78.3903140  69.3801169
 131.2139072  78.3905002  69.2665541 132.4675927  77.6435875  68.8637204
 136.0505997  56.3077027  65.5479349 135.2838392  55.7535513  65.6936032
 136.4616701  56.3798895  66.4093501 128.0547758  62.5961822  79.6384530
 128.9179219  62.2398627  79.8487855 127.4813168  62.2575717  80.3259935
 136.6293488  81.3693569  69.1955175 135.8392542  81.6251098  68.7195286
 137.1204735  82.1841907  69.3007216 134.9131191  81.6224060  71.6270166
 135.1639229  82.5071070  71.8927742 135.4490739  81.4428661  70.8545258
 135.5440233  85.7715052  65.3187642 136.3815455  86.1812060  65.1021350
 135.7218501  84.8314494  65.2887836 135.5666404  83.1105767  65.9898376
 135.3690804  82.5175128  65.2649442 135.0113068  82.8057977  66.7074315
 132.1266235  84.7955962  68.1566121 132.8137275  84.4817692  67.5687137
 131.9714364  85.6997327  67.8833373 136.9300957  79.6846159  72.5851145
 136.8459146  79.0771828  71.8501555 136.1083664  80.1755177  72.5860641
 131.7034211  82.8756555  70.4283588 131.7418311  82.3420146  71.2220706
 131.1974504  82.3491761  69.8094566 135.3342789  81.6020658  63.5037520
 135.6296230  80.6931336  63.4504573 134.4330825  81.5808397  63.1818522
 137.0630630  79.2834755  63.6276845 136.7343337  78.4032134  63.4451951
 137.4170001  79.2282424  64.5153234 135.5216607  84.2718553  72.6462353
 134.9770075  85.0478361  72.7782628 136.3995957  84.6189358  72.4881475
 136.3082629  83.3988450  75.5392510 135.5664365  83.5471085  76.1257141
 135.9875373  83.6596715  74.6759260 136.7539243  91.2853878  67.5702905
 137.5797263  90.9857650  67.1901548 136.4033295  90.5161501  68.0192694
 134.9547848  89.2040205  68.5291839 134.1179756  88.7762379  68.3475840
 134.9271493  89.3972648  69.4662630 134.2697344  82.2649553  68.3140771
 133.9500129  81.4114861  68.0215145 133.7230772  82.4798131  69.0698738
 134.1385604  85.8852464  70.2833892 133.4449076  85.4706417  69.7703847
 134.8858595  85.9273001  69.6867311 136.0522347  85.8170718  68.1599907
 136.0293035  85.9158405  67.2081790 136.3622983  86.6635869  68.4817073
 137.0659954  93.4166493  69.2916719 136.9314421  92.6566893  68.7254717
 136.6492016  94.1407392  68.8245508 134.5544021  80.7786123  75.5409516
 135.2002885  80.2685077  76.0296741 134.3461172  81.5154805  76.1152941
  98.4948533  10.2563258  51.9739914  98.4172563  11.2071083  52.0528394
  97.8910177   9.9109131  52.6314840  97.1542500   7.7664779  59.3506474
  97.7049925   7.6381843  58.5783468  96.3153975   8.0659668  59.0001367
 103.3683062   9.6879617  47.1301176 102.6944761   9.9911314  47.7386134
 103.7548884  10.4908697  46.7806633 101.5674278   9.8559289  49.3448256
 101.7426033   9.3847333  50.1593878 100.8807066  10.4825056  49.5729516
  96.1335363  13.0048652  56.1188116  96.3731961  13.6367176  56.7967134
  95.2904559  12.6536692  56.4053475 100.6463225   8.8127775  58.5229620
 100.5733396   9.6182746  59.0348924 100.2040618   9.0119740  57.6977641
 100.4353004   8.0499545  52.0332441  99.6520526   8.5921225  52.1270666
 101.1345749   8.5673524  52.4326682 103.1061908   8.7114609  60.6787778
 103.8189880   9.3462073  60.6063680 102.6151937   8.8078475  59.8627780
  93.7541540   5.9945407  58.4324452  94.3394977   5.2489095  58.5652356
  93.5566378   6.3049364  59.3161116  96.6080195   9.0296655  53.4486894
  95.9390570   9.5142782  52.9650934  96.4693065   9.2765875  54.3630273
 100.7485464  11.0640398  60.0469553 101.3003772  11.2272020  60.8118638
 101.0891657  11.6544836  59.3749577 100.8951275   8.6298880  62.0618207
 101.2038401   8.3848026  62.9340907 101.6926757   8.8345518  61.5737077
 100.9171887  10.7836789  54.2923584 100.4776877  10.2913168  54.9856440
 101.6680004  10.2409757  54.0515659  93.3964226   6.9748330  54.2948212
  94.2222246   6.6752102  53.9146855  93.0458278   6.2055953  54.7438000
  91.5972831   4.8934657  55.2537145  90.7604739   4.4656831  55.0721146
  91.5696476   5.0867100  56.1907936  93.7084937   9.1060945  56.0162026
  93.5739405   8.3461345  55.4500024  93.2916999   9.8301844  55.5490815
  96.8654063  10.0030262  56.2280469  96.7486447  10.9475694  56.1259159
  96.0446509   9.7003823  56.6166268  97.8908577  10.6558523  59.4436397
  98.7935824  10.6882134  59.7602892  97.6645947   9.7258974  59.4582733
  99.6462179   9.4089510  56.1046476  98.6957810   9.4091372  55.9910848
  99.9494665   8.6622245  55.5882510 115.3814872  15.2450048  57.1692238
 116.0193282  15.1256796  56.4655578 115.2635715  16.1930892  57.2280190
 112.1904579  15.1977476  57.1053763 111.8523090  15.0818541  56.2174298
 113.0594347  14.7968642  57.0854769 108.0491394  17.0512953  53.0950654
 107.4856259  16.9602890  52.3266942 107.9343789  16.2312857  53.5753146
 112.6724362  16.3512328  63.0639968 112.6613002  15.9565126  62.1920472
 112.8345001  15.6178401  63.6573740 105.5955826  18.5464144  55.9334874
 106.3877118  18.2054969  55.5181174 105.8352476  18.6559120  56.8537028
 113.6290953  20.7183921  48.4065119 112.9778933  21.3038001  48.0199132
 114.4235316  21.2490115  48.4660156 107.5546580  17.8073058  48.8052253
 108.3277456  17.2602045  48.6665129 107.9071979  18.6717307  49.0166714
 109.3931623  19.1349440  62.0119152 109.1021489  20.0395071  61.8965819
 110.0288607  19.1765968  62.7263222 110.3187830  16.5126289  58.6020512
 110.9151402  16.2882311  57.8877475 110.3762801  15.7711034  59.2045960
 109.8912858  13.9665724  46.4370703 110.1438379  13.4447245  45.6754166
 108.9537417  13.8031869  46.5397387 115.1066218  18.4074353  48.9434103
 114.4712051  18.4808979  49.6555008 114.7763625  18.9967951  48.2653182
 109.6109147  15.8693830  48.6395078 109.4945405  15.1938733  49.3076162
 109.7211407  15.3826204  47.8227231 111.9540688  15.3303977  52.3441767
 111.5898895  14.8034598  53.0554689 112.8107804  14.9402446  52.1708253
 114.3521508  18.8210855  59.0068946 114.0522231  19.7235894  58.8984753
 114.0072567  18.5543039  59.8590099 107.8033989  15.2724652  55.0405650
 106.8784486  15.1400866  55.2483342 108.0518402  16.0518872  55.5375593
 111.5735395  12.8151534  48.3249782 111.4535021  13.2608585  49.1635263
 110.8787984  13.1636852  47.7663321 105.1642800  14.9157926  55.8749439
 105.2935181  15.1692405  56.7888851 104.4840252  15.5085634  55.5554095
 109.3342288  25.5855176  51.9739914 109.2566317  26.5363001  52.0528394
 108.7303931  25.2401048  52.6314840 111.8259517  12.7583041  64.6301281
 111.0492851  13.3176961  64.6204145 112.4650080  13.2439824  65.1516151
 110.0805890  15.5668495  64.1919248 110.8220574  16.1053539  63.9154071
 109.3742875  16.1934783  64.3490799 115.5561229  17.7097635  62.7891409
 115.9644585  17.2680046  62.0446041 114.8338491  17.1350263  63.0425602
 111.9092299  12.6470242  60.1624966 112.7553495  13.0709655  60.3059615
 111.8490937  11.9903866  60.8563529 115.8790044  18.2698826  56.5443698
 115.2498906  18.4344540  55.8419766 115.4915706  18.6840435  57.3154662
 119.7579276  19.2053264  53.8988062 119.0730314  19.5852165  53.3485095
 119.8423125  19.8148590  54.6320009 117.0130207  16.8513223  60.4983405
 117.2247103  17.4944982  59.8217786 116.9659956  16.0175539  60.0305335
 111.4318006  18.0073234  53.8093783 111.8956351  18.2860937  53.0198406
 111.1674804  17.1056678  53.6266874 108.3242087  17.5544715  56.7473546
 108.8943444  17.9831984  56.1091031 108.9150199  17.2727300  57.4457732
 110.3686892  14.1296386  50.6183348 111.0710935  14.5817430  51.0857275
 110.0367520  13.4880205  51.2463241 108.8167253  12.7208143  64.9934558
 108.1865914  13.4024424  65.2269954 108.7103341  12.6091224  64.0487696
 104.1112226  12.3879939  55.9200482 103.3211280  12.6437467  55.4440592
 104.6023473  13.2028277  56.0252522 118.1276035  19.7285178  58.6705763
 118.9493479  19.3265365  58.3888444 118.1238438  19.6253412  59.6221878
 106.0626971  12.7524518  52.8783958 105.2658135  12.8643212  53.3967454
 105.8352563  13.0911170  52.0124849 111.8932639  19.2769221  60.8266473
 111.9577071  19.7389629  61.6624645 111.1843563  18.6466586  60.9548783
 102.3949929  12.6410429  58.3515473 102.6457967  13.5257439  58.6173049
 102.9309477  12.4615031  57.5790564 111.6080657  20.9437329  50.6945453
 111.4726331  21.7888865  51.1230301 112.1490469  21.1456606  49.9311387
 105.0610054  18.4612767  51.2673379 105.5734574  19.2556017  51.4178943
 105.7132767  17.7639057  51.2006980 106.8704939  21.5778523  53.3496132
 107.0471567  22.4996488  53.1617116 107.6661772  21.2636942  53.7790511
 106.1557295  13.6243155  63.2258295 106.0410810  12.7228412  63.5265394
 105.3001813  13.8706852  62.8743111 113.2349133  21.5660895  64.8245796
 112.7912987  20.7797274  64.5066700 113.8966346  21.7540046  64.1589686
 107.9936254  23.0956697  59.3506474 108.5443679  22.9673760  58.5783468
 107.1547730  23.3951586  59.0001367 115.3330371  21.8463695  62.8527197
 115.3148846  22.6672576  62.3607466 116.2550291  21.7217770  63.0777338
 111.7903425  19.3607825  63.6950705 112.3231762  18.5996113  63.4650013
 111.2617506  19.0681477  64.4374860 103.0258971  16.7901421  52.0432949
 103.8634193  17.1998430  51.8266657 103.2037238  15.8500863  52.0133143
 114.9223403  14.4576502  47.7316782 114.4070026  15.2281106  47.9705169
 114.6500711  13.7841638  48.3549843 119.8957677  17.2108856  49.6669955
 119.1187120  16.8720016  49.2225118 120.5749158  17.2161480  48.9924921
 113.1556138  18.4893817  51.2069517 112.6277499  17.7546577  50.8942755
 112.6543641  19.2668494  50.9609485 118.1348984  16.6842838  56.3236563
 117.4772658  17.3742099  56.4116692 118.9389383  17.0739270  56.6670550
 116.9454443  15.0387210  54.3740505 117.4586324  15.6717202  54.8762215
 117.5955667  14.4388406  54.0083865 108.2144453  11.1817945  47.5872014
 107.3781765  11.5192631  47.9081289 108.0749222  11.0466924  46.6499151
 111.3008738  16.3074027  44.2104490 110.3935800  16.0763281  44.4095639
 111.7979770  15.5111647  44.3978472 114.2076817  25.0171535  47.1301176
 113.5338516  25.3203231  47.7386134 114.5942639  25.8200615  46.7806633
 113.4235274  12.5136666  56.6198846 112.5057835  12.7351613  56.4620534
 113.8395417  12.5882976  55.7610553 114.2070321  13.9128082  51.7501526
 114.9542140  14.4249479  51.4408648 114.4761911  13.5912134  52.6105920
 112.4796971  16.4086622  48.7328480 111.5708191  16.1245655  48.8300950
 112.5092055  16.8285701  47.8731787 117.7116239  20.0193212  52.5019648
 117.2578566  19.1784122  52.5584838 117.0810206  20.6554610  52.8394428
 116.1549178  21.8569709  53.4369466 116.4472152  22.4174766  52.7181832
 116.6647799  22.1498270  54.1922625 103.0485142  14.1292136  52.7143682
 102.8509542  13.5361497  51.9894749 102.4931806  13.8244347  53.4319621
 111.0281865  14.0215243  54.8338276 111.0830475  13.0689079  54.7580752
 110.2173068  14.1774682  55.3179574 112.1773059  17.9495366  46.0716559
 111.7392489  17.2331225  45.6122196 112.9183500  18.1771481  45.5101650
 108.9674225  12.6392303  52.5928654 108.1542091  12.9386473  52.9993847
 109.4633220  12.2447991  53.3103137 111.1182803  22.6350060  54.5262919
 111.0758982  22.8610906  53.5971451 112.0345502  22.4013434  54.6748720
 114.5648437  13.1034127  61.4243548 114.9197825  13.3305600  62.2838014
 115.2120568  13.4352504  60.8020804 120.2946174  16.2252563  52.1292877
 120.1564073  16.4154159  51.2014067 119.9382393  16.9871946  52.5860929
 120.3215554  18.2929090  57.1404149 120.7552060  18.2004379  57.9887203
 121.0347134  18.2686591  56.5024165 109.2348604  19.5113089  54.3224882
 110.0289203  19.0163409  54.1207457 108.5240296  18.9830952  53.9592587
 114.0543449  21.8931184  58.6737250 114.1080471  22.4622120  59.4414965
 113.1858230  22.0633069  58.3091287 105.5431368  13.6556170  50.3984635
 104.6128956  13.5940626  50.6154597 105.6388840  13.1332123  49.6021276
 105.4616917  10.1810983  52.9862876 105.7223734  11.0956316  52.8772037
 106.2834089   9.7135426  53.1359489 106.9341842  11.5948740  60.1561701
 107.6064895  11.3866102  59.5074350 106.1071628  11.3970826  59.7166933
 121.1831103  18.3352791  59.6737034 121.3766993  19.2398601  59.9196309
 121.0831721  17.8760210  60.5075619 116.2446212  18.4859533  65.2477915
 116.0931718  18.2570085  64.3307999 116.2350891  19.4430135  65.2609260
 113.0131548  16.0591446  60.2324181 113.9423608  16.2102606  60.0593149
 112.5922578  16.1475467  59.3772828 111.8119880  20.0842111  58.0022719
 111.6730966  19.7160895  58.8748657 111.0234476  20.5989750  57.8306677
 112.4068032  25.1851207  49.3448256 112.5819788  24.7139250  50.1593878
 111.7200820  25.8116973  49.5729516 113.3625095  19.4623713  55.3911557
 113.0274928  19.4224483  56.2869207 112.8629041  18.7968429  54.9181967
 107.3369339  14.8691343  60.9164138 107.1989137  14.1371582  61.5175677
 108.2474263  14.7800243  60.6348326 116.2984287  16.8079748  45.6648616
 115.6813457  16.0826576  45.5681669 115.8300775  17.5689108  45.3215691
 109.9651640  14.5811303  60.4047818 110.6751258  13.9404495  60.3634436
 109.9220948  14.8324198  61.3273998 117.9538419  21.5178656  63.3254397
 117.8950965  20.8337876  62.6584980 118.3557937  22.2597646  62.8735023
 108.6780574  11.5676521  62.2243457 108.1417931  11.1167259  62.8765053
 108.0897282  11.7022429  61.4813921 106.9729117  28.3340570  56.1188116
 107.2125716  28.9659094  56.7967134 106.1298314  27.9828610  56.4053475
 108.0882833  11.0265172  44.7869921 107.2112299  10.9053973  44.4232167
 108.5640586  10.2351250  44.5348809 117.9555826  19.4818240  61.5568376
 117.0682605  19.1444162  61.6794775 118.5254377  18.7501271  61.7937142
  99.6084973  15.8142332  54.8811428 100.2956013  15.5004062  54.2932443
  99.4533102  16.7183696  54.6078679 104.4119695  10.7032528  59.3096452
 104.3277884  10.0958198  58.5746862 103.5902401  11.1941547  59.3105948
 111.4856979  24.1419692  58.5229620 111.4127151  24.9474664  59.0348924
 111.0434372  24.3411658  57.6977641 111.2746759  23.3791462  52.0332441
 110.4914281  23.9213143  52.1270666 111.9739504  23.8965442  52.4326682
 113.9455663  24.0406526  60.6787778 114.6583635  24.6753991  60.6063680
 113.4545691  24.1370392  59.8627780 115.6673190  17.9457779  52.2505070
 114.7329468  18.0659241  52.0809774 115.8449858  17.0430246  51.9865080
 108.9967576  21.7900970  61.4993349 109.6977036  22.4237453  61.6522743
 108.5262691  22.1315701  60.7388988 117.1221972  20.1318920  49.7841256
 117.3981816  20.0175514  50.6935130 116.2526471  19.7336404  49.7453429
 116.7968862  14.3445577  59.3245900 116.1440312  14.5921485  58.6698352
 117.1749242  13.5309715  58.9908377 113.7576036  24.3805270  53.4274070
 113.9398431  23.5626926  53.8901822 114.5809022  24.5972963  52.9898960
 114.0918202  23.3073456  50.6889118 114.6205968  22.7965910  50.0759280
 114.3546421  22.9915986  51.5534651 112.8456435  15.0865388  65.8111937
 112.1697072  14.9859518  66.4814312 113.6684069  14.9304602  66.2747934
 104.5935294  21.3237325  58.4324452 105.1788731  20.5781013  58.5652356
 104.3960133  21.6341282  59.3161116 107.4473950  24.3588572  53.4486894
 106.7784325  24.8434700  52.9650934 107.3086819  24.6057793  54.3630273
  99.1852949  13.8942925  57.1528895  99.2237049  13.3606516  57.9466013
  98.6793242  13.3678131  56.5339872 111.5879218  26.3932316  60.0469553
 112.1397526  26.5563937  60.8118638 111.9285412  26.9836754  59.3749577
 106.0395984  10.8130598  64.2964472 106.6668023  10.4307675  64.9101996
 105.1823903  10.5944800  64.6620164 116.4390092  21.2193573  65.9018207
 116.9829996  21.8323532  65.4073162 115.8576937  21.7773152  66.4185220
 102.8161527  12.6207027  50.2282826 103.1114968  11.7117706  50.1749880
 101.9149562  12.5994767  49.9063829 114.7247605  24.3414291  57.0333235
 114.5998745  23.5404031  56.5244180 115.3826696  24.8360485  56.5447205
 106.3455774  10.6963024  56.2110375 105.6242359  11.3098991  56.0717848
 107.1349029  11.2320789  56.1327021 116.7882514  22.1423311  58.6612785
 115.8412849  22.0228663  58.5891112 117.1365287  21.2545809  58.7439046
 104.5449368  10.3021125  50.3522152 104.2162074   9.4218504  50.1697257
 104.8988739  10.2468794  51.2398541 113.7928947  21.9376028  54.8617137
 113.6453909  21.0092735  55.0424707 114.6182441  21.9596118  54.3774212
 107.6591191  10.5894095  50.7197629 107.9987264  11.1180016  49.9976238
 108.1063312  10.9274501  51.4956196 117.3963069  22.7604586  55.9482010
 118.3209616  22.5547448  55.8106461 117.2278372  22.5120987  56.8571351
 108.5289683  12.7499578  56.4319999 108.3834263  13.0639882  57.3244280
 108.0514886  13.3684479  55.8790898 117.1858385  23.2790254  51.3044101
 117.3595263  22.7136676  50.5517954 117.6787276  24.0791149  51.1223591
 103.0035345  15.2904923  59.3707660 102.4588813  16.0664731  59.5027934
 103.8814695  15.6375727  59.2126782 118.1733558  22.5957018  48.4041000
 118.8684462  23.2163711  48.6228314 118.5156708  21.7452369  48.6793377
 103.7901367  14.4174819  62.2637817 103.0483103  14.5657454  62.8502447
 103.4694111  14.6783085  61.4004566 120.0724981  20.0456724  49.9328330
 120.5976305  20.3843996  49.2077650 119.9847333  19.1103739  49.7491465
 111.7345029  23.9590797  62.0618207 112.0432156  23.7139944  62.9340907
 112.5320511  24.1637436  61.5737077 111.7565641  26.1128707  54.2923584
 111.3170632  25.6205086  54.9856440 112.5073758  25.5701675  54.0515659
 104.2357980  22.3040248  54.2948212 105.0616000  22.0044020  53.9146855
 103.8852032  21.5347870  54.7438000 109.2039514  21.6566716  56.3645885
 108.5819523  20.9937421  56.0648113 109.8744381  21.6827848  55.6819533
 102.4366586  20.2226574  55.2537145 101.5998494  19.7948749  55.0721146
 102.4090231  20.4159018  56.1907936 119.7618887  20.6789627  65.2379528
 118.9714430  20.6613766  64.6984028 119.5252241  21.2177921  65.9928565
 119.8816762  17.5282094  62.5512257 119.9314767  17.3632101  63.4927780
 119.7730685  16.6609353  62.1610138 108.7653021  20.2070639  49.8404346
 108.9141141  20.8906104  49.1871018 109.5719464  20.1875729  50.3553801
 121.3834959  19.9479035  62.7954278 121.0919767  20.3109016  63.6317739
 120.7707090  19.2346044  62.6167610 122.5830641  17.5131915  55.3156849
 123.4177532  17.9521719  55.4794409 122.7189770  17.0370568  54.4965094
 119.6322147  15.0711650  61.2634336 120.1076269  15.2639296  60.4553188
 118.7087712  15.1270836  61.0177720 106.5205654  16.2335817  50.8465415
 106.2751695  15.3298147  51.0445625 106.6901568  16.2352967  49.9044893
 105.7901301  11.9664175  48.3451576 105.0970546  12.0408530  47.6891612
 105.5453053  11.2024518  48.8673093 112.2648426  22.7018770  47.3116093
 111.6922393  23.3208957  46.8586565 112.8381220  23.2518132  47.8456015
 115.4845686  22.9855920  48.4424675 116.4176359  22.9201482  48.6457551
 115.3968899  23.8212187  47.9839208 118.1133703  22.3021790  45.4028623
 118.0347334  21.9681654  46.2964381 118.9343369  22.7943558  45.4020095
 112.6495225  14.0379583  44.6532146 113.5954329  13.9085791  44.7220564
 112.2709470  13.2994244  45.1301574 112.5333917  18.0897329  66.1132803
 113.4536927  18.2675928  66.3072849 112.4983500  17.1453374  65.9612502
 110.8338142  11.9629559  44.5887031 109.9269597  11.6662672  44.6649744
 111.1114123  11.6659377  43.7221317 101.7516082  13.2835922  55.0386077
 101.4318866  12.4301231  54.7460451 101.2049510  13.4984501  55.7944045
 105.5295990  15.9998363  58.7555584 105.7481999  16.9315471  58.7743618
 105.9421763  15.6406338  59.5410388 110.4023855  11.5731569  68.1458333
 110.3020582  12.5225926  68.0770424 110.1845397  11.2449808  67.2734403
 101.6204342  16.9038834  57.0079199 100.9267814  16.4892787  56.4949153
 102.3677333  16.9459370  56.4112618 110.2655125  15.0028708  66.9623394
 109.7822207  15.8029068  67.1687283 110.3516064  15.0136653  66.0090838
 103.5341085  16.8357088  54.8845214 103.5111773  16.9344775  53.9327097
 103.8441721  17.6822238  55.2062380 106.1928462  18.8933243  58.9991828
 107.1471716  18.8617185  58.9321760 105.9940986  18.4323866  59.8142054
 106.7827845  17.4634359  61.5662626 107.6020734  17.9578437  61.5897463
 107.0564652  16.5466327  61.5380193 104.5478691  24.4352862  56.0162026
 104.4133159  23.6753263  55.4500024 104.1310754  25.1593762  55.5490815
 115.6837654  19.6189786  45.0238601 116.3873504  19.8239788  45.6396257
 114.9600303  20.1866548  45.2887685 116.5135465  15.3699647  51.1440871
 116.4570666  15.8268198  50.3048504 117.0663807  14.6090332  50.9663714
 107.7047817  25.3322179  56.2280469 107.5880201  26.2767612  56.1259159
 106.8840263  25.0295741  56.6166268 117.5924352  20.0572315  47.0737061
 118.4269956  19.6253513  46.8914536 117.4308695  19.8854329  48.0013956
 117.2470244  16.5604428  48.4393401 117.1919048  16.3948700  47.4981845
 116.6216299  17.2680461  48.5955590 102.0362759  11.7972493  62.2654823
 102.6821622  11.2871447  62.7542048 101.8279910  12.5341174  62.8398248
 114.5616151  18.8653340  67.7646963 115.4307311  19.0393992  67.4033598
 114.0822903  19.6847757  67.6422693 108.7302331  25.9850441  59.4436397
 109.6329578  26.0174051  59.7602892 108.5039701  25.0550892  59.4582733
 110.4855933  24.7381428  56.1046476 109.5351564  24.7383289  55.9910848
 110.7888419  23.9914162  55.5882510 126.2208627  30.5741966  57.1692238
 126.8587037  30.4548713  56.4655578 126.1029470  31.5222810  57.2280190
 123.0298333  30.5269394  57.1053763 122.6916845  30.4110459  56.2174298
 123.8988101  30.1260559  57.0854769 118.8885149  32.3804871  53.0950654
 118.3250014  32.2894807  52.3266942 118.7737544  31.5604775  53.5753146
 123.5118116  31.6804246  63.0639968 123.5006757  31.2857044  62.1920472
 123.6738756  30.9470318  63.6573740 116.4349581  33.8756062  55.9334874
 117.2270873  33.5346887  55.5181174 116.6746231  33.9851037  56.8537028
 124.4684707  36.0475838  48.4065119 123.8172687  36.6329919  48.0199132
 125.2629070  36.5782033  48.4660156 118.3940335  33.1364975  48.8052253
 119.1671211  32.5893962  48.6665129 118.7465734  34.0009225  49.0166714
 120.2325377  34.4641358  62.0119152 119.9415243  35.3686989  61.8965819
 120.8682362  34.5057885  62.7263222 121.1581584  31.8418206  58.6020512
 121.7545156  31.6174229  57.8877475 121.2156556  31.1002952  59.2045960
 120.7306612  29.2957642  46.4370703 120.9832133  28.7739163  45.6754166
 119.7931172  29.1323787  46.5397387 125.7749895  28.2993420  54.2445446
 126.5612985  27.8812843  53.8935863 126.0388600  29.2039512  54.4127095
 125.9459973  33.7366270  48.9434103 125.3105806  33.8100897  49.6555008
 125.6157379  34.3259869  48.2653182 131.1758322  28.2368653  55.1478425
 131.9083494  27.6667870  55.3816254 130.4197678  27.8490254  55.5884930
 120.4502901  31.1985747  48.6395078 120.3339159  30.5230651  49.3076162
 120.5605161  30.7118121  47.8227231 122.7934442  30.6595895  52.3441767
 122.4292649  30.1326516  53.0554689 123.6501558  30.2694364  52.1708253
 128.6983743  21.9490227  59.6073033 128.3667068  22.8185638  59.3834248
 128.1029356  21.6326511  60.2867064 122.4339929  25.6885794  47.3403116
 122.6014331  26.5566031  47.7073587 122.2437098  25.8513076  46.4164405
 125.1915262  34.1502773  59.0068946 124.8915985  35.0527812  58.8984753
 124.8466322  33.8834956  59.8590099 118.6427744  30.6016570  55.0405650
 117.7178240  30.4692784  55.2483342 118.8912157  31.3810789  55.5375593
 128.5912406  26.6685313  56.6866383 127.6829283  26.6000722  56.3925144
 128.5400002  27.1457258  57.5148209 122.4129150  28.1443452  48.3249782
 122.2928775  28.5900503  49.1635263 121.7181738  28.4928769  47.7663321
 116.0036555  30.2449844  55.8749439 116.1328936  30.4984322  56.7888851
 115.3234006  30.8377552  55.5554095 120.1736042  40.9147094  51.9739914
 120.0960072  41.8654919  52.0528394 119.5697686  40.5692966  52.6314840
 122.6653272  28.0874959  64.6301281 121.8886606  28.6468879  64.6204145
 123.3043835  28.5731742  65.1516151 130.4574052  24.8701752  58.4644257
 129.8148433  25.1634285  57.8184052 129.9528981  24.7554672  59.2697454
 128.1114216  28.6164925  49.1530117 129.0232072  28.8492312  48.9777814
 127.6023863  29.2001969  48.5905195 120.9199644  30.8960412  64.1919248
 121.6614329  31.4345456  63.9154071 120.2136630  31.5226701  64.3490799
 126.3954984  33.0389553  62.7891409 126.8038340  32.5971963  62.0446041
 125.6732245  32.4642180  63.0425602 122.7486054  27.9762160  60.1624966
 123.5947249  28.4001573  60.3059615 122.6884692  27.3195784  60.8563529
 126.7183798  33.5990743  56.5443698 126.0892661  33.7636458  55.8419766
 126.3309461  34.0132353  57.3154662 130.5973030  34.5345181  53.8988062
 129.9124069  34.9144083  53.3485095 130.6816880  35.1440508  54.6320009
 125.8985499  25.6366528  61.8206140 125.6546431  26.3908588  61.2840415
 126.1745430  26.0151876  62.6553387 127.8523962  32.1805140  60.4983405
 128.0640857  32.8236900  59.8217786 127.8053710  31.3467457  60.0305335
 125.4550191  24.7922961  57.4019977 124.5934670  25.0904214  57.6936715
 125.4812626  25.0093360  56.4701010 122.2711760  33.3365151  53.8093783
 122.7350106  33.6152854  53.0198406 122.0068558  32.4348596  53.6266874
 119.1635841  32.8836633  56.7473546 119.7337198  33.3123901  56.1091031
 119.7543953  32.6019218  57.4457732 121.2080646  29.4588304  50.6183348
 121.9104690  29.9109348  51.0857275 120.8761275  28.8172123  51.2463241
 119.6561008  28.0500060  64.9934558 119.0259668  28.7316341  65.2269954
 119.5497096  27.9383142  64.0487696 114.9505980  27.7171857  55.9200482
 114.1605034  27.9729385  55.4440592 115.4417228  28.5320194  56.0252522
 128.9669790  35.0577096  58.6705763 129.7887234  34.6557283  58.3888444
 128.9632193  34.9545330  59.6221878 116.9020726  28.0816436  52.8783958
 116.1051889  28.1935130  53.3967454 116.6746318  28.4203088  52.0124849
 122.7326393  34.6061139  60.8266473 122.7970826  35.0681546  61.6624645
 122.0237317  33.9758504  60.9548783 113.2343683  27.9702347  58.3515473
 113.4851722  28.8549357  58.6173049 113.7703232  27.7906948  57.5790564
 137.0575783  31.4015844  55.0190734 136.3039491  30.8323242  54.8634738
 137.1923324  31.3678509  55.9661369 122.4474411  36.2729246  50.6945453
 122.3120086  37.1180782  51.1230301 122.9884224  36.4748524  49.9311387
 118.9341751  22.3520826  67.3559809 118.5408696  21.7987025  68.0307453
 119.7507891  22.6631405  67.7466326 115.9003808  33.7904685  51.2673379
 116.4128329  34.5847935  51.4178943 116.5526521  33.0930975  51.2006980
 117.7098693  36.9070441  53.3496132 117.8865321  37.8288405  53.1617116
 118.5055527  36.5928860  53.7790511 121.8509712  23.7678705  64.9480065
 122.5919425  24.3685859  64.8684528 122.0827634  23.0256343  64.3898108
 116.9951050  28.9535073  63.2258295 116.8804565  28.0520330  63.5265394
 116.1395567  29.1998769  62.8743111 124.0742887  36.8952813  64.8245796
 123.6306742  36.1089192  64.5066700 124.7360101  37.0831963  64.1589686
 118.8330009  38.4248615  59.3506474 119.3837434  38.2965678  58.5783468
 117.9941484  38.7243504  59.0001367 126.1724125  37.1755613  62.8527197
 126.1542601  37.9964494  62.3607466 127.0944046  37.0509688  63.0777338
 122.6297180  34.6899742  63.6950705 123.1625516  33.9288031  63.4650013
 122.1011261  34.3973394  64.4374860 125.7966875  19.7959808  59.2244347
 125.4531144  20.6861450  59.1483457 126.1645837  19.6061466  58.3613932
 113.8652725  32.1193339  52.0432949 114.7027947  32.5290347  51.8266657
 114.0430993  31.1792781  52.0133143 125.7617157  29.7868419  47.7316782
 125.2463781  30.5573024  47.9705169 125.4894466  29.1133556  48.3549843
 123.3464268  24.6318120  52.7902020 122.4905865  24.2424971  52.6107659
 123.7591220  24.7110081  51.9301806 124.8763415  22.1664464  57.1893580
 124.3728211  22.1294599  56.3761385 125.1694022  23.0757206  57.2490237
 121.1206301  22.2503193  56.1959762 121.9859298  22.0546002  55.8365651
 121.1883810  22.0213545  57.1229119 130.7351431  32.5400774  49.6669955
 129.9580874  32.2011934  49.2225118 131.4142912  32.5453397  48.9924921
 125.5503460  27.6595512  49.5576563 125.2453596  27.9741661  50.4086706
 126.5033903  27.7376931  49.6003896 123.9949892  33.8185735  51.2069517
 123.4671254  33.0838494  50.8942755 123.4937395  34.5960411  50.9609485
 128.9742738  32.0134755  56.3236563 128.3166413  32.7034017  56.4116692
 129.7783138  32.4031187  56.6670550 118.7268620  24.4805401  53.5676129
 119.3012372  24.2580583  52.8349322 119.3139602  24.5494096  54.3204730
 127.7848197  30.3679128  54.3740505 128.2980079  31.0009120  54.8762215
 128.4349421  29.7680324  54.0083865 119.0538207  26.5109862  47.5872014
 118.2175519  26.8484549  47.9081289 118.9142977  26.3758842  46.6499151
 121.0291288  21.3546650  52.2951198 120.3755700  21.0395667  51.6707813
 120.9871762  20.7322391  53.0211021 122.1402492  31.6365945  44.2104490
 121.2329554  31.4055199  44.4095639 122.6373524  30.8403564  44.3978472
 125.0470571  40.3463452  47.1301176 124.3732270  40.6495149  47.7386134
 125.4336393  41.1492533  46.7806633 124.2629028  27.8428584  56.6198846
 123.3451589  28.0643531  56.4620534 124.6789172  27.9174894  55.7610553
 125.0464076  29.2419999  51.7501526 125.7935895  29.7541397  51.4408648
 125.3155665  28.9204052  52.6105920 123.3190726  31.7378540  48.7328480
 122.4101945  31.4537573  48.8300950 123.3485810  32.1577619  47.8731787
 128.5509993  35.3485130  52.5019648 128.0972320  34.5076039  52.5584838
 127.9203960  35.9846528  52.8394428 127.4942913  26.2777116  53.7320315
 126.7565670  25.7654502  54.0630558 127.7469686  25.8377497  52.9203592
 126.9942933  37.1861626  53.4369466 127.2865907  37.7466683  52.7181832
 127.5041553  37.4790187  54.1922625 127.5954540  19.0553368  54.3262085
 127.9013417  18.1950731  54.0388000 128.3207145  19.6470988  54.1261078
 113.8878896  29.4584054  52.7143682 113.6903296  28.8653415  51.9894749
 113.3325560  29.1536264  53.4319621 121.8675620  29.3507161  54.8338276
 121.9224230  28.3980997  54.7580752 121.0566822  29.5066600  55.3179574
 123.0166814  33.2787284  46.0716559 122.5786244  32.5623143  45.6122196
 123.7577255  33.5063399  45.5101650 119.8067980  27.9684220  52.5928654
 118.9935845  28.2678391  52.9993847 120.3026974  27.5739909  53.3103137
 121.9576558  37.9641977  54.5262919 121.9152737  38.1902824  53.5971451
 122.8739257  37.7305352  54.6748720 125.4042192  28.4326045  61.4243548
 125.7591579  28.6597518  62.2838014 126.0514323  28.7644422  60.8020804
 131.1339929  31.5544481  52.1292877 130.9957827  31.7446077  51.2014067
 130.7776147  32.3163864  52.5860929 119.2982055  25.5402576  58.2089889
 119.9381434  25.3991335  57.5112853 118.4659585  25.2537089  57.8328491
 131.1609308  33.6221008  57.1404149 131.5945815  33.5296297  57.9887203
 131.8740889  33.5978508  56.5024165 120.0742359  34.8405006  54.3224882
 120.8682957  34.3455326  54.1207457 119.3634051  34.3122869  53.9592587
 124.8937203  37.2223102  58.6737250 124.9474225  37.7914038  59.4414965
 124.0251984  37.3924987  58.3091287 116.3825122  28.9848088  50.3984635
 115.4522710  28.9232544  50.6154597 116.4782594  28.4624041  49.6021276
 116.3010671  25.5102901  52.9862876 116.5617488  26.4248234  52.8772037
 117.1227843  25.0427343  53.1359489 117.7735596  26.9240658  60.1561701
 118.4458650  26.7158020  59.5074350 116.9465383  26.7262744  59.7166933
 132.0224858  33.6644708  59.6737034 132.2160748  34.5690519  59.9196309
 131.9225476  33.2052127  60.5075619 123.6761168  23.5502599  62.1727362
 123.0289083  24.2492549  62.0791838 124.4462184  23.9838743  62.5403610
 127.0839966  33.8151451  65.2477915 126.9325473  33.5862003  64.3307999
 127.0744646  34.7722053  65.2609260 123.8525303  31.3883364  60.2324181
 124.7817363  31.5394523  60.0593149 123.4316333  31.4767385  59.3772828
 122.6513635  35.4134028  58.0022719 122.5124720  35.0452813  58.8748657
 121.8628231  35.9281668  57.8306677 123.2461787  40.5143125  49.3448256
 123.4213542  40.0431168  50.1593878 122.5594575  41.1408891  49.5729516
 124.2018850  34.7915631  55.3911557 123.8668682  34.7516401  56.2869207
 123.7022795  34.1260347  54.9181967 118.1763094  30.1983261  60.9164138
 118.0382892  29.4663500  61.5175677 119.0868017  30.1092161  60.6348326
 127.1378041  32.1371665  45.6648616 126.5207212  31.4118493  45.5681669
 126.6694530  32.8981026  45.3215691 120.8045394  29.9103220  60.4047818
 121.5145013  29.2696413  60.3634436 120.7614702  30.1616115  61.3273998
 128.7932173  36.8470574  63.3254397 128.7344719  36.1629794  62.6584980
 129.1951691  37.5889564  62.8735023 119.5174328  26.8968438  62.2243457
 118.9811685  26.4459177  62.8765053 118.9291037  27.0314347  61.4813921
 117.8122872  43.6632488  56.1188116 118.0519470  44.2951012  56.7967134
 116.9692068  43.3120528  56.4053475 118.9276587  26.3557090  44.7869921
 118.0506054  26.2345890  44.4232167 119.4034340  25.5643168  44.5348809
 128.7949580  34.8110158  61.5568376 127.9076359  34.4736079  61.6794775
 129.3648131  34.0793189  61.7937142 110.4478727  31.1434249  54.8811428
 111.1349767  30.8295979  54.2932443 110.2926856  32.0475614  54.6078679
 115.2513450  26.0324446  59.3096452 115.1671638  25.4250115  58.5746862
 114.4296156  26.5233464  59.3105948 122.3250734  39.4711610  58.5229620
 122.2520905  40.2766581  59.0348924 121.8828127  39.6703576  57.6977641
 122.1140513  38.7083380  52.0332441 121.3308035  39.2505060  52.1270666
 122.8133258  39.2257360  52.4326682 125.4237163  24.5178009  54.6766647
 125.9205863  23.7647972  54.3567717 124.6524145  24.5542326  54.1109856
 133.2766921  30.2218375  56.3184938 133.2656797  31.1043090  55.9478871
 132.4084300  29.8689926  56.1239475 124.7849417  39.3698444  60.6787778
 125.4977389  40.0045909  60.6063680 124.2939446  39.4662310  59.8627780
 126.5066944  33.2749697  52.2505070 125.5723223  33.3951159  52.0809774
 126.6843613  32.3722163  51.9865080 122.0072132  26.6595392  54.4038331
 121.6369920  26.1066433  55.0919237 122.5031225  26.0553526  53.8513331
 129.8939495  29.1167016  52.7855104 130.3599948  29.9495008  52.7115407
 130.3446996  28.6511998  53.4900363 119.8361331  37.1192887  61.4993349
 120.5370790  37.7529370  61.6522743 119.3656446  37.4607619  60.7388988
 127.9615727  35.4610837  49.7841256 128.2375570  35.3467432  50.6935130
 127.0920225  35.0628322  49.7453429 127.8656158  21.4847603  56.8246005
 126.9519238  21.7151830  56.9928212 128.2949260  21.5686047  57.6760038
 127.6362617  29.6737495  59.3245900 126.9834067  29.9213402  58.6698352
 128.0142997  28.8601633  58.9908377 124.5969791  39.7097188  53.4274070
 124.7792185  38.8918844  53.8901822 125.4202777  39.9264880  52.9898960
 124.9311956  38.6365373  50.6889118 125.4599722  38.1257828  50.0759280
 125.1940176  38.3207903  51.5534651 123.6850190  30.4157306  65.8111937
 123.0090827  30.3151435  66.4814312 124.5077824  30.2596520  66.2747934
 115.4329049  36.6529242  58.4324452 116.0182486  35.9072930  58.5652356
 115.2353887  36.9633199  59.3161116 118.2867704  39.6880490  53.4486894
 117.6178079  40.1726618  52.9650934 118.1480574  39.9349710  54.3630273
 110.0246704  29.2234843  57.1528895 110.0630803  28.6898433  57.9466013
 109.5186996  28.6970048  56.5339872 122.4272973  41.7224233  60.0469553
 122.9791281  41.8855855  60.8118638 122.7679166  42.3128671  59.3749577
 117.4037466  24.0699383  60.6491437 117.4678792  24.9314214  60.2368835
 117.3404586  23.4573385  59.9163796 116.8789738  26.1422516  64.2964472
 117.5061777  25.7599593  64.9101996 116.0217657  25.9236718  64.6620164
 127.2783847  36.5485491  65.9018207 127.8223751  37.1615449  65.4073162
 126.6970692  37.1065069  66.4185220 113.6555281  27.9498945  50.2282826
 113.9508722  27.0409623  50.1749880 112.7543317  27.9286684  49.9063829
 125.5641360  39.6706209  57.0333235 125.4392499  38.8695949  56.5244180
 126.2220451  40.1652402  56.5447205 117.1849528  26.0254941  56.2110375
 116.4636114  26.6390909  56.0717848 117.9742784  26.5612706  56.1327021
 127.6276268  37.4715229  58.6612785 126.6806604  37.3520580  58.5891112
 127.9759041  36.5837727  58.7439046 119.9875842  23.3609368  62.4851027
 120.5110243  23.6071664  63.2477336 119.7688175  24.1929403  62.0654164
 115.3843123  25.6313043  50.3522152 115.0555829  24.7510421  50.1697257
 115.7382493  25.5760711  51.2398541 124.6322702  37.2667945  54.8617137
 124.4847664  36.3384653  55.0424707 125.4576195  37.2888036  54.3774212
 118.4984946  25.9186012  50.7197629 118.8381018  26.4471934  49.9976238
 118.9457066  26.2566418  51.4956196 128.2356823  38.0896504  55.9482010
 129.1603371  37.8839365  55.8106461 128.0672127  37.8412905  56.8571351
 121.1928387  24.3023063  60.1700697 120.8525207  23.5030876  60.5721377
 120.4867393  24.6024774  59.5977530 121.8444858  21.3872375  58.6228020
 122.6670928  20.9132854  58.5006911 122.0882922  22.1662859  59.1226707
 120.4853093  24.4160634  48.9190922 121.2061455  24.7941887  48.4154639
 119.8618397  25.1349511  49.0225900 124.6284216  25.1205783  49.8549254
 124.8447830  26.0030421  49.5538082 124.1478283  24.7291996  49.1254896
 119.3683437  28.0791496  56.4319999 119.2228018  28.3931799  57.3244280
 118.8908641  28.6976396  55.8790898 121.2279820  25.0694044  56.4800888
 121.2141389  24.1735137  56.1433186 121.9452248  25.0764708  57.1139175
 123.0805951  25.5031384  58.5254016 122.8223729  26.4248455  58.5238346
 122.5490991  25.1061819  59.2154480 128.0252140  38.6082171  51.3044101
 128.1989017  38.0428594  50.5517954 128.5181031  39.4083066  51.1223591
 113.8429099  30.6196841  59.3707660 113.2982567  31.3956648  59.5027934
 114.7208449  30.9667645  59.2126782 120.6316716  23.9508424  51.7488459
 120.7532627  23.0225071  51.9479346 120.3418758  23.9647110  50.8366774
 123.5007906  21.6363335  54.8855178 123.5229603  21.7002668  53.9307158
 123.9175965  20.7967843  55.0795685 133.8791531  31.3718594  52.9234401
 134.3222677  30.6225920  52.5253524 133.0018041  31.3628731  52.5408133
 129.0127312  37.9248936  48.4041000 129.7078217  38.5455629  48.6228314
 129.3550462  37.0744287  48.6793377 114.6295121  29.7466737  62.2637817
 113.8876857  29.8949372  62.8502447 114.3087866  30.0075002  61.4004566
 130.9118735  35.3748641  49.9328330 131.4370059  35.7135914  49.2077650
 130.8241088  34.4395657  49.7491465 122.5738784  39.2882715  62.0618207
 122.8825910  39.0431862  62.9340907 123.3714266  39.4929353  61.5737077
 122.5959396  41.4420625  54.2923584 122.1564386  40.9497003  54.9856440
 123.3467513  40.8993592  54.0515659 115.0751735  37.6332165  54.2948212
 115.9009755  37.3335937  53.9146855 114.7245787  36.8639788  54.7438000
 120.0433268  36.9858634  56.3645885 119.4213277  36.3229339  56.0648113
 120.7138135  37.0119766  55.6819533 113.2760340  35.5518492  55.2537145
 112.4392248  35.1240666  55.0721146 113.2483985  35.7450935  56.1907936
 120.1157796  25.4640422  65.9578391 120.1645951  26.3402545  65.5756161
 120.6580310  24.9217815  65.3850034 130.6012641  36.0081545  65.2379528
 129.8108185  35.9905684  64.6984028 130.3645996  36.5469839  65.9928565
 130.7210516  32.8574011  62.5512257 130.7708521  32.6924019  63.4927780
 130.6124440  31.9901270  62.1610138 119.6046775  35.5362557  49.8404346
 119.7534895  36.2198021  49.1871018 120.4113218  35.5167647  50.3553801
 128.0114279  28.8404939  63.8671564 128.9124141  28.7011404  63.5755561
 128.0862253  29.0059394  64.8069741 122.3457084  26.2171794  62.7124750
 121.4760393  26.5105360  62.4407338 122.5816564  26.8012239  63.4332013
 132.2228713  35.2770953  62.7954278 131.9313521  35.6400933  63.6317739
 131.6100844  34.5637961  62.6167610 133.4224395  32.8423833  55.3156849
 134.2571287  33.2813637  55.4794409 133.5583524  32.3662486  54.4965094
 130.4715901  30.4003568  61.2634336 130.9470023  30.5931214  60.4553188
 129.5481467  30.4562753  61.0177720 117.3599408  31.5627735  50.8465415
 117.1145450  30.6590065  51.0445625 117.5295323  31.5644885  49.9044893
 125.0496118  22.4351411  60.2290170 125.5678062  23.1712438  59.9036659
 124.6951251  22.7415404  61.0636929 116.6295056  27.2956092  48.3451576
 115.9364300  27.3700447  47.6891612 116.3846807  26.5316436  48.8673093
 125.3008712  18.8551694  55.7491067 125.5810466  18.1874883  56.3751493
 126.0859319  19.0480789  55.2365731 123.1042181  38.0310688  47.3116093
 122.5316148  38.6500875  46.8586565 123.6774974  38.5810049  47.8456015
 129.1717570  27.2769328  59.4962642 130.1234993  27.3767425  59.5174866
 129.0021021  26.4847596  60.0060726 127.1931950  24.3624911  59.6822043
 126.5981882  24.6429924  58.9868531 126.9081647  24.8518812  60.4538784
 126.3239440  38.3147838  48.4424675 127.2570113  38.2493399  48.6457551
 126.2362653  39.1504104  47.9839208 128.9527457  37.6313708  45.4028623
 128.8741089  37.2973572  46.2964381 129.7737124  38.1235476  45.4020095
 131.6505648  30.4975447  58.6104942 131.6181968  29.5591448  58.7964625
 132.2606272  30.5759484  57.8770766 123.4888979  29.3671500  44.6532146
 124.4348084  29.2377708  44.7220564 123.1103224  28.6286162  45.1301574
 131.8000137  27.2886491  58.6563225 131.2839185  26.5044947  58.4693154
 132.6840085  26.9605207  58.8209744 129.4610864  21.0327506  54.6159037
 129.2635685  20.7242594  55.5002369 130.0710569  21.7589145  54.7456967
 135.5497495  29.6999317  58.3485430 134.8230659  29.5655282  57.7401921
 135.1344782  30.0076145  59.1542148 123.3727672  33.4189246  66.1132803
 124.2930681  33.5967845  66.3072849 123.3377255  32.4745292  65.9612502
 121.6731896  27.2921477  44.5887031 120.7663352  26.9954589  44.6649744
 121.9507877  26.9951295  43.7221317 112.5909837  28.6127840  55.0386077
 112.2712621  27.7593148  54.7460451 112.0443265  28.8276418  55.7944045
 116.3689744  31.3290281  58.7555584 116.5875754  32.2607389  58.7743618
 116.7815518  30.9698255  59.5410388 123.2893962  21.8358366  50.7431272
 122.4794690  21.4905451  51.1186518 123.9778379  21.5265910  51.3318884
 125.2184510  20.9136413  52.3655569 125.7715549  21.3331867  53.0245592
 125.4554597  19.9872161  52.4078525 121.2417609  26.9023487  68.1458333
 121.1414336  27.8517844  68.0770424 121.0239151  26.5741726  67.2734403
 120.4430681  24.1508412  44.7299010 121.3049845  24.4763310  44.9894827
 120.6281025  23.3639908  44.2172076 112.4598097  32.2330752  57.0079199
 111.7661568  31.8184704  56.4949153 113.2071088  32.2751288  56.4112618
 128.5963317  23.0236938  51.8734233 128.0161986  23.6821742  51.4912285
 128.3299250  22.2014283  51.4621651 127.0466884  22.4241996  54.0755553
 127.5466662  22.5358531  53.2669872 127.6902492  22.1203049  54.7156362
 121.1048880  30.3320626  66.9623394 120.6215961  31.1320986  67.1687283
 121.1909819  30.3428571  66.0090838 114.3734839  32.1649005  54.8845214
 114.3505527  32.2636693  53.9327097 114.6835476  33.0114156  55.2062380
 117.0322217  34.2225160  58.9991828 117.9865471  34.1909103  58.9321760
 116.8334741  33.7615784  59.8142054 117.6221599  32.7926276  61.5662626
 118.4414488  33.2870355  61.5897463 117.8958407  31.8758245  61.5380193
 127.3788195  25.1837029  50.9290581 126.4914050  25.4686679  50.7110776
 127.7942184  25.0230792  50.0817858 130.7302731  25.2083550  54.6444921
 131.5063122  25.6980002  54.9169537 130.0050866  25.6341604  55.1016790
 133.1675290  25.9211169  55.7018861 133.7619781  25.6806905  54.9912169
 133.2401874  25.2018299  56.3292397 115.3872446  39.7644780  56.0162026
 115.2526914  39.0045181  55.4500024 114.9704508  40.4885680  55.5490815
 126.5231409  34.9481703  45.0238601 127.2267259  35.1531706  45.6396257
 125.7994058  35.5158465  45.2887685 127.3529219  30.6991565  51.1440871
 127.2964420  31.1560116  50.3048504 127.9057562  29.9382249  50.9663714
 131.1634025  26.4881297  51.9690991 130.9070959  26.0877932  52.7999199
 130.5386893  27.2025090  51.8441130 135.4746363  29.2277370  54.4762282
 134.9145921  29.2970559  55.2493844 134.8689866  29.0518354  53.7561779
 118.5441572  40.6614097  56.2280469 118.4273956  41.6059529  56.1259159
 117.7234018  40.3587658  56.6166268 128.4318106  35.3864233  47.0737061
 129.2663710  34.9545431  46.8914536 128.2702449  35.2146246  48.0013956
 128.0863998  31.8896346  48.4393401 128.0312802  31.7240617  47.4981845
 127.4610054  32.5972379  48.5955590 112.8756513  27.1264410  62.2654823
 113.5215377  26.6163364  62.7542048 112.6673664  27.8633092  62.8398248
 125.4009906  34.1945258  67.7646963 126.2701065  34.3685910  67.4033598
 124.9216657  35.0139675  67.6422693 121.3960124  21.3904455  48.0178719
 121.3838794  22.3346295  48.1746990 122.2883546  21.2074600  47.7238180
 119.5696086  41.3142359  59.4436397 120.4723332  41.3465969  59.7602892
 119.3433456  40.3842810  59.4582733 121.3249688  40.0673345  56.1046476
 120.3745319  40.0675207  55.9910848 121.6282174  39.3206080  55.5882510
 125.2112243  17.9847232  52.2724656 124.4444639  17.4305718  52.4181338
 125.6222948  18.0569100  53.1338807 117.2154004  24.2732027  66.3629837
 118.0785466  23.9168832  66.5733162 116.6419415  23.9345922  67.0505241
 133.8692088  45.8561312  57.1053763 133.5310599  45.7402377  56.2174298
 134.7381856  45.4552477  57.0854769 129.7278903  47.7096788  53.0950654
 129.1643768  47.6186725  52.3266942 129.6131298  46.8896693  53.5753146
 134.3511871  47.0096164  63.0639968 134.3400511  46.6148962  62.1920472
 134.5132510  46.2762236  63.6573740 127.2743335  49.2047980  55.9334874
 128.0664627  48.8638804  55.5181174 127.5139985  49.3142955  56.8537028
 135.3078462  51.3767756  48.4065119 134.6566442  51.9621836  48.0199132
 136.1022825  51.9073951  48.4660156 129.2334089  48.4656893  48.8052253
 130.0064965  47.9185880  48.6665129 129.5859488  49.3301142  49.0166714
 131.0719132  49.7933275  62.0119152 130.7808998  50.6978906  61.8965819
 131.7076116  49.8349803  62.7263222 131.9975339  47.1710124  58.6020512
 132.5938911  46.9466146  57.8877475 132.0550310  46.4294869  59.2045960
 131.5700367  44.6249559  46.4370703 131.8225888  44.1031080  45.6754166
 130.6324926  44.4615705  46.5397387 136.6143650  43.6285338  54.2445446
 137.4006739  43.2104761  53.8935863 136.8782354  44.5331430  54.4127095
 136.7853727  49.0658188  48.9434103 136.1499560  49.1392814  49.6555008
 136.4551134  49.6551787  48.2653182 131.2896656  46.5277665  48.6395078
 131.1732914  45.8522569  49.3076162 131.3998916  46.0410039  47.8227231
 133.6328197  45.9887812  52.3441767 133.2686404  45.4618433  53.0554689
 134.4895313  45.5986281  52.1708253 133.2733684  41.0177712  47.3403116
 133.4408086  41.8857948  47.7073587 133.0830853  41.1804994  46.4164405
 136.0309017  49.4794691  59.0068946 135.7309740  50.3819730  58.8984753
 135.6860076  49.2126874  59.8590099 129.4821498  45.9308488  55.0405650
 128.5571995  45.7984702  55.2483342 129.7305911  46.7102707  55.5375593
 133.2522904  43.4735369  48.3249782 133.1322530  43.9192420  49.1635263
 132.5575493  43.8220687  47.7663321 126.8430309  45.5741761  55.8749439
 126.9722690  45.8276240  56.7888851 126.1627761  46.1669469  55.5554095
 131.0129797  56.2439011  51.9739914 130.9353826  57.1946836  52.0528394
 130.4091440  55.8984884  52.6314840 133.5047026  43.4166877  64.6301281
 132.7280360  43.9760797  64.6204145 134.1437589  43.9023660  65.1516151
 131.7593399  46.2252330  64.1919248 132.5008083  46.7637374  63.9154071
 131.0530384  46.8518619  64.3490799 137.2348738  48.3681470  62.7891409
 137.6432094  47.9263881  62.0446041 136.5126000  47.7934098  63.0425602
 133.5879808  43.3054077  60.1624966 134.4341004  43.7293491  60.3059615
 133.5278446  42.6487702  60.8563529 137.5577553  48.9282661  56.5443698
 136.9286415  49.0928375  55.8419766 137.1703215  49.3424271  57.3154662
 136.7379254  40.9658446  61.8206140 136.4940186  41.7200506  61.2840415
 137.0139184  41.3443793  62.6553387 136.2943945  40.1214879  57.4019977
 135.4328424  40.4196132  57.6936715 136.3206380  40.3385277  56.4701010
 133.1105515  48.6657069  53.8093783 133.5743860  48.9444772  53.0198406
 132.8462313  47.7640514  53.6266874 130.0029596  48.2128551  56.7473546
 130.5730953  48.6415819  56.1091031 130.5937708  47.9311135  57.4457732
 132.0474401  44.7880222  50.6183348 132.7498444  45.2401265  51.0857275
 131.7155029  44.1464040  51.2463241 130.4954762  43.3791978  64.9934558
 129.8653423  44.0608259  65.2269954 130.3890850  43.2675060  64.0487696
 125.7899735  43.0463774  55.9200482 124.9998789  43.3021303  55.4440592
 126.2810982  43.8612112  56.0252522 127.7414480  43.4108353  52.8783958
 126.9445643  43.5227048  53.3967454 127.5140072  43.7495006  52.0124849
 133.5720148  49.9353057  60.8266473 133.6364580  50.3973464  61.6624645
 132.8631072  49.3050422  60.9548783 124.0737438  43.2994265  58.3515473
 124.3245476  44.1841275  58.6173049 124.6096986  43.1198866  57.5790564
 133.2868165  51.6021164  50.6945453 133.1513840  52.4472700  51.1230301
 133.8277978  51.8040442  49.9311387 129.7735505  37.6812744  67.3559809
 129.3802451  37.1278943  68.0307453 130.5901645  37.9923322  67.7466326
 126.7397563  49.1196602  51.2673379 127.2522083  49.9139852  51.4178943
 127.3920276  48.4222893  51.2006980 128.5492448  52.2362358  53.3496132
 128.7259076  53.1580323  53.1617116 129.3449281  51.9220778  53.7790511
 132.6903466  39.0970623  64.9480065 133.4313179  39.6977776  64.8684528
 132.9221389  38.3548261  64.3898108 127.8344804  44.2826990  63.2258295
 127.7198319  43.3812248  63.5265394 126.9789322  44.5290687  62.8743111
 134.9136642  52.2244731  64.8245796 134.4700496  51.4381109  64.5066700
 135.5753855  52.4123881  64.1589686 129.6723763  53.7540532  59.3506474
 130.2231188  53.6257596  58.5783468 128.8335239  54.0535421  59.0001367
 133.4690934  50.0191660  63.6950705 134.0019271  49.2579948  63.4650013
 132.9405015  49.7265312  64.4374860 136.6360629  35.1251726  59.2244347
 136.2924898  36.0153368  59.1483457 137.0039592  34.9353384  58.3613932
 124.7046480  47.4485256  52.0432949 125.5421702  47.8582265  51.8266657
 124.8824747  46.5084699  52.0133143 136.6010912  45.1160337  47.7316782
 136.0857535  45.8864942  47.9705169 136.3288220  44.4425473  48.3549843
 134.1858023  39.9610038  52.7902020 133.3299619  39.5716888  52.6107659
 134.5984975  40.0401999  51.9301806 135.7157169  37.4956381  57.1893580
 135.2121965  37.4586516  56.3761385 136.0087776  38.4049124  57.2490237
 131.9600055  37.5795111  56.1959762 132.8253052  37.3837920  55.8365651
 132.0277564  37.3505463  57.1229119 136.3897215  42.9887429  49.5576563
 136.0847351  43.3033578  50.4086706 137.3427657  43.0668849  49.6003896
 134.8343647  49.1477653  51.2069517 134.3065008  48.4130412  50.8942755
 134.3331150  49.9252329  50.9609485 129.5662374  39.8097319  53.5676129
 130.1406126  39.5872500  52.8349322 130.1533357  39.8786013  54.3204730
 129.8931962  41.8401780  47.5872014 129.0569274  42.1776466  47.9081289
 129.7536731  41.7050760  46.6499151 131.8685042  36.6838568  52.2951198
 131.2149454  36.3687585  51.6707813 131.8265516  36.0614308  53.0211021
 132.9796247  46.9657863  44.2104490 132.0723309  46.7347116  44.4095639
 133.4767279  46.1695482  44.3978472 135.8864326  55.6755370  47.1301176
 135.2126025  55.9787067  47.7386134 136.2730148  56.4784450  46.7806633
 135.1022782  43.1720501  56.6198846 134.1845344  43.3935448  56.4620534
 135.5182926  43.2466812  55.7610553 135.8857830  44.5711917  51.7501526
 136.6329649  45.0833314  51.4408648 136.1549420  44.2495970  52.6105920
 134.1584480  47.0670458  48.7328480 133.2495700  46.7829491  48.8300950
 134.1879564  47.4869536  47.8731787 124.7272651  44.7875972  52.7143682
 124.5297051  44.1945333  51.9894749 124.1719315  44.4828182  53.4319621
 132.7069374  44.6799078  54.8338276 132.7617984  43.7272915  54.7580752
 131.8960576  44.8358517  55.3179574 133.8560568  48.6079201  46.0716559
 133.4179998  47.8915060  45.6122196 134.5971009  48.8355316  45.5101650
 130.6461734  43.2976138  52.5928654 129.8329600  43.5970309  52.9993847
 131.1420729  42.9031827  53.3103137 132.7970312  53.2933895  54.5262919
 132.7546491  53.5194741  53.5971451 133.7133011  53.0597270  54.6748720
 136.2435946  43.7617963  61.4243548 136.5985334  43.9889436  62.2838014
 136.8908077  44.0936339  60.8020804 130.1375809  40.8694494  58.2089889
 130.7775188  40.7283253  57.5112853 129.3053340  40.5829007  57.8328491
 130.9136113  50.1696924  54.3224882 131.7076712  49.6747244  54.1207457
 130.2027805  49.6414787  53.9592587 135.7330958  52.5515020  58.6737250
 135.7867980  53.1205956  59.4414965 134.8645739  52.7216905  58.3091287
 127.2218877  44.3140006  50.3984635 126.2916465  44.2524461  50.6154597
 127.3176348  43.7915958  49.6021276 127.1404426  40.8394819  52.9862876
 127.4011243  41.7540152  52.8772037 127.9621598  40.3719261  53.1359489
 128.6129351  42.2532576  60.1561701 129.2852404  42.0449938  59.5074350
 127.7859137  42.0554662  59.7166933 134.5154923  38.8794517  62.1727362
 133.8682838  39.5784466  62.0791838 135.2855938  39.3130661  62.5403610
 134.6919057  46.7175282  60.2324181 135.6211117  46.8686441  60.0593149
 134.2710087  46.8059302  59.3772828 133.4907389  50.7425946  58.0022719
 133.3518475  50.3744730  58.8748657 132.7021985  51.2573585  57.8306677
 134.0855541  55.8435042  49.3448256 134.2607297  55.3723086  50.1593878
 133.3988329  56.4700809  49.5729516 135.0412604  50.1207549  55.3911557
 134.7062437  50.0808319  56.2869207 134.5416550  49.4552265  54.9181967
 129.0156848  45.5275179  60.9164138 128.8776646  44.7955418  61.5175677
 129.9261772  45.4384079  60.6348326 131.6439149  45.2395138  60.4047818
 132.3538767  44.5988330  60.3634436 131.6008457  45.4908033  61.3273998
 130.3568083  42.2260356  62.2243457 129.8205440  41.7751094  62.8765053
 129.7684791  42.3606265  61.4813921 128.6516626  58.9924405  56.1188116
 128.8913225  59.6242929  56.7967134 127.8085823  58.6412445  56.4053475
 129.7670342  41.6849007  44.7869921 128.8899808  41.5637808  44.4232167
 130.2428095  40.8935086  44.5348809 121.2872482  46.4726167  54.8811428
 121.9743522  46.1587897  54.2932443 121.1320611  47.3767532  54.6078679
 126.0907204  41.3616364  59.3096452 126.0065393  40.7542033  58.5746862
 125.2689910  41.8525382  59.3105948 133.1644488  54.8003528  58.5229620
 133.0914660  55.6058499  59.0348924 132.7221881  54.9995493  57.6977641
 132.9534268  54.0375298  52.0332441 132.1701790  54.5796978  52.1270666
 133.6527013  54.5549277  52.4326682 136.2630918  39.8469927  54.6766647
 136.7599617  39.0939889  54.3567717 135.4917899  39.8834244  54.1109856
 135.6243172  54.6990362  60.6787778 136.3371144  55.3337826  60.6063680
 135.1333200  54.7954228  59.8627780 137.3460699  48.6041614  52.2505070
 136.4116977  48.7243077  52.0809774 137.5237367  47.7014081  51.9865080
 132.8465887  41.9887310  54.4038331 132.4763674  41.4358350  55.0919237
 133.3424979  41.3845444  53.8513331 130.6755085  52.4484805  61.4993349
 131.3764545  53.0821288  61.6522743 130.2050200  52.7899537  60.7388988
 135.4363545  55.0389106  53.4274070 135.6185940  54.2210762  53.8901822
 136.2596531  55.2556798  52.9898960 135.7705711  53.9657291  50.6889118
 136.2993477  53.4549745  50.0759280 136.0333930  53.6499821  51.5534651
 134.5243944  45.7449224  65.8111937 133.8484581  45.6443353  66.4814312
 135.3471578  45.5888437  66.2747934 126.2722803  51.9821160  58.4324452
 126.8576240  51.2364848  58.5652356 126.0747642  52.2925117  59.3161116
 129.1261458  55.0172408  53.4486894 128.4571834  55.5018535  52.9650934
 128.9874328  55.2641628  54.3630273 120.8640458  44.5526760  57.1528895
 120.9024558  44.0190351  57.9466013 120.3580751  44.0261966  56.5339872
 133.2666727  57.0516151  60.0469553 133.8185035  57.2147773  60.8118638
 133.6072921  57.6420589  59.3749577 128.2431220  39.3991301  60.6491437
 128.3072547  40.2606132  60.2368835 128.1798341  38.7865303  59.9163796
 127.7183493  41.4714433  64.2964472 128.3455532  41.0891511  64.9101996
 126.8611412  41.2528635  64.6620164 124.4949036  43.2790863  50.2282826
 124.7902477  42.3701541  50.1749880 123.5937071  43.2578602  49.9063829
 136.4035114  54.9998127  57.0333235 136.2786254  54.1987866  56.5244180
 137.0614205  55.4944320  56.5447205 128.0243283  41.3546859  56.2110375
 127.3029868  41.9682827  56.0717848 128.8136538  41.8904624  56.1327021
 130.8269596  38.6901286  62.4851027 131.3503998  38.9363582  63.2477336
 130.6081929  39.5221320  62.0654164 126.2236877  40.9604960  50.3522152
 125.8949583  40.0802339  50.1697257 126.5776248  40.9052629  51.2398541
 135.4716456  52.5959863  54.8617137 135.3241418  51.6676570  55.0424707
 136.2969950  52.6179954  54.3774212 129.3378700  41.2477930  50.7197629
 129.6774773  41.7763851  49.9976238 129.7850821  41.5858336  51.4956196
 132.0322141  39.6314981  60.1700697 131.6918962  38.8322794  60.5721377
 131.3261147  39.9316692  59.5977530 132.6838613  36.7164293  58.6228020
 133.5064682  36.2424771  58.5006911 132.9276677  37.4954777  59.1226707
 131.3246847  39.7452552  48.9190922 132.0455210  40.1233804  48.4154639
 130.7012152  40.4641428  49.0225900 135.4677970  40.4497701  49.8549254
 135.6841585  41.3322338  49.5538082 134.9872038  40.0583914  49.1254896
 130.2077192  43.4083414  56.4319999 130.0621772  43.7223717  57.3244280
 129.7302395  44.0268314  55.8790898 132.0673575  40.3985962  56.4800888
 132.0535143  39.5027055  56.1433186 132.7846003  40.4056626  57.1139175
 133.9199705  40.8323302  58.5254016 133.6617483  41.7540373  58.5238346
 133.3884746  40.4353737  59.2154480 124.6822854  45.9488758  59.3707660
 124.1376322  46.7248566  59.5027934 125.5602204  46.2959563  59.2126782
 131.4710471  39.2800342  51.7488459 131.5926382  38.3516988  51.9479346
 131.1812513  39.2939028  50.8366774 134.3401661  36.9655252  54.8855178
 134.3623358  37.0294586  53.9307158 134.7569720  36.1259761  55.0795685
 125.4688876  45.0758654  62.2637817 124.7270612  45.2241290  62.8502447
 125.1481620  45.3366920  61.4004566 133.4132538  54.6174633  62.0618207
 133.7219665  54.3723779  62.9340907 134.2108020  54.8221271  61.5737077
 133.4353150  56.7712542  54.2923584 132.9958141  56.2788921  54.9856440
 134.1861267  56.2285510  54.0515659 125.9145489  52.9624083  54.2948212
 126.7403509  52.6627855  53.9146855 125.5639541  52.1931706  54.7438000
 130.8827023  52.3150551  56.3645885 130.2607032  51.6521256  56.0648113
 131.5531890  52.3411683  55.6819533 124.1154094  50.8810410  55.2537145
 123.2786003  50.4532584  55.0721146 124.0877740  51.0742853  56.1907936
 130.9551550  40.7932339  65.9578391 131.0039706  41.6694462  65.5756161
 131.4974064  40.2509732  65.3850034 130.4440530  50.8654475  49.8404346
 130.5928650  51.5489939  49.1871018 131.2506973  50.8459565  50.3553801
 133.1850839  41.5463712  62.7124750 132.3154148  41.8397278  62.4407338
 133.4210319  42.1304157  63.4332013 128.1993162  46.8919652  50.8465415
 127.9539204  45.9881982  51.0445625 128.3689077  46.8936803  49.9044893
 135.8889872  37.7643329  60.2290170 136.4071816  38.5004356  59.9036659
 135.5345005  38.0707322  61.0636929 127.4688810  42.6248010  48.3451576
 126.7758055  42.6992365  47.6891612 127.2240562  41.8608354  48.8673093
 136.1402467  34.1843611  55.7491067 136.4204220  33.5166800  56.3751493
 136.9253073  34.3772707  55.2365731 133.9435935  53.3602605  47.3116093
 133.3709902  53.9792792  46.8586565 134.5168729  53.9101967  47.8456015
 134.3282734  44.6963418  44.6532146 135.2741838  44.5669626  44.7220564
 133.9496978  43.9578080  45.1301574 134.2121426  48.7481164  66.1132803
 135.1324436  48.9259763  66.3072849 134.1771009  47.8037209  65.9612502
 132.5125651  42.6213394  44.5887031 131.6057106  42.3246507  44.6649744
 132.7901632  42.3243212  43.7221317 123.4303591  43.9419758  55.0386077
 123.1106375  43.0885066  54.7460451 122.8837019  44.1568336  55.7944045
 127.2083499  46.6582199  58.7555584 127.4269508  47.5899307  58.7743618
 127.6209272  46.2990173  59.5410388 134.1287716  37.1650284  50.7431272
 133.3188445  36.8197369  51.1186518 134.8172133  36.8557828  51.3318884
 136.0578265  36.2428331  52.3655569 136.6109303  36.6623784  53.0245592
 136.2948351  35.3164079  52.4078525 132.0811364  42.2315404  68.1458333
 131.9808091  43.1809761  68.0770424 131.8632906  41.9033643  67.2734403
 131.2824435  39.4800330  44.7299010 132.1443599  39.8055228  44.9894827
 131.4674779  38.6931825  44.2172076 123.2991851  47.5622669  57.0079199
 122.6055323  47.1476622  56.4949153 124.0464842  47.6043206  56.4112618
 131.9442634  45.6612543  66.9623394 131.4609716  46.4612903  67.1687283
 132.0303573  45.6720488  66.0090838 125.2128594  47.4940923  54.8845214
 125.1899282  47.5928610  53.9327097 125.5229230  48.3406074  55.2062380
 127.8715971  49.5517078  58.9991828 128.8259225  49.5201020  58.9321760
 127.6728495  49.0907702  59.8142054 128.4615354  48.1218194  61.5662626
 129.2808243  48.6162273  61.5897463 128.7352161  47.2050162  61.5380193
 126.2266200  55.0936698  56.0162026 126.0920668  54.3337098  55.4500024
 125.8098263  55.8177597  55.5490815 129.3835326  55.9906015  56.2280469
 129.2667710  56.9351447  56.1259159 128.5627772  55.6879576  56.6166268
 123.7150268  42.4556328  62.2654823 124.3609131  41.9455282  62.7542048
 123.5067419  43.1925010  62.8398248 136.2403660  49.5237175  67.7646963
 137.1094820  49.6977828  67.4033598 135.7610412  50.3431592  67.6422693
 132.2353878  36.7196373  48.0178719 132.2232548  37.6638212  48.1746990
 133.1277300  36.5366518  47.7238180 130.4089840  56.6434276  59.4436397
 131.3117087  56.6757887  59.7602892 130.1827210  55.7134727  59.4582733
 132.1643442  55.3965263  56.1046476 131.2139073  55.3967125  55.9910848
 132.4675928  54.6497998  55.5882510 136.0505998  33.3139149  52.2724656
 135.2838394  32.7597636  52.4181338 136.4616703  33.3861018  53.1338807
 128.0547759  39.6023945  66.3629837 128.9179220  39.2460750  66.5733162
 127.4813170  39.2637840  67.0505241 136.6293489  58.3755692  55.9200482
 135.8392543  58.6313220  55.4440592 137.1204737  59.1904030  56.0252522
 134.9131192  58.6286182  58.3515473 135.1639231  59.5133192  58.6173049
 135.4490741  58.4490784  57.5790564 135.5440234  62.7777174  52.0432949
 136.3815456  63.1874183  51.8266657 135.7218502  61.8376616  52.0133143
 135.5666405  60.1167889  52.7143682 135.3690805  59.5237250  51.9894749
 135.0113069  59.8120100  53.4319621 132.1266236  61.8018085  54.8811428
 132.8137276  61.4879815  54.2932443 131.9714365  62.7059449  54.6078679
 136.9300959  56.6908281  59.3096452 136.8459147  56.0833951  58.5746862
 136.1083665  57.1817300  59.3105948 131.7034212  59.8818678  57.1528895
 131.7418312  59.3482269  57.9466013 131.1974505  59.3553884  56.5339872
 135.3342790  58.6082780  50.2282826 135.6296231  57.6993459  50.1749880
 134.4330826  58.5870520  49.9063829 137.0630632  56.2896878  50.3522152
 136.7343338  55.4094257  50.1697257 137.4170002  56.2344547  51.2398541
 135.5216608  61.2780676  59.3707660 134.9770076  62.0540484  59.5027934
 136.3995958  61.6251480  59.2126782 136.3082630  60.4050572  62.2637817
 135.5664366  60.5533207  62.8502447 135.9875375  60.6658838  61.4004566
 136.7539244  68.2916001  54.2948212 137.5797264  67.9919773  53.9146855
 136.4033296  67.5223623  54.7438000 134.9547849  66.2102327  55.2537145
 134.1179757  65.7824502  55.0721146 134.9271494  66.4034771  56.1907936
 134.2697346  59.2711675  55.0386077 133.9500130  58.4176984  54.7460451
 133.7230774  59.4860254  55.7944045 134.1385606  62.8914587  57.0079199
 133.4449077  62.4768540  56.4949153 134.8858597  62.9335123  56.4112618
 136.0522348  62.8232841  54.8845214 136.0293036  62.9220528  53.9327097
 136.3622985  63.6697991  55.2062380 137.0659955  70.4228615  56.0162026
 136.9314423  69.6629016  55.4500024 136.6492017  71.1469515  55.5490815
 134.5544022  57.7848246  62.2654823 135.2002886  57.2747200  62.7542048
 134.3461173  58.5216927  62.8398248 120.1736043  17.9209216  38.6985220
 120.0960073  18.8717041  38.7773701 119.5697687  17.5755089  39.3560147
 118.8330010  15.4310737  46.0751781 119.3837435  15.3027801  45.3028775
 117.9941486  15.7305626  45.7246673 125.0470573  17.3525575  33.8546483
 124.3732271  17.6557272  34.4631441 125.4336395  18.1554655  33.5051940
 123.2461788  17.5205247  36.0693562 123.4213543  17.0493291  36.8839185
 122.5594576  18.1471014  36.2974823 117.8122873  20.6694610  42.8433422
 118.0519471  21.3013134  43.5212441 116.9692070  20.3182650  43.1298782
 122.3250735  16.4773733  45.2474926 122.2520906  17.2828704  45.7594231
 121.8828128  16.6765698  44.4222948 122.1140515  15.7145503  38.7577748
 121.3308036  16.2567183  38.8515972 122.8133260  16.2319482  39.1571989
 124.7849418  16.3760567  47.4033085 125.4977391  17.0108031  47.3308986
 124.2939447  16.4724433  46.5873087 115.4329050  13.6591365  45.1569758
 116.0182487  12.9135053  45.2897663 115.2353888  13.9695322  46.0406422
 118.2867705  16.6942612  40.1732201 117.6178081  17.1788740  39.6896241
 118.1480575  16.9411833  41.0875579 122.4272974  18.7286356  46.7714859
 122.9791282  18.8917978  47.5363944 122.7679167  19.3190794  46.0994884
 122.5738785  16.2944838  48.7863514 122.8825912  16.0493984  49.6586213
 123.3714267  16.4991476  48.2982384 122.5959397  18.4482747  41.0168890
 122.1564388  17.9559126  41.7101747 123.3467514  17.9055715  40.7760965
 115.0751736  14.6394288  41.0193518 115.9009756  14.3398060  40.6392162
 114.7245788  13.8701911  41.4683307 113.2760341  12.5580615  41.9782452
 112.4392250  12.1302789  41.7966453 113.2483987  12.7513058  42.9153243
 115.3872447  16.7706902  42.7407333 115.2526915  16.0107303  42.1745331
 114.9704509  17.4947802  42.2736122 118.5441573  17.6676219  42.9525775
 118.4273957  18.6121652  42.8504466 117.7234019  17.3649781  43.3411575
 119.5696087  18.3204481  46.1681704 120.4723334  18.3528092  46.4848199
 119.3433457  17.3904932  46.1828040 121.3249689  17.0735468  42.8291782
 120.3745320  17.0737330  42.7156155 121.6282175  16.3268202  42.3127817
 133.8692089  22.8623434  43.8299069 133.5310600  22.7464499  42.9419604
 134.7381857  22.4614599  43.8100076 129.7278905  24.7158911  39.8195960
 129.1643770  24.6248848  39.0512248 129.6131300  23.8958815  40.2998453
 134.3511872  24.0158286  49.7885275 134.3400513  23.6211084  48.9165779
 134.5132511  23.2824359  50.3819046 127.2743336  26.2110102  42.6580181
 128.0664628  25.8700927  42.2426480 127.5139987  26.3205077  43.5782334
 135.3078463  28.3829879  35.1310425 134.6566443  28.9683959  34.7444439
 136.1022826  28.9136073  35.1905463 129.2334090  25.4719016  35.5297560
 130.0064966  24.9248003  35.3910435 129.5859489  26.3363265  35.7412021
 131.0719133  26.7995398  48.7364459 130.7808999  27.7041029  48.6211125
 131.7076117  26.8411926  49.4508529 131.9975340  24.1772246  45.3265819
 132.5938912  23.9528269  44.6122782 132.0550311  23.4356992  45.9291266
 131.2896657  23.5339788  35.3640385 131.1732915  22.8584691  36.0321469
 131.3998917  23.0472162  34.5472538 133.6328198  22.9949935  39.0687074
 133.2686405  22.4680556  39.7799995 134.4895314  22.6048404  38.8953559
 136.0309018  26.4856813  45.7314253 135.7309741  27.3881852  45.6230060
 135.6860078  26.2188997  46.5835406 129.4821500  22.9370610  41.7650957
 128.5571996  22.8046824  41.9728649 129.7305913  23.7164830  42.2620899
 126.8430311  22.5803884  42.5994746 126.9722692  22.8338363  43.5134158
 126.1627762  23.1731592  42.2799401 131.0129798  33.2501134  38.6985220
 130.9353828  34.2008959  38.7773701 130.4091441  32.9047006  39.3560147
 133.5047028  20.4228999  51.3546587 132.7280362  20.9822919  51.3449452
 134.1437591  20.9085782  51.8761457 131.7593400  23.2314453  50.9164554
 132.5008084  23.7699497  50.6399378 131.0530385  23.8580741  51.0736106
 137.2348740  25.3743593  49.5136716 137.6432096  24.9326004  48.7691348
 136.5126001  24.7996221  49.7670909 133.5879810  20.3116200  46.8870273
 134.4341005  20.7355613  47.0304922 133.5278447  19.6549824  47.5808836
 137.5577554  25.9344784  43.2689005 136.9286417  26.0990498  42.5665072
 137.1703216  26.3486393  44.0399969 133.1105516  25.6719192  40.5339090
 133.5743862  25.9506895  39.7443712 132.8462314  24.7702636  40.3512180
 130.0029597  25.2190673  43.4718853 130.5730954  25.6477942  42.8336337
 130.5937709  24.9373258  44.1703039 132.0474402  21.7942344  37.3428655
 132.7498445  22.2463388  37.8102581 131.7155031  21.1526163  37.9708548
 130.4954764  20.3854101  51.7179864 129.8653424  21.0670382  51.9515261
 130.3890852  20.2737182  50.7733002 125.7899736  20.0525897  42.6445788
 124.9998790  20.3083425  42.1685899 126.2810983  20.8674235  42.7497829
 127.7414481  20.4170476  39.6029265 126.9445645  20.5289170  40.1212761
 127.5140074  20.7557128  38.7370156 133.5720149  26.9415179  47.5511780
 133.6364582  27.4035586  48.3869952 132.8631073  26.3112544  47.6794090
 124.0737439  20.3056387  45.0760779 124.3245477  21.1903397  45.3418355
 124.6096987  20.1260989  44.3035871 133.2868167  28.6083287  37.4190760
 133.1513842  29.4534822  37.8475608 133.8277979  28.8102564  36.6556694
 126.7397564  26.1258725  37.9918685 127.2522085  26.9201975  38.1424250
 127.3920277  25.4285015  37.9252287 128.5492449  29.2424481  40.0741438
 128.7259077  30.1642446  39.8862422 129.3449282  28.9282900  40.5035818
 127.8344805  21.2889113  49.9503602 127.7198321  20.3874370  50.2510700
 126.9789323  21.5352810  49.5988418 134.9136643  29.2306853  51.5491102
 134.4700497  28.4443232  51.2312007 135.5753857  29.4186004  50.8834993
 129.6723764  30.7602655  46.0751781 130.2231189  30.6319718  45.3028775
 128.8335240  31.0597544  45.7246673 133.4690935  27.0253783  50.4196012
 134.0019272  26.2642071  50.1895320 132.9405016  26.7327434  51.1620166
 124.7046481  24.4547379  38.7678256 125.5421703  24.8644387  38.5511963
 124.8824749  23.5146821  38.7378450 134.8343648  26.1539775  37.9314824
 134.3065010  25.4192535  37.6188061 134.3331151  26.9314451  37.6854792
 135.8864327  32.6817493  33.8546483 135.2126026  32.9849189  34.4631441
 136.2730149  33.4846573  33.5051940 135.1022784  20.1782624  43.3444152
 134.1845345  20.3997571  43.1865840 135.5182927  20.2528934  42.4855860
 124.7272652  21.7938094  39.4388989 124.5297052  21.2007455  38.7140056
 124.1719316  21.4890305  40.1564928 132.7069376  21.6861201  41.5583582
 132.7617985  20.7335037  41.4826059 131.8960578  21.8420640  42.0424881
 130.6461736  20.3038261  39.3173961 129.8329601  20.6032431  39.7239153
 131.1420730  19.9093949  40.0348443 132.7970314  30.2996018  41.2508226
 132.7546492  30.5256864  40.3216758 133.7133012  30.0659392  41.3994027
 136.2435947  20.7680085  48.1488855 136.5985335  20.9951558  49.0083321
 136.8908079  21.0998462  47.5266110 130.9136114  27.1759047  41.0470189
 131.7076713  26.6809367  40.8452764 130.2027807  26.6476910  40.6837894
 135.7330959  29.5577142  45.3982556 135.7867981  30.1268078  46.1660272
 134.8645740  29.7279027  45.0336593 127.2218878  21.3202128  37.1229941
 126.2916466  21.2586584  37.3399903 127.3176350  20.7978081  36.3266582
 127.1404427  17.8456941  39.7108183 127.4011244  18.7602274  39.6017343
 127.9621599  17.3781384  39.8604796 128.6129352  19.2594698  46.8807007
 129.2852406  19.0512060  46.2319656 127.7859139  19.0616784  46.4412240
 134.6919059  23.7237404  46.9569488 135.6211119  23.8748564  46.7838455
 134.2710089  23.8121425  46.1018135 133.4907390  27.7488069  44.7268026
 133.3518476  27.3806853  45.5993964 132.7021987  28.2635708  44.5551983
 134.0855542  32.8497165  36.0693562 134.2607298  32.3785208  36.8839185
 133.3988330  33.4762931  36.2974823 135.0412605  27.1269671  42.1156863
 134.7062438  27.0870441  43.0114513 134.5416551  26.4614387  41.6427274
 129.0156849  22.5337301  47.6409445 128.8776647  21.8017540  48.2420984
 129.9261773  22.4446201  47.3593632 131.6439150  22.2457261  47.1293124
 132.3538769  21.6050453  47.0879743 131.6008458  22.4970155  48.0519305
 130.3568084  19.2322478  48.9488764 129.8205441  18.7813217  49.6010360
 129.7684793  19.3668387  48.2059228 128.6516628  35.9986528  42.8433422
 128.8913226  36.6305052  43.5212441 127.8085824  35.6474568  43.1298782
 121.2872483  23.4788290  41.6056735 121.9743523  23.1650020  41.0177750
 121.1320612  24.3829654  41.3323986 126.0907205  18.3678486  46.0341758
 126.0065394  17.7604156  45.2992168 125.2689912  18.8587505  46.0351255
 133.1644489  31.8065650  45.2474926 133.0914661  32.6120622  45.7594231
 132.7221883  32.0057616  44.4222948 132.9534269  31.0437420  38.7577748
 132.1701791  31.5859100  38.8515972 133.6527014  31.5611400  39.1571989
 135.6243173  31.7052484  47.4033085 136.3371145  32.3399949  47.3308986
 135.1333202  31.8016350  46.5873087 137.3460700  25.6103737  38.9750377
 136.4116979  25.7305199  38.8055081 137.5237368  24.7076204  38.7110386
 130.6755086  29.4546928  48.2238656 131.3764546  30.0883411  48.3768050
 130.2050201  29.7961659  47.4634295 135.4363546  32.0451228  40.1519376
 135.6185941  31.2272884  40.6147129 136.2596532  32.2618921  39.7144266
 135.7705712  30.9719413  37.4134425 136.2993478  30.4611868  36.8004587
 136.0333931  30.6561944  38.2779958 134.5243945  22.7511346  52.5357243
 133.8484582  22.6505476  53.2059618 135.3471579  22.5950560  52.9993240
 126.2722805  28.9883283  45.1569758 126.8576241  28.2426971  45.2897663
 126.0747643  29.2987239  46.0406422 129.1261460  32.0234530  40.1732201
 128.4571835  32.5080658  39.6896241 128.9874329  32.2703751  41.0875579
 120.8640459  21.5588883  43.8774202 120.9024559  21.0252474  44.6711320
 120.3580752  21.0324089  43.2585179 133.2666728  34.0578274  46.7714859
 133.8185036  34.2209895  47.5363944 133.6072922  34.6482712  46.0994884
 127.7183494  18.4776556  51.0209778 128.3455533  18.0953633  51.6347303
 126.8611413  18.2590758  51.3865471 124.4949037  20.2852985  36.9528133
 124.7902478  19.3763664  36.8995187 123.5937073  20.2640725  36.6309135
 136.4035116  32.0060249  43.7578541 136.2786255  31.2049989  43.2489487
 137.0614207  32.5006443  43.2692511 128.0243284  18.3608982  42.9355682
 127.3029870  18.9744949  42.7963155 128.8136540  18.8966747  42.8572328
 126.2236878  17.9667083  37.0767458 125.8949585  17.0864462  36.8942564
 126.5776249  17.9114751  37.9643847 135.4716457  29.6021986  41.5862444
 135.3241420  28.6738693  41.7670014 136.2969951  29.6242076  41.1019519
 129.3378702  18.2540053  37.4442936 129.6774774  18.7825974  36.7221544
 129.7850822  18.5920459  38.2201502 130.2077193  20.4145536  43.1565306
 130.0621774  20.7285839  44.0489587 129.7302397  21.0330437  42.6036204
 124.6822855  22.9550881  46.0952967 124.1376323  23.7310689  46.2273241
 125.5602205  23.3021685  45.9372088 125.4688877  22.0820777  48.9883124
 124.7270613  22.2303412  49.5747754 125.1481621  22.3429043  48.1249873
 133.4132540  31.6236755  48.7863514 133.7219666  31.3785902  49.6586213
 134.2108022  31.8283394  48.2982384 133.4353152  33.7774665  41.0168890
 132.9958142  33.2851044  41.7101747 134.1861269  33.2347633  40.7760965
 125.9145491  29.9686206  41.0193518 126.7403511  29.6689978  40.6392162
 125.5639543  29.1993828  41.4683307 130.8827024  29.3212674  43.0891192
 130.2607033  28.6583379  42.7893420 131.5531891  29.3473806  42.4064840
 124.1154096  27.8872532  41.9782452 123.2786004  27.4594707  41.7966453
 124.0877741  28.0804976  42.9153243 130.4440531  27.8716597  36.5649652
 130.5928651  28.5552062  35.9116325 131.2506974  27.8521687  37.0799108
 128.1993164  23.8981775  37.5710721 127.9539206  22.9944105  37.7690931
 128.3689078  23.8998925  36.6290199 127.4688811  19.6310133  35.0696883
 126.7758056  19.7054488  34.4136919 127.2240563  18.8670476  35.5918400
 133.9435936  30.3664728  34.0361400 133.3709903  30.9854915  33.5831872
 134.5168730  30.9164089  34.5701322 134.2121427  25.7543287  52.8378109
 135.1324437  25.9321886  53.0318156 134.1771010  24.8099332  52.6857809
 123.4303592  20.9481880  41.7631384 123.1106377  20.0947189  41.4705758
 122.8837021  21.1630458  42.5189351 127.2083500  23.6644321  45.4800890
 127.4269510  24.5961429  45.4988924 127.6209274  23.3052296  46.2655694
 132.0811365  19.2377527  54.8703639 131.9808092  20.1871884  54.8015730
 131.8632907  18.9095766  53.9979709 123.2991852  24.5684792  43.7324505
 122.6055324  24.1538745  43.2194460 124.0464843  24.6105328  43.1357924
 131.9442635  22.6674666  53.6868701 131.4609717  23.4675026  53.8932590
 132.0303574  22.6782611  52.7336145 125.2128595  24.5003046  41.6090520
 125.1899283  24.5990733  40.6572403 125.5229231  25.3468196  41.9307686
 127.8715973  26.5579201  45.7237135 128.8259226  26.5263143  45.6567066
 127.6728496  26.0969824  46.5387361 128.4615355  25.1280317  48.2907932
 129.2808244  25.6224395  48.3142770 128.7352163  24.2112285  48.2625500
 126.2266202  32.0998820  42.7407333 126.0920669  31.3399221  42.1745331
 125.8098264  32.8239720  42.2736122 129.3835327  32.9968137  42.9525775
 129.2667712  33.9413570  42.8504466 128.5627774  32.6941699  43.3411575
 123.7150269  19.4618451  48.9900130 124.3609133  18.9517405  49.4787355
 123.5067420  20.1987132  49.5643555 136.2403661  26.5299298  54.4892270
 137.1094821  26.7039950  54.1278905 135.7610413  27.3493715  54.3667999
 130.4089842  33.6496399  46.1681704 131.3117088  33.6820009  46.4848199
 130.1827212  32.7196850  46.1828040 132.1643444  32.4027386  42.8291782
 131.2139075  32.4029247  42.7156155 132.4675930  31.6560120  42.3127817
 136.6293491  35.3817814  42.6445788 135.8392545  35.6375343  42.1685899
 137.1204738  36.1966152  42.7497829 134.9131194  35.6348305  45.0760779
 135.1639232  36.5195315  45.3418355 135.4490742  35.4552906  44.3035871
 135.5440235  39.7839297  38.7678256 136.3815457  40.1936305  38.5511963
 135.7218503  38.8438739  38.7378450 135.5666407  37.1230012  39.4388989
 135.3690806  36.5299373  38.7140056 135.0113071  36.8182222  40.1564928
 132.1266238  38.8080207  41.6056735 132.8137277  38.4941937  41.0177750
 131.9714366  39.7121572  41.3323986 136.9300960  33.6970404  46.0341758
 136.8459149  33.0896073  45.2992168 136.1083666  34.1879422  46.0351255
 131.7034214  36.8880801  43.8774202 131.7418313  36.3544391  44.6711320
 131.1974507  36.3616006  43.2585179 135.3342791  35.6144903  36.9528133
 135.6296232  34.7055581  36.8995187 134.4330827  35.5932642  36.6309135
 137.0630633  33.2959000  37.0767458 136.7343339  32.4156379  36.8942564
 137.4170004  33.2406669  37.9643847 135.5216610  38.2842798  46.0952967
 134.9770078  39.0602606  46.2273241 136.3995960  38.6313603  45.9372088
 136.3082632  37.4112695  48.9883124 135.5664368  37.5595330  49.5747754
 135.9875376  37.6720960  48.1249873 136.7539245  45.2978123  41.0193518
 137.5797265  44.9981895  40.6392162 136.4033297  44.5285746  41.4683307
 134.9547850  43.2164450  41.9782452 134.1179759  42.7886624  41.7966453
 134.9271496  43.4096893  42.9153243 134.2697347  36.2773798  41.7631384
 133.9500131  35.4239106  41.4705758 133.7230775  36.4922376  42.5189351
 134.1385607  39.8976709  43.7324505 133.4449078  39.4830662  43.2194460
 134.8858598  39.9397246  43.1357924 136.0522349  39.8294963  41.6090520
 136.0293037  39.9282651  40.6572403 136.3622986  40.6760114  41.9307686
 137.0659956  47.4290738  42.7407333 136.9314424  46.6691139  42.1745331
 136.6492018  48.1531638  42.2736122 134.5544024  34.7910368  48.9900130
 135.2002887  34.2809322  49.4787355 134.3461175  35.5279050  49.5643555
  16.0747155  66.7059679 128.0593276  15.4235135  67.2913759 127.6727290
  16.8691518  67.2365874 128.1188313  22.3413879  63.1984615 129.3198113
  21.5643322  62.8595774 128.8753275  23.0205360  63.2037238 128.6453078
  13.7464940  62.2949786 123.8632647  12.8392002  62.0639039 124.0623796
  14.2435972  61.4987405 124.0506629  16.6533019  71.0047293 126.7829333
  15.9794718  71.3078990 127.3914291  17.0398841  71.8076373 126.4334791
  14.6229261  63.9371124 125.7244716  14.1848691  63.2206983 125.2650353
  15.3639702  64.1647239 125.1629807  14.8524234  71.1726965 128.9976413
  15.0275990  70.7015009 129.8122035  14.1657022  71.7992732 129.2257673
  18.7440489  62.7955506 125.3176774  18.1269660  62.0702334 125.2209826
  18.2756977  63.5564866 124.9743848  19.5678174  66.1194678 129.4369413
  19.8438018  66.0051273 130.3463287  18.6982673  65.7212163 129.3981586
  16.5374404  69.2949214 130.3417275  17.0662170  68.7841668 129.7287437
  16.8002623  68.9791744 131.2062808  19.6314587  69.2666012 130.9572258
  19.8051465  68.7012435 130.2046111  20.1243478  70.0666907 130.7751748
  20.6189760  68.5832777 128.0569157  21.3140664  69.2039469 128.2756471
  20.9612910  67.7328128 128.3321535  22.5181183  66.0332482 129.5856487
  23.0432507  66.3719755 128.8605807  22.4303535  65.0979497 129.4019622
  14.7104628  68.6894528 126.9644250  14.1378595  69.3084715 126.5114722
  15.2837422  69.2393890 127.4984172  17.9301888  68.9731678 128.0952833
  18.8632561  68.9077240 128.2985708  17.8425101  69.8087945 127.6367365
  20.5589905  68.2897549 125.0556780  20.4803536  67.9557412 125.9492538
  21.3799571  68.7819317 125.0548252  15.0951427  60.0255341 124.3060303
  16.0410531  59.8961549 124.3748721  14.7165672  59.2870003 124.7829731
  18.1293856  65.6065544 124.6766758  18.8329706  65.8115547 125.2924414
  17.4056505  66.1742306 124.9415842  20.0380554  66.0448073 126.7265218
  20.8726158  65.6129272 126.5442693  19.8764897  65.8730087 127.6542113
  19.6926446  62.5480187 128.0921558  19.6375250  62.3824458 127.1510002
  19.0672501  63.2556219 128.2483747  28.6664829  76.5617724 136.8220395
  29.3043239  76.4424472 136.1183735  28.5485672  77.5098568 136.8808347
  25.4754535  76.5145152 136.7581920  25.1373047  76.3986217 135.8702455
  26.3444303  76.1136318 136.7382926  21.3341351  78.3680629 132.7478811
  20.7706216  78.2770566 131.9795099  21.2193746  77.5480533 133.2281303
  26.9140910  82.0351597 128.0593276  26.2628889  82.6205677 127.6727290
  27.7085272  82.5657792 128.1188313  20.8396537  79.1240734 128.4580410
  21.6127413  78.5769721 128.3193286  21.1921936  79.9884983 128.6694871
  23.6037786  77.8293965 138.2548669  24.2001358  77.6049987 137.5405632
  23.6612758  77.0878710 138.8574117  23.1762815  75.2833400 126.0898860
  23.4288335  74.7614921 125.3282323  22.2387374  75.1199545 126.1925544
  28.2206097  74.2869178 133.8973603  29.0069187  73.8688601 133.5464020
  28.4844802  75.1915270 134.0655252  28.3916175  79.7242029 128.5962260
  27.7562008  79.7976655 129.3083165  28.0613581  80.3135627 127.9181339
  33.6214524  74.2244411 134.8006582  34.3539696  73.6543628 135.0344411
  32.8653880  73.8366012 135.2413087  22.8959103  77.1861506 128.2923235
  22.7795361  76.5106409 128.9604319  23.0061363  76.6993880 127.4755388
  25.2390644  76.6471653 131.9969924  24.8748851  76.1202274 132.7082846
  26.0957760  76.2570122 131.8236410  24.8796131  71.6761553 126.9931273
  25.0470534  72.5441789 127.3601744  24.6893300  71.8388834 126.0692562
  27.6371464  80.1378532 138.6597103  27.3372187  81.0403570 138.5512910
  27.2922524  79.8710715 139.5118256  21.0883946  76.5892328 134.6933808
  20.1634442  76.4568542 134.9011499  21.3368359  77.3686548 135.1903750
  31.0368608  72.6561072 136.3394540  30.1285485  72.5876480 136.0453301
  30.9856204  73.1333017 137.1676366  24.8585352  74.1319210 127.9777940
  24.7384977  74.5776261 128.8163420  24.1637940  74.4804528 127.4191478
  22.6192244  86.9022852 131.6268071  22.5416274  87.8530677 131.7056551
  22.0153888  86.5568724 132.2842997  32.9030255  70.8577510 138.1172414
  32.2604635  71.1510043 137.4712209  32.3985183  70.7430430 138.9225611
  30.5570418  74.6040683 128.8058274  31.4688274  74.8368070 128.6305971
  30.0480065  75.1877728 128.2433352  29.1640001  79.5866502 136.1971855
  28.5348863  79.7512216 135.4947923  28.7765663  80.0008111 136.9682819
  33.0429232  80.5220940 133.5516219  32.3580271  80.9019841 133.0013252
  33.1273082  81.1316266 134.2848167  30.2980164  78.1680899 140.1511562
  30.5097059  78.8112659 139.4745943  30.2509912  77.3343215 139.6833492
  24.7167962  79.3240910 133.4621940  25.1806308  79.6028613 132.6726563
  24.4524760  78.4224354 133.2795031  21.6092043  78.8712391 136.4001703
  22.1793401  79.2999660 135.7619188  22.2000155  78.5894976 137.0985889
  23.6536848  75.4464062 130.2711505  24.3560892  75.8985106 130.7385432
  23.3217477  74.8047881 130.8991398  31.4125992  81.0452854 138.3233920
  32.2343436  80.6433041 138.0416601  31.4088395  80.9421088 139.2750035
  19.3476928  74.0692194 132.5312116  18.5508091  74.1810888 133.0495611
  19.1202520  74.4078846 131.6653006  39.5031985  77.3891603 134.6718891
  38.7495693  76.8199001 134.5162896  39.6379526  77.3554267 135.6189526
  24.8930613  82.2605005 130.3473611  24.7576288  83.1056541 130.7758458
  25.4340426  82.4624282 129.5839544  18.3460010  79.7780443 130.9201536
  18.8584531  80.5723693 131.0707100  18.9982723  79.0806733 130.8535137
  16.3108927  78.1069097 131.6961106  17.1484149  78.5166106 131.4794814
  16.4887195  77.1668539 131.6661300  28.2073359  75.7744178 127.3844939
  27.6919983  76.5448782 127.6233327  27.9350668  75.1009314 128.0078001
  25.7920470  70.6193879 132.4430177  24.9362067  70.2300729 132.2635816
  26.2047422  70.6985839 131.5829963  33.1807633  78.5276532 129.3198113
  32.4037076  78.1887692 128.8753275  33.8599114  78.5329156 128.6453078
  27.9959663  73.6471270 129.2104720  27.6909798  73.9617419 130.0614863
  28.9490105  73.7252690 129.2532053  26.4406094  79.8061493 130.8597674
  25.9127456  79.0714253 130.5470912  25.9393597  80.5836170 130.6137643
  31.4198940  78.0010514 135.9764721  30.7622615  78.6909775 136.0644849
  32.2239340  78.3906946 136.3198707  21.1724822  70.4681160 133.2204286
  21.7468574  70.2456341 132.4877479  21.7595804  70.5369854 133.9732887
  30.2304399  76.3554886 134.0268662  30.7436281  76.9884878 134.5290372
  30.8805623  75.7556082 133.6612022  21.4994409  72.4985621 127.2400171
  20.6631721  72.8360307 127.5609446  21.3599179  72.3634600 126.3027308
  23.4747490  67.3422408 131.9479355  22.8211902  67.0271426 131.3235970
  23.4327964  66.7198149 132.6739178  24.5858695  77.6241704 123.8632647
  23.6785756  77.3930957 124.0623796  25.0829727  76.8279323 124.0506629
  27.4926773  86.3339211 126.7829333  26.8188472  86.6370907 127.3914291
  27.8792595  87.1368291 126.4334791  26.7085230  73.8304342 136.2727003
  25.7907791  74.0519289 136.1148691  27.1245374  73.9050652 135.4138710
  27.4920278  75.2295758 131.4029683  28.2392097  75.7417155 131.0936805
  27.7611867  74.9079810 132.2634077  25.7646928  77.7254298 128.3856637
  24.8558147  77.4413331 128.4829107  25.7942012  78.1453377 127.5259944
  30.9966195  81.3360888 132.1547805  30.5428522  80.4951798 132.2112995
  30.3660162  81.9722286 132.4922585  29.9399115  72.2652874 133.3848472
  29.2021872  71.7530260 133.7158715  30.1925888  71.8253256 132.5731749
  29.4399135  83.1737385 133.0897623  29.7322109  83.7342442 132.3709989
  29.9497755  83.4665946 133.8450782  30.0410742  65.0429126 133.9790242
  30.3469619  64.1826489 133.6916157  30.7663347  65.6346746 133.7789236
  16.3335098  75.4459813 132.3671840  16.1359498  74.8529173 131.6422906
  15.7781762  75.1412023 133.0847778  24.3131822  75.3382919 134.4866433
  24.3680432  74.3856755 134.4108909  23.5023024  75.4942358 134.9707731
  25.4623016  79.2663042 125.7244716  25.0242446  78.5498901 125.2650353
  26.2033457  79.4939157 125.1629807  22.2524182  73.9559979 132.2456812
  21.4392047  74.2554149 132.6522004  22.7483176  73.5615667 132.9631294
  24.4032760  83.9517736 134.1791076  24.3608939  84.1778582 133.2499608
  25.3195459  83.7181110 134.3276877  33.5796131  77.5420239 131.7821035
  33.4414029  77.7321835 130.8542224  33.2232349  78.3039622 132.2389086
  33.6065510  79.6096766 136.7932306  34.0402017  79.5172055 137.6415360
  34.3197091  79.5854267 136.1552322  22.5198561  80.8280765 133.9753039
  23.3139159  80.3331085 133.7735614  21.8090253  80.2998628 133.6120745
  18.8281324  74.9723846 130.0512792  17.8978912  74.9108302 130.2682754
  18.9238796  74.4499799 129.2549433  18.7466873  71.4978659 132.6391033
  19.0073690  72.4123992 132.5300194  19.5684045  71.0303102 132.7887646
  34.4681060  79.6520467 139.3265191  34.6616950  80.5566277 139.5724466
  34.3681678  79.1927886 140.1603776  26.2981505  77.3759122 139.8852338
  27.2273565  77.5270282 139.7121306  25.8772535  77.4643143 139.0300985
  25.6917989  86.5018883 128.9976413  25.8669744  86.0306926 129.8122035
  25.0050777  87.1284649 129.2257673  26.6475052  80.7791389 135.0439714
  26.3124884  80.7392159 135.9397364  26.1478997  80.1136105 134.5710124
  29.5834243  78.1247424 125.3176774  28.9663414  77.3994252 125.2209826
  29.1150732  78.8856784 124.9743848  21.3732789  72.3432848 124.4398078
  20.4962256  72.2221649 124.0760324  21.8490542  71.5518926 124.1876966
  31.2405782  80.7985916 141.2096534  30.3532561  80.4611838 141.3322932
  31.8104333  80.0668947 141.4465299  24.5596715  84.6959138 131.6860598
  23.7764237  85.2380819 131.7798823  25.2589461  85.2133118 132.0854839
  27.8693365  70.5053768 134.3294804  28.3662065  69.7523730 134.0095874
  27.0980347  70.5418084 133.7638013  35.7223123  76.2094133 135.9713095
  35.7112999  77.0918849 135.6007028  34.8540502  75.8565684 135.7767632
  28.9523146  79.2625455 131.9033227  28.0179425  79.3826917 131.7337931
  29.1299815  78.3597922 131.6393237  24.4528334  72.6471151 134.0566488
  24.0826122  72.0942191 134.7447394  24.9487427  72.0429284 133.5041488
  32.3395697  75.1042774 132.4383261  32.8056150  75.9370766 132.3643564
  32.7903198  74.6387756 133.1428520  30.4071929  81.4486596 129.4369413
  30.6831772  81.3343190 130.3463287  29.5376427  81.0504080 129.3981586
  30.0818819  75.6613253 138.9774057  29.4290269  75.9089161 138.3226509
  30.4599199  74.8477391 138.6436534  27.0425993  85.6972946 133.0802227
  27.2248387  84.8794602 133.5429979  27.8658979  85.9140639 132.6427117
  27.3768158  84.6241132 130.3417275  27.9055925  84.1133586 129.7287437
  27.6396378  84.3083662 131.2062808  16.1011483  73.9374703 129.8810983
  16.3964924  73.0285382 129.8278037  15.1999519  73.9162443 129.5591986
  28.0097562  85.6581967 136.6861392  27.8848701  84.8571707 136.1772337
  28.6676653  86.1528161 136.1975362  30.0732470  83.4590987 138.3140942
  29.1262806  83.3396339 138.2419269  30.4215243  82.5713485 138.3967203
  17.8299325  71.6188801 130.0050309  17.5012031  70.7386180 129.8225415
  18.1838695  71.5636470 130.8926698  27.0778904  83.2543704 134.5145294
  26.9303866  82.3260411 134.6952864  27.9032397  83.2763794 134.0302369
  20.9441148  71.9061771 130.3725786  21.2837220  72.4347692 129.6504395
  21.3913268  72.2442177 131.1484353  30.6813025  84.0772262 135.6010167
  31.6059573  83.8715124 135.4634618  30.5128329  83.8288664 136.5099508
  22.9309295  70.4036392 128.5719079  23.6517658  70.7817645 128.0682796
  22.3074599  71.1225269 128.6754057  27.0740418  71.1081541 129.5077411
  27.2904032  71.9906179 129.2066240  26.5934485  70.7167755 128.7783053
  30.4708342  84.5957930 130.9572258  30.6445219  84.0304352 130.2046111
  30.9637233  85.3958825 130.7751748  23.0772918  69.9384183 131.4016616
  23.1988829  69.0100829 131.6007503  22.7874960  69.9522869 130.4894931
  36.3247733  77.3594353 132.5762558  36.7678879  76.6101678 132.1781681
  35.4474243  77.3504489 132.1936290  31.4583514  83.9124694 128.0569157
  32.1534419  84.5331387 128.2756471  31.8006664  83.0620045 128.3321535
  33.3574937  81.3624400 129.5856487  33.8826261  81.7011672 128.8605807
  33.2697290  80.4271415 129.4019622  33.1666718  78.8449770 142.2040414
  33.2164723  78.6799777 143.1455937  33.0580642  77.9777029 141.8138295
  22.0502977  81.5238315 129.4932503  22.1991097  82.2073780 128.8399176
  22.8569421  81.5043405 130.0081959  34.6684915  81.2646711 142.4482435
  34.3769724  81.6276692 143.2845896  34.0557046  80.5513720 142.2695768
  35.8680598  78.8299591 134.9685006  36.7027489  79.2689395 135.1322566
  36.0039726  78.3538244 134.1493251  32.9172103  76.3879326 140.9162493
  33.3926225  76.5806972 140.1081345  31.9937669  76.4438512 140.6705877
  19.8055610  77.5503493 130.4993572  19.5601652  76.6465823 130.6973782
  19.9751525  77.5520644 129.5573050  19.0751258  73.2831851 127.9979733
  18.3820503  73.3576206 127.3419769  18.8303009  72.5192194 128.5201250
  25.5498383  84.0186446 126.9644250  24.9772350  84.6376633 126.5114722
  26.1231176  84.5685808 127.4984172  31.6173772  73.2645086 139.1490799
  32.5691195  73.3643184 139.1703023  31.4477223  72.4723355 139.6588883
  28.7695642  84.3023596 128.0952833  29.7026316  84.2369158 128.2985708
  28.6818855  85.1379863 127.6367365  31.3983659  83.6189466 125.0556780
  31.3197291  83.2849330 125.9492538  32.2193326  84.1111234 125.0548252
  34.0961850  76.4851206 138.2633099  34.0638170  75.5467206 138.4492783
  34.7062474  76.5635242 137.5298924  25.9345181  75.3547259 124.3060303
  26.8804286  75.2253467 124.3748721  25.5559426  74.6161921 124.7829731
  34.2456339  73.2762249 138.3091382  33.7295387  72.4920706 138.1221311
  35.1296287  72.9480966 138.4737901  31.9067066  67.0203265 134.2687195
  31.7091887  66.7118353 135.1530527  32.5166771  67.7464904 134.3985124
  39.9138400  77.5467213 137.4039135  40.6441789  77.2852501 137.9646839
  39.3045346  76.8095934 137.4441203  37.9953697  75.6875075 138.0013587
  37.2686861  75.5531040 137.3930078  37.5800984  75.9951904 138.8070305
  24.1188098  73.2797235 124.2415188  23.2119554  72.9830348 124.3177902
  24.3964079  72.9827053 123.3749474  25.7350164  67.8234125 130.3959429
  24.9250892  67.4781210 130.7714675  26.4234581  67.5141668 130.9847041
  27.6640712  66.9012172 132.0183726  28.2171751  67.3207625 132.6773749
  27.9010799  65.9747920 132.0606682  22.8886883  70.1384170 124.3827167
  23.7506047  70.4639069 124.6422985  23.0737227  69.3515666 123.8700233
  31.0419519  69.0112697 131.5262390  30.4618188  69.6697501 131.1440443
  30.7755452  68.1890041 131.1149808  29.4923086  68.4117754 133.7283710
  29.9922864  68.5234289 132.9198029  30.1358694  68.1078807 134.3684519
  29.8244397  71.1712787 130.5818738  28.9370252  71.4562438 130.3638933
  30.2398386  71.0106550 129.7346015  33.1758934  71.1959308 134.2973078
  33.9519324  71.6855761 134.5697694  32.4507068  71.6217362 134.7544947
  35.6131492  71.9086927 135.3547018  36.2075983  71.6682663 134.6440327
  35.6858076  71.1894058 135.9820555  28.9687611  80.9357462 124.6766758
  29.6723461  81.1407464 125.2924414  28.2450260  81.5034224 124.9415842
  29.7985421  76.6867323 130.7969029  29.7420623  77.1435874 129.9576661
  30.3513764  75.9258008 130.6191871  33.6090227  72.4757055 131.6219148
  33.3527161  72.0753691 132.4527356  32.9843095  73.1900849 131.4969287
  37.9202565  75.2153128 134.1290439  37.3602123  75.2846317 134.9022002
  37.3146068  75.0394113 133.4089936  30.8774308  81.3739991 126.7265218
  31.7119912  80.9421189 126.5442693  30.7158651  81.2022005 127.6542113
  30.5320200  77.8772104 128.0921558  30.4769004  77.7116376 127.1510002
  29.9066256  78.5848137 128.2483747  23.8416326  67.3780213 127.6706876
  23.8294996  68.3222053 127.8275147  24.7339748  67.1950359 127.3766337
  27.6568445  63.9722990 131.9252813  26.8900841  63.4181477 132.0709495
  28.0679150  64.0444859 132.7866965  39.5058583  91.8909642 136.8220395
  40.1436993  91.7716389 136.1183735  39.3879426  92.8390486 136.8808347
  36.3148290  91.8437070 136.7581920  35.9766801  91.7278135 135.8702455
  37.1838058  91.4428235 136.7382926  32.1735105  93.6972547 132.7478811
  31.6099970  93.6062484 131.9795099  32.0587500  92.8772451 133.2281303
  37.7534664  97.3643514 128.0593276  37.1022644  97.9497595 127.6727290
  38.5479027  97.8949709 128.1188313  31.6790291  94.4532651 128.4580410
  32.4521167  93.9061639 128.3193286  32.0315690  95.3176901 128.6694871
  34.4431541  93.1585882 138.2548669  35.0395113  92.9341905 137.5405632
  34.5006512  92.4170628 138.8574117  34.0156569  90.6125318 126.0898860
  34.2682090  90.0906839 125.3282323  33.0781128  90.4491463 126.1925544
  39.0599852  89.6161096 133.8973603  39.8462941  89.1980519 133.5464020
  39.3238556  90.5207188 134.0655252  39.2309929  95.0533946 128.5962260
  38.5955762  95.1268573 129.3083165  38.9007336  95.6427545 127.9181339
  44.4608279  89.5536329 134.8006582  45.1933451  88.9835546 135.0344411
  43.7047635  89.1657930 135.2413087  33.7352858  92.5153424 128.2923235
  33.6189116  91.8398327 128.9604319  33.8455118  92.0285797 127.4755388
  36.0784399  91.9763571 131.9969924  35.7142606  91.4494192 132.7082846
  36.9351515  91.5862040 131.8236410  41.9833699  83.2657903 139.2601190
  41.6517024  84.1353314 139.0362405  41.3879313  82.9494187 139.9395221
  35.7189886  87.0053470 126.9931273  35.8864288  87.8733707 127.3601744
  35.5287055  87.1680752 126.0692562  38.4765219  95.4670449 138.6597103
  38.1765942  96.3695488 138.5512910  38.1316278  95.2002632 139.5118256
  31.9277700  91.9184246 134.6933808  31.0028197  91.7860460 134.9011499
  32.1762114  92.6978465 135.1903750  41.8762363  87.9852989 136.3394540
  40.9679240  87.9168398 136.0453301  41.8249958  88.4624934 137.1676366
  35.6979107  89.4611128 127.9777940  35.5778732  89.9068179 128.8163420
  35.0031695  89.8096445 127.4191478  33.4585999 102.2314770 131.6268071
  33.3810028 103.1822595 131.7056551  32.8547642 101.8860642 132.2842997
  43.7424009  86.1869428 138.1172414  43.0998389  86.4801961 137.4712209
  43.2378938  86.0722348 138.9225611  41.3964173  89.9332601 128.8058274
  42.3082029  90.1659988 128.6305971  40.8873820  90.5169645 128.2433352
  36.0336010  89.2929836 139.8153123  36.8797206  89.7169249 139.9587772
  35.9734648  88.6363460 140.5091686  40.0033755  94.9158419 136.1971855
  39.3742617  95.0804134 135.4947923  39.6159417  95.3300029 136.9682819
  43.8822987  95.8512857 133.5516219  43.1974025  96.2311759 133.0013252
  43.9666836  96.4608184 134.2848167  39.1835456  86.9534204 141.4734297
  38.9396388  87.7076264 140.9368572  39.4595386  87.3319552 142.3081544
  41.1373918  93.4972816 140.1511562  41.3490814  94.1404576 139.4745943
  41.0903667  92.6635133 139.6833492  38.7400147  86.1090637 137.0548134
  37.8784626  86.4071891 137.3464872  38.7662582  86.3261036 136.1229167
  35.5561717  94.6532828 133.4621940  36.0200062  94.9320531 132.6726563
  35.2918515  93.7516272 133.2795031  32.4485798  94.2004309 136.4001703
  33.0187155  94.6291577 135.7619188  33.0393910  93.9186894 137.0985889
  34.4930603  90.7755980 130.2711505  35.1954646  91.2277024 130.7385432
  34.1611231  90.1339799 130.8991398  28.2355937  89.0339533 135.5728639
  27.4454991  89.2897061 135.0968749  28.7267184  89.8487870 135.6780679
  42.2519746  96.3744772 138.3233920  43.0737190  95.9724959 138.0416601
  42.2482149  96.2713006 139.2750035  30.1870682  89.3984112 132.5312116
  29.3901846  89.5102806 133.0495611  29.9596274  89.7370764 131.6653006
  50.3425739  92.7183520 134.6718891  49.5889448  92.1490918 134.5162896
  50.4773281  92.6846185 135.6189526  35.7324368  97.5896923 130.3473611
  35.5970042  98.4348458 130.7758458  36.2734180  97.7916200 129.5839544
  29.1853765  95.1072361 130.9201536  29.6978285  95.9015611 131.0707100
  29.8376478  94.4098651 130.8535137  39.0816831  81.1127484 138.8772504
  38.7381101  82.0029126 138.8011615  39.4495794  80.9229142 138.0142089
  27.1502682  93.4361015 131.6961106  27.9877904  93.8458023 131.4794814
  27.3280949  92.4960457 131.6661300  39.0467114  91.1036096 127.3844939
  38.5313737  91.8740700 127.6233327  38.7744422  90.4301232 128.0078001
  36.6314225  85.9485796 132.4430177  35.7755821  85.5592647 132.2635816
  37.0441177  86.0277757 131.5829963  38.1613371  83.4832140 136.8421737
  37.6578167  83.4462275 136.0289543  38.4543978  84.3924882 136.9018394
  34.4056257  83.5670869 135.8487919  35.2709254  83.3713678 135.4893808
  34.4733766  83.3381221 136.7757276  44.0201388  93.8568450 129.3198113
  43.2430831  93.5179610 128.8753275  44.6992869  93.8621073 128.6453078
  38.8353417  88.9763188 129.2104720  38.5303553  89.2909337 130.0614863
  39.7883859  89.0544607 129.2532053  37.2799849  95.1353411 130.8597674
  36.7521210  94.4006171 130.5470912  36.7787352  95.9128087 130.6137643
  42.2592695  93.3302431 135.9764721  41.6016369  94.0201693 136.0644849
  43.0633094  93.7198863 136.3198707  32.0118576  85.7973077 133.2204286
  32.5862328  85.5748259 132.4877479  32.5989559  85.8661772 133.9732887
  41.0698154  91.6846804 134.0268662  41.5830035  92.3176796 134.5290372
  41.7199378  91.0848000 133.6612022  32.3388164  87.8277538 127.2400171
  31.5025476  88.1652225 127.5609446  32.1992933  87.6926518 126.3027308
  34.3141244  82.6714326 131.9479355  33.6605657  82.3563343 131.3235970
  34.2721718  82.0490067 132.6739178  35.4252449  92.9533621 123.8632647
  34.5179511  92.7222875 124.0623796  35.9223481  92.1571240 124.0506629
  38.3320528 101.6631128 126.7829333  37.6582227 101.9662825 127.3914291
  38.7186350 102.4660209 126.4334791  37.5478985  89.1596260 136.2727003
  36.6301546  89.3811207 136.1148691  37.9639128  89.2342570 135.4138710
  38.3314032  90.5587675 131.4029683  39.0785851  91.0709073 131.0936805
  38.6005622  90.2371728 132.2634077  36.6040682  93.0546216 128.3856637
  35.6951902  92.7705249 128.4829107  36.6335766  93.4745295 127.5259944
  41.8359950  96.6652806 132.1547805  41.3822277  95.8243715 132.2112995
  41.2053917  97.3014204 132.4922585  40.7792869  87.5944792 133.3848472
  40.0415626  87.0822178 133.7158715  41.0319643  87.1545173 132.5731749
  40.2792889  98.5029302 133.0897623  40.5715863  99.0634359 132.3709989
  40.7891510  98.7957863 133.8450782  40.8804497  80.3721044 133.9790242
  41.1863374  79.5118407 133.6916157  41.6057102  80.9638664 133.7789236
  27.1728853  90.7751730 132.3671840  26.9753253  90.1821091 131.6422906
  26.6175517  90.4703940 133.0847778  35.1525577  90.6674837 134.4866433
  35.2074186  89.7148673 134.4108909  34.3416779  90.8234276 134.9707731
  36.3016770  94.5954960 125.7244716  35.8636200  93.8790819 125.2650353
  37.0427211  94.8231075 125.1629807  33.0917936  89.2851896 132.2456812
  32.2785802  89.5846067 132.6522004  33.5876931  88.8907585 132.9631294
  35.2426514  99.2809653 134.1791076  35.2002693  99.5070500 133.2499608
  36.1589213  99.0473028 134.3276877  38.6892148  89.7493721 141.0771705
  39.0441536  89.9765194 141.9366171  39.3364279  90.0812098 140.4548961
  44.4189885  92.8712157 131.7821035  44.2807784  93.0613753 130.8542224
  44.0626104  93.6331540 132.2389086  32.5832011  86.8570252 137.8618047
  33.2231391  86.7159011 137.1641010  31.7509542  86.5704765 137.4856649
  44.4459265  94.9388684 136.7932306  44.8795771  94.8463973 137.6415360
  45.1590845  94.9146184 136.1552322  33.3592315  96.1572682 133.9753039
  34.1532914  95.6623002 133.7735614  32.6484007  95.6290545 133.6120745
  29.6675079  90.3015764 130.0512792  28.7372667  90.2400220 130.2682754
  29.7632551  89.7791717 129.2549433  29.5860628  86.8270577 132.6391033
  29.8467445  87.7415910 132.5300194  30.4077800  86.3595019 132.7887646
  45.3074814  94.9812384 139.3265191  45.5010704  95.8858195 139.5724466
  45.2075432  94.5219803 140.1603776  36.9611125  84.8670275 141.8255519
  36.3139040  85.5660225 141.7319995  37.7312140  85.3006419 142.1931767
  37.1375259  92.7051040 139.8852338  38.0667319  92.8562200 139.7121306
  36.7166289  92.7935061 139.0300985  36.5311743 101.8310801 128.9976413
  36.7063499 101.3598844 129.8122035  35.8444531 102.4576567 129.2257673
  37.4868806  96.1083307 135.0439714  37.1518639  96.0684077 135.9397364
  36.9872752  95.4428023 134.5710124  40.4227998  93.4539341 125.3176774
  39.8057169  92.7286170 125.2209826  39.9544486  94.2148702 124.9743848
  32.2126544  87.6724766 124.4398078  31.3356010  87.5513566 124.0760324
  32.6884297  86.8810844 124.1876966  42.0799537  96.1277834 141.2096534
  41.1926316  95.7903755 141.3322932  42.6498088  95.3960865 141.4465299
  35.3990470 100.0251056 131.6860598  34.6157992 100.5672736 131.7798823
  36.0983215 100.5425036 132.0854839  38.7087120  85.8345685 134.3294804
  39.2055819  85.0815648 134.0095874  37.9374101  85.8710002 133.7638013
  46.5616877  91.5386051 135.9713095  46.5506754  92.4210766 135.6007028
  45.6934257  91.1857602 135.7767632  39.7916901  94.5917373 131.9033227
  38.8573179  94.7118835 131.7337931  39.9693569  93.6889839 131.6393237
  35.2922089  87.9763068 134.0566488  34.9219876  87.4234109 134.7447394
  35.7881181  87.3721202 133.5041488  43.1789452  90.4334692 132.4383261
  43.6449904  91.2662684 132.3643564  43.6296952  89.9679674 133.1428520
  41.2465683  96.7778513 129.4369413  41.5225527  96.6635108 130.3463287
  40.3770182  96.3795998 129.3981586  41.1506115  82.8015279 136.4774163
  40.2369195  83.0319506 136.6456370  41.5799216  82.8853723 137.3288195
  40.9212573  90.9905171 138.9774057  40.2684023  91.2381078 138.3226509
  41.2992953  90.1769309 138.6436534  37.8819747 101.0264864 133.0802227
  38.0642142 100.2086520 133.5429979  38.7052733 101.2432556 132.6427117
  38.2161913  99.9533049 130.3417275  38.7449679  99.4425504 129.7287437
  38.4790132  99.6375579 131.2062808  30.6887422  85.3867059 140.3019594
  30.7528749  86.2481890 139.8896992  30.6254543  84.7741061 139.5691953
  26.9405238  89.2666621 129.8810983  27.2358679  88.3577299 129.8278037
  26.0393273  89.2454360 129.5591986  38.8491316 100.9873885 136.6861392
  38.7242456 100.1863625 136.1772337  39.5070408 101.4820078 136.1975362
  30.4699485  87.3422617 135.8638532  29.7486070  87.9558585 135.7246005
  31.2592740  87.8780382 135.7855178  40.9126225  98.7882905 138.3140942
  39.9656560  98.6688256 138.2419269  41.2608998  97.9005403 138.3967203
  33.2725798  84.6777044 142.1379184  33.7960200  84.9239341 142.9005493
  33.0538131  85.5097079 141.7182321  28.6693079  86.9480719 130.0050309
  28.3405785  86.0678097 129.8225415  29.0232450  86.8928387 130.8926698
  37.9172658  98.5835621 134.5145294  37.7697621  97.6552329 134.6952864
  38.7426152  98.6055712 134.0302369  31.7834902  87.2353688 130.3725786
  32.1230975  87.7639610 129.6504395  32.2307023  87.5734094 131.1484353
  41.5206780  99.4064180 135.6010167  42.4453327  99.2007041 135.4634618
  41.3522083  99.1580581 136.5099508  34.4778343  85.6190739 139.8228854
  34.1375164  84.8198552 140.2249534  33.7717349  85.9192450 139.2505688
  35.1294815  82.7040052 138.2756177  35.9520884  82.2300530 138.1535068
  35.3732879  83.4830535 138.7754864  33.7703050  85.7328310 128.5719079
  34.4911412  86.1109563 128.0682796  33.1468354  86.4517187 128.6754057
  37.9134172  86.4373459 129.5077411  38.1297787  87.3198097 129.2066240
  37.4328240  86.0459672 128.7783053  32.6533394  89.3959172 136.0848156
  32.5077975  89.7099475 136.9772438  32.1758597  90.0144072 135.5319055
  34.5129777  86.3861720 136.1329046  34.4991345  85.4902813 135.7961343
  35.2302205  86.3932384 136.7667332  36.3655907  86.8199060 138.1782173
  36.1073685  87.7416131 138.1766503  35.8340948  86.4229495 138.8682637
  41.3102096  99.9249847 130.9572258  41.4838974  99.3596270 130.2046111
  41.8030987 100.7250742 130.7751748  33.9166673  85.2676100 131.4016616
  34.0382584  84.3392747 131.6007503  33.6268715  85.2814786 130.4894931
  36.7857863  82.9531011 134.5383336  36.8079560  83.0170344 133.5835315
  37.2025922  82.1135520 134.7323842  47.1641487  92.6886270 132.5762558
  47.6072633  91.9393596 132.1781681  46.2867998  92.6796407 132.1936290
  42.2977269  99.2416612 128.0569157  42.9928173  99.8623305 128.2756471
  42.6400419  98.3911963 128.3321535  44.1968692  96.6916317 129.5856487
  44.7220016  97.0303590 128.8605807  44.1091044  95.7563333 129.4019622
  44.0060473  94.1741687 142.2040414  44.0558478  94.0091695 143.1455937
  43.8974396  93.3068946 141.8138295  32.8896732  96.8530233 129.4932503
  33.0384852  97.5365697 128.8399176  33.6963175  96.8335323 130.0081959
  41.2964235  90.1572615 143.5199721  42.1974098  90.0179080 143.2283718
  41.3712210  90.3227070 144.4597898  45.5078670  96.5938629 142.4482435
  45.2163478  96.9568609 143.2845896  44.8950801  95.8805637 142.2695768
  46.7074352  94.1591509 134.9685006  47.5421243  94.5981313 135.1322566
  46.8433481  93.6830162 134.1493251  43.7565858  91.7171244 140.9162493
  44.2319980  91.9098890 140.1081345  42.8331423  91.7730429 140.6705877
  30.6449365  92.8795411 130.4993572  30.3995406  91.9757741 130.6973782
  30.8145279  92.8812561 129.5573050  38.3346074  83.7519087 139.8818327
  38.8528018  84.4880114 139.5564816  37.9801207  84.0583080 140.7165086
  29.9145012  88.6123768 127.9979733  29.2214257  88.6868123 127.3419769
  29.6696764  87.8484112 128.5201250  38.5858669  80.1719370 135.4019224
  38.8660422  79.5042559 136.0279650  39.3709276  80.3648465 134.8893888
  36.3892137  99.3478364 126.9644250  35.8166104  99.9668551 126.5114722
  36.9624931  99.8977725 127.4984172  42.4567527  88.5937004 139.1490799
  43.4084950  88.6935101 139.1703023  42.2870977  87.8015272 139.6588883
  40.4781906  85.6792587 139.3350200  39.8831839  85.9597600 138.6396689
  40.1931603  86.1686488 140.1066941  39.6089397  99.6315514 128.0952833
  40.5420070  99.5661075 128.2985708  39.5212610 100.4671781 127.6367365
  42.2377414  98.9481384 125.0556780  42.1591045  98.6141248 125.9492538
  43.0587080  99.4403152 125.0548252  44.9355605  91.8143123 138.2633099
  44.9031925  90.8759124 138.4492783  45.5456228  91.8927160 137.5298924
  36.7738936  90.6839176 124.3060303  37.7198040  90.5545384 124.3748721
  36.3953181  89.9453838 124.7829731  45.0850093  88.6054167 138.3091382
  44.5689142  87.8212623 138.1221311  45.9690042  88.2772883 138.4737901
  42.7460820  82.3495182 134.2687195  42.5485641  82.0410271 135.1530527
  43.3560526  83.0756821 134.3985124  50.7532155  92.8759130 137.4039135
  51.4835543  92.6144418 137.9646839  50.1439100  92.1387852 137.4441203
  48.8347452  91.0166993 138.0013587  48.1080615  90.8822958 137.3930078
  48.4194739  91.3243821 138.8070305  34.9581853  88.6089153 124.2415188
  34.0513308  88.3122265 124.3177902  35.2357834  88.3118971 123.3749474
  36.5743918  83.1526042 130.3959429  35.7644647  82.8073127 130.7714675
  37.2628335  82.8433586 130.9847041  38.5034467  82.2304089 132.0183726
  39.0565505  82.6499543 132.6773749  38.7404553  81.3039837 132.0606682
  33.7280637  85.4676088 124.3827167  34.5899801  85.7930986 124.6422985
  33.9130982  84.6807584 123.8700233  41.8813274  84.3404614 131.5262390
  41.3011943  84.9989418 131.1440443  41.6149207  83.5181959 131.1149808
  40.3316840  83.7409672 133.7283710  40.8316619  83.8526207 132.9198029
  40.9752448  83.4370725 134.3684519  40.6638152  86.5004705 130.5818738
  39.7764007  86.7854355 130.3638933  41.0792141  86.3398468 129.7346015
  44.0152688  86.5251226 134.2973078  44.7913078  87.0147678 134.5697694
  43.2900822  86.9509280 134.7544947  46.4525247  87.2378845 135.3547018
  47.0469737  86.9974581 134.6440327  46.5251830  86.5185976 135.9820555
  39.8081365  96.2649379 124.6766758  40.5117215  96.4699382 125.2924414
  39.0844014  96.8326141 124.9415842  40.6379176  92.0159241 130.7969029
  40.5814377  92.4727792 129.9576661  41.1907518  91.2549925 130.6191871
  44.4483982  87.8048973 131.6219148  44.1920916  87.4045608 132.4527356
  43.8236850  88.5192766 131.4969287  48.7596319  90.5445046 134.1290439
  48.1995877  90.6138235 134.9022002  48.1539823  90.3686030 133.4089936
  41.7168063  96.7031909 126.7265218  42.5513667  96.2713107 126.5442693
  41.5552406  96.5313922 127.6542113  41.3713955  93.2064022 128.0921558
  41.3162759  93.0408293 127.1510002  40.7460010  93.9140055 128.2483747
  34.6810080  82.7072131 127.6706876  34.6688750  83.6513971 127.8275147
  35.5733502  82.5242276 127.3766337  38.4962200  79.3014908 131.9252813
  37.7294596  78.7473394 132.0709495  38.9072905  79.3736776 132.7866965
  50.3452338 107.2201560 136.8220395  50.9830748 107.1008307 136.1183735
  50.2273181 108.1682404 136.8808347  47.1542044 107.1728988 136.7581920
  46.8160556 107.0570053 135.8702455  48.0231812 106.7720153 136.7382926
  43.0128860 109.0264464 132.7478811  42.4493725 108.9354401 131.9795099
  42.8981255 108.2064369 133.2281303  48.5928419 112.6935432 128.0593276
  47.9416398 113.2789512 127.6727290  49.3872781 113.2241627 128.1188313
  42.5184046 109.7824569 128.4580410  43.2914922 109.2353556 128.3193286
  42.8709445 110.6468818 128.6694871  45.2825295 108.4877800 138.2548669
  45.8788867 108.2633822 137.5405632  45.3400267 107.7462545 138.8574117
  44.8550323 105.9417235 126.0898860  45.1075844 105.4198757 125.3282323
  43.9174883 105.7783381 126.1925544  49.8993606 104.9453014 133.8973603
  50.6856696 104.5272437 133.5464020  50.1632311 105.8499106 134.0655252
  50.0703684 110.3825864 128.5962260  49.4349517 110.4560490 129.3083165
  49.7401090 110.9719463 127.9181339  55.3002033 104.8828247 134.8006582
  56.0327205 104.3127464 135.0344411  54.5441389 104.4949847 135.2413087
  44.5746612 107.8445341 128.2923235  44.4582870 107.1690245 128.9604319
  44.6848872 107.3577715 127.4755388  46.9178153 107.3055488 131.9969924
  46.5536360 106.7786109 132.7082846  47.7745269 106.9153957 131.8236410
  52.8227454  98.5949821 139.2601190  52.4910779  99.4645232 139.0362405
  52.2273067  98.2786105 139.9395221  46.5583640 102.3345388 126.9931273
  46.7258042 103.2025624 127.3601744  46.3680809 102.4972670 126.0692562
  42.7671455 107.2476164 134.6933808  41.8421951 107.1152378 134.9011499
  43.0155868 108.0270383 135.1903750  52.7156117 103.3144907 136.3394540
  51.8072994 103.2460316 136.0453301  52.6643713 103.7916852 137.1676366
  46.5372861 104.7903045 127.9777940  46.4172486 105.2360096 128.8163420
  45.8425449 105.1388363 127.4191478  44.2979753 117.5606687 131.6268071
  44.2203783 118.5114512 131.7056551  43.6941397 117.2152560 132.2842997
  54.5817764 101.5161345 138.1172414  53.9392144 101.8093879 137.4712209
  54.0772692 101.4014266 138.9225611  52.2357927 105.2624519 128.8058274
  53.1475783 105.4951905 128.6305971  51.7267574 105.8461563 128.2433352
  46.8729765 104.6221753 139.8153123  47.7190960 105.0461167 139.9587772
  46.8128403 103.9655378 140.5091686  49.5793902 101.4382555 137.0548134
  48.7178381 101.7363808 137.3464872  49.6056337 101.6552954 136.1229167
  46.3955471 109.9824745 133.4621940  46.8593817 110.2612448 132.6726563
  46.1312269 109.0808190 133.2795031  43.2879552 109.5296227 136.4001703
  43.8580909 109.9583495 135.7619188  43.8787664 109.2478811 137.0985889
  45.3324357 106.1047898 130.2711505  46.0348401 106.5568941 130.7385432
  45.0004986 105.4631716 130.8991398  39.0749691 104.3631450 135.5728639
  38.2848745 104.6188979 135.0968749  39.5660939 105.1779788 135.6780679
  41.0264437 104.7276029 132.5312116  40.2295600 104.8394724 133.0495611
  40.7990029 105.0662682 131.6653006  46.5718122 112.9188840 130.3473611
  46.4363797 113.7640376 130.7758458  47.1127935 113.1208118 129.5839544
  40.0247519 110.4364278 130.9201536  40.5372040 111.2307528 131.0707100
  40.6770232 109.7390569 130.8535137  49.9210586  96.4419402 138.8772504
  49.5774855  97.3321044 138.8011615  50.2889548  96.2521060 138.0142089
  37.9896436 108.7652933 131.6961106  38.8271658 109.1749941 131.4794814
  38.1674704 107.8252375 131.6661300  49.8860868 106.4328013 127.3844939
  49.3707492 107.2032618 127.6233327  49.6138177 105.7593149 128.0078001
  47.4707979 101.2777714 132.4430177  46.6149576 100.8884564 132.2635816
  47.8834931 101.3569675 131.5829963  49.0007126  98.8124057 136.8421737
  48.4971922  98.7754192 136.0289543  49.2937733  99.7216800 136.9018394
  45.2450012  98.8962787 135.8487919  46.1103009  98.7005596 135.4893808
  45.3127521  98.6673139 136.7757276  54.8595142 109.1860368 129.3198113
  54.0824585 108.8471527 128.8753275  55.5386623 109.1912991 128.6453078
  49.6747171 104.3055105 129.2104720  49.3697307 104.6201254 130.0614863
  50.6277614 104.3836525 129.2532053  48.1193603 110.4645329 130.8597674
  47.5914965 109.7298088 130.5470912  47.6181106 111.2420005 130.6137643
  42.8512331 101.1264995 133.2204286  43.4256083 100.9040176 132.4877479
  43.4383313 101.1953689 133.9732887  51.9091908 107.0138722 134.0268662
  52.4223790 107.6468714 134.5290372  52.5593132 106.4139917 133.6612022
  43.1781918 103.1569456 127.2400171  42.3419230 103.4944142 127.5609446
  43.0386688 103.0218436 126.3027308  45.1534999  98.0006244 131.9479355
  44.4999411  97.6855261 131.3235970  45.1115473  97.3781984 132.6739178
  46.2646204 108.2825539 123.8632647  45.3573265 108.0514792 124.0623796
  46.7617235 107.4863158 124.0506629  49.1714282 116.9923046 126.7829333
  48.4975981 117.2954743 127.3914291  49.5580104 117.7952126 126.4334791
  48.3872739 104.4888177 136.2727003  47.4695300 104.7103124 136.1148691
  48.8032883 104.5634488 135.4138710  49.1707787 105.8879593 131.4029683
  49.9179606 106.4000990 131.0936805  49.4399376 105.5663646 132.2634077
  47.4434437 108.3838134 128.3856637  46.5345656 108.0997167 128.4829107
  47.4729521 108.8037212 127.5259944  52.6753704 111.9944723 132.1547805
  52.2216031 111.1535633 132.2112995  52.0447671 112.6306122 132.4922585
  51.6186624 102.9236709 133.3848472  50.8809381 102.4114095 133.7158715
  51.8713397 102.4837091 132.5731749  51.1186644 113.8321220 133.0897623
  51.4109618 114.3926277 132.3709989  51.6285264 114.1249781 133.8450782
  51.7198251  95.7012961 133.9790242  52.0257128  94.8410325 133.6916157
  52.4450856  96.2930581 133.7789236  38.0122607 106.1043648 132.3671840
  37.8147007 105.5113009 131.6422906  37.4569271 105.7995858 133.0847778
  45.9919331 105.9966754 134.4866433  46.0467941 105.0440591 134.4108909
  45.1810533 106.1526193 134.9707731  47.1410525 109.9246877 125.7244716
  46.7029955 109.2082736 125.2650353  47.8820966 110.1522992 125.1629807
  43.9311691 104.6143814 132.2456812  43.1179556 104.9137985 132.6522004
  44.4270685 104.2199503 132.9631294  46.0820269 114.6101571 134.1791076
  46.0396448 114.8362417 133.2499608  46.9982968 114.3764946 134.3276877
  55.2583640 108.2004074 131.7821035  55.1201538 108.3905670 130.8542224
  54.9019858 108.9623457 132.2389086  43.4225766 102.1862170 137.8618047
  44.0625145 102.0450929 137.1641010  42.5903296 101.8996683 137.4856649
  44.1986070 111.4864600 133.9753039  44.9926668 110.9914920 133.7735614
  43.4877762 110.9582463 133.6120745  40.5068833 105.6307682 130.0512792
  39.5766421 105.5692137 130.2682754  40.6026305 105.1083635 129.2549433
  40.4254382 102.1562495 132.6391033  40.6861199 103.0707828 132.5300194
  41.2471554 101.6886937 132.7887646  47.8004879 100.1962193 141.8255519
  47.1532794 100.8952142 141.7319995  48.5705895 100.6298337 142.1931767
  47.3705498 117.1602718 128.9976413  47.5457253 116.6890762 129.8122035
  46.6838286 117.7868485 129.2257673  48.3262561 111.4375225 135.0439714
  47.9912393 111.3975995 135.9397364  47.8266506 110.7719941 134.5710124
  51.2621752 108.7831259 125.3176774  50.6450923 108.0578087 125.2209826
  50.7938241 109.5440619 124.9743848  43.0520298 103.0016683 124.4398078
  42.1749765 102.8805484 124.0760324  43.5278051 102.2102762 124.1876966
  46.2384224 115.3542974 131.6860598  45.4551746 115.8964654 131.7798823
  46.9376969 115.8716953 132.0854839  49.5480874 101.1637603 134.3294804
  50.0449574 100.4107565 134.0095874  48.7767856 101.2001920 133.7638013
  50.6310655 109.9209290 131.9033227  49.6966934 110.0410753 131.7337931
  50.8087324 109.0181757 131.6393237  46.1315843 103.3054986 134.0566488
  45.7613631 102.7526027 134.7447394  46.6274936 102.7013120 133.5041488
  54.0183206 105.7626610 132.4383261  54.4843659 106.5954601 132.3643564
  54.4690707 105.2971591 133.1428520  52.0859438 112.1070431 129.4369413
  52.3619281 111.9927026 130.3463287  51.2163936 111.7087916 129.3981586
  51.9899869  98.1307197 136.4774163  51.0762949  98.3611424 136.6456370
  52.4192971  98.2145641 137.3288195  48.7213502 116.3556782 133.0802227
  48.9035896 115.5378438 133.5429979  49.5446488 116.5724474 132.6427117
  49.0555667 115.2824967 130.3417275  49.5843434 114.7717422 129.7287437
  49.3183887 114.9667497 131.2062808  41.5281177 100.7158977 140.3019594
  41.5922503 101.5773808 139.8896992  41.4648297 100.1032979 139.5691953
  37.7798992 104.5958539 129.8810983  38.0752433 103.6869217 129.8278037
  36.8787028 104.5746278 129.5591986  41.3093239 102.6714535 135.8638532
  40.5879825 103.2850503 135.7246005  42.0986495 103.2072300 135.7855178
  44.1119553 100.0068962 142.1379184  44.6353954 100.2531258 142.9005493
  43.8931886 100.8388996 141.7182321  39.5086834 102.2772636 130.0050309
  39.1799540 101.3970015 129.8225415  39.8626204 102.2220305 130.8926698
  48.7566413 113.9127539 134.5145294  48.6091375 112.9844246 134.6952864
  49.5819906 113.9347630 134.0302369  42.6228657 102.5645606 130.3725786
  42.9624729 103.0931527 129.6504395  43.0700777 102.9026012 131.1484353
  45.3172098 100.9482657 139.8228854  44.9768918 100.1490470 140.2249534
  44.6111104 101.2484368 139.2505688  45.9688570  98.0331969 138.2756177
  46.7914639  97.5592447 138.1535068  46.2126633  98.8122453 138.7754864
  44.6096804 101.0620228 128.5719079  45.3305167 101.4401480 128.0682796
  43.9862108 101.7809104 128.6754057  48.7527927 101.7665377 129.5077411
  48.9691541 102.6490014 129.2066240  48.2721994 101.3751590 128.7783053
  43.4927148 104.7251090 136.0848156  43.3471729 105.0391393 136.9772438
  43.0152352 105.3435990 135.5319055  45.3523531 101.7153638 136.1329046
  45.3385100 100.8194731 135.7961343  46.0695959 101.7224302 136.7667332
  47.2049662 102.1490978 138.1782173  46.9467440 103.0708049 138.1766503
  46.6734702 101.7521413 138.8682637  52.1495851 115.2541765 130.9572258
  52.3232728 114.6888188 130.2046111  52.6424742 116.0542660 130.7751748
  44.7560427 100.5968018 131.4016616  44.8776338  99.6684664 131.6007503
  44.4662469 100.6106704 130.4894931  47.6251617  98.2822929 134.5383336
  47.6473314  98.3462262 133.5835315  48.0419676  97.4427437 134.7323842
  58.0035242 108.0178188 132.5762558  58.4466388 107.2685513 132.1781681
  57.1261752 108.0088324 132.1936290  53.1371023 114.5708530 128.0569157
  53.8321928 115.1915222 128.2756471  53.4794173 113.7203881 128.3321535
  55.0362446 112.0208235 129.5856487  55.5613770 112.3595508 128.8605807
  54.9484799 111.0855250 129.4019622  43.7290486 112.1822151 129.4932503
  43.8778606 112.8657615 128.8399176  44.5356930 112.1627241 130.0081959
  41.4843119 108.2087328 130.4993572  41.2389161 107.3049658 130.6973782
  41.6539034 108.2104479 129.5573050  49.1739829  99.0811005 139.8818327
  49.6921773  99.8172032 139.5564816  48.8194962  99.3874998 140.7165086
  40.7538767 103.9415686 127.9979733  40.0608012 104.0160041 127.3419769
  40.5090518 103.1776030 128.5201250  49.4252423  95.5011287 135.4019224
  49.7054177  94.8334476 136.0279650  50.2103030  95.6940383 134.8893888
  47.2285892 114.6770281 126.9644250  46.6559859 115.2960468 126.5114722
  47.8018685 115.2269643 127.4984172  51.3175661 101.0084505 139.3350200
  50.7225593 101.2889517 138.6396689  51.0325358 101.4978405 140.1066941
  50.4483151 114.9607431 128.0952833  51.3813825 114.8952993 128.2985708
  50.3606364 115.7963698 127.6367365  53.0771168 114.2773302 125.0556780
  52.9984800 113.9433165 125.9492538  53.8980835 114.7695070 125.0548252
  47.6132690 106.0131094 124.3060303  48.5591795 105.8837302 124.3748721
  47.2346935 105.2745756 124.7829731  53.5854575  97.6787100 134.2687195
  53.3879396  97.3702188 135.1530527  54.1954280  98.4048739 134.3985124
  45.7975607 103.9381070 124.2415188  44.8907063 103.6414183 124.3177902
  46.0751588 103.6410888 123.3749474  47.4137673  98.4817960 130.3959429
  46.6038401  98.1365045 130.7714675  48.1022090  98.1725504 130.9847041
  49.3428221  97.5596007 132.0183726  49.8959260  97.9791460 132.6773749
  49.5798308  96.6331755 132.0606682  44.5674392 100.7968006 124.3827167
  45.4293556 101.1222904 124.6422985  44.7524736 100.0099501 123.8700233
  52.7207028  99.6696532 131.5262390  52.1405697 100.3281336 131.1440443
  52.4542961  98.8473877 131.1149808  51.1710595  99.0701590 133.7283710
  51.6710373  99.1818124 132.9198029  51.8146203  98.7662643 134.3684519
  51.5031906 101.8296622 130.5818738  50.6157761 102.1146273 130.3638933
  51.9185895 101.6690386 129.7346015  54.8546442 101.8543143 134.2973078
  55.6306833 102.3439596 134.5697694  54.1294577 102.2801198 134.7544947
  57.2919001 102.5670763 135.3547018  57.8863492 102.3266499 134.6440327
  57.3645585 101.8477893 135.9820555  50.6475120 111.5941297 124.6766758
  51.3510970 111.7991300 125.2924414  49.9237769 112.1618059 124.9415842
  51.4772930 107.3451158 130.7969029  51.4208131 107.8019710 129.9576661
  52.0301273 106.5841843 130.6191871  55.2877736 103.1340890 131.6219148
  55.0314670 102.7337526 132.4527356  54.6630604 103.8484684 131.4969287
  59.5990074 105.8736963 134.1290439  59.0389632 105.9430153 134.9022002
  58.9933577 105.6977948 133.4089936  52.5561817 112.0323826 126.7265218
  53.3907421 111.6005025 126.5442693  52.3946160 111.8605840 127.6542113
  52.2107709 108.5355940 128.0921558  52.1556513 108.3700211 127.1510002
  51.5853765 109.2431973 128.2483747  45.5203835  98.0364049 127.6706876
  45.5082505  98.9805889 127.8275147  46.4127257  97.8534194 127.3766337
  49.3355954  94.6306825 131.9252813  48.5688350  94.0765312 132.0709495
  49.7466659  94.7028694 132.7866965  55.6944078 121.2709153 126.0898860
  55.9469599 120.7490674 125.3282323  54.7568637 121.1075298 126.1925544
  57.3977395 117.6637306 126.9931273  57.5651797 118.5317542 127.3601744
  57.2074564 117.8264587 126.0692562  54.0175673 118.4861374 127.2400171
  53.1812985 118.8236060 127.5609446  53.8780442 118.3510353 126.3027308
  55.9928753 113.3298161 131.9479355  55.3393165 113.0147179 131.3235970
  55.9509227 112.7073902 132.6739178  57.1039958 123.6117457 123.8632647
  56.1967020 123.3806710 124.0623796  57.6010990 122.8155076 124.0506629
  51.3462588 120.9599599 130.0512792  50.4160176 120.8984055 130.2682754
  51.4420060 120.4375552 129.2549433  53.8914053 118.3308601 124.4398078
  53.0143519 118.2097402 124.0760324  54.3671806 117.5394679 124.1876966
  48.6192747 119.9250456 129.8810983  48.9146188 119.0161135 129.8278037
  47.7180782 119.9038196 129.5591986  50.3480588 117.6064554 130.0050309
  50.0193294 116.7261933 129.8225415  50.7019959 117.5512223 130.8926698
  55.4490558 116.3912145 128.5719079  56.1698921 116.7693398 128.0682796
  54.8255863 117.1101022 128.6754057  55.5954182 115.9259936 131.4016616
  55.7170093 114.9976582 131.6007503  55.3056224 115.9398622 130.4894931
  51.5932521 119.2707604 127.9979733  50.9001766 119.3451959 127.3419769
  51.3484273 118.5067947 128.5201250  58.4526445 121.3423012 124.3060303
  59.3985549 121.2129220 124.3748721  58.0740690 120.6037674 124.7829731
  56.6369362 119.2672988 124.2415188  55.7300817 118.9706101 124.3177902
  56.9145343 118.9702806 123.3749474  58.2531427 113.8109878 130.3959429
  57.4432156 113.4656963 130.7714675  58.9415844 113.5017421 130.9847041
  55.4068146 116.1259923 124.3827167  56.2687310 116.4514822 124.6422985
  55.5918490 115.3391419 123.8700233  56.3597589 113.3655966 127.6706876
  56.3476259 114.3097806 127.8275147  57.2521011 113.1826112 127.3766337
  60.1749709 109.9598743 131.9252813  59.4082105 109.4057230 132.0709495
  60.5860414 110.0320612 132.7866965  16.0747156  43.7121802 114.7838582
  15.4235136  44.2975882 114.3972596  16.8691519  44.2427996 114.8433620
  22.3413880  40.2046737 116.0443419  21.5643323  39.8657897 115.5998581
  23.0205361  40.2099361 115.3698384  13.7464941  39.3011908 110.5877954
  12.8392003  39.0701162 110.7869103  14.2435973  38.5049528 110.7751935
  16.6533020  48.0109416 113.5074640  15.9794719  48.3141112 114.1159598
  17.0398842  48.8138496 113.1580097  14.6229263  40.9433247 112.4490023
  14.1848692  40.2269106 111.9895660  15.3639703  41.1709362 111.8875114
  14.8524235  48.1789088 115.7221719  15.0275991  47.7077131 116.5367342
  14.1657023  48.8054854 115.9502980  18.7440490  39.8017629 112.0422080
  18.1269661  39.0764457 111.9455133  18.2756979  40.5626989 111.6989154
  19.5678175  43.1256801 116.1614720  19.8438019  43.0113395 117.0708594
  18.6982674  42.7274285 116.1226893  16.5374405  46.3011337 117.0662582
  17.0662171  45.7903791 116.4532744  16.8002624  45.9853867 117.9308115
  19.6314588  46.2728135 117.6817565  19.8051466  45.7074557 116.9291417
  20.1243480  47.0729030 117.4997055  20.6189761  45.5894899 114.7814463
  21.3140666  46.2101592 115.0001778  20.9612911  44.7390250 115.0566841
  22.5181184  43.0394605 116.3101794  23.0432508  43.3781877 115.5851114
  22.4303537  42.1041620 116.1264929  14.7104629  45.6956651 113.6889557
  14.1378596  46.3146838 113.2360029  15.2837423  46.2456012 114.2229479
  17.9301889  45.9793801 114.8198139  18.8632562  45.9139363 115.0231015
  17.8425102  46.8150068 114.3612672  20.5589906  45.2959671 111.7802087
  20.4803537  44.9619535 112.6737845  21.3799573  45.7881439 111.7793559
  15.0951428  37.0317464 111.0305609  16.0410533  36.9023672 111.0994027
  14.7165673  36.2932125 111.5075038  18.1293858  42.6127667 111.4012065
  18.8329708  42.8177669 112.0169721  17.4056506  43.1804429 111.6661149
  20.0380555  43.0510196 113.4510525  20.8726159  42.6191394 113.2688000
  19.8764898  42.8792210 114.3787420  19.6926447  39.5542309 114.8166864
  19.6375251  39.3886581 113.8755309  19.0672502  40.2618342 114.9729054
  28.6664830  53.5679847 123.5465702  29.3043240  53.4486594 122.8429042
  28.5485673  54.5160691 123.6053654  25.4754536  53.5207275 123.4827227
  25.1373048  53.4048340 122.5947761  26.3444305  53.1198440 123.4628233
  21.3341352  55.3742752 119.4724117  20.7706217  55.2832688 118.7040405
  21.2193747  54.5542656 119.9526610  18.8805784  56.8693943 122.3108338
  19.6727076  56.5284768 121.8954637  19.1202434  56.9788918 123.2310491
  26.9140911  59.0413719 114.7838582  26.2628891  59.6267800 114.3972596
  27.7085274  59.5719914 114.8433620  20.8396538  56.1302856 115.1825717
  21.6127414  55.5831843 115.0438593  21.1921937  56.9947106 115.3940178
  23.6037787  54.8356087 124.9793976  24.2001360  54.6112110 124.2650939
  23.6612759  54.0940833 125.5819424  23.1762816  52.2895522 112.8144167
  23.4288336  51.7677044 112.0527630  22.2387375  52.1261668 112.9170850
  28.2206099  51.2931301 120.6218910  29.0069188  50.8750724 120.2709327
  28.4844803  52.1977393 120.7900558  28.3916176  56.7304151 115.3207567
  27.7562009  56.8038778 116.0328471  28.0613582  57.3197750 114.6426646
  33.6214526  51.2306534 121.5251888  34.3539698  50.6605751 121.7589718
  32.8653881  50.8428134 121.9658394  22.8959105  54.1923628 115.0168542
  22.7795363  53.5168532 115.6849626  23.0061364  53.7056002 114.2000695
  25.2390645  53.6533776 118.7215231  24.8748853  53.1264397 119.4328152
  26.0957761  53.2632245 118.5481716  24.8796132  48.6823675 113.7176579
  25.0470535  49.5503912 114.0847050  24.6893301  48.8450957 112.7937869
  27.6371466  57.1440654 125.3842410  27.3372189  58.0465693 125.2758217
  27.2922525  56.8772837 126.2363563  21.0883947  53.5954451 121.4179114
  20.1634444  53.4630665 121.6256806  21.3368360  54.3748670 121.9149057
  31.0368609  49.6623194 123.0639847  30.1285487  49.5938603 122.7698608
  30.9856205  50.1395139 123.8921673  24.8585353  51.1381333 114.7023246
  24.7384978  51.5838383 115.5408726  24.1637942  51.4866650 114.1436784
  18.4492758  53.2387725 122.2522903  18.5785139  53.4922203 123.1662315
  17.7690209  53.8315433 121.9327558  22.6192245  63.9084974 118.3513377
  22.5416275  64.8592800 118.4301858  22.0153889  63.5630847 119.0088304
  32.9030256  47.8639633 124.8417721  32.2604636  48.1572166 124.1957516
  32.3985184  47.7492553 125.6470918  30.5570419  51.6102806 115.5303580
  31.4688276  51.8430193 115.3551278  30.0480067  52.1939850 114.9678659
  29.1640002  56.5928624 122.9217162  28.5348864  56.7574338 122.2193230
  28.7765664  57.0070234 123.6928126  33.0429234  57.5283062 120.2761525
  32.3580272  57.9081964 119.7258559  33.1273083  58.1378389 121.0093473
  30.2980165  55.1743021 126.8756869  30.5097061  55.8174781 126.1991250
  30.2509914  54.3405338 126.4078799  24.7167964  56.3303032 120.1867247
  25.1806309  56.6090735 119.3971869  24.4524762  55.4286477 120.0040337
  21.6092045  55.8774514 123.1247010  22.1793402  56.3061782 122.4864495
  22.2000157  55.5957099 123.8231196  23.6536850  52.4526185 116.9956812
  24.3560893  52.9047228 117.4630738  23.3217478  51.8110004 117.6236705
  31.4125993  58.0514977 125.0479226  32.2343437  57.6495164 124.7661908
  31.4088396  57.9483211 125.9995342  19.3476929  51.0754317 119.2557422
  18.5508092  51.1873011 119.7740918  19.1202521  51.4140969 118.3898313
  25.1782597  57.5999020 127.2039937  25.2427029  58.0619427 128.0398109
  24.4693521  56.9696385 127.3322247  39.5031986  54.3953725 121.3964198
  38.7495695  53.8261123 121.2408202  39.6379527  54.3616390 122.3434832
  24.8930614  59.2667127 117.0718917  24.7576289  60.1118663 117.5003765
  25.4340427  59.4686405 116.3084851  18.3460012  56.7842565 117.6446842
  18.8584532  57.5785816 117.7952407  18.9982725  56.0868856 117.5780444
  20.1554896  59.9008322 119.7269595  20.3321525  60.8226286 119.5390579
  20.9511730  59.5866741 120.1563975  21.2786212  61.4186496 125.7279938
  21.8293637  61.2903559 124.9556932  20.4397688  61.7181385 125.3774831
  28.6180329  60.1693494 129.2300661  28.5998804  60.9902375 128.7380930
  29.5400249  60.0447569 129.4550802  16.3108928  55.1131220 118.4206413
  17.1484150  55.5228228 118.2040120  16.4887196  54.1730662 118.3906607
  28.2073361  52.7806300 114.1090246  27.6919984  53.5510905 114.3478633
  27.9350669  52.1071437 114.7323307  25.7920472  47.6256001 119.1675484
  24.9362068  47.2362852 118.9881123  26.2047423  47.7047962 118.3075270
  33.1807635  55.5338655 116.0443419  32.4037077  55.1949815 115.5998581
  33.8599116  55.5391278 115.3698384  27.9959664  50.6533393 115.9350027
  27.6909799  50.9679542 116.7860170  28.9490106  50.7314812 115.9777360
  26.4406096  56.8123616 117.5842981  25.9127457  56.0776375 117.2716218
  25.9393598  57.5898292 117.3382949  31.4198942  55.0072636 122.7010027
  30.7622616  55.6971898 122.7890156  32.2239341  55.3969068 123.0444014
  21.1724823  47.4743282 119.9449592  21.7468575  47.2518464 119.2122785
  21.7595806  47.5431977 120.6978194  30.2304400  53.3617009 120.7513969
  30.7436282  53.9947001 121.2535679  30.8805624  52.7618205 120.3857329
  21.4994410  49.5047743 113.9645478  20.6631723  49.8422430 114.2854752
  21.3599180  49.3696723 113.0272615  23.4747491  44.3484531 118.6724662
  22.8211903  44.0333548 118.0481277  23.4327965  43.7260271 119.3984485
  24.5858696  54.6303826 110.5877954  23.6785758  54.3993080 110.7869103
  25.0829728  53.8341445 110.7751935  27.4926775  63.3401333 113.5074640
  26.8188473  63.6433030 114.1159598  27.8792597  64.1430414 113.1580097
  26.7085231  50.8366465 122.9972309  25.7907793  51.0581412 122.8393998
  27.1245375  50.9112775 122.1384017  27.4920279  52.2357880 118.1274990
  28.2392098  52.7479277 117.8182112  27.7611869  51.9141933 118.9879383
  25.7646929  54.7316421 115.1101944  24.8558148  54.4475454 115.2074414
  25.7942013  55.1515500 114.2505251  30.9966197  58.3423010 118.8793112
  30.5428524  57.5013920 118.9358302  30.3660163  58.9784409 119.2167892
  29.9399116  49.2714997 120.1093779  29.2021873  48.7592383 120.4404022
  30.1925890  48.8315378 119.2977056  29.4399136  60.1799507 119.8142930
  29.7322110  60.7404564 119.0955295  29.9497756  60.4728068 120.5696089
  30.0410744  42.0491249 120.7035548  30.3469620  41.1888612 120.4161463
  30.7663348  42.6408869 120.5034542  16.3335100  52.4521935 119.0917146
  16.1359499  51.8591296 118.3668213  15.7781764  52.1474145 119.8093085
  24.3131823  52.3445042 121.2111739  24.3680433  51.3918878 121.1354216
  23.5023025  52.5004481 121.6953038  25.4623017  56.2725165 112.4490023
  25.0242447  55.5561024 111.9895660  26.2033458  56.5001279 111.8875114
  22.2524183  50.9622101 118.9702118  21.4392049  51.2616272 119.3767310
  22.7483177  50.5677790 119.6876600  24.4032761  60.9579858 120.9036383
  24.3608940  61.1840705 119.9744915  25.3195460  60.7243233 121.0522184
  33.5796132  54.5482362 118.5066341  33.4414030  54.7383958 117.5787530
  33.2232351  55.3101744 118.9634392  33.6065511  56.6158889 123.5177613
  34.0402018  56.5234178 124.3660667  34.3197092  56.5916389 122.8797629
  22.5198562  57.8342887 120.6998346  23.3139160  57.3393207 120.4980921
  21.8090254  57.3060750 120.3366051  27.3393406  60.2160983 125.0510713
  27.3930429  60.7851919 125.8188429  26.4708188  60.3862868 124.6864750
  18.8281325  51.9785969 116.7758098  17.8978913  51.9170424 116.9928060
  18.9238797  51.4561922 115.9794740  18.7466874  48.5040782 119.3636340
  19.0073692  49.4186115 119.2545500  19.5684047  48.0365224 119.5132953
  34.4681061  56.6582589 126.0510498  34.6616951  57.5628400 126.2969773
  34.3681679  56.1990008 126.8849083  26.2981506  54.3821245 126.6097645
  27.2273566  54.5332404 126.4366612  25.8772536  54.4705266 125.7546292
  25.0969838  58.4071909 124.3796183  24.9580924  58.0390694 125.2522121
  24.3084434  58.9219549 124.2080141  25.6917990  63.5081006 115.7221719
  25.8669746  63.0369049 116.5367342  25.0050778  64.1346772 115.9502980
  26.6475053  57.7853512 121.7685021  26.3124886  57.7454282 122.6642670
  26.1478999  57.1198228 121.2955431  29.5834245  55.1309546 112.0422080
  28.9663415  54.4056374 111.9455133  29.1150733  55.8918907 111.6989154
  31.2388376  59.8408455 129.7027861  31.1800922  59.1567675 129.0358444
  31.6407895  60.5827445 129.2508487  20.2579075  66.6570368 122.4961579
  20.4975673  67.2888893 123.1740598  19.4148272  66.3058409 122.7826939
  21.3732791  49.3494971 111.1643384  20.4962257  49.2283771 110.8005631
  21.8490544  48.5581049 110.9122273  31.2405784  57.8048039 127.9341840
  30.3532562  57.4673960 128.0568239  31.8104335  57.0731070 128.1710606
  12.8934931  54.1372130 121.2584892  13.5805971  53.8233860 120.6705907
  12.7383059  55.0413495 120.9852143  24.7706937  62.4649491 124.9003083
  24.6977108  63.2704462 125.4122388  24.3284330  62.6641457 124.0751105
  24.5596717  61.7021261 118.4105905  23.7764238  62.2442941 118.5044129
  25.2589462  62.2195241 118.8100146  27.8693367  47.5115890 121.0540110
  28.3662066  46.7585853 120.7341181  27.0980348  47.5480207 120.4883320
  35.7223124  53.2156256 122.6958402  35.7113000  54.0980971 122.3252335
  34.8540504  52.8627807 122.5012939  27.2305620  62.3636325 127.0561242
  27.9433593  62.9983790 126.9837144  26.7395649  62.4600191 126.2401244
  28.9523147  56.2687578 118.6278534  28.0179426  56.3889040 118.4583238
  29.1299816  55.3660044 118.3638544  24.4528335  49.6533273 120.7811795
  24.0826123  49.1004314 121.4692701  24.9487428  49.0491407 120.2286795
  32.3395699  52.1104897 119.1628568  32.8056151  52.9432889 119.0888871
  32.7903199  51.6449878 119.8673826  22.2817534  60.1130768 127.8766813
  22.9826994  60.7467251 128.0296207  21.8112649  60.4545500 127.1162452
  30.4071930  58.4548718 116.1614720  30.6831774  58.3405313 117.0708594
  29.5376429  58.0566203 116.1226893  30.0818820  52.6675376 125.7019363
  29.4290270  52.9151283 125.0471816  30.4599200  51.8539514 125.3681841
  27.0425994  62.7035069 119.8047534  27.2248388  61.8856725 120.2675286
  27.8658980  62.9202761 119.3672424  27.3768159  61.6303254 117.0662582
  27.9055926  61.1195709 116.4532744  27.6396379  61.3145784 117.9308115
  17.8785252  59.6467123 124.8097916  18.4638689  58.9010811 124.9425820
  17.6810091  59.9571080 125.6934579  20.7323907  62.6818371 119.8260358
  20.0634283  63.1664498 119.3424398  20.5936777  62.9287591 120.7403737
  24.8729176  64.7162114 126.4243016  25.4247484  64.8793736 127.1892102
  25.2135369  65.3066552 125.7523041  16.1011484  50.9436826 116.6056290
  16.3964925  50.0347504 116.5523344  15.1999520  50.9224565 116.2837292
  28.0097563  62.6644090 123.4106699  27.8848703  61.8633830 122.9017644
  28.6676654  63.1590283 122.9220668  30.0732472  60.4653110 125.0386249
  29.1262807  60.3458461 124.9664575  30.4215245  59.5775608 125.1212510
  17.8299326  48.6250923 116.7295615  17.5012032  47.7448302 116.5470721
  18.1838697  48.5698592 117.6172005  27.0778905  60.2605826 121.2390601
  26.9303867  59.3322534 121.4198171  27.9032398  60.2825917 120.7547676
  20.9441149  48.9123893 117.0971093  21.2837222  49.4409815 116.3749701
  21.3913270  49.2504299 117.8729659  30.6813027  61.0834385 122.3255474
  31.6059574  60.8777246 122.1879925  30.5128330  60.8350786 123.2344815
  22.9309296  47.4098515 115.2964386  23.6517659  47.7879768 114.7928103
  22.3074600  48.1287392 115.3999364  27.0740419  48.1143664 116.2322718
  27.2904034  48.9968302 115.9311546  26.5934486  47.7229877 115.5028360
  30.4708343  61.6020052 117.6817565  30.6445220  61.0366475 116.9291417
  30.9637234  62.4020947 117.4997055  23.0772919  46.9446305 118.1261922
  23.1988831  46.0162952 118.3252810  22.7874962  46.9584991 117.2140238
  36.3247734  54.3656475 119.3007865  36.7678880  53.6163801 118.9026988
  35.4474244  54.3566612 118.9181597  31.4583515  60.9186817 114.7814463
  32.1534420  61.5393509 115.0001778  31.8006666  60.0682168 115.0566841
  33.3574939  58.3686522 116.3101794  33.8826263  58.7073795 115.5851114
  33.2697291  57.4333538 116.1264929  25.0194987  62.2820596 128.4391671
  25.3282114  62.0369743 129.3114370  25.8170469  62.4867234 127.9510541
  25.0415599  64.4358506 120.6697047  24.6020590  63.9434884 121.3629904
  25.7923716  63.8931473 120.4289122  17.5207938  60.6270046 120.6721675
  18.3465958  60.3273818 120.2920319  17.1701990  59.8577669 121.1211464
  22.4889471  59.9796515 122.7419349  21.8669481  59.3167220 122.4421577
  23.1594338  60.0057647 122.0592997  15.7216543  58.5456373 121.6310609
  14.8848452  58.1178547 121.4494610  15.6940189  58.7388816 122.5681400
  33.0468845  59.0019426 131.6152992  32.2564388  58.9843565 131.0757491
  32.8102199  59.5407720 132.3702029  33.1666720  55.8511892 128.9285721
  33.2164725  55.6861900 129.8701243  33.0580643  54.9839151 128.5383601
  22.0502978  58.5300438 116.2177809  22.1991099  59.2135902 115.5644482
  22.8569422  58.5105528 116.7327265  34.6684916  58.2708834 129.1727742
  34.3769725  58.6338814 130.0091203  34.0557048  57.5575842 128.9941074
  35.8680599  55.8361714 121.6930312  36.7027490  56.2751518 121.8567873
  36.0039728  55.3600367 120.8738558  32.9172105  53.3941448 127.6407800
  33.3926226  53.5869095 126.8326651  31.9937670  53.4500634 127.3951184
  19.8055611  54.5565616 117.2238878  19.5601653  53.6527946 117.4219089
  19.9751526  54.5582766 116.2818356  19.0751259  50.2893973 114.7225040
  18.3820504  50.3638328 114.0665076  18.8303011  49.5254317 115.2446557
  25.5498384  61.0248568 113.6889557  24.9772351  61.6438756 113.2360029
  26.1231178  61.5747930 114.2229479  31.6173774  50.2707209 125.8736106
  32.5691197  50.3705306 125.8948330  31.4477224  49.4785477 126.3834190
  28.7695644  61.3085719 114.8198139  29.7026317  61.2431280 115.0231015
  28.6818856  62.1441985 114.3612672  31.3983660  60.6251589 111.7802087
  31.3197292  60.2911453 112.6737845  32.2193327  61.1173357 111.7793559
  34.0961851  53.4913328 124.9878405  34.0638172  52.5529329 125.1738089
  34.7062475  53.5697365 124.2544230  25.9345182  52.3609381 111.0305609
  26.8804287  52.2315589 111.0994027  25.5559427  51.6224043 111.5075038
  34.2456340  50.2824372 125.0336689  33.7295389  49.4982828 124.8466617
  35.1296288  49.9543088 125.1983208  31.9067067  44.0265387 120.9932501
  31.7091888  43.7180475 121.8775833  32.5166772  44.7527026 121.1230431
  39.9138401  54.5529335 124.1284442  40.6441790  54.2914623 124.6892145
  39.3045347  53.8158057 124.1686510  37.9953698  52.6937198 124.7258893
  37.2686862  52.5593163 124.1175385  37.5800985  53.0014026 125.5315611
  24.1188100  50.2859358 110.9660495  23.2119555  49.9892470 111.0423208
  24.3964081  49.9889176 110.0994781  25.7350165  44.8296247 117.1204736
  24.9250894  44.4843332 117.4959982  26.4234582  44.5203791 117.7092347
  27.6640714  43.9074294 118.7429033  28.2171752  44.3269748 119.4019056
  27.9010800  42.9810042 118.7851989  22.8886884  47.1446293 111.1072474
  23.7506048  47.4701191 111.3668291  23.0737228  46.3577789 110.5945540
  31.0419521  46.0174819 118.2507697  30.4618190  46.6759623 117.8685749
  30.7755453  45.1952164 117.8395114  29.4923087  45.4179877 120.4529017
  29.9922865  45.5296412 119.6443336  30.1358695  45.1140930 121.0929826
  16.8191042  55.1586886 121.2618677  16.7961731  55.2574574 120.3100561
  17.1291679  56.0052037 121.5835844  29.8244399  48.1774910 117.3064045
  28.9370254  48.4624560 117.0884240  30.2398388  48.0168673 116.4591322
  33.1758935  48.2021431 121.0218384  33.9519325  48.6917883 121.2943001
  32.4507069  48.6279485 121.4790254  35.6131493  48.9149050 122.0792325
  36.2075984  48.6744786 121.3685633  35.6858077  48.1956180 122.7065861
  17.8328649  62.7582661 122.3935490  17.6983117  61.9983062 121.8273488
  17.4160711  63.4823561 121.9264279  28.9687612  57.9419584 111.4012065
  29.6723462  58.1469587 112.0169721  28.2450261  58.5096346 111.6661149
  29.7985422  53.6929446 117.5214335  29.7420624  54.1497997 116.6821968
  30.3513765  52.9320130 117.3437178  33.6090228  49.4819177 118.3464455
  33.3527163  49.0815813 119.1772662  32.9843096  50.1962971 118.2214594
  37.9202566  52.2215251 120.8535746  37.3602124  52.2908440 121.6267308
  37.3146070  52.0456235 120.1335242  20.9897775  63.6551978 122.6053932
  20.8730159  64.5997410 122.5032623  20.1690221  63.3525539 122.9939732
  30.8774309  58.3802114 113.4510525  31.7119913  57.9483312 113.2688000
  30.7158652  58.2084127 114.3787420  30.5320202  54.8834227 114.8166864
  30.4769005  54.7178498 113.8755309  29.9066257  55.5910260 114.9729054
  23.8416327  44.3842336 114.3952183  23.8294997  45.3284176 114.5520454
  24.7339749  44.2012481 114.1011644  22.0152289  64.3080240 125.8209861
  22.9179536  64.3403850 126.1376356  21.7889659  63.3780691 125.8356197
  23.7705891  63.0611226 122.4819939  22.8201522  63.0613088 122.3684312
  24.0738377  62.3143961 121.9655974  27.6568447  40.9785113 118.6498120
  26.8900842  40.4243599 118.7954802  28.0679152  41.0506981 119.5112271
  39.5058585  68.8971765 123.5465702  40.1436995  68.7778512 122.8429042
  39.3879427  69.8452609 123.6053654  36.3148291  68.8499193 123.4827227
  35.9766802  68.7340257 122.5947761  37.1838059  68.4490358 123.4628233
  32.1735107  70.7034669 119.4724117  31.6099972  70.6124606 118.7040405
  32.0587502  69.8834574 119.9526610  36.7968074  70.0034044 129.4413432
  36.7856715  69.6086843 128.5693936  36.9588713  69.2700117 130.0347204
  29.7199538  72.1985861 122.3108338  30.5120830  71.8576685 121.8954637
  29.9596189  72.3080836 123.2310491  37.7534665  74.3705637 114.7838582
  37.1022645  74.9559717 114.3972596  38.5479028  74.9011832 114.8433620
  31.6790292  71.4594774 115.1825717  32.4521168  70.9123761 115.0438593
  32.0315691  72.3239023 115.3940178  33.5175335  72.7871156 128.3892616
  33.2265201  73.6916787 128.2739282  34.1532319  72.8287684 129.1036686
  34.4431542  70.1648005 124.9793976  35.0395114  69.9404027 124.2650939
  34.5006513  69.4232750 125.5819424  34.0156570  67.6187440 112.8144167
  34.2682091  67.0968961 112.0527630  33.0781129  67.4553586 112.9170850
  39.0599853  66.6223219 120.6218910  39.8462942  66.2042642 120.2709327
  39.3238557  67.5269311 120.7900558  39.2309930  72.0596069 115.3207567
  38.5955763  72.1330695 116.0328471  38.9007337  72.6489668 114.6426646
  44.4608280  66.5598452 121.5251888  45.1933452  65.9897669 121.7589718
  43.7047636  66.1720052 121.9658394  33.7352859  69.5215546 115.0168542
  33.6189117  68.8460449 115.6849626  33.8455119  69.0347920 114.2000695
  36.0784400  68.9825693 118.7215231  35.7142607  68.4556314 119.4328152
  36.9351516  68.5924162 118.5481716  41.9833701  60.2720026 125.9846497
  41.6517025  61.1415437 125.7607712  41.3879314  59.9556310 126.6640527
  35.7189887  64.0115593 113.7176579  35.8864289  64.8795829 114.0847050
  35.5287056  64.1742875 112.7937869  38.4765220  72.4732572 125.3842410
  38.1765943  73.3757611 125.2758217  38.1316280  72.2064755 126.2363563
  31.9277702  68.9246369 121.4179114  31.0028198  68.7922583 121.6256806
  32.1762115  69.7040588 121.9149057  41.8762364  64.9915112 123.0639847
  40.9679241  64.9230520 122.7698608  41.8249960  65.4687057 123.8921673
  35.6979108  66.4673250 114.7023246  35.5778733  66.9130301 115.5408726
  35.0031696  66.8158568 114.1436784  29.2886513  68.5679642 122.2522903
  29.4178894  68.8214121 123.1662315  28.6083964  69.1607350 121.9327558
  33.4586000  79.2376892 118.3513377  33.3810030  80.1884717 118.4301858
  32.8547643  78.8922765 119.0088304  35.9503230  66.4104758 131.0074744
  35.1736564  66.9698678 130.9977609  36.5893793  66.8961541 131.5289614
  43.7424010  63.1931550 124.8417721  43.0998391  63.4864084 124.1957516
  43.2378939  63.0784471 125.6470918  41.3964174  66.9394724 115.5303580
  42.3082030  67.1722110 115.3551278  40.8873821  67.5231768 114.9678659
  34.2049602  69.2190211 130.5692711  34.9464286  69.7575255 130.2927535
  33.4986587  69.8456500 130.7264263  39.6804942  71.3619351 129.1664873
  40.0888298  70.9201762 128.4219505  38.9582203  70.7871979 129.4199066
  36.0336012  66.2991958 126.5398430  36.8797207  66.7231372 126.6833079
  35.9734649  65.6425582 127.2336993  40.0033756  71.9220542 122.9217162
  39.3742619  72.0866256 122.2193230  39.6159418  72.3362152 123.6928126
  43.8822988  72.8574980 120.2761525  43.1974026  73.2373881 119.7258559
  43.9666837  73.4670307 121.0093473  39.1835457  63.9596327 128.1979603
  38.9396389  64.7138387 127.6613879  39.4595387  64.3381674 129.0326850
  41.1373920  70.5034939 126.8756869  41.3490815  71.1466699 126.1991250
  41.0903668  69.6697255 126.4078799  38.7400149  63.1152760 123.7793441
  37.8784628  63.4134013 124.0710179  38.7662583  63.3323158 122.8474474
  35.5561718  71.6594950 120.1867247  36.0200064  71.9382653 119.3971869
  35.2918516  70.7578395 120.0040337  32.4485799  71.2066432 123.1247010
  33.0187156  71.6353700 122.4864495  33.0393911  70.9249016 123.8231196
  34.4930604  67.7818102 116.9956812  35.1954648  68.2339146 117.4630738
  34.1611233  67.1401921 117.6236705  32.9410966  66.3729859 131.3708021
  32.3109626  67.0546140 131.6043418  32.8347054  66.2612941 130.4261160
  28.2355938  66.0401655 122.2973946  27.4454992  66.2959184 121.8214056
  28.7267186  66.8549993 122.4025986  42.2519748  73.3806894 125.0479226
  43.0737191  72.9787082 124.7661908  42.2482151  73.2775128 125.9995342
  30.1870684  66.4046234 119.2557422  29.3901847  66.5164929 119.7740918
  29.9596276  66.7432887 118.3898313  36.0176351  72.9290938 127.2039937
  36.0820784  73.3911345 128.0398109  35.3087275  72.2988303 127.3322247
  26.5193641  66.2932146 124.7288936  26.7701680  67.1779156 124.9946512
  27.0553190  66.1136747 123.9564028  50.3425741  69.7245643 121.3964198
  49.5889449  69.1553041 121.2408202  50.4773282  69.6908307 122.3434832
  35.7324369  74.5959045 117.0718917  35.5970044  75.4410581 117.5003765
  36.2734181  74.7978323 116.3084851  29.1853766  72.1134483 117.6446842
  29.6978287  72.9077733 117.7952407  29.8376479  71.4160774 117.5780444
  30.9948651  75.2300239 119.7269595  31.1715279  76.1518204 119.5390579
  31.7905484  74.9158659 120.1563975  35.1359669  62.0908504 131.3253529
  35.8769383  62.6915657 131.2457991  35.3677592  61.3486142 130.7671572
  30.2801007  67.2764871 129.6031759  30.1654523  66.3750129 129.9038858
  29.4245525  67.5228568 129.2516575  37.3592845  75.2182612 131.2019259
  36.9156699  74.4318990 130.8840164  38.0210059  75.4061762 130.5363150
  32.1179966  76.7478413 125.7279938  32.6687391  76.6195477 124.9556932
  31.2791442  77.0473302 125.3774831  39.4574083  75.4985412 129.2300661
  39.4392559  76.3194293 128.7380930  40.3794003  75.3739487 129.4550802
  35.9147137  73.0129541 130.0724169  36.4475474  72.2517829 129.8423477
  35.3861218  72.7203193 130.8148323  39.0816832  58.1189607 125.6017811
  38.7381102  59.0091249 125.5256921  39.4495795  57.9291265 124.7387396
  27.1502683  70.4423137 118.4206413  27.9877905  70.8520146 118.2040120
  27.3280951  69.5022580 118.3906607  39.0467115  68.1098218 114.1090246
  38.5313739  68.8802823 114.3478633  38.7744424  67.4363354 114.7323307
  36.6314226  62.9547919 119.1675484  35.7755822  62.5654769 118.9881123
  37.0441178  63.0339880 118.3075270  38.1613373  60.4894262 123.5667044
  37.6578168  60.4524397 122.7534849  38.4543980  61.3987005 123.6263701
  34.4056259  60.5732992 122.5733226  35.2709255  60.3775801 122.2139115
  34.4733768  60.3443344 123.5002582  44.0201389  70.8630573 116.0443419
  43.2430832  70.5241732 115.5998581  44.6992870  70.8683196 115.3698384
  38.8353418  65.9825310 115.9350027  38.5303554  66.2971459 116.7860170
  39.7883860  66.0606730 115.9777360  37.2799850  72.1415534 117.5842981
  36.7521212  71.4068293 117.2716218  36.7787353  72.9190210 117.3382949
  42.2592696  70.3364554 122.7010027  41.6016371  71.0263815 122.7890156
  43.0633095  70.7260986 123.0444014  32.0118578  62.8035200 119.9449592
  32.5862330  62.5810381 119.2122785  32.5989560  62.8723894 120.6978194
  41.0698155  68.6908927 120.7513969  41.5830037  69.3238919 121.2535679
  41.7199379  68.0910122 120.3857329  32.3388165  64.8339661 113.9645478
  31.5025477  65.1714347 114.2854752  32.1992934  64.6988641 113.0272615
  34.3141245  59.6776449 118.6724662  33.6605658  59.3625466 118.0481277
  34.2721720  59.0552189 119.3984485  35.4252450  69.9595744 110.5877954
  34.5179512  69.7284997 110.7869103  35.9223482  69.1633363 110.7751935
  38.3320529  78.6693251 113.5074640  37.6582228  78.9724948 114.1159598
  38.7186351  79.4722331 113.1580097  37.5478986  66.1658382 122.9972309
  36.6301547  66.3873329 122.8393998  37.9639129  66.2404693 122.1384017
  38.3314034  67.5649798 118.1274990  39.0785852  68.0771195 117.8182112
  38.6005623  67.2433851 118.9879383  36.6040684  70.0608339 115.1101944
  35.6951903  69.7767371 115.2074414  36.6335768  70.4807417 114.2505251
  41.8359951  73.6714928 118.8793112  41.3822278  72.8305838 118.9358302
  41.2053918  74.3076327 119.2167892  40.7792871  64.6006914 120.1093779
  40.0415627  64.0884300 120.4404022  41.0319644  64.1607296 119.2977056
  40.2792890  75.5091425 119.8142930  40.5715865  76.0696482 119.0955295
  40.7891511  75.8019986 120.5696089  40.8804498  57.3783166 120.7035548
  41.1863375  56.5180530 120.4161463  41.6057103  57.9700786 120.5034542
  27.1728854  67.7813853 119.0917146  26.9753254  67.1883213 118.3668213
  26.6175518  67.4766063 119.8093085  35.1525578  67.6736959 121.2111739
  35.2074188  66.7210796 121.1354216  34.3416780  67.8296398 121.6953038
  36.3016772  71.6017082 112.4490023  35.8636201  70.8852941 111.9895660
  37.0427212  71.8293197 111.8875114  33.0917938  66.2914019 118.9702118
  32.2785803  66.5908190 119.3767310  33.5876932  65.8969708 119.6876600
  35.2426516  76.2871776 120.9036383  35.2002694  76.5132622 119.9744915
  36.1589214  76.0535151 121.0522184  38.6892149  66.7555843 127.8017012
  39.0441537  66.9827317 128.6611478  39.3364281  67.0874220 127.1794267
  44.4189886  69.8774279 118.5066341  44.2807785  70.0675875 117.5787530
  44.0626105  70.6393662 118.9634392  32.5832012  63.8632375 124.5863353
  33.2231392  63.7221134 123.8886317  31.7509543  63.5766888 124.2101955
  44.4459266  71.9450806 123.5177613  44.8795773  71.8526095 124.3660667
  45.1590847  71.9208307 122.8797629  33.3592316  73.1634805 120.6998346
  34.1532915  72.6685125 120.4980921  32.6484009  72.6352668 120.3366051
  38.1787161  75.5452900 125.0510713  38.2324183  76.1143837 125.8188429
  37.3101942  75.7154786 124.6864750  29.6675080  67.3077887 116.7758098
  28.7372668  67.2462342 116.9928060  29.7632552  66.7853839 115.9794740
  29.5860629  63.8332700 119.3636340  29.8467446  64.7478033 119.2545500
  30.4077801  63.3657142 119.5132953  31.0585554  65.2470457 126.5335165
  31.7308608  65.0387819 125.8847813  30.2315341  65.0492543 126.0940397
  45.3074815  71.9874507 126.0510498  45.5010706  72.8920318 126.2969773
  45.2075434  71.5281926 126.8849083  36.9611126  61.8732398 128.5500825
  36.3139041  62.5722347 128.4565302  37.7312142  62.3068542 128.9177074
  40.3689924  72.1381250 131.6251379  40.2175431  71.9091801 130.7081462
  40.3594604  73.0951851 131.6382724  37.1375261  69.7113163 126.6097645
  38.0667321  69.8624322 126.4366612  36.7166291  69.7997183 125.7546292
  35.9363592  73.7363827 124.3796183  35.7974678  73.3682611 125.2522121
  35.1478189  74.2511466 124.2080141  36.5311744  78.8372923 115.7221719
  36.7063500  78.3660967 116.5367342  35.8444532  79.4638690 115.9502980
  37.4868807  73.1145430 121.7685021  37.1518640  73.0746200 122.6642670
  36.9872753  72.4490146 121.2955431  31.4613051  68.5213060 127.2937602
  31.3232849  67.7893298 127.8949141  32.3717975  68.4321960 127.0121789
  40.4227999  70.4601464 112.0422080  39.8057170  69.7348292 111.9455133
  39.9544488  71.2210824 111.6989154  34.0895352  68.2333019 126.7821281
  34.7994971  67.5926211 126.7407900  34.0464660  68.4845914 127.7047462
  42.0782131  75.1700372 129.7027861  42.0194677  74.4859592 129.0358444
  42.4801649  75.9119362 129.2508487  32.8024286  65.2198237 128.6016921
  32.2661643  64.7688975 129.2538517  32.2140995  65.3544146 127.8587385
  31.0972830  81.9862286 122.4961579  31.3369428  82.6180810 123.1740598
  30.2542026  81.6350326 122.7826939  32.2126545  64.6786888 111.1643384
  31.3356011  64.5575689 110.8005631  32.6884298  63.8872967 110.9122273
  42.0799538  73.1339956 127.9341840  41.1926317  72.7965878 128.0568239
  42.6498089  72.4022987 128.1710606  23.7328685  69.4664048 121.2584892
  24.4199725  69.1525778 120.6705907  23.5776814  70.3705413 120.9852143
  28.5363407  64.3554245 125.6869915  28.4521596  63.7479914 124.9520325
  27.7146114  64.8463263 125.6879412  35.6100691  77.7941409 124.9003083
  35.5370863  78.5996380 125.4122388  35.1678085  77.9933374 124.0751105
  35.3990471  77.0313179 118.4105905  34.6157993  77.5734859 118.5044129
  36.0983216  77.5487158 118.8100146  38.7087121  62.8407808 121.0540110
  39.2055821  62.0877770 120.7341181  37.9374103  62.8772125 120.4883320
  46.5616879  68.5448174 122.6958402  46.5506755  69.4272889 122.3252335
  45.6934258  68.1919724 122.5012939  38.0699375  77.6928243 127.0561242
  38.7827347  78.3275707 126.9837144  37.5789404  77.7892109 126.2401244
  39.7916902  71.5979495 118.6278534  38.8573181  71.7180958 118.4583238
  39.9693570  70.6951962 118.3638544  35.2922090  64.9825191 120.7811795
  34.9219877  64.4296231 121.4692701  35.7881182  64.3783325 120.2286795
  43.1789453  67.4396815 119.1628568  43.6449905  68.2724806 119.0888871
  43.6296954  66.9741796 119.8673826  33.1211289  75.4422686 127.8766813
  33.8220748  76.0759169 128.0296207  32.6506404  75.7837418 127.1162452
  41.2465684  73.7840636 116.1614720  41.5225528  73.6697230 117.0708594
  40.3770183  73.3858121 116.1226893  41.1506116  59.8077402 123.2019469
  40.2369196  60.0381628 123.3701676  41.5799217  59.8915846 124.0533502
  40.9212574  67.9967294 125.7019363  40.2684025  68.2443201 125.0471816
  41.2992954  67.1831432 125.3681841  37.8819748  78.0326987 119.8047534
  38.0642143  77.2148643 120.2675286  38.7052734  78.2494679 119.3672424
  38.2161914  76.9595172 117.0662582  38.7449680  76.4487626 116.4532744
  38.4790133  76.6437702 117.9308115  36.9700148  68.7387105 132.1885400
  36.2940785  68.6381234 132.8587776  37.7927781  68.5826318 132.6521398
  28.7179007  74.9759041 124.8097916  29.3032443  74.2302729 124.9425820
  28.5203845  75.2862998 125.6934579  31.5717662  78.0110289 119.8260358
  30.9028037  78.4956416 119.3424398  31.4330531  78.2579509 120.7403737
  23.3096661  67.5464641 123.5302359  23.3480761  67.0128232 124.3239477
  22.8036954  67.0199847 122.9113336  35.7122930  80.0454032 126.4243016
  36.2641238  80.2085654 127.1892102  36.0529124  80.6358470 125.7523041
  30.6887424  62.3929182 127.0264901  30.7528750  63.2544013 126.6142299
  30.6254544  61.7803184 126.2937260  30.1639696  64.4652314 130.6737935
  30.7911735  64.0829392 131.2875460  29.3067615  64.2466516 131.0393628
  40.5633805  74.8715290 132.2791671  41.1073709  75.4845248 131.7846626
  39.9820650  75.4294868 132.7958684  26.9405239  66.2728744 116.6056290
  27.2358680  65.3639422 116.5523344  26.0393275  66.2516483 116.2837292
  38.8491318  77.9936008 123.4106699  38.7242457  77.1925747 122.9017644
  39.5070409  78.4882201 122.9220668  30.4699486  64.3484740 122.5883839
  29.7486072  64.9620708 122.4491312  31.2592742  64.8842505 122.5100485
  40.9126226  75.7945028 125.0386249  39.9656562  75.6750379 124.9664575
  41.2608999  74.9067526 125.1212510  33.2725799  61.6839167 128.8624490
  33.7960201  61.9301463 129.6250800  33.0538133  62.5159201 128.4427628
  28.6693080  63.9542841 116.7295615  28.3405787  63.0740220 116.5470721
  29.0232451  63.8990510 117.6172005  37.9172659  75.5897744 121.2390601
  37.7697622  74.6614451 121.4198171  38.7426153  75.6117835 120.7547676
  31.7834904  64.2415811 117.0971093  32.1230976  64.7701732 116.3749701
  32.2307024  64.5796217 117.8729659  41.5206781  76.4126303 122.3255474
  42.4453329  76.2069164 122.1879925  41.3522085  76.1642704 123.2344815
  34.4778344  62.6252862 126.5474161  34.1375165  61.8260675 126.9494841
  33.7717351  62.9254573 125.9750994  35.1294816  59.7102174 125.0001484
  35.9520886  59.2362652 124.8780374  35.3732880  60.4892658 125.5000170
  33.7703051  62.7390433 115.2964386  34.4911413  63.1171685 114.7928103
  33.1468355  63.4579309 115.3999364  37.9134174  63.4435582 116.2322718
  38.1297788  64.3260219 115.9311546  37.4328241  63.0521795 115.5028360
  32.6533395  66.4021295 122.8093463  32.5077976  66.7161598 123.7017744
  32.1758599  67.0206195 122.2564361  34.5129778  63.3923843 122.8574352
  34.4991347  62.4964936 122.5206650  35.2302206  63.3994506 123.4912638
  36.3655909  63.8261183 124.9027480  36.1073686  64.7478254 124.9011810
  35.8340949  63.4291617 125.5927944  41.3102097  76.9311970 117.6817565
  41.4838975  76.3658393 116.9291417  41.8030989  77.7312865 117.4997055
  27.1279057  68.9426639 125.7481124  26.5832525  69.7186447 125.8801398
  28.0058407  69.2897444 125.5900245  33.9166674  62.2738223 118.1261922
  34.0382585  61.3454869 118.3252810  33.6268716  62.2876909 117.2140238
  36.7857864  59.9593133 121.2628642  36.8079561  60.0232467 120.3080622
  37.2025923  59.1197642 121.4569148  47.1641489  69.6948393 119.3007865
  47.6072635  68.9455718 118.9026988  46.2867999  69.6858529 118.9181597
  42.2977270  76.2478734 114.7814463  42.9928175  76.8685427 115.0001778
  42.6400420  75.3974086 115.0566841  27.9145079  68.0696535 128.6411281
  27.1726815  68.2179171 129.2275911  27.5937823  68.3304801 127.7778030
  44.1968693  73.6978440 116.3101794  44.7220017  74.0365713 115.5851114
  44.1091046  72.7625455 116.1264929  35.8588742  77.6112514 128.4391671
  36.1675868  77.3661660 129.3114370  36.6564224  77.8159152 127.9510541
  35.8809354  79.7650423 120.6697047  35.4414344  79.2726802 121.3629904
  36.6317471  79.2223391 120.4289122  28.3601693  75.9561964 120.6721675
  29.1859713  75.6565736 120.2920319  28.0095745  75.1869587 121.1211464
  33.3283226  75.3088432 122.7419349  32.7063235  74.6459137 122.4421577
  33.9988093  75.3349564 122.0592997  26.5610298  73.8748291 121.6310609
  25.7242206  73.4470465 121.4494610  26.5333943  74.0680734 122.5681400
  33.4007753  63.7870220 132.3351855  33.4495909  64.6632343 131.9529625
  33.9430268  63.2447613 131.7623498  43.8862599  74.3311344 131.6152992
  43.0958143  74.3135482 131.0757491  43.6495954  74.8699637 132.3702029
  44.0060474  71.1803810 128.9285721  44.0558479  71.0153817 129.8701243
  43.8974397  70.3131069 128.5383601  32.8896733  73.8592356 116.2177809
  33.0384853  74.5427820 115.5644482  33.6963176  73.8397446 116.7327265
  41.2964237  67.1634738 130.2445027  42.1974099  67.0241203 129.9529025
  41.3712211  67.3289193 131.1843205  35.6307042  64.5401593 129.0898214
  34.7610351  64.8335159 128.8180802  35.8666522  65.1242038 129.8105477
  45.5078671  73.6000752 129.1727742  45.2163479  73.9630732 130.0091203
  44.8950802  72.8867760 128.9941074  46.7074353  71.1653631 121.6930312
  47.5421245  71.6043435 121.8567873  46.8433482  70.6892285 120.8738558
  43.7565859  68.7233366 127.6407800  44.2319981  68.9161012 126.8326651
  42.8331425  68.7792552 127.3951184  30.6449366  69.8857533 117.2238878
  30.3995408  68.9819863 117.4219089  30.8145280  69.8874684 116.2818356
  38.3346076  60.7581210 126.6063634  38.8528020  61.4942237 126.2810123
  37.9801208  61.0645203 127.4410393  29.9145013  65.6185891 114.7225040
  29.2214258  65.6930246 114.0665076  29.6696765  64.8546235 115.2446557
  38.5858670  57.1781492 122.1264531  38.8660424  56.5104681 122.7524957
  39.3709277  57.3710588 121.6139194  36.3892138  76.3540486 113.6889557
  35.8166105  76.9730673 113.2360029  36.9624932  76.9039848 114.2229479
  42.4567528  65.5999126 125.8736106  43.4084951  65.6997224 125.8948330
  42.2870979  64.8077395 126.3834190  40.4781908  62.6854709 126.0595507
  39.8831840  62.9659722 125.3641995  40.1931604  63.1748610 126.8312248
  39.6089398  76.6377636 114.8198139  40.5420071  76.5723198 115.0231015
  39.5212611  77.4733903 114.3612672  42.2377415  75.9543507 111.7802087
  42.1591046  75.6203370 112.6737845  43.0587082  76.4465275 111.7793559
  44.9355606  68.8205246 124.9878405  44.9031926  67.8821247 125.1738089
  45.5456230  68.8989283 124.2544230  36.7738937  67.6901299 111.0305609
  37.7198042  67.5607507 111.0994027  36.3953182  66.9515961 111.5075038
  45.0850094  65.6116289 125.0336689  44.5689143  64.8274746 124.8466617
  45.9690043  65.2835006 125.1983208  42.7460821  59.3557305 120.9932501
  42.5485643  59.0472393 121.8775833  43.3560527  60.0818944 121.1230431
  50.7532156  69.8821253 124.1284442  51.4835544  69.6206541 124.6892145
  50.1439101  69.1449975 124.1686510  48.8347453  68.0229115 124.7258893
  48.1080617  67.8885080 124.1175385  48.4194740  68.3305944 125.5315611
  36.6577629  71.7419045 132.4906266  37.5780639  71.9197644 132.6846313
  36.6227212  70.7975090 132.3385966  34.9581854  65.6151275 110.9660495
  34.0513309  65.3184388 111.0423208  35.2357835  65.3181093 110.0994781
  25.8759794  66.9357639 121.4159541  25.5562579  66.0822947 121.1233915
  25.3293223  67.1506217 122.1717508  29.6539702  69.6520080 125.1329048
  29.8725712  70.5837188 125.1517081  30.0665476  69.2928054 125.9183851
  36.5743920  60.1588165 117.1204736  35.7644648  59.8135250 117.4959982
  37.2628337  59.8495709 117.7092347  38.5034468  59.2366212 118.7429033
  39.0565507  59.6561665 119.4019056  38.7404554  58.3101960 118.7851989
  34.5267567  65.2253285 134.5231796  34.4264294  66.1747642 134.4543888
  34.3089109  64.8971524 133.6507867  33.7280639  62.4738211 111.1072474
  34.5899803  62.7993109 111.3668291  33.9130983  61.6869706 110.5945540
  25.7448054  70.5560550 123.3852663  25.0511526  70.1414503 122.8722617
  26.4921045  70.5981087 122.7886081  41.8813275  61.3466737 118.2507697
  41.3011944  62.0051541 117.8685749  41.6149208  60.5244082 117.8395114
  40.3316841  60.7471795 120.4529017  40.8316620  60.8588329 119.6443336
  40.9752449  60.4432848 121.0929826  34.3898837  68.6550424 133.3396858
  33.9065919  69.4550784 133.5460747  34.4759776  68.6658369 132.3864302
  27.6584797  70.4878804 121.2618677  27.6355485  70.5866491 120.3100561
  27.9685433  71.3343955 121.5835844  30.3172175  72.5454959 125.3765292
  31.2715428  72.5138901 125.3095223  30.1184698  72.0845583 126.1915518
  30.9071557  71.1156075 127.9436090  31.7264446  71.6100154 127.9670927
  31.1808365  70.1988043 127.9153657  40.6638153  63.5066827 117.3064045
  39.7764008  63.7916478 117.0884240  41.0792142  63.3460591 116.4591322
  44.0152689  63.5313348 121.0218384  44.7913079  64.0209801 121.2943001
  43.2900823  63.9571403 121.4790254  46.4525248  64.2440968 122.0792325
  47.0469739  64.0036704 121.3685633  46.5251832  63.5248098 122.7065861
  28.6722404  78.0874578 122.3935490  28.5376872  77.3274979 121.8273488
  28.2554466  78.8115478 121.9264279  39.8081367  73.2711502 111.4012065
  40.5117217  73.4761505 112.0169721  39.0844015  73.8388264 111.6661149
  40.6379177  69.0221363 117.5214335  40.5814378  69.4789915 116.6821968
  41.1907519  68.2612048 117.3437178  44.4483983  64.8111095 118.3464455
  44.1920917  64.4107731 119.1772662  43.8236851  65.5254889 118.2214594
  48.7596321  67.5507168 120.8535746  48.1995879  67.6200358 121.6267308
  48.1539824  67.3748153 120.1335242  31.8291529  78.9843896 122.6053932
  31.7123914  79.9289328 122.5032623  31.0083976  78.6817457 122.9939732
  41.7168064  73.7094031 113.4510525  42.5513668  73.2775230 113.2688000
  41.5552407  73.5376045 114.3787420  41.3713956  70.2126145 114.8166864
  41.3162760  70.0470416 113.8755309  40.7460011  70.9202177 114.9729054
  26.1606471  65.4494209 128.6428287  26.8065335  64.9393163 129.1315512
  25.9523622  66.1862891 129.2171712  38.6859863  72.5175056 134.1420427
  39.5551023  72.6915709 133.7807062  38.2066615  73.3369473 134.0196157
  34.6810082  59.7134254 114.3952183  34.6688751  60.6576093 114.5520454
  35.5733503  59.5304399 114.1011644  32.8546044  79.6372157 125.8209861
  33.7573290  79.6695768 126.1376356  32.6283414  78.7072608 125.8356197
  34.6099646  78.3903144 122.4819939  33.6595277  78.3905006 122.3684312
  34.9132132  77.6435879 121.9655974  38.4962201  56.3077030 118.6498120
  37.7294597  55.7535517 118.7954802  38.9072906  56.3798899 119.5112271
  50.3452339  84.2263682 123.5465702  50.9830749  84.1070430 122.8429042
  50.2273182  85.1744526 123.6053654  47.1542045  84.1791110 123.4827227
  46.8160557  84.0632175 122.5947761  48.0231814  83.7782276 123.4628233
  43.0128861  86.0326587 119.4724117  42.4493726  85.9416524 118.7040405
  42.8981256  85.2126491 119.9526610  47.6361828  85.3325962 129.4413432
  47.6250469  84.9378760 128.5693936  47.7982468  84.5992035 130.0347204
  40.5593293  87.5277778 122.3108338  41.3514585  87.1868603 121.8954637
  40.7989943  87.6372754 123.2310491  48.5928420  89.6997555 114.7838582
  47.9416400  90.2851635 114.3972596  49.3872783  90.2303749 114.8433620
  42.5184047  86.7886692 115.1825717  43.2914923  86.2415679 115.0438593
  42.8709446  87.6530941 115.3940178  44.3569089  88.1163074 128.3892616
  44.0658955  89.0208705 128.2739282  44.9926074  88.1579602 129.1036686
  45.2825296  85.4939922 124.9793976  45.8788869  85.2695945 124.2650939
  45.3400268  84.7524668 125.5819424  44.8550325  82.9479358 112.8144167
  45.1075845  82.4260879 112.0527630  43.9174884  82.7845503 112.9170850
  49.8993608  81.9515136 120.6218910  50.6856697  81.5334559 120.2709327
  50.1632312  82.8561228 120.7900558  50.0703685  87.3887986 115.3207567
  49.4349518  87.4622613 116.0328471  49.7401091  87.9781585 114.6426646
  55.3002035  81.8890369 121.5251888  56.0327207  81.3189586 121.7589718
  54.5441390  81.5011970 121.9658394  44.5746613  84.8507464 115.0168542
  44.4582872  84.1752367 115.6849626  44.6848873  84.3639838 114.2000695
  46.9178154  84.3117611 118.7215231  46.5536362  83.7848232 119.4328152
  47.7745270  83.9216080 118.5481716  52.8227455  75.6011943 125.9846497
  52.4910780  76.4707354 125.7607712  52.2273068  75.2848227 126.6640527
  46.5583641  79.3407511 113.7176579  46.7258044  80.2087747 114.0847050
  46.3680810  79.5034792 112.7937869  49.3158975  87.8024489 125.3842410
  49.0159698  88.7049528 125.2758217  48.9710034  87.5356673 126.2363563
  42.7671456  84.2538286 121.4179114  41.8421953  84.1214500 121.6256806
  43.0155869  85.0332506 121.9149057  52.7156118  80.3207030 123.0639847
  51.8072996  80.2522438 122.7698608  52.6643714  80.7978975 123.8921673
  46.5372862  81.7965168 114.7023246  46.4172487  82.2422219 115.5408726
  45.8425451  82.1450486 114.1436784  40.1280267  83.8971560 122.2522903
  40.2572648  84.1506039 123.1662315  39.4477718  84.4899268 121.9327558
  44.2979754  94.5668810 118.3513377  44.2203784  95.5176635 118.4301858
  43.6941398  94.2214682 119.0088304  46.7896984  81.7396675 131.0074744
  46.0130318  82.2990595 130.9977609  47.4287547  82.2253458 131.5289614
  54.5817765  78.5223468 124.8417721  53.9392145  78.8156001 124.1957516
  54.0772693  78.4076388 125.6470918  52.2357928  82.2686641 115.5303580
  53.1475785  82.5014028 115.3551278  51.7267575  82.8523685 114.9678659
  45.0443356  84.5482129 130.5692711  45.7858041  85.0867173 130.2927535
  44.3380342  85.1748417 130.7264263  50.5198696  86.6911269 129.1664873
  50.9282052  86.2493680 128.4219505  49.7975958  86.1163897 129.4199066
  46.8729766  81.6283876 126.5398430  47.7190961  82.0523289 126.6833079
  46.8128404  80.9717500 127.2336993  50.8427511  87.2512460 122.9217162
  50.2136373  87.4158174 122.2193230  50.4553173  87.6654069 123.6928126
  54.7216743  88.1866898 120.2761525  54.0367781  88.5665799 119.7258559
  54.8060592  88.7962224 121.0093473  50.0229211  79.2888244 128.1979603
  49.7790143  80.0430305 127.6613879  50.2989142  79.6673592 129.0326850
  51.9767674  85.8326857 126.8756869  52.1884569  86.4758616 126.1991250
  51.9297422  84.9989173 126.4078799  49.5793903  78.4444677 123.7793441
  48.7178382  78.7425931 124.0710179  49.6056338  78.6615076 122.8474474
  46.3955473  86.9886868 120.1867247  46.8593818  87.2674571 119.3971869
  46.1312271  86.0870312 120.0040337  43.2879554  86.5358349 123.1247010
  43.8580911  86.9645618 122.4864495  43.8787666  86.2540934 123.8231196
  45.3324359  83.1110020 116.9956812  46.0348402  83.5631064 117.4630738
  45.0004987  82.4693839 117.6236705  43.7804720  81.7021777 131.3708021
  43.1503381  82.3838058 131.6043418  43.6740808  81.5904858 130.4261160
  39.0749693  81.3693573 122.2973946  38.2848747  81.6251101 121.8214056
  39.5660940  82.1841911 122.4025986  53.0913502  88.7098812 125.0479226
  53.9130946  88.3078999 124.7661908  53.0875905  88.6067046 125.9995342
  41.0264438  81.7338152 119.2557422  40.2295601  81.8456846 119.7740918
  40.7990030  82.0724804 118.3898313  46.8570106  88.2582855 127.2039937
  46.9214538  88.7203263 128.0398109  46.1481030  87.6280220 127.3322247
  37.3587396  81.6224063 124.7288936  37.6095434  82.5071073 124.9946512
  37.8946944  81.4428665 123.9564028  61.1819495  85.0537560 121.3964198
  60.4283204  84.4844959 121.2408202  61.3167036  85.0200225 122.3434832
  46.5718123  89.9250963 117.0718917  46.4363798  90.7702499 117.5003765
  47.1127936  90.1270240 116.3084851  43.0585463  76.0042543 133.7333272
  42.6652408  75.4508741 134.4080917  43.8751603  76.3153121 134.1239790
  40.0247521  87.4426401 117.6446842  40.5372041  88.2369651 117.7952407
  40.6770234  86.7452691 117.5780444  41.8342405  90.5592157 119.7269595
  42.0109034  91.4810122 119.5390579  42.6299239  90.2450576 120.1563975
  45.9753424  77.4200422 131.3253529  46.7163137  78.0207575 131.2457991
  46.2071347  76.6778060 130.7671572  41.1194762  82.6056789 129.6031759
  41.0048277  81.7042046 129.9038858  40.2639280  82.8520486 129.2516575
  48.1986600  90.5474529 131.2019259  47.7550454  89.7610908 130.8840164
  48.8603813  90.7353680 130.5363150  42.9573721  92.0770331 125.7279938
  43.5081146  91.9487394 124.9556932  42.1185197  92.3765220 125.3774831
  50.2967838  90.8277329 129.2300661  50.2786313  91.6486210 128.7380930
  51.2187758  90.7031404 129.4550802  46.7540892  88.3421459 130.0724169
  47.2869229  87.5809747 129.8423477  46.2254973  88.0495111 130.8148323
  49.9210587  73.4481525 125.6017811  49.5774856  74.3383166 125.5256921
  50.2889549  73.2583182 124.7387396  37.9896437  85.7715055 118.4206413
  38.8271659  86.1812063 118.2040120  38.1674705  84.8314497 118.3906607
  49.8860870  83.4390136 114.1090246  49.3707493  84.2094740 114.3478633
  49.6138178  82.7655272 114.7323307  47.4707981  78.2839837 119.1675484
  46.6149577  77.8946687 118.9881123  47.8834932  78.3631797 118.3075270
  49.0007127  75.8186180 123.5667044  48.4971923  75.7816315 122.7534849
  49.2937734  76.7278923 123.6263701  45.2450013  75.9024910 122.5733226
  46.1103010  75.7067718 122.2139115  45.3127522  75.6735261 123.5002582
  54.8595144  86.1922490 116.0443419  54.0824586  85.8533650 115.5998581
  55.5386625  86.1975114 115.3698384  49.6747173  81.3117228 115.9350027
  49.3697308  81.6263377 116.7860170  50.6277615  81.3898648 115.9777360
  48.1193605  87.4707451 117.5842981  47.5914966  86.7360211 117.2716218
  47.6181107  88.2482128 117.3382949  53.0986451  85.6656472 122.7010027
  52.4410125  86.3555733 122.7890156  53.9026850  86.0552904 123.0444014
  42.8512332  78.1327117 119.9449592  43.4256084  77.9102299 119.2122785
  43.4383315  78.2015812 120.6978194  51.9091909  84.0200844 120.7513969
  52.4223791  84.6530836 121.2535679  52.5593133  83.4202040 120.3857329
  43.1781919  80.1631579 113.9645478  42.3419232  80.5006265 114.2854752
  43.0386689  80.0280558 113.0272615  45.1535000  75.0068366 118.6724662
  44.4999412  74.6917384 118.0481277  45.1115474  74.3844107 119.3984485
  46.2646205  85.2887661 110.5877954  45.3573267  85.0576915 110.7869103
  46.7617237  84.4925281 110.7751935  49.1714284  93.9985169 113.5074640
  48.4975982  94.3016865 114.1159598  49.5580106  94.8014249 113.1580097
  48.3872740  81.4950300 122.9972309  47.4695302  81.7165247 122.8393998
  48.8032884  81.5696610 122.1384017  49.1707788  82.8941716 118.1274990
  49.9179607  83.4063113 117.8182112  49.4399378  82.5725768 118.9879383
  47.4434438  85.3900256 115.1101944  46.5345657  85.1059289 115.2074414
  47.4729522  85.8099335 114.2505251  52.6753706  89.0006846 118.8793112
  52.2216033  88.1597756 118.9358302  52.0447672  89.6368244 119.2167892
  51.6186625  79.9298832 120.1093779  50.8809382  79.4176218 120.4404022
  51.8713399  79.4899213 119.2977056  51.1186645  90.8383343 119.8142930
  51.4109619  91.3988400 119.0955295  51.6285265  91.1311904 120.5696089
  51.7198253  72.7075084 120.7035548  52.0257129  71.8472447 120.4161463
  52.4450857  73.2992704 120.5034542  38.0122609  83.1105770 119.0917146
  37.8147008  82.5175131 118.3668213  37.4569273  82.8057981 119.8093085
  45.9919332  83.0028877 121.2111739  46.0467942  82.0502713 121.1354216
  45.1810534  83.1588316 121.6953038  47.1410526  86.9309000 112.4490023
  46.7029956  86.2144859 111.9895660  47.8820967  87.1585115 111.8875114
  43.9311692  81.6205937 118.9702118  43.1179558  81.9200107 119.3767310
  44.4270686  81.2261625 119.6876600  46.0820270  91.6163694 120.9036383
  46.0396449  91.8424540 119.9744915  46.9982969  91.3827068 121.0522184
  49.5285904  82.0847761 127.8017012  49.8835292  82.3119234 128.6611478
  50.1758035  82.4166138 127.1794267  55.2583641  85.2066197 118.5066341
  55.1201539  85.3967793 117.5787530  54.9019860  85.9685580 118.9634392
  43.4225767  79.1924292 124.5863353  44.0625146  79.0513051 123.8886317
  42.5903297  78.9058806 124.2101955  55.2853020  87.2742724 123.5177613
  55.7189527  87.1818013 124.3660667  55.9984601  87.2500225 122.8797629
  44.1986071  88.4926723 120.6998346  44.9926669  87.9977043 120.4980921
  43.4877763  87.9644586 120.3366051  49.0180915  90.8744818 125.0510713
  49.0717938  91.4435754 125.8188429  48.1495697  91.0446703 124.6864750
  40.5068834  82.6369804 116.7758098  39.5766422  82.5754260 116.9928060
  40.6026306  82.1145757 115.9794740  40.4254383  79.1624617 119.3636340
  40.6861201  80.0769950 119.2545500  41.2471556  78.6949060 119.5132953
  41.8979309  80.5762374 126.5335165  42.5702362  80.3679736 125.8847813
  41.0709095  80.3784460 126.0940397  56.1468570  87.3166425 126.0510498
  56.3404460  88.2212235 126.2969773  56.0469188  86.8573844 126.8849083
  47.8004881  77.2024315 128.5500825  47.1532796  77.9014265 128.4565302
  48.5705896  77.6360459 128.9177074  51.2083679  87.4673167 131.6251379
  51.0569185  87.2383719 130.7081462  51.1988358  88.4243769 131.6382724
  47.9769015  85.0405080 126.6097645  48.9061075  85.1916240 126.4366612
  47.5560045  85.1289101 125.7546292  46.7757347  89.0655745 124.3796183
  46.6368433  88.6974529 125.2522121  45.9871943  89.5803384 124.2080141
  47.3705499  94.1664841 115.7221719  47.5457254  93.6952884 116.5367342
  46.6838287  94.7930607 115.9502980  48.3262562  88.4437347 121.7685021
  47.9912395  88.4038117 122.6642670  47.8266508  87.7782063 121.2955431
  42.3006806  83.8504977 127.2937602  42.1626604  83.1185216 127.8949141
  43.2111729  83.7613877 127.0121789  51.2621754  85.7893382 112.0422080
  50.6450924  85.0640210 111.9455133  50.7938242  86.5502742 111.6989154
  44.9289107  83.5624937 126.7821281  45.6388725  82.9218129 126.7407900
  44.8858415  83.8137832 127.7047462  52.9175885  90.4992290 129.7027861
  52.8588431  89.8151510 129.0358444  53.3195404  91.2411280 129.2508487
  43.6418041  80.5490155 128.6016921  43.1055398  80.0980893 129.2538517
  43.0534749  80.6836063 127.8587385  41.9366584  97.3154204 122.4961579
  42.1763182  97.9472728 123.1740598  41.0935781  96.9642244 122.7826939
  43.0520300  80.0078806 111.1643384  42.1749766  79.8867607 110.8005631
  43.5278053  79.2164884 110.9122273  52.9193293  88.4631874 127.9341840
  52.0320071  88.1257796 128.0568239  53.4891844  87.7314905 128.1710606
  34.5722440  84.7955966 121.2584892  35.2593480  84.4817696 120.6705907
  34.4170568  85.6997330 120.9852143  39.3757162  79.6846162 125.6869915
  39.2915351  79.0771832 124.9520325  38.5539868  80.1755181 125.6879412
  46.4494446  93.1233326 124.9003083  46.3764617  93.9288298 125.4122388
  46.0071839  93.3225292 124.0751105  46.2384226  92.3605096 118.4105905
  45.4551747  92.9026776 118.5044129  46.9376971  92.8779076 118.8100146
  49.5480876  78.1699726 121.0540110  50.0449575  77.4169688 120.7341181
  48.7767857  78.2064042 120.4883320  57.4010633  83.8740091 122.6958402
  57.3900509  84.7564807 122.3252335  56.5328013  83.5211642 122.5012939
  48.9093129  93.0220160 127.0561242  49.6221102  93.6567625 126.9837144
  48.4183158  93.1184026 126.2401244  50.6310656  86.9271413 118.6278534
  49.6966935  87.0472875 118.4583238  50.8087325  86.0243880 118.3638544
  46.1315844  80.3117109 120.7811795  45.7613632  79.7588149 121.4692701
  46.6274937  79.7075242 120.2286795  54.0183208  82.7688732 119.1628568
  54.4843660  83.6016724 119.0888871  54.4690708  82.3033714 119.8673826
  43.9605043  90.7714604 127.8766813  44.6614502  91.4051087 128.0296207
  43.4900158  91.1129335 127.1162452  52.0859439  89.1132554 116.1614720
  52.3619283  88.9989148 117.0708594  51.2163938  88.7150038 116.1226893
  51.9899870  75.1369319 123.2019469  51.0762950  75.3673546 123.3701676
  52.4192972  75.2207763 124.0533502  51.7606329  83.3259211 125.7019363
  51.1077779  83.5735119 125.0471816  52.1386709  82.5123349 125.3681841
  48.7213503  93.3618904 119.8047534  48.9035897  92.5440560 120.2675286
  49.5446489  93.5786597 119.3672424  49.0555668  92.2887090 117.0662582
  49.5843435  91.7779544 116.4532744  49.3183888  91.9729620 117.9308115
  47.8093902  84.0679022 132.1885400  47.1334539  83.9673152 132.8587776
  48.6321536  83.9118236 132.6521398  39.5572761  90.3050959 124.8097916
  40.1426198  89.5594647 124.9425820  39.3597600  90.6154916 125.6934579
  42.4111416  93.3402206 119.8260358  41.7421792  93.8248334 119.3424398
  42.2724286  93.5871427 120.7403737  34.1490416  82.8756559 123.5302359
  34.1874515  82.3420150 124.3239477  33.6430709  82.3491765 122.9113336
  46.5516685  95.3745950 126.4243016  47.1034993  95.5377571 127.1892102
  46.8922878  95.9650388 125.7523041  41.5281178  77.7221100 127.0264901
  41.5922505  78.5835930 126.6142299  41.4648298  77.1095101 126.2937260
  41.0033451  79.7944232 130.6737935  41.6305489  79.4121309 131.2875460
  40.1461369  79.5758434 131.0393628  51.4027559  90.2007207 132.2791671
  51.9467463  90.8137166 131.7846626  50.8214404  90.7586786 132.7958684
  37.7798993  81.6020661 116.6056290  38.0752434  80.6931340 116.5523344
  36.8787029  81.5808401 116.2837292  49.6885072  93.3227925 123.4106699
  49.5636212  92.5217665 122.9017644  50.3464163  93.8174119 122.9220668
  41.3093240  79.6776658 122.5883839  40.5879826  80.2912625 122.4491312
  42.0986496  80.2134423 122.5100485  51.7519981  91.1236945 125.0386249
  50.8050316  91.0042297 124.9664575  52.1002754  90.2359443 125.1212510
  44.1119554  77.0131084 128.8624490  44.6353956  77.2593381 129.6250800
  43.8931887  77.8451119 128.4427628  39.5086835  79.2834759 116.7295615
  39.1799541  78.4032138 116.5470721  39.8626206  79.2282428 117.6172005
  48.7566414  90.9189662 121.2390601  48.6091376  89.9906369 121.4198171
  49.5819907  90.9409752 120.7547676  42.6228658  79.5707729 117.0971093
  42.9624731  80.0993650 116.3749701  43.0700779  79.9088135 117.8729659
  52.3600536  91.7418220 122.3255474  53.2847083  91.5361082 122.1879925
  52.1915839  91.4934621 123.2344815  45.3172099  77.9544779 126.5474161
  44.9768919  77.1552592 126.9494841  44.6111105  78.2546490 125.9750994
  45.9688571  75.0394092 125.0001484  46.7914640  74.5654570 124.8780374
  46.2126634  75.8184576 125.5000170  44.6096805  78.0682350 115.2964386
  45.3305168  78.4463603 114.7928103  43.9862109  78.7871227 115.3999364
  48.7527928  78.7727499 116.2322718  48.9691543  79.6552137 115.9311546
  48.2721995  78.3813713 115.5028360  43.4927150  81.7313212 122.8093463
  43.3471730  82.0453515 123.7017744  43.0152353  82.3498113 122.2564361
  45.3523532  78.7215760 122.8574352  45.3385101  77.8256854 122.5206650
  46.0695961  78.7286424 123.4912638  47.2049663  79.1553101 124.9027480
  46.9467441  80.0770171 124.9011810  46.6734704  78.7583535 125.5927944
  52.1495852  92.2603888 117.6817565  52.3232729  91.6950310 116.9291417
  52.6424743  93.0604783 117.4997055  37.9672812  84.2718557 125.7481124
  37.4226280  85.0478365 125.8801398  38.8452162  84.6189361 125.5900245
  44.7560428  77.6030141 118.1261922  44.8776340  76.6746787 118.3252810
  44.4662471  77.6168827 117.2140238  47.6251619  75.2885051 121.2628642
  47.6473316  75.3524384 120.3080622  48.0419678  74.4489560 121.4569148
  58.0035243  85.0240311 119.3007865  58.4466389  84.2747636 118.9026988
  57.1261753  85.0150447 118.9181597  53.1371024  91.5770652 114.7814463
  53.8321929  92.1977345 115.0001778  53.4794175  90.7266003 115.0566841
  38.7538834  83.3988453 128.6411281  38.0120570  83.5471088 129.2275911
  38.4331578  83.6596719 127.7778030  55.0362448  89.0270358 116.3101794
  55.5613772  89.3657630 115.5851114  54.9484800  88.0917373 116.1264929
  46.6982496  92.9404431 128.4391671  47.0069623  92.6953578 129.3114370
  47.4957978  93.1451070 127.9510541  46.7203108  95.0942341 120.6697047
  46.2808099  94.6018720 121.3629904  47.4711225  94.5515309 120.4289122
  39.1995447  91.2853882 120.6721675  40.0253467  90.9857654 120.2920319
  38.8489499  90.5161504 121.1211464  44.1676980  90.6380350 122.7419349
  43.5456990  89.9751055 122.4421577  44.8381847  90.6641482 122.0592997
  37.4004052  89.2040208 121.6310609  36.5635961  88.7762383 121.4494610
  37.3727698  89.3972652 122.5681400  44.2401508  79.1162138 132.3351855
  44.2889663  79.9924261 131.9529625  44.7824022  78.5739531 131.7623498
  54.7256354  89.6603261 131.6152992  53.9351897  89.6427400 131.0757491
  54.4889708  90.1991555 132.3702029  54.8454229  86.5095728 128.9285721
  54.8952234  86.3445735 129.8701243  54.7368152  85.6422987 128.5383601
  43.7290487  89.1884273 116.2177809  43.8778608  89.8719738 115.5644482
  44.5356931  89.1689363 116.7327265  52.1357991  82.4926656 130.2445027
  53.0367854  82.3533121 129.9529025  52.2105966  82.6581111 131.1843205
  46.4700796  79.8693510 129.0898214  45.6004106  80.1627077 128.8180802
  46.7060277  80.4533955 129.8105477  56.3472425  88.9292669 129.1727742
  56.0557234  89.2922650 130.0091203  55.7344557  88.2159677 128.9941074
  57.5468108  86.4945549 121.6930312  58.3814999  86.9335353 121.8567873
  57.6827237  86.0184202 120.8738558  54.5959614  84.0525284 127.6407800
  55.0713735  84.2452930 126.8326651  53.6725179  84.1084470 127.3951184
  41.4843120  85.2149451 117.2238878  41.2389162  84.3111781 117.4219089
  41.6539035  85.2166601 116.2818356  49.1739830  76.0873127 126.6063634
  49.6921774  76.8234154 126.2810123  48.8194963  76.3937121 127.4410393
  40.7538768  80.9477809 114.7225040  40.0608013  81.0222164 114.0665076
  40.5090520  80.1838152 115.2446557  49.4252424  72.5073410 122.1264531
  49.7054178  71.8396599 122.7524957  50.2103031  72.7002506 121.6139194
  47.2285893  91.6832404 113.6889557  46.6559860  92.3022591 113.2360029
  47.8018687  92.2331766 114.2229479  53.2961283  80.9291044 125.8736106
  54.2478706  81.0289142 125.8948330  53.1264733  80.1369312 126.3834190
  51.3175662  78.0146627 126.0595507  50.7225594  78.2951640 125.3641995
  51.0325359  78.5040528 126.8312248  50.4483153  91.9669554 114.8198139
  51.3813826  91.9015116 115.0231015  50.3606365  92.8025821 114.3612672
  53.0771169  91.2835424 111.7802087  52.9984801  90.9495288 112.6737845
  53.8980836  91.7757192 111.7793559  55.7749360  84.1497164 124.9878405
  55.7425681  83.2113164 125.1738089  56.3849984  84.2281200 124.2544230
  47.6132691  83.0193217 111.0305609  48.5591796  82.8899425 111.0994027
  47.2346936  82.2807878 111.5075038  55.9243849  80.9408207 125.0336689
  55.4082898  80.1566664 124.8466617  56.8083797  80.6126924 125.1983208
  53.5854576  74.6849223 120.9932501  53.3879397  74.3764311 121.8775833
  54.1954281  75.4110862 121.1230431  61.5925910  85.2113170 124.1284442
  62.3229299  84.9498459 124.6892145  60.9832856  84.4741892 124.1686510
  59.6741207  83.3521033 124.7258893  58.9474371  83.2176998 124.1175385
  59.2588494  83.6597862 125.5315611  47.4971384  87.0710963 132.4906266
  48.4174393  87.2489562 132.6846313  47.4620967  86.1267008 132.3385966
  45.7975608  80.9443193 110.9660495  44.8907064  80.6476306 111.0423208
  46.0751589  80.6473011 110.0994781  36.7153549  82.2649556 121.4159541
  36.3956333  81.4114865 121.1233915  36.1686977  82.4798135 122.1717508
  40.4933456  84.9811997 125.1329048  40.7119466  85.9129105 125.1517081
  40.9059230  84.6219972 125.9183851  47.4137674  75.4880083 117.1204736
  46.6038403  75.1427168 117.4959982  48.1022091  75.1787626 117.7092347
  49.3428222  74.5658129 118.7429033  49.8959261  74.9853583 119.4019056
  49.5798309  73.6393878 118.7851989  45.3661322  80.5545203 134.5231796
  45.2658049  81.5039560 134.4543888  45.1482864  80.2263442 133.6507867
  44.5674393  77.8030128 111.1072474  45.4293557  78.1285027 111.3668291
  44.7524737  77.0161624 110.5945540  36.5841809  85.8852468 123.3852663
  35.8905280  85.4706421 122.8722617  37.3314800  85.9273004 122.7886081
  52.7207030  76.6758655 118.2507697  52.1405699  77.3343459 117.8685749
  52.4542962  75.8535999 117.8395114  51.1710596  76.0763712 120.4529017
  51.6710374  76.1880247 119.6443336  51.8146204  75.7724765 121.0929826
  45.2292592  83.9842342 133.3396858  44.7459673  84.7842702 133.5460747
  45.3153531  83.9950287 132.3864302  38.4978551  85.8170722 121.2618677
  38.4749240  85.9158409 120.3100561  38.8079188  86.6635872 121.5835844
  41.1565929  87.8746877 125.3765292  42.1109183  87.8430819 125.3095223
  40.9578453  87.4137500 126.1915518  41.7465311  86.4447993 127.9436090
  42.5658200  86.9392071 127.9670927  42.0202119  85.5279961 127.9153657
  51.5031908  78.8358745 117.3064045  50.6157763  79.1208396 117.0884240
  51.9185897  78.6752508 116.4591322  54.8546444  78.8605266 121.0218384
  55.6306834  79.3501718 121.2943001  54.1294578  79.2863320 121.4790254
  57.2919002  79.5732885 122.0792325  57.8863493  79.3328621 121.3685633
  57.3645586  78.8540016 122.7065861  39.5116158  93.4166496 122.3935490
  39.3770626  92.6566897 121.8273488  39.0948220  94.1407396 121.9264279
  50.6475121  88.6003420 111.4012065  51.3510971  88.8053422 112.0169721
  49.9237770  89.1680182 111.6661149  51.4772931  84.3513281 117.5214335
  51.4208133  84.8081832 116.6821968  52.0301274  83.5903966 117.3437178
  55.2877737  80.1403013 118.3464455  55.0314671  79.7399649 119.1772662
  54.6630605  80.8546807 118.2214594  59.5990075  82.8799086 120.8535746
  59.0389633  82.9492275 121.6267308  58.9933578  82.7040071 120.1335242
  42.6685284  94.3135813 122.6053932  42.5517668  95.2581246 122.5032623
  41.8477730  94.0109375 122.9939732  52.5561818  89.0385949 113.4510525
  53.3907422  88.6067147 113.2688000  52.3946161  88.8667963 114.3787420
  52.2107711  85.5418062 114.8166864  52.1556514  85.3762334 113.8755309
  51.5853766  86.2494095 114.9729054  37.0000226  80.7786127 128.6428287
  37.6459089  80.2685081 129.1315512  36.7917377  81.5154808 129.2171712
  49.5253618  87.8466974 134.1420427  50.3944777  88.0207626 133.7807062
  49.0460369  88.6661391 134.0196157  45.5203836  75.0426171 114.3952183
  45.5082506  75.9868011 114.5520454  46.4127258  74.8596317 114.1011644
  43.6939798  94.9664075 125.8209861  44.5967045  94.9987685 126.1376356
  43.4677168  94.0364526 125.8356197  45.4493400  93.7195062 122.4819939
  44.4989031  93.7196923 122.3684312  45.7525886  92.9727796 121.9655974
  49.3355956  71.6368948 118.6498120  48.5688351  71.0827435 118.7954802
  49.7466661  71.7090817 119.5112271  41.3397717  77.9253744 132.7403301
  42.2029178  77.5690549 132.9506625  40.7663127  77.5867638 133.4278705
  61.1846094  99.5555600 123.5465702  61.8224504  99.4362347 122.8429042
  61.0666936 100.5036444 123.6053654  57.9935800  99.5083028 123.4827227
  57.6554311  99.3924093 122.5947761  58.8625568  99.1074193 123.4628233
  53.8522616 101.3618505 119.4724117  53.2887481 101.2708441 118.7040405
  53.7375011 100.5418409 119.9526610  58.4755583 100.6617880 129.4413432
  58.4644224 100.2670678 128.5693936  58.6376222  99.9283952 130.0347204
  51.3987047 102.8569696 122.3108338  52.1908339 102.5160521 121.8954637
  51.6383698 102.9664671 123.2310491  59.4322174 105.0289472 114.7838582
  58.7810154 105.6143553 114.3972596  60.2266537 105.5595667 114.8433620
  53.3577801 102.1178609 115.1825717  54.1308677 101.5707596 115.0438593
  53.7103200 102.9822859 115.3940178  55.1962844 103.4454992 128.3892616
  54.9052710 104.3500622 128.2739282  55.8319828 103.4871519 129.1036686
  56.1219051 100.8231840 124.9793976  56.7182623 100.5987863 124.2650939
  56.1794022 100.0816586 125.5819424  55.6944079  98.2771276 112.8144167
  55.9469600  97.7552797 112.0527630  54.7568638  98.1137421 112.9170850
  60.7387362  97.2807054 120.6218910  61.5250451  96.8626477 120.2709327
  61.0026066  98.1853146 120.7900558  60.9097439 102.7179904 115.3207567
  60.2743272 102.7914531 116.0328471  60.5794846 103.3073503 114.6426646
  66.1395789  97.2182287 121.5251888  66.8720961  96.6481504 121.7589718
  65.3835145  96.8303888 121.9658394  55.4140368 100.1799381 115.0168542
  55.2976626  99.5044285 115.6849626  55.5242628  99.6931755 114.2000695
  57.7571909  99.6409529 118.7215231  57.3930116  99.1140150 119.4328152
  58.6139025  99.2507998 118.5481716  63.6621210  90.9303861 125.9846497
  63.3304534  91.7999272 125.7607712  63.0666823  90.6140145 126.6640527
  57.3977396  94.6699428 113.7176579  57.5651798  95.5379665 114.0847050
  57.2074565  94.8326710 112.7937869  60.1552729 103.1316407 125.3842410
  59.8553452 104.0341446 125.2758217  59.8103789 102.8648590 126.2363563
  53.6065211  99.5830204 121.4179114  52.6815707  99.4506418 121.6256806
  53.8549624 100.3624423 121.9149057  63.5549873  95.6498947 123.0639847
  62.6466750  95.5814356 122.7698608  63.5037469  96.1270892 123.8921673
  57.3766617  97.1257086 114.7023246  57.2566242  97.5714137 115.5408726
  56.6819205  97.4742403 114.1436784  50.9674022  99.2263478 122.2522903
  51.0966403  99.4797956 123.1662315  50.2871473  99.8191186 121.9327558
  55.1373509 109.8960728 118.3513377  55.0597539 110.8468553 118.4301858
  54.5335152 109.5506600 119.0088304  57.6290739  97.0688593 131.0074744
  56.8524073  97.6282513 130.9977609  58.2681302  97.5545376 131.5289614
  65.4211519  93.8515386 124.8417721  64.7785899  94.1447919 124.1957516
  64.9166448  93.7368306 125.6470918  63.0751683  97.5978559 115.5303580
  63.9869539  97.8305946 115.3551278  62.5661330  98.1815603 114.9678659
  55.8837111  99.8774046 130.5692711  56.6251795 100.4159090 130.2927535
  55.1774096 100.5040335 130.7264263  61.3592451 102.0203187 129.1664873
  61.7675807 101.5785597 128.4219505  60.6369712 101.4455814 129.4199066
  57.7123521  96.9575794 126.5398430  58.5584716  97.3815207 126.6833079
  57.6522158  96.3009418 127.2336993  61.6821265 102.5804377 122.9217162
  61.0530128 102.7450092 122.2193230  61.2946927 102.9945987 123.6928126
  65.5610497 103.5158815 120.2761525  64.8761535 103.8957717 119.7258559
  65.6454346 104.1254142 121.0093473  60.8622966  94.6180162 128.1979603
  60.6183898  95.3722222 127.6613879  61.1382896  94.9965509 129.0326850
  62.8161429 101.1618774 126.8756869  63.0278324 101.8050534 126.1991250
  62.7691177 100.3281091 126.4078799  60.4187658  93.7736595 123.7793441
  59.5572137  94.0717848 124.0710179  60.4450092  93.9906994 122.8474474
  57.2349227 102.3178785 120.1867247  57.6987573 102.5966488 119.3971869
  56.9706025 101.4162230 120.0040337  54.1273308 101.8650267 123.1247010
  54.6974665 102.2937535 122.4864495  54.7181420 101.5832852 123.8231196
  56.1718113  98.4401938 116.9956812  56.8742156  98.8922982 117.4630738
  55.8398742  97.7985757 117.6236705  54.6198475  97.0313694 131.3708021
  53.9897135  97.7129975 131.6043418  54.5134563  96.9196776 130.4261160
  49.9143447  96.6985491 122.2973946  49.1242501  96.9543019 121.8214056
  50.4054694  97.5133828 122.4025986  63.9307257 104.0390730 125.0479226
  64.7524700 103.6370917 124.7661908  63.9269660 103.9358964 125.9995342
  51.8658192  97.0630070 119.2557422  51.0689356  97.1748764 119.7740918
  51.6383785  97.4016722 118.3898313  57.6963860 103.5874773 127.2039937
  57.7608293 104.0495180 128.0398109  56.9874784 102.9572138 127.3322247
  48.1981150  96.9515981 124.7288936  48.4489189  97.8362991 124.9946512
  48.7340698  96.7720582 123.9564028  72.0213250 100.3829478 121.3964198
  71.2676958  99.8136876 121.2408202  72.1560791 100.3492143 122.3434832
  57.4111878 105.2542880 117.0718917  57.2757553 106.0994416 117.5003765
  57.9521690 105.4562158 116.3084851  53.8979217  91.3334460 133.7333272
  53.5046163  90.7800659 134.4080917  54.7145358  91.6445039 134.1239790
  50.8641275 102.7718319 117.6446842  51.3765796 103.5661569 117.7952407
  51.5163988 102.0744609 117.5780444  52.6736160 105.8884075 119.7269595
  52.8502788 106.8102039 119.5390579  53.4692993 105.5742494 120.1563975
  56.8147178  92.7492339 131.3253529  57.5556892  93.3499493 131.2457991
  57.0465101  92.0069977 130.7671572  51.9588516  97.9348707 129.6031759
  51.8442032  97.0333964 129.9038858  51.1033034  98.1812403 129.2516575
  59.0380354 105.8766447 131.2019259  58.5944208 105.0902826 130.8840164
  59.6997568 106.0645597 130.5363150  53.7967475 107.4062249 125.7279938
  54.3474900 107.2779312 124.9556932  52.9578951 107.7057138 125.3774831
  61.1361592 106.1569247 129.2300661  61.1180068 106.9778128 128.7380930
  62.0581512 106.0323322 129.4550802  57.5934646 103.6713376 130.0724169
  58.1262983 102.9101665 129.8423477  57.0648727 103.3787028 130.8148323
  60.7604341  88.7773442 125.6017811  60.4168611  89.6675084 125.5256921
  61.1283304  88.5875100 124.7387396  48.8290192 101.1006973 118.4206413
  49.6665414 101.5103981 118.2040120  49.0068460 100.1606415 118.3906607
  60.7254624  98.7682053 114.1090246  60.2101248  99.5386658 114.3478633
  60.4531933  98.0947190 114.7323307  58.3101735  93.6131754 119.1675484
  57.4543331  93.2238605 118.9881123  58.7228687  93.6923715 118.3075270
  59.8400882  91.1478098 123.5667044  59.3365677  91.1108233 122.7534849
  60.1331489  92.0570840 123.6263701  56.0843768  91.2316827 122.5733226
  56.9496764  91.0359636 122.2139115  56.1521277  91.0027179 123.5002582
  65.6988898 101.5214408 116.0443419  64.9218341 101.1825568 115.5998581
  66.3780379 101.5267031 115.3698384  60.5140927  96.6409146 115.9350027
  60.2091063  96.9555295 116.7860170  61.4671369  96.7190565 115.9777360
  58.9587359 102.7999369 117.5842981  58.4308721 102.0652128 117.2716218
  58.4574862 103.5774045 117.3382949  63.9380205 100.9948389 122.7010027
  63.2803880 101.6847651 122.7890156  64.7420604 101.3844821 123.0444014
  53.6906087  93.4619035 119.9449592  54.2649839  93.2394217 119.2122785
  54.2777069  93.5307730 120.6978194  62.7485664  99.3492762 120.7513969
  63.2617546  99.9822754 121.2535679  63.3986888  98.7493958 120.3857329
  54.0175674  95.4923496 113.9645478  53.1812986  95.8298183 114.2854752
  53.8780443  95.3572476 113.0272615  55.9928754  90.3360284 118.6724662
  55.3393167  90.0209301 118.0481277  55.9509229  89.7136025 119.3984485
  57.1039959 100.6179579 110.5877954  56.1967021 100.3868833 110.7869103
  57.6010991  99.8217198 110.7751935  60.0108038 109.3277086 113.5074640
  59.3369737 109.6308783 114.1159598  60.3973860 110.1306167 113.1580097
  59.2266495  96.8242218 122.9972309  58.3089056  97.0457165 122.8393998
  59.6426638  96.8988528 122.1384017  60.0101543  98.2233633 118.1274990
  60.7573361  98.7355030 117.8182112  60.2793132  97.9017686 118.9879383
  58.2828193 100.7192174 115.1101944  57.3739412 100.4351207 115.2074414
  58.3123277 101.1391253 114.2505251  63.5147460 104.3298764 118.8793112
  63.0609787 103.4889673 118.9358302  62.8841427 104.9660162 119.2167892
  62.4580380  95.2590750 120.1093779  61.7203136  94.7468136 120.4404022
  62.7107153  94.8191131 119.2977056  61.9580399 106.1675260 119.8142930
  62.2503374 106.7280317 119.0955295  62.4679020 106.4603821 120.5696089
  62.5592007  88.0367002 120.7035548  62.8650884  87.1764365 120.4161463
  63.2844612  88.6284622 120.5034542  48.8516363  98.4397688 119.0917146
  48.6540763  97.8467049 118.3668213  48.2963027  98.1349898 119.8093085
  56.8313087  98.3320795 121.2111739  56.8861697  97.3794631 121.1354216
  56.0204289  98.4880234 121.6953038  57.9804281 102.2600918 112.4490023
  57.5423710 101.5436777 111.9895660  58.7214721 102.4877032 111.8875114
  54.7705447  96.9497854 118.9702118  53.9573312  97.2492025 119.3767310
  55.2664441  96.5553543 119.6876600  56.9214025 106.9455611 120.9036383
  56.8790203 107.1716458 119.9744915  57.8376723 106.7118986 121.0522184
  60.3679658  97.4139679 127.8017012  60.7229046  97.6411152 128.6611478
  61.0151790  97.7458056 127.1794267  66.0977395 100.5358115 118.5066341
  65.9595294 100.7259711 117.5787530  65.7413614 101.2977498 118.9634392
  54.2619521  94.5216210 124.5863353  54.9018901  94.3804969 123.8886317
  53.4297052  94.2350723 124.2101955  66.1246775 102.6034642 123.5177613
  66.5583282 102.5109931 124.3660667  66.8378356 102.5792142 122.8797629
  55.0379825 103.8218640 120.6998346  55.8320424 103.3268960 120.4980921
  54.3271518 103.2936503 120.3366051  59.8574670 106.2036736 125.0510713
  59.9111692 106.7727672 125.8188429  58.9889451 106.3738621 124.6864750
  51.3462589  97.9661722 116.7758098  50.4160177  97.9046178 116.9928060
  51.4420061  97.4437675 115.9794740  51.2648138  94.4916535 119.3636340
  51.5254955  95.4061868 119.2545500  52.0865310  94.0240977 119.5132953
  52.7373063  95.9054292 126.5335165  53.4096117  95.6971654 125.8847813
  51.9102850  95.7076378 126.0940397  66.9862324 102.6458342 126.0510498
  67.1798215 103.5504153 126.2969773  66.8862943 102.1865761 126.8849083
  58.6398635  92.5316233 128.5500825  57.9926550  93.2306183 128.4565302
  59.4099651  92.9652377 128.9177074  62.0477433 102.7965085 131.6251379
  61.8962940 102.5675637 130.7081462  62.0382113 103.7535687 131.6382724
  58.8162770 100.3696998 126.6097645  59.7454830 100.5208157 126.4366612
  58.3953800 100.4581019 125.7546292  57.6151101 104.3947662 124.3796183
  57.4762187 104.0266447 125.2522121  56.8265698 104.9095302 124.2080141
  58.2099253 109.4956759 115.7221719  58.3851009 109.0244802 116.5367342
  57.5232041 110.1222525 115.9502980  59.1656316 103.7729265 121.7685021
  58.8306149 103.7330035 122.6642670  58.6660262 103.1073981 121.2955431
  53.1400560  99.1796895 127.2937602  53.0020358  98.4477134 127.8949141
  54.0505484  99.0905795 127.0121789  62.1015508 101.1185299 112.0422080
  61.4844679 100.3932127 111.9455133  61.6331997 101.8794660 111.6989154
  55.7682861  98.8916854 126.7821281  56.4782480  98.2510047 126.7407900
  55.7252169  99.1429749 127.7047462  63.7569640 105.8284208 129.7027861
  63.6982186 105.1443428 129.0358444  64.1589158 106.5703198 129.2508487
  54.4811795  95.8782072 128.6016921  53.9449152  95.4272811 129.2538517
  53.8928504  96.0127981 127.8587385  52.7760339 112.6446122 122.4961579
  53.0156937 113.2764646 123.1740598  51.9329535 112.2934162 122.7826939
  53.8914054  95.3370724 111.1643384  53.0143520  95.2159524 110.8005631
  54.3671807  94.5456802 110.9122273  63.7587047 103.7923792 127.9341840
  62.8713826 103.4549713 128.0568239  64.3285598 103.0606823 128.1710606
  45.4116194 100.1247883 121.2584892  46.0987234  99.8109613 120.6705907
  45.2564323 101.0289248 120.9852143  50.2150916  95.0138080 125.6869915
  50.1309105  94.4063749 124.9520325  49.3933623  95.5047098 125.6879412
  57.2888200 108.4525244 124.9003083  57.2158372 109.2580215 125.4122388
  56.8465594 108.6517210 124.0751105  57.0777980 107.6897014 118.4105905
  56.2945502 108.2318694 118.5044129  57.7770725 108.2070994 118.8100146
  60.3874630  93.4991643 121.0540110  60.8843330  92.7461606 120.7341181
  59.6161612  93.5355960 120.4883320  68.2404388  99.2032009 122.6958402
  68.2294264 100.0856724 122.3252335  67.3721767  98.8503560 122.5012939
  59.7486884 108.3512078 127.0561242  60.4614856 108.9859543 126.9837144
  59.2576913 108.4475944 126.2401244  61.4704411 102.2563331 118.6278534
  60.5360690 102.3764793 118.4583238  61.6481079 101.3535797 118.3638544
  56.9709599  95.6409026 120.7811795  56.6007386  95.0880067 121.4692701
  57.4668691  95.0367160 120.2286795  64.8576962  98.0980650 119.1628568
  65.3237414  98.9308642 119.0888871  65.3084463  97.6325632 119.8673826
  54.7998797 106.1006521 127.8766813  55.5008257 106.7343004 128.0296207
  54.3293912 106.4421253 127.1162452  62.9253193 104.4424471 116.1614720
  63.2013037 104.3281066 117.0708594  62.0557692 104.0441956 116.1226893
  62.8293625  90.4661237 123.2019469  61.9156705  90.6965464 123.3701676
  63.2586726  90.5499681 124.0533502  62.6000083  98.6551129 125.7019363
  61.9471534  98.9027036 125.0471816  62.9780463  97.8415267 125.3681841
  59.5607257 108.6910822 119.8047534  59.7429652 107.8732478 120.2675286
  60.3840243 108.9078514 119.3672424  59.8949423 107.6179007 117.0662582
  60.4237189 107.1071462 116.4532744  60.1577642 107.3021537 117.9308115
  58.6487656  99.3970940 132.1885400  57.9728294  99.2965069 132.8587776
  59.4715290  99.2410154 132.6521398  50.3966516 105.6342876 124.8097916
  50.9819952 104.8886564 124.9425820  50.1991354 105.9446833 125.6934579
  53.2505171 108.6694124 119.8260358  52.5815546 109.1540252 119.3424398
  53.1118040 108.9163344 120.7403737  44.9884170  98.2048477 123.5302359
  45.0268270  97.6712067 124.3239477  44.4824463  97.6783682 122.9113336
  57.3910439 110.7037867 126.4243016  57.9428747 110.8669489 127.1892102
  57.7316633 111.2942305 125.7523041  52.3674933  93.0513017 127.0264901
  52.4316259  93.9127848 126.6142299  52.3042053  92.4387019 126.2937260
  51.8427205  95.1236150 130.6737935  52.4699244  94.7413227 131.2875460
  50.9855124  94.9050352 131.0393628  62.2421314 105.5299125 132.2791671
  62.7861218 106.1429083 131.7846626  61.6608159 106.0878703 132.7958684
  48.6192748  96.9312579 116.6056290  48.9146189  96.0223257 116.5523344
  47.7180784  96.9100318 116.2837292  60.5278827 108.6519843 123.4106699
  60.4029966 107.8509583 122.9017644  61.1857918 109.1466036 122.9220668
  52.1486995  95.0068575 122.5883839  51.4273581  95.6204543 122.4491312
  52.9380251  95.5426340 122.5100485  62.5913735 106.4528863 125.0386249
  61.6444071 106.3334214 124.9664575  62.9396508 105.5651361 125.1212510
  54.9513308  92.3423002 128.8624490  55.4747710  92.5885298 129.6250800
  54.7325642  93.1743037 128.4427628  50.3480589  94.6126677 116.7295615
  50.0193296  93.7324055 116.5470721  50.7019960  94.5574345 117.6172005
  59.5960168 106.2481579 121.2390601  59.4485131 105.3198287 121.4198171
  60.4213662 106.2701670 120.7547676  53.4622413  94.8999646 117.0971093
  53.8018485  95.4285568 116.3749701  53.9094533  95.2380052 117.8729659
  63.1994290 107.0710138 122.3255474  64.1240838 106.8652999 122.1879925
  63.0309594 106.8226539 123.2344815  56.1565853  93.2836697 126.5474161
  55.8162674  92.4844510 126.9494841  55.4504860  93.5838408 125.9750994
  56.8082325  90.3686009 125.0001484  57.6308395  89.8946488 124.8780374
  57.0520389  91.1476493 125.5000170  55.4490560  93.3974268 115.2964386
  56.1698922  93.7755521 114.7928103  54.8255864  94.1163145 115.3999364
  59.5921683  94.1019417 116.2322718  59.8085297  94.9844055 115.9311546
  59.1115750  93.7105630 115.5028360  54.3320904  97.0605130 122.8093463
  54.1865485  97.3745433 123.7017744  53.8546108  97.6790030 122.2564361
  56.1917287  94.0507678 122.8574352  56.1778856  93.1548771 122.5206650
  56.9089715  94.0578342 123.4912638  58.0443418  94.4845018 124.9027480
  57.7861195  95.4062089 124.9011810  57.5128458  94.0875453 125.5927944
  62.9889606 107.5895805 117.6817565  63.1626484 107.0242228 116.9291417
  63.4818498 108.3896700 117.4997055  48.8066566  99.6010474 125.7481124
  48.2620034 100.3770282 125.8801398  49.6845916  99.9481279 125.5900245
  55.5954183  92.9322058 118.1261922  55.7170094  92.0038705 118.3252810
  55.3056225  92.9460744 117.2140238  58.4645373  90.6176969 121.2628642
  58.4867070  90.6816302 120.3080622  58.8813432  89.7781477 121.4569148
  68.8428998 100.3532228 119.3007865  69.2860144  99.6039554 118.9026988
  67.9655508 100.3442365 118.9181597  63.9764779 106.9062570 114.7814463
  64.6715683 107.5269262 115.0001778  64.3187929 106.0557921 115.0566841
  49.5932588  98.7280371 128.6411281  48.8514324  98.8763006 129.2275911
  49.2725332  98.9888636 127.7778030  65.8756202 104.3562275 116.3101794
  66.4007526 104.6949548 115.5851114  65.7878555 103.4209291 116.1264929
  57.5376251 108.2696349 128.4391671  57.8463377 108.0245496 129.3114370
  58.3351733 108.4742987 127.9510541  57.5596863 110.4234259 120.6697047
  57.1201853 109.9310637 121.3629904  58.3104980 109.8807226 120.4289122
  50.0389202 106.6145799 120.6721675  50.8647222 106.3149571 120.2920319
  49.6883254 105.8453422 121.1211464  55.0070735 105.9672268 122.7419349
  54.3850744 105.3042973 122.4421577  55.6775602 105.9933400 122.0592997
  48.2397807 104.5332126 121.6310609  47.4029715 104.1054300 121.4494610
  48.2121452 104.7264569 122.5681400  55.0795262  94.4454056 132.3351855
  55.1283418  95.3216179 131.9529625  55.6217777  93.9031449 131.7623498
  65.5650108 104.9895179 131.6152992  64.7745652 104.9719318 131.0757491
  65.3283463 105.5283473 132.3702029  65.6847983 101.8387645 128.9285721
  65.7345988 101.6737653 129.8701243  65.5761906 100.9714904 128.5383601
  54.5684242 104.5176191 116.2177809  54.7172362 105.2011655 115.5644482
  55.3750685 104.4981281 116.7327265  62.9751746  97.8218573 130.2445027
  63.8761608  97.6825038 129.9529025  63.0499720  97.9873028 131.1843205
  57.3094551  95.1985428 129.0898214  56.4397860  95.4918994 128.8180802
  57.5454031  95.7825873 129.8105477  67.1866180 104.2584587 129.1727742
  66.8950988 104.6214567 130.0091203  66.5738311 103.5451595 128.9941074
  68.3861862 101.8237467 121.6930312  69.2208754 102.2627271 121.8567873
  68.5220991 101.3476120 120.8738558  65.4353368  99.3817202 127.6407800
  65.9107490  99.5744848 126.8326651  64.5118934  99.4376387 127.3951184
  52.3236875 100.5441369 117.2238878  52.0782917  99.6403699 117.4219089
  52.4932789 100.5458519 116.2818356  60.0133585  91.4165045 126.6063634
  60.5315529  92.1526072 126.2810123  59.6588717  91.7229038 127.4410393
  51.5932522  96.2769726 114.7225040  50.9001767  96.3514081 114.0665076
  51.3484274  95.5130070 115.2446557  60.2646179  87.8365328 122.1264531
  60.5447933  87.1688517 122.7524957  61.0496786  88.0294423 121.6139194
  58.0679647 107.0124321 113.6889557  57.4953614 107.6314509 113.2360029
  58.6412441 107.5623683 114.2229479  64.1355037  96.2582962 125.8736106
  65.0872460  96.3581059 125.8948330  63.9658488  95.4661230 126.3834190
  62.1569417  93.3438545 126.0595507  61.5619349  93.6243558 125.3641995
  61.8719113  93.8332446 126.8312248  61.2876907 107.2961472 114.8198139
  62.2207580 107.2307033 115.0231015  61.2000120 108.1317738 114.3612672
  63.9164924 106.6127342 111.7802087  63.8378555 106.2787206 112.6737845
  64.7374591 107.1049110 111.7793559  66.6143115  99.4789081 124.9878405
  66.5819435  98.5405082 125.1738089  67.2243739  99.5573118 124.2544230
  58.4526446  98.3485134 111.0305609  59.3985551  98.2191342 111.0994027
  58.0740691  97.6099796 111.5075038  66.7637603  96.2700125 125.0336689
  66.2476652  95.4858581 124.8466617  67.6477552  95.9418841 125.1983208
  64.4248330  90.0141140 120.9932501  64.2273152  89.7056228 121.8775833
  65.0348036  90.7402779 121.1230431  72.4319665 100.5405088 124.1284442
  73.1623053 100.2790376 124.6892145  71.8226610  99.8033810 124.1686510
  70.5134962  98.6812951 124.7258893  69.7868126  98.5468916 124.1175385
  70.0982249  98.9889779 125.5315611  58.3365138 102.4002880 132.4906266
  59.2568148 102.5781479 132.6846313  58.3014721 101.4558926 132.3385966
  56.6369363  96.2735111 110.9660495  55.7300818  95.9768223 111.0423208
  56.9145344  95.9764929 110.0994781  47.5547303  97.5941474 121.4159541
  47.2350088  96.7406782 121.1233915  47.0080732  97.8090052 122.1717508
  51.3327211 100.3103915 125.1329048  51.5513221 101.2421023 125.1517081
  51.7452985  99.9511889 125.9183851  58.2531429  90.8172000 117.1204736
  57.4432157  90.4719085 117.4959982  58.9415846  90.5079544 117.7092347
  60.1821977  89.8950047 118.7429033  60.7353016  90.3145501 119.4019056
  60.4192063  88.9685795 118.7851989  56.2055076  95.8837121 134.5231796
  56.1051803  96.8331478 134.4543888  55.9876618  95.5555360 133.6507867
  55.4068148  93.1322046 111.1072474  56.2687312  93.4576944 111.3668291
  55.5918492  92.3453542 110.5945540  47.4235563 101.2144386 123.3852663
  46.7299035 100.7998338 122.8722617  48.1708554 101.2564922 122.7886081
  63.5600784  92.0050572 118.2507697  62.9799453  92.6635376 117.8685749
  63.2936717  91.1827917 117.8395114  62.0104350  91.4055630 120.4529017
  62.5104129  91.5172165 119.6443336  62.6539958  91.1016683 121.0929826
  56.0686346  99.3134260 133.3396858  55.5853428 100.1134620 133.5460747
  56.1547285  99.3242205 132.3864302  49.3372306 101.1462639 121.2618677
  49.3142994 101.2450327 120.3100561  49.6472942 101.9927790 121.5835844
  51.9959684 103.2038794 125.3765292  52.9502937 103.1722737 125.3095223
  51.7972207 102.7429418 126.1915518  52.5859066 101.7739910 127.9436090
  53.4051955 102.2683989 127.9670927  52.8595874 100.8571879 127.9153657
  62.3425662  94.1650663 117.3064045  61.4551517  94.4500313 117.0884240
  62.7579651  94.0044426 116.4591322  65.6940198  94.1897184 121.0218384
  66.4700588  94.6793636 121.2943001  64.9688332  94.6155238 121.4790254
  68.1312757  94.9024803 122.0792325  68.7257248  94.6620539 121.3685633
  68.2039341  94.1831933 122.7065861  50.3509913 108.7458414 122.3935490
  50.2164380 107.9858815 121.8273488  49.9341975 109.4699314 121.9264279
  61.4868876 103.9295337 111.4012065  62.1904726 104.1345340 112.0169721
  60.7631524 104.4972099 111.6661149  62.3166686  99.6805199 117.5214335
  62.2601887 100.1373750 116.6821968  62.8695028  98.9195883 117.3437178
  66.1271492  95.4694931 118.3464455  65.8708426  95.0691566 119.1772662
  65.5024360  96.1838724 118.2214594  70.4383830  98.2091004 120.8535746
  69.8783388  98.2784193 121.6267308  69.8327333  98.0331988 120.1335242
  53.5079038 109.6427731 122.6053932  53.3911423 110.5873163 122.5032623
  52.6871485 109.3401292 122.9939732  63.3955573 104.3677867 113.4510525
  64.2301177 103.9359065 113.2688000  63.2339916 104.1959880 114.3787420
  63.0501465 100.8709980 114.8166864  62.9950269 100.7054251 113.8755309
  62.4247520 101.5786013 114.9729054  47.8393980  96.1078044 128.6428287
  48.4852844  95.5976998 129.1315512  47.6311131  96.8446726 129.2171712
  60.3647372 103.1758892 134.1420427  61.2338532 103.3499544 133.7807062
  59.8854124 103.9953309 134.0196157  56.3597591  90.3718089 114.3952183
  56.3476260  91.3159929 114.5520454  57.2521012  90.1888234 114.1011644
  54.5333553 110.2955993 125.8209861  55.4360799 110.3279603 126.1376356
  54.3070923 109.3656444 125.8356197  56.2887155 109.0486979 122.4819939
  55.3382786 109.0488841 122.3684312  56.5919641 108.3019714 121.9655974
  60.1749710  86.9660866 118.6498120  59.4082106  86.4119352 118.7954802
  60.5860415  87.0382734 119.5112271  52.1791471  93.2545661 132.7403301
  53.0422933  92.8982466 132.9506625  51.6056882  92.9159556 133.4278705
  72.0239848 114.8847518 123.5465702  72.6618258 114.7654265 122.8429042
  71.9060691 115.8328362 123.6053654  68.8329554 114.8374946 123.4827227
  68.4948066 114.7216010 122.5947761  69.7019323 114.4366111 123.4628233
  64.6916370 116.6910422 119.4724117  64.1281235 116.6000359 118.7040405
  64.5768765 115.8710327 119.9526610  62.2380802 118.1861614 122.3108338
  63.0302094 117.8452438 121.8954637  62.4777452 118.2956589 123.2310491
  70.2715929 120.3581390 114.7838582  69.6203909 120.9435470 114.3972596
  71.0660292 120.8887585 114.8433620  64.1971556 117.4470527 115.1825717
  64.9702432 116.8999514 115.0438593  64.5496955 118.3114776 115.3940178
  66.9612805 116.1523758 124.9793976  67.5576378 115.9279780 124.2650939
  67.0187777 115.4108503 125.5819424  66.5337834 113.6063193 112.8144167
  66.7863354 113.0844714 112.0527630  65.5962393 113.4429339 112.9170850
  71.5781117 112.6098972 120.6218910  72.3644206 112.1918395 120.2709327
  71.8419821 113.5145064 120.7900558  71.7491194 118.0471822 115.3207567
  71.1137027 118.1206448 116.0328471  71.4188600 118.6365421 114.6426646
  76.9789544 112.5474205 121.5251888  77.7114716 111.9773422 121.7589718
  76.2228899 112.1595805 121.9658394  66.2534122 115.5091299 115.0168542
  66.1370381 114.8336203 115.6849626  66.3636382 115.0223673 114.2000695
  68.5965663 114.9701446 118.7215231  68.2323871 114.4432067 119.4328152
  69.4532779 114.5799915 118.5481716  74.5014964 106.2595779 125.9846497
  74.1698289 107.1291190 125.7607712  73.9060577 105.9432063 126.6640527
  68.2371150 109.9991346 113.7176579  68.4045553 110.8671582 114.0847050
  68.0468319 110.1618628 112.7937869  64.4458965 114.9122122 121.4179114
  63.5209462 114.7798336 121.6256806  64.6943378 115.6916341 121.9149057
  74.3943627 110.9790865 123.0639847  73.4860505 110.9106273 122.7698608
  74.3431223 111.4562810 123.8921673  68.2160371 112.4549003 114.7023246
  68.0959996 112.9006054 115.5408726  67.5212960 112.8034321 114.1436784
  61.8067776 114.5555395 122.2522903  61.9360157 114.8089874 123.1662315
  61.1265227 115.1483103 121.9327558  65.9767263 125.2252645 118.3513377
  65.8991293 126.1760470 118.4301858  65.3728907 124.8798518 119.0088304
  76.2605274 109.1807303 124.8417721  75.6179654 109.4739837 124.1957516
  75.7560202 109.0660224 125.6470918  73.9145437 112.9270477 115.5303580
  74.8263294 113.1597863 115.3551278  73.4055084 113.5107521 114.9678659
  68.5517275 112.2867711 126.5398430  69.3978470 112.7107125 126.6833079
  68.4915913 111.6301336 127.2336993  71.2581412 109.1028513 123.7793441
  70.3965891 109.4009766 124.0710179  71.2843847 109.3198911 122.8474474
  68.0742982 117.6470703 120.1867247  68.5381327 117.9258406 119.3971869
  67.8099780 116.7454148 120.0040337  64.9667063 117.1942185 123.1247010
  65.5368420 117.6229453 122.4864495  65.5575175 116.9124769 123.8231196
  67.0111868 113.7693856 116.9956812  67.7135911 114.2214899 117.4630738
  66.6792496 113.1277674 117.6236705  60.7537202 112.0277408 122.2973946
  59.9636256 112.2834937 121.8214056  61.2448449 112.8425746 122.4025986
  62.7051947 112.3921987 119.2557422  61.9083110 112.5040682 119.7740918
  62.4777539 112.7308640 118.3898313  59.0374905 112.2807899 124.7288936
  59.2882943 113.1654909 124.9946512  59.5734453 112.1012500 123.9564028
  68.2505632 120.5834798 117.0718917  68.1151307 121.4286334 117.5003765
  68.7915445 120.7854076 116.3084851  61.7035030 118.1010236 117.6446842
  62.2159550 118.8953486 117.7952407  62.3557742 117.4036527 117.5780444
  63.5129914 121.2175992 119.7269595  63.6896543 122.1393957 119.5390579
  64.3086748 120.9034412 120.1563975  62.7982271 113.2640624 129.6031759
  62.6835786 112.3625882 129.9038858  61.9426789 113.5104321 129.2516575
  71.5998096 104.1065360 125.6017811  71.2562365 104.9967002 125.5256921
  71.9677058 103.9167018 124.7387396  59.6683946 116.4298890 118.4206413
  60.5059168 116.8395899 118.2040120  59.8462214 115.4898333 118.3906607
  71.5648379 114.0973971 114.1090246  71.0495002 114.8678576 114.3478633
  71.2925687 113.4239107 114.7323307  69.1495490 108.9423672 119.1675484
  68.2937086 108.5530522 118.9881123  69.5622441 109.0215633 118.3075270
  70.6794636 106.4770015 123.5667044  70.1759432 106.4400150 122.7534849
  70.9725243 107.3862758 123.6263701  66.9237522 106.5608745 122.5733226
  67.7890519 106.3651554 122.2139115  66.9915031 106.3319097 123.5002582
  76.5382653 116.8506326 116.0443419  75.7612095 116.5117485 115.5998581
  77.2174134 116.8558949 115.3698384  71.3534682 111.9701063 115.9350027
  71.0484817 112.2847212 116.7860170  72.3065124 112.0482483 115.9777360
  69.7981114 118.1291287 117.5842981  69.2702475 117.3944046 117.2716218
  69.2968616 118.9065963 117.3382949  64.5299841 108.7910953 119.9449592
  65.1043593 108.5686134 119.2122785  65.1170824 108.8599647 120.6978194
  73.5879418 114.6784680 120.7513969  74.1011300 115.3114672 121.2535679
  74.2380642 114.0785875 120.3857329  64.8569428 110.8215414 113.9645478
  64.0206741 111.1590100 114.2854752  64.7174198 110.6864394 113.0272615
  66.8322509 105.6652202 118.6724662  66.1786921 105.3501219 118.0481277
  66.7902983 105.0427942 119.3984485  67.9433714 115.9471497 110.5877954
  67.0360775 115.7160750 110.7869103  68.4404746 115.1509116 110.7751935
  70.8501793 124.6569004 113.5074640  70.1763491 124.9600701 114.1159598
  71.2367615 125.4598084 113.1580097  70.0660249 112.1534135 122.9972309
  69.1482811 112.3749082 122.8393998  70.4820393 112.2280446 122.1384017
  70.8495297 113.5525551 118.1274990  71.5967116 114.0646948 117.8182112
  71.1186887 113.2309604 118.9879383  69.1221947 116.0484092 115.1101944
  68.2133166 115.7643124 115.2074414  69.1517031 116.4683170 114.2505251
  74.3541215 119.6590681 118.8793112  73.9003542 118.8181591 118.9358302
  73.7235181 120.2952080 119.2167892  73.2974134 110.5882667 120.1093779
  72.5596891 110.0760053 120.4404022  73.5500908 110.1483049 119.2977056
  72.7974154 121.4967178 119.8142930  73.0897128 122.0572235 119.0955295
  73.3072774 121.7895739 120.5696089  73.3985761 103.3658919 120.7035548
  73.7044638 102.5056283 120.4161463  74.1238366 103.9576539 120.5034542
  59.6910118 113.7689606 119.0917146  59.4934517 113.1758967 118.3668213
  59.1356782 113.4641816 119.8093085  67.6706841 113.6612712 121.2111739
  67.7255451 112.7086549 121.1354216  66.8598043 113.8172151 121.6953038
  68.8198035 117.5892835 112.4490023  68.3817465 116.8728694 111.9895660
  69.5608476 117.8168950 111.8875114  65.6099201 112.2789772 118.9702118
  64.7967067 112.5783943 119.3767310  66.1058195 111.8845461 119.6876600
  67.7607779 122.2747529 120.9036383  67.7183958 122.5008375 119.9744915
  68.6770478 122.0410904 121.0522184  76.9371150 115.8650032 118.5066341
  76.7989048 116.0551628 117.5787530  76.5807369 116.6269415 118.9634392
  65.1013276 109.8508128 124.5863353  65.7412655 109.7096887 123.8886317
  64.2690806 109.5642641 124.2101955  65.8773580 119.1510558 120.6998346
  66.6714178 118.6560878 120.4980921  65.1665272 118.6228421 120.3366051
  62.1856343 113.2953640 116.7758098  61.2553931 113.2338095 116.9928060
  62.2813815 112.7729592 115.9794740  62.1041892 109.8208453 119.3636340
  62.3648710 110.7353786 119.2545500  62.9259065 109.3532895 119.5132953
  63.5766818 111.2346210 126.5335165  64.2489871 111.0263572 125.8847813
  62.7496604 111.0368296 126.0940397  69.4792390 107.8608151 128.5500825
  68.8320305 108.5598100 128.4565302  70.2493405 108.2944295 128.9177074
  69.0493008 124.8248676 115.7221719  69.2244763 124.3536720 116.5367342
  68.3625796 125.4514443 115.9502980  70.0050071 119.1021183 121.7685021
  69.6699904 119.0621953 122.6642670  69.5054017 118.4365899 121.2955431
  63.9794315 114.5088813 127.2937602  63.8414113 113.7769052 127.8949141
  64.8899238 114.4197713 127.0121789  72.9409263 116.4477217 112.0422080
  72.3238433 115.7224045 111.9455133  72.4725751 117.2086577 111.6989154
  66.6076616 114.2208772 126.7821281  67.3176234 113.5801964 126.7407900
  66.5645924 114.4721667 127.7047462  65.3205550 111.2073990 128.6016921
  64.7842907 110.7564728 129.2538517  64.7322258 111.3419899 127.8587385
  64.7307809 110.6662641 111.1643384  63.8537275 110.5451442 110.8005631
  65.2065562 109.8748720 110.9122273  56.2509949 115.4539801 121.2584892
  56.9380988 115.1401531 120.6705907  56.0958077 116.3581166 120.9852143
  61.0544671 110.3429998 125.6869915  60.9702860 109.7355667 124.9520325
  60.2327377 110.8339016 125.6879412  67.9171735 123.0188932 118.4105905
  67.1339256 123.5610612 118.5044129  68.6164480 123.5362911 118.8100146
  71.2268385 108.8283561 121.0540110  71.7237084 108.0753523 120.7341181
  70.4555366 108.8647878 120.4883320  72.3098165 117.5855248 118.6278534
  71.3754444 117.7056711 118.4583238  72.4874834 116.6827715 118.3638544
  67.8103353 110.9700944 120.7811795  67.4401141 110.4171984 121.4692701
  68.3062446 110.3659078 120.2286795  75.6970717 113.4272568 119.1628568
  76.1631169 114.2600559 119.0888871  76.1478217 112.9617549 119.8673826
  73.7646948 119.7716389 116.1614720  74.0406792 119.6572983 117.0708594
  72.8951447 119.3733874 116.1226893  73.6687379 105.7953155 123.2019469
  72.7550459 106.0257381 123.3701676  74.0980481 105.8791599 124.0533502
  70.4001012 124.0202740 119.8047534  70.5823406 123.2024396 120.2675286
  71.2233998 124.2370432 119.3672424  70.7343177 122.9470925 117.0662582
  71.2630944 122.4363379 116.4532744  70.9971397 122.6313455 117.9308115
  61.2360270 120.9634794 124.8097916  61.8213707 120.2178482 124.9425820
  61.0385109 121.2738751 125.6934579  64.0898925 123.9986042 119.8260358
  63.4209301 124.4832169 119.3424398  63.9511795 124.2455262 120.7403737
  55.8277925 113.5340394 123.5302359  55.8662024 113.0003985 124.3239477
  55.3218218 113.0075600 122.9113336  63.2068687 108.3804935 127.0264901
  63.2710014 109.2419766 126.6142299  63.1435807 107.7678937 126.2937260
  62.6820960 110.4528067 130.6737935  63.3092998 110.0705145 131.2875460
  61.8248878 110.2342269 131.0393628  59.4586502 112.2604497 116.6056290
  59.7539943 111.3515175 116.5523344  58.5574538 112.2392236 116.2837292
  62.9880749 110.3360493 122.5883839  62.2667335 110.9496461 122.4491312
  63.7774005 110.8718258 122.5100485  65.7907063 107.6714920 128.8624490
  66.3141465 107.9177216 129.6250800  65.5719396 108.5034954 128.4427628
  61.1874344 109.9418594 116.7295615  60.8587050 109.0615973 116.5470721
  61.5413715 109.8866263 117.6172005  70.4353923 121.5773497 121.2390601
  70.2878885 120.6490204 121.4198171  71.2607416 121.5993588 120.7547676
  64.3016167 110.2291564 117.0971093  64.6412240 110.7577485 116.3749701
  64.7488288 110.5671970 117.8729659  66.9959608 108.6128615 126.5474161
  66.6556428 107.8136428 126.9494841  66.2898614 108.9130326 125.9750994
  67.6476080 105.6977927 125.0001484  68.4702149 105.2238405 124.8780374
  67.8914143 106.4768411 125.5000170  66.2884314 108.7266186 115.2964386
  67.0092677 109.1047438 114.7928103  65.6649618 109.4455062 115.3999364
  70.4315437 109.4311335 116.2322718  70.6479052 110.3135972 115.9311546
  69.9509504 109.0397548 115.5028360  65.1714659 112.3897048 122.8093463
  65.0259239 112.7037351 123.7017744  64.6939862 113.0081948 122.2564361
  67.0311041 109.3799596 122.8574352  67.0172610 108.4840689 122.5206650
  67.7483470 109.3870260 123.4912638  68.8837172 109.8136936 124.9027480
  68.6254950 110.7354007 124.9011810  68.3522212 109.4167371 125.5927944
  73.8283361 122.9187723 117.6817565  74.0020238 122.3534146 116.9291417
  74.3212252 123.7188618 117.4997055  59.6460321 114.9302392 125.7481124
  59.1013789 115.7062200 125.8801398  60.5239671 115.2773197 125.5900245
  66.4347937 108.2613976 118.1261922  66.5563849 107.3330622 118.3252810
  66.1449980 108.2752662 117.2140238  69.3039128 105.9468886 121.2628642
  69.3260825 106.0108220 120.3080622  69.7207187 105.1073395 121.4569148
  79.6822752 115.6824146 119.3007865  80.1253898 114.9331471 118.9026988
  78.8049262 115.6734282 118.9181597  74.8158533 122.2354488 114.7814463
  75.5109438 122.8561180 115.0001778  75.1581683 121.3849839 115.0566841
  60.4326343 114.0572288 128.6411281  59.6908079 114.2054924 129.2275911
  60.1119087 114.3180554 127.7778030  76.7149956 119.6854193 116.3101794
  77.2401281 120.0241466 115.5851114  76.6272309 118.7501208 116.1264929
  60.8782956 121.9437717 120.6721675  61.7040976 121.6441489 120.2920319
  60.5277008 121.1745340 121.1211464  65.8464489 121.2964185 122.7419349
  65.2244499 120.6334890 122.4421577  66.5169356 121.3225317 122.0592997
  59.0791561 119.8624044 121.6310609  58.2423470 119.4346218 121.4494610
  59.0515207 120.0556487 122.5681400  65.4077996 119.8468109 116.2177809
  65.5566117 120.5303573 115.5644482  66.2144440 119.8273199 116.7327265
  63.1630629 115.8733286 117.2238878  62.9176671 114.9695616 117.4219089
  63.3326544 115.8750437 116.2818356  70.8527339 106.7456963 126.6063634
  71.3709283 107.4817990 126.2810123  70.4982472 107.0520956 127.4410393
  62.4326277 111.6061644 114.7225040  61.7395522 111.6805999 114.0665076
  62.1878029 110.8421988 115.2446557  71.1039933 103.1657245 122.1264531
  71.3841687 102.4980434 122.7524957  71.8890540 103.3586341 121.6139194
  68.9073402 122.3416239 113.6889557  68.3347369 122.9606426 113.2360029
  69.4806195 122.8915601 114.2229479  72.9963171 108.6730462 126.0595507
  72.4013103 108.9535475 125.3641995  72.7112868 109.1624363 126.8312248
  72.1270662 122.6253389 114.8198139  73.0601335 122.5598951 115.0231015
  72.0393874 123.4609656 114.3612672  74.7558678 121.9419260 111.7802087
  74.6772310 121.6079123 112.6737845  75.5768345 122.4341028 111.7793559
  69.2920200 113.6777052 111.0305609  70.2379305 113.5483260 111.0994027
  68.9134445 112.9391714 111.5075038  75.2642085 105.3433058 120.9932501
  75.0666906 105.0348146 121.8775833  75.8741790 106.0694697 121.1230431
  67.4763117 111.6027028 110.9660495  66.5694573 111.3060141 111.0423208
  67.7539098 111.3056846 110.0994781  58.3941058 112.9233392 121.4159541
  58.0743842 112.0698700 121.1233915  57.8474486 113.1381970 122.1717508
  62.1720965 115.6395833 125.1329048  62.3906975 116.5712941 125.1517081
  62.5846739 115.2803807 125.9183851  69.0925183 106.1463918 117.1204736
  68.2825912 105.8011003 117.4959982  69.7809600 105.8371462 117.7092347
  71.0215731 105.2241965 118.7429033  71.5746770 105.6437418 119.4019056
  71.2585818 104.2977713 118.7851989  66.2461902 108.4613964 111.1072474
  67.1081066 108.7868862 111.3668291  66.4312246 107.6745459 110.5945540
  58.2629318 116.5436303 123.3852663  57.5692789 116.1290256 122.8722617
  59.0102309 116.5856840 122.7886081  74.3994539 107.3342490 118.2507697
  73.8193208 107.9927294 117.8685749  74.1330471 106.5119835 117.8395114
  72.8498105 106.7347548 120.4529017  73.3497883 106.8464082 119.6443336
  73.4933713 106.4308601 121.0929826  60.1766060 116.4754557 121.2618677
  60.1536748 116.5742244 120.3100561  60.4866697 117.3219708 121.5835844
  62.8353438 118.5330712 125.3765292  63.7896692 118.5014654 125.3095223
  62.6365962 118.0721336 126.1915518  73.1819417 109.4942580 117.3064045
  72.2945272 109.7792231 117.0884240  73.5973406 109.3336344 116.4591322
  76.5333953 109.5189101 121.0218384  77.3094343 110.0085554 121.2943001
  75.8082087 109.9447156 121.4790254  78.9706511 110.2316721 122.0792325
  79.5651002 109.9912457 121.3685633  79.0433095 109.5123851 122.7065861
  61.1903667 124.0750332 122.3935490  61.0558135 123.3150732 121.8273488
  60.7735729 124.7991231 121.9264279  72.3262630 119.2587255 111.4012065
  73.0298480 119.4637258 112.0169721  71.6025279 119.8264017 111.6661149
  73.1560440 115.0097116 117.5214335  73.0995642 115.4665668 116.6821968
  73.7088783 114.2487801 117.3437178  76.9665246 110.7986848 118.3464455
  76.7102180 110.3983484 119.1772662  76.3418114 111.5130642 118.2214594
  81.2777584 113.5382921 120.8535746  80.7177142 113.6076111 121.6267308
  80.6721087 113.3623906 120.1335242  74.2349327 119.6969784 113.4510525
  75.0694931 119.2650983 113.2688000  74.0733670 119.5251798 114.3787420
  73.8895220 116.2001898 114.8166864  73.8344023 116.0346169 113.8755309
  73.2641275 116.9077930 114.9729054  58.6787735 111.4369962 128.6428287
  59.3246598 110.9268916 129.1315512  58.4704886 112.1738644 129.2171712
  67.1991345 105.7010007 114.3952183  67.1870015 106.6451846 114.5520454
  68.0914767 105.5180152 114.1011644  71.0143465 102.2952783 118.6498120
  70.2475860 101.7411270 118.7954802  71.4254170 102.3674652 119.5112271
  79.0764905 125.3283264 113.7176579  79.2439307 126.1963500 114.0847050
  78.8862074 125.4910545 112.7937869  75.6963183 126.1507332 113.9645478
  74.8600495 126.4882018 114.2854752  75.5567952 126.0156311 113.0272615
  77.6716263 120.9944119 118.6724662  77.0180676 120.6793137 118.0481277
  77.6296738 120.3719860 119.3984485  73.0250098 128.6245557 116.7758098
  72.0947686 128.5630013 116.9928060  73.1207570 128.1021510 115.9794740
  70.2980257 127.5896414 116.6056290  70.5933698 126.6807093 116.5523344
  69.3968293 127.5684154 116.2837292  72.0268098 125.2710512 116.7295615
  71.6980805 124.3907891 116.5470721  72.3807469 125.2158181 117.6172005
  77.1278069 124.0558103 115.2964386  77.8486431 124.4339356 114.7928103
  76.5043373 124.7746980 115.3999364  77.2741692 123.5905894 118.1261922
  77.3957603 122.6622540 118.3252810  76.9843734 123.6044580 117.2140238
  73.2720031 126.9353562 114.7225040  72.5789276 127.0097917 114.0665076
  73.0271783 126.1713905 115.2446557  79.9318938 121.4755836 117.1204736
  79.1219666 121.1302921 117.4959982  80.6203355 121.1663379 117.7092347
  78.0385100 121.0301924 114.3952183  78.0263769 121.9743764 114.5520454
  78.9308521 120.8472070 114.1011644  81.8537219 117.6244701 118.6498120
  81.0869615 117.0703188 118.7954802  82.2647924 117.6966570 119.5112271
  16.0747158  20.7183924 101.5083889  15.4235137  21.3038005 101.1217903
  16.8691520  21.2490119 101.5678927  22.3413881  17.2108860 102.7688726
  21.5643324  16.8720019 102.3243888  23.0205362  17.2161483 102.0943691
  13.7464943  16.3074031  97.3123261  12.8392004  16.0763284  97.5114410
  14.2435975  15.5111650  97.4997242  16.6533021  25.0171538 100.2319947
  15.9794720  25.3203235 100.8404905  17.0398843  25.8200619  99.8825404
  14.6229264  17.9495370  99.1735329  14.1848694  17.2331228  98.7140967
  15.3639705  18.1771484  98.6120421  14.8524237  25.1851211 102.4467026
  15.0275992  24.7139254 103.2612649  14.1657025  25.8116977 102.6748287
  18.7440491  16.8079751  98.7667387  18.1269662  16.0826579  98.6700439
  18.2756980  17.5689111  98.4234461  19.5678177  20.1318923 102.8860027
  19.8438021  20.0175518 103.7953901  18.6982675  19.7336408 102.8472200
  16.5374406  23.3073459 103.7907889  17.0662173  22.7965914 103.1778051
  16.8002626  22.9915989 104.6553422  19.6314590  23.2790257 104.4062872
  19.8051467  22.7136680 103.6536724  20.1243481  24.0791152 104.2242362
  20.6189762  22.5957022 101.5059770  21.3140667  23.2163714 101.7247085
  20.9612912  21.7452373 101.7812148  22.5181185  20.0456727 103.0347101
  23.0432509  20.3844000 102.3096421  22.4303538  19.1103743 102.8510235
  14.7104631  22.7018773 100.4134864  14.1378598  23.3208961  99.9605335
  15.2837424  23.2518135 100.9474785  17.9301890  22.9855924 101.5443446
  18.8632564  22.9201485 101.7476321  17.8425103  23.8212190 101.0857978
  20.5589907  22.3021794  98.5047393  20.4803539  21.9681657  99.3983151
  21.3799574  22.7943562  98.5038866  15.0951429  14.0379586  97.7550916
  16.0410534  13.9085794  97.8239334  14.7165674  13.2994248  98.2320344
  18.1293859  19.6189789  98.1257372  18.8329709  19.8239792  98.7415027
  17.4056508  20.1866551  98.3906455  20.0380556  20.0572318 100.1755832
  20.8726160  19.6253517  99.9933307  19.8764899  19.8854332 101.1032726
  19.6926448  16.5604432 101.5412171  19.6375252  16.3948703 100.6000615
  19.0672504  17.2680465 101.6974361  28.6664831  30.5741970 110.2711008
  29.3043241  30.4548717 109.5674349  28.5485674  31.5222814 110.3298961
  25.4754538  30.5269398 110.2072533  25.1373049  30.4110462 109.3193068
  26.3444306  30.1260563 110.1873539  21.3341353  32.3804874 106.1969424
  20.7706218  32.2894811 105.4285712  21.2193748  31.5604779 106.6771917
  18.8805785  33.8756066 109.0353645  19.6727077  33.5346890 108.6199944
  19.1202435  33.9851041 109.9555798  26.9140912  36.0475842 101.5083889
  26.2628892  36.6329922 101.1217903  27.7085275  36.5782037 101.5678927
  20.8396539  33.1364979 101.9071023  21.6127415  32.5893966 101.7683899
  21.1921938  34.0009228 102.1185485  23.6037789  31.8418210 111.7039282
  24.2001361  31.6174232 110.9896245  23.6612760  31.1002955 112.3064730
  23.1762817  29.2957645  99.5389473  23.4288338  28.7739166  98.7772936
  22.2387376  29.1323791  99.6416157  28.2206100  28.2993423 107.3464217
  29.0069189  27.8812847 106.9954634  28.4844804  29.2039516 107.5145865
  28.3916177  33.7366274 102.0452873  27.7562010  33.8100900 102.7573778
  28.0613584  34.3259873 101.3671953  33.6214527  28.2368657 108.2497195
  34.3539699  27.6667873 108.4835025  32.8653883  27.8490257 108.6903701
  22.8959106  31.1985751 101.7413848  22.7795364  30.5230654 102.4094933
  23.0061366  30.7118125 100.9246001  25.2390647  30.6595898 105.4460537
  24.8748854  30.1326519 106.1573459  26.0957763  30.2694367 105.2727023
  24.8796134  25.6885798 100.4421886  25.0470536  26.5566034 100.8092357
  24.6893303  25.8513080  99.5183175  27.6371467  34.1502777 112.1087716
  27.3372190  35.0527816 112.0003524  27.2922526  33.8834960 112.9608869
  21.0883948  30.6016574 108.1424421  20.1634445  30.4692788 108.3502113
  21.3368362  31.3810793 108.6394363  31.0368611  26.6685317 109.7885154
  30.1285488  26.6000725 109.4943915  30.9856206  27.1457262 110.6166979
  24.8585355  28.1443455 101.4268553  24.7384980  28.5900506 102.2654033
  24.1637943  28.4928773 100.8682091  18.4492759  30.2449847 108.9768210
  18.5785141  30.4984326 109.8907622  17.7690211  30.8377555 108.6572865
  22.6192247  40.9147097 105.0758684  22.5416276  41.8654922 105.1547165
  22.0153890  40.5692970 105.7333610  32.9030257  24.8701755 111.5663028
  32.2604637  25.1634288 110.9202822  32.3985186  24.7554676 112.3716224
  30.5570421  28.6164929 102.2548887  31.4688277  28.8492315 102.0796584
  30.0480068  29.2001973 101.6923965  29.1640003  33.5990747 109.6462468
  28.5348865  33.7636461 108.9438536  28.7765665  34.0132357 110.4173432
  33.0429235  34.5345185 107.0006832  32.3580273  34.9144086 106.4503865
  33.1273084  35.1440511 107.7338780  30.2980167  32.1805144 113.6002176
  30.5097062  32.8236904 112.9236557  30.2509915  31.3467460 113.1324106
  24.7167965  33.3365155 106.9112553  25.1806310  33.6152858 106.1217176
  24.4524763  32.4348600 106.7285644  21.6092046  32.8836637 109.8492317
  22.1793403  33.3123905 109.2109801  22.2000158  32.6019221 110.5476502
  23.6536851  29.4588307 103.7202119  24.3560894  29.9109351 104.1876045
  23.3217479  28.8172126 104.3482012  31.4125994  35.0577099 111.7724533
  32.2343438  34.6557287 111.4907215  31.4088397  34.9545333 112.7240649
  19.3476930  28.0816439 105.9802729  18.5508094  28.1935134 106.4986225
  19.1202522  28.4203092 105.1143619  25.1782598  34.6061143 113.9285243
  25.2427030  35.0681550 114.7643415  24.4693522  33.9758507 114.0567553
  39.5031988  31.4015848 108.1209504  38.7495696  30.8323246 107.9653509
  39.6379529  31.3678512 109.0680139  24.8930616  36.2729250 103.7964224
  24.7576290  37.1180786 104.2249072  25.4340428  36.4748528 103.0330158
  18.3460013  33.7904688 104.3692149  18.8584534  34.5847938 104.5197714
  18.9982726  33.0930979 104.3025750  20.1554898  36.9070444 106.4514902
  20.3321526  37.8288409 106.2635886  20.9511731  36.5928864 106.8809282
  21.2786213  38.4248618 112.4525244  21.8293638  38.2965681 111.6802238
  20.4397689  38.7243507 112.1020137  28.6180330  37.1755616 115.9545967
  28.5998805  37.9964498 115.4626236  29.5400250  37.0509692 116.1796108
  16.3108930  32.1193342 105.1451719  17.1484152  32.5290351 104.9285427
  16.4887197  31.1792785 105.1151913  28.2073362  29.7868423 100.8335552
  27.6919985  30.5573028 101.0723940  27.9350670  29.1133559 101.4568614
  25.7920473  24.6318124 105.8920791  24.9362069  24.2424974 105.7126429
  26.2047425  24.7110085 105.0320576  33.1807636  32.5400778 102.7688726
  32.4037079  32.2011937 102.3243888  33.8599117  32.5453401 102.0943691
  27.9959665  27.6595515 102.6595334  27.6909801  27.9741664 103.5105477
  28.9490107  27.7376935 102.7022667  26.4406097  33.8185738 104.3088288
  25.9127458  33.0838498 103.9961525  25.9393600  34.5960415 104.0628256
  31.4198943  32.0134759 109.4255334  30.7622617  32.7034020 109.5135462
  32.2239342  32.4031191 109.7689320  21.1724824  24.4805405 106.6694899
  21.7468576  24.2580586 105.9368092  21.7595807  24.5494099 107.4223500
  30.2304402  30.3679132 107.4759276  30.7436283  31.0009123 107.9780985
  30.8805626  29.7680327 107.1102636  21.4994412  26.5109866 100.6890784
  20.6631724  26.8484552 101.0100059  21.3599181  26.3758846  99.7517921
  23.4747492  21.3546654 105.3969968  22.8211905  21.0395671 104.7726583
  23.4327966  20.7322394 106.1229791  24.5858697  31.6365949  97.3123261
  23.6785759  31.4055202  97.5114410  25.0829729  30.8403568  97.4997242
  27.4926776  40.3463456 100.2319947  26.8188475  40.6495153 100.8404905
  27.8792598  41.1492536  99.8825404  26.7085233  27.8428587 109.7217616
  25.7907794  28.0643534 109.5639304  27.1245376  27.9174898 108.8629323
  27.4920280  29.2420003 104.8520296  28.2392099  29.7541400 104.5427418
  27.7611870  28.9204056 105.7124690  25.7646930  31.7378544 101.8347251
  24.8558150  31.4537576 101.9319720  25.7942014  32.1577622 100.9750558
  30.9966198  35.3485133 105.6038418  30.5428525  34.5076043 105.6603609
  30.3660165  35.9846531 105.9413198  29.9399117  26.2777119 106.8339086
  29.2021874  25.7654505 107.1649328  30.1925891  25.8377501 106.0222363
  29.4399137  37.1861630 106.5388236  29.7322112  37.7466687 105.8200602
  29.9497758  37.4790191 107.2941395  30.0410745  19.0553371 107.4280855
  30.3469622  18.1950735 107.1406770  30.7663350  19.6470991 107.2279849
  16.3335101  29.4584058 105.8162453  16.1359501  28.8653418 105.0913519
  15.7781765  29.1536268 106.5338392  24.3131825  29.3507164 107.9357046
  24.3680434  28.3981001 107.8599523  23.5023027  29.5066603 108.4198344
  25.4623018  33.2787287  99.1735329  25.0242448  32.5623146  98.7140967
  26.2033459  33.5063402  98.6120421  22.2524184  27.9684224 105.6947425
  21.4392050  28.2678394 106.1012617  22.7483179  27.5739913 106.4121907
  24.4032762  37.9641981 107.6281690  24.3608941  38.1902827 106.6990222
  25.3195461  37.7305355 107.7767491  33.5796133  31.5544484 105.2311648
  33.4414032  31.7446080 104.3032837  33.2232352  32.3163867 105.6879699
  33.6065513  33.6221011 110.2422919  34.0402019  33.5296300 111.0905973
  34.3197093  33.5978512 109.6042935  22.5198563  34.8405010 107.4243652
  23.3139162  34.3455330 107.2226227  21.8090256  34.3122873 107.0611358
  27.3393408  37.2223105 111.7756020  27.3930430  37.7914042 112.5433736
  26.4708189  37.3924990 111.4110057  18.8281327  28.9848092 103.5003405
  17.8978915  28.9232547 103.7173367  18.9238799  28.4624044 102.7040046
  18.7466876  25.5102904 106.0881647  19.0073693  26.4248238 105.9790807
  19.5684048  25.0427347 106.2378259  34.4681062  33.6644712 112.7755805
  34.6616952  34.5690522 113.0215080  34.3681680  33.2052131 113.6094390
  26.2981507  31.3883367 113.3342952  27.2273567  31.5394527 113.1611919
  25.8772537  31.4767388 112.4791598  25.0969839  35.4134032 111.1041489
  24.9580925  35.0452816 111.9767427  24.3084435  35.9281671 110.9325447
  25.6917991  40.5143128 102.4467026  25.8669747  40.0431172 103.2612649
  25.0050779  41.1408895 102.6748287  26.6475054  34.7915635 108.4930327
  26.3124887  34.7516405 109.3887977  26.1479000  34.1260350 108.0200737
  29.5834246  32.1371669  98.7667387  28.9663417  31.4118497  98.6700439
  29.1150734  32.8981029  98.4234461  31.2388378  36.8470577 116.4273167
  31.1800924  36.1629797 115.7603750  31.6407896  37.5889567 115.9753793
  20.2579076  43.6632491 109.2206886  20.4975675  44.2951015 109.8985905
  19.4148273  43.3120531 109.5072245  21.3732792  26.3557093  97.8888691
  20.4962258  26.2345894  97.5250938  21.8490545  25.5643171  97.6367580
  31.2405785  34.8110161 114.6587147  30.3532564  34.4736083 114.7813546
  31.8104336  34.0793192 114.8955912  12.8934932  31.1434253 107.9830198
  13.5805972  30.8295983 107.3951214  12.7383061  32.0475618 107.7097450
  24.7706938  39.4711614 111.6248390  24.6977110  40.2766585 112.1367695
  24.3284331  39.6703579 110.7996411  24.5596718  38.7083384 105.1351212
  23.7764240  39.2505064 105.2289436  25.2589463  39.2257363 105.5345453
  27.8693368  24.5178013 107.7785417  28.3662068  23.7647975 107.4586487
  27.0980349  24.5542330 107.2128626  35.7223125  30.2218379 109.4203708
  35.7113002  31.1043094 109.0497642  34.8540505  29.8689929 109.2258246
  27.2305622  39.3698448 113.7806549  27.9433594  40.0045912 113.7082450
  26.7395650  39.4662314 112.9646551  28.9523149  33.2749700 105.3523840
  28.0179427  33.3951163 105.1828545  29.1299817  32.3722167 105.0883850
  24.4528337  26.6595396 107.5057102  24.0826124  26.1066436 108.1938007
  24.9487429  26.0553529 106.9532102  32.3395700  29.1167020 105.8873875
  32.8056152  29.9495011 105.8134177  32.7903201  28.6512001 106.5919133
  22.2817535  37.1192891 114.6012120  22.9826995  37.7529374 114.7541514
  21.8112650  37.4607623 113.8407759  30.4071931  35.4610841 102.8860027
  30.6831775  35.3467435 103.7953901  29.5376430  35.0628326 102.8472200
  30.0818821  29.6737498 112.4264670  29.4290271  29.9213406 111.7717123
  30.4599201  28.8601637 112.0927147  27.0425995  39.7097192 106.5292840
  27.2248390  38.8918848 106.9920593  27.8658981  39.9264884 106.0917730
  27.3768161  38.6365377 103.7907889  27.9055927  38.1257831 103.1778051
  27.6396380  38.3207907 104.6553422  17.8785253  36.6529246 111.5343222
  18.4638690  35.9072934 111.6671126  17.6810092  36.9633203 112.4179886
  20.7323909  39.6880493 106.5505665  20.0634284  40.1726621 106.0669705
  20.5936778  39.9349714 107.4649043  24.8729177  41.7224237 113.1488323
  25.4247485  41.8855858 113.9137408  25.2135371  42.3128675 112.4768348
  16.1011486  27.9498948 103.3301597  16.3964927  27.0409627 103.2768650
  15.1999521  27.9286688 103.0082599  28.0097564  39.6706212 110.1352005
  27.8848704  38.8695952 109.6262951  28.6676656  40.1652406 109.6465975
  30.0732473  37.4715233 111.7631555  29.1262808  37.3520584 111.6909882
  30.4215246  36.5837731 111.8457817  17.8299327  25.6313046 103.4540922
  17.5012033  24.7510425 103.2716028  18.1838698  25.5760715 104.3417311
  27.0778906  37.2667949 107.9635907  26.9303869  36.3384656 108.1443477
  27.9032400  37.2888040 107.4792983  20.9441150  25.9186016 103.8216400
  21.2837223  26.4471937 103.0995008  21.3913271  26.2566422 104.5974966
  30.6813028  38.0896508 109.0500780  31.6059575  37.8839369 108.9125231
  30.5128331  37.8412909 109.9590122  22.9309298  24.4160637 102.0209692
  23.6517660  24.7941890 101.5173409  22.3074602  25.1349514 102.1244670
  27.0740420  25.1205786 102.9568025  27.2904035  26.0030424 102.6556853
  26.5934488  24.7292000 102.2273667  30.4708344  38.6082175 104.4062872
  30.6445222  38.0428597 103.6536724  30.9637235  39.4083070 104.2242362
  23.0772921  23.9508428 104.8507229  23.1988832  23.0225074 105.0498116
  22.7874963  23.9647114 103.9385544  36.3247735  31.3718598 106.0253171
  36.7678881  30.6225923 105.6272295  35.4474246  31.3628734 105.6426903
  31.4583517  37.9248939 101.5059770  32.1534421  38.5455632 101.7247085
  31.8006667  37.0744291 101.7812148  33.3574940  35.3748645 103.0347101
  33.8826264  35.7135918 102.3096421  33.2697292  34.4395660 102.8510235
  25.0194988  39.2882719 115.1636977  25.3282115  39.0431865 116.0359677
  25.8170470  39.4929357 114.6755848  25.0415601  41.4420628 107.3942354
  24.6020591  40.9497007 108.0875211  25.7923717  40.8993596 107.1534429
  17.5207940  37.6332169 107.3966982  18.3465959  37.3335941 107.0165625
  17.1701991  36.8639791 107.8456771  22.4889473  36.9858637 109.4664656
  21.8669482  36.3229342 109.1666883  23.1594340  37.0119769 108.7838303
  15.7216545  35.5518496 108.3555916  14.8848453  35.1240670 108.1739917
  15.6940190  35.7450939 109.2926707  33.0468846  36.0081549 118.3398299
  32.2564390  35.9905687 117.8002798  32.8102200  36.5469842 119.0947335
  33.1666721  32.8574015 115.6531027  33.2164726  32.6924022 116.5946550
  33.0580644  31.9901274 115.2628908  22.0502980  35.5362561 102.9423116
  22.1991100  36.2198025 102.2889789  22.8569423  35.5167651 103.4572572
  34.6684918  35.2770956 115.8973049  34.3769726  35.6400937 116.7336510
  34.0557049  34.5637965 115.7186381  35.8680600  32.8423836 108.4175619
  36.7027491  33.2813640 108.5813179  36.0039729  32.3662489 107.5983865
  32.9172106  30.4003571 114.3653107  33.3926228  30.5931217 113.5571958
  31.9937671  30.4562757 114.1196490  19.8055613  31.5627738 103.9484185
  19.5601655  30.6590068 104.1464395  19.9751527  31.5644889 103.0063663
  19.0751260  27.2956096 101.4470346  18.3820505  27.3700451 100.7910382
  18.8303012  26.5316439 101.9691863  25.5498385  38.0310691 100.4134864
  24.9772352  38.6500878  99.9605335  26.1231179  38.5810053 100.9474785
  31.6173775  27.2769331 112.5981412  32.5691198  27.3767429 112.6193636
  31.4477225  26.4847600 113.1079497  28.7695645  38.3147841 101.5443446
  29.7026318  38.2493403 101.7476321  28.6818858  39.1504108 101.0857978
  31.3983662  37.6313712  98.5047393  31.3197293  37.2973575  99.3983151
  32.2193328  38.1235479  98.5038866  34.0961853  30.4975451 111.7123712
  34.0638173  29.5591452 111.8983396  34.7062476  30.5759488 110.9789537
  25.9345184  29.3671504  97.7550916  26.8804288  29.2377712  97.8239334
  25.5559429  28.6286166  98.2320344  34.2456341  27.2886494 111.7581995
  33.7295390  26.5044951 111.5711924  35.1296290  26.9605211 111.9228515
  31.9067068  21.0327510 107.7177808  31.7091889  20.7242598 108.6021140
  32.5166774  21.7589149 107.8475738  39.9138403  31.5591458 110.8529749
  40.6441791  31.2976746 111.4137452  39.3045348  30.8220180 110.8931817
  37.9953700  29.6999320 111.4504200  37.2686863  29.5655285 110.8420692
  37.5800987  30.0076149 112.2560918  24.1188101  27.2921480  97.6905801
  23.2119556  26.9954593  97.7668515  24.3964082  26.9951298  96.8240087
  25.7350166  21.8358370 103.8450043  24.9250895  21.4905455 104.2205289
  26.4234583  21.5265914 104.4337654  27.6640715  20.9136417 105.4674339
  28.2171753  21.3331870 106.1264362  27.9010801  19.9872165 105.5097295
  22.8886885  24.1508415  97.8317780  23.7506049  24.4763314  98.0913598
  23.0737230  23.3639911  97.3190846  31.0419522  23.0236942 104.9753003
  30.4618191  23.6821746 104.5931056  30.7755455  22.2014286 104.5640421
  29.4923088  22.4242000 107.1774324  29.9922867  22.5358534 106.3688643
  30.1358696  22.1203052 107.8175132  16.8191044  32.1649009 107.9863984
  16.7961732  32.2636696 107.0345867  17.1291680  33.0114160 108.3081150
  29.8244400  25.1837032 104.0309352  28.9370255  25.4686683 103.8129546
  30.2398389  25.0230796 103.1836629  33.1758936  25.2083553 107.7463691
  33.9519326  25.6980006 108.0188308  32.4507070  25.6341607 108.2035560
  35.6131495  25.9211172 108.8037632  36.2075985  25.6806908 108.0930940
  35.6858078  25.2018303 109.4311168  17.8328650  39.7644783 109.1180796
  17.6983118  39.0045184 108.5518794  17.4160713  40.4885683 108.6509585
  28.9687613  34.9481707  98.1257372  29.6723463  35.1531709  98.7415027
  28.2450262  35.5158469  98.3906455  29.7985424  30.6991568 104.2459642
  29.7420625  31.1560120 103.4067274  30.3513766  29.9382253 104.0682485
  33.6090230  26.4881300 105.0709761  33.3527164  26.0877936 105.9017969
  32.9843098  27.2025094 104.9459901  37.9202567  29.2277373 107.5781053
  37.3602125  29.2970563 108.3512615  37.3146071  29.0518358 106.8580549
  20.9897776  40.6614100 109.3299239  20.8730160  41.6059533 109.2277929
  20.1690222  40.3587662 109.7185038  30.8774311  35.3864236 100.1755832
  31.7119915  34.9545435  99.9933307  30.7158654  35.2146250 101.1032726
  30.5320203  31.8896349 101.5412171  30.4769007  31.7240621 100.6000615
  29.9066258  32.5972382 101.6974361  23.8416328  21.3904458 101.1197489
  23.8294998  22.3346298 101.2765760  24.7339750  21.2074604 100.8256951
  22.0152290  41.3142362 112.5455167  22.9179537  41.3465973 112.8621662
  21.7889660  40.3842813 112.5601503  23.7705892  40.0673349 109.2065246
  22.8201523  40.0675210 109.0929618  24.0738379  39.3206083 108.6901281
  27.6568448  17.9847235 105.3743426  26.8900844  17.4305722 105.5200109
  28.0679153  18.0569104 106.2357578  39.5058586  45.9033887 110.2711008
  40.1436996  45.7840635 109.5674349  39.3879429  46.8514731 110.3298961
  36.3148292  45.8561315 110.2072533  35.9766804  45.7402380 109.3193068
  37.1838060  45.4552480 110.1873539  32.1735108  47.7096792 106.1969424
  31.6099973  47.6186729 105.4285712  32.0587503  46.8896696 106.6771917
  36.7968075  47.0096167 116.1658739  36.7856716  46.6148965 115.2939242
  36.9588715  46.2762240 116.7592510  29.7199540  49.2047983 109.0353645
  30.5120832  48.8638808 108.6199944  29.9596190  49.3142958 109.9555798
  37.7534667  51.3767759 101.5083889  37.1022646  51.9621840 101.1217903
  38.5479029  51.9073954 101.5678927  31.6790294  48.4656897 101.9071023
  32.4521170  47.9185884 101.7683899  32.0315693  49.3301146 102.1185485
  33.5175336  49.7933279 115.1137923  33.2265202  50.6978910 114.9984589
  34.1532321  49.8349807 115.8281992  34.4431543  47.1710127 111.7039282
  35.0395115  46.9466150 110.9896245  34.5006515  46.4294873 112.3064730
  34.0156572  44.6249563  99.5389473  34.2682092  44.1031084  98.7772936
  33.0781131  44.4615708  99.6416157  39.0599854  43.6285341 107.3464217
  39.8462944  43.2104764 106.9954634  39.3238559  44.5331433 107.5145865
  39.2309932  49.0658191 102.0452873  38.5955765  49.1392818 102.7573778
  38.9007338  49.6551790 101.3671953  44.4608281  43.5660574 108.2497195
  45.1933453  42.9959791 108.4835025  43.7047637  43.1782175 108.6903701
  33.7352860  46.5277669 101.7413848  33.6189118  45.8522572 102.4094933
  33.8455120  46.0410043 100.9246001  36.0784401  45.9887816 105.4460537
  35.7142608  45.4618437 106.1573459  36.9351517  45.5986285 105.2727023
  41.9833702  37.2782148 112.7091804  41.6517027  38.1477559 112.4853019
  41.3879315  36.9618432 113.3885834  35.7189888  41.0177715 100.4421886
  35.8864291  41.8857952 100.8092357  35.5287057  41.1804997  99.5183175
  38.4765221  49.4794694 112.1087716  38.1765944  50.3819733 112.0003524
  38.1316281  49.2126878 112.9608869  31.9277703  45.9308491 108.1424421
  31.0028199  45.7984705 108.3502113  32.1762116  46.7102710 108.6394363
  41.8762365  41.9977235 109.7885154  40.9679242  41.9292643 109.4943915
  41.8249961  42.4749180 110.6166979  35.6979109  43.4735373 101.4268553
  35.5778734  43.9192424 102.2654033  35.0031697  43.8220691 100.8682091
  29.2886514  45.5741765 108.9768210  29.4178895  45.8276244 109.8907622
  28.6083965  46.1669473 108.6572865  33.4586001  56.2439015 105.0758684
  33.3810031  57.1946840 105.1547165  32.8547645  55.8984887 105.7333610
  35.9503231  43.4166880 117.7320051  35.1736565  43.9760800 117.7222916
  36.5893794  43.9023663 118.2534921  43.7424012  40.1993673 111.5663028
  43.0998392  40.4926206 110.9202822  43.2378940  40.0846593 112.3716224
  41.3964175  43.9456846 102.2548887  42.3082031  44.1784233 102.0796584
  40.8873822  44.5293890 101.6923965  34.2049603  46.2252334 117.2938018
  34.9464288  46.7637378 117.0172842  33.4986589  46.8518622 117.4509570
  39.6804943  48.3681474 115.8910179  40.0888299  47.9263885 115.1464812
  38.9582204  47.7934102 116.1444372  36.0336013  43.3054081 113.2643736
  36.8797208  43.7293494 113.4078385  35.9734651  42.6487705 113.9582300
  40.0033758  48.9282665 109.6462468  39.3742620  49.0928379 108.9438536
  39.6159420  49.3424274 110.4173432  43.8822989  49.8637102 107.0006832
  43.1974028  50.2436004 106.4503865  43.9666839  50.4732429 107.7338780
  39.1835458  40.9658449 114.9224910  38.9396390  41.7200510 114.3859186
  39.4595389  41.3443797 115.7572157  41.1373921  47.5097062 113.6002176
  41.3490816  48.1528821 112.9236557  41.0903669  46.6759378 113.1324106
  38.7400150  40.1214882 110.5038748  37.8784629  40.4196136 110.7955485
  38.7662585  40.3385281 109.5719780  35.5561719  48.6657073 106.9112553
  36.0200065  48.9444776 106.1217176  35.2918517  47.7640517 106.7285644
  32.4485800  48.2128554 109.8492317  33.0187158  48.6415823 109.2109801
  33.0393912  47.9311139 110.5476502  34.4930605  44.7880225 103.7202119
  35.1954649  45.2401269 104.1876045  34.1611234  44.1464044 104.3482012
  32.9410967  43.3791982 118.0953328  32.3109628  44.0608263 118.3288725
  32.8347055  43.2675063 117.1506466  28.2355939  43.0463778 109.0219252
  27.4454993  43.3021306 108.5459363  28.7267187  43.8612116 109.1271293
  42.2519749  50.3869017 111.7724533  43.0737193  49.9849204 111.4907215
  42.2482152  50.2837251 112.7240649  30.1870685  43.4108357 105.9802729
  29.3901848  43.5227051 106.4986225  29.9596277  43.7495009 105.1143619
  36.0176352  49.9353060 113.9285243  36.0820785  50.3973467 114.7643415
  35.3087276  49.3050425 114.0567553  26.5193642  43.2994268 111.4534243
  26.7701681  44.1841278 111.7191819  27.0553191  43.1198870 110.6809335
  50.3425742  46.7307765 108.1209504  49.5889450  46.1615163 107.9653509
  50.4773283  46.6970430 109.0680139  35.7324370  51.6021168 103.7964224
  35.5970045  52.4472703 104.2249072  36.2734183  51.8040445 103.0330158
  29.1853767  49.1196606 104.3692149  29.6978288  49.9139856 104.5197714
  29.8376480  48.4222896 104.3025750  30.9948652  52.2362362 106.4514902
  31.1715280  53.1580327 106.2635886  31.7905486  51.9220781 106.8809282
  35.1359671  39.0970627 118.0498836  35.8769384  39.6977780 117.9703298
  35.3677594  38.3548264 117.4916878  30.2801009  44.2826994 116.3277065
  30.1654524  43.3812251 116.6284164  29.4245526  44.5290691 115.9761882
  37.3592846  52.2244734 117.9264566  36.9156701  51.4381113 117.6085470
  38.0210060  52.4123885 117.2608457  32.1179968  53.7540536 112.4525244
  32.6687393  53.6257599 111.6802238  31.2791444  54.0535425 112.1020137
  39.4574085  52.5047534 115.9545967  39.4392560  53.3256415 115.4626236
  40.3794005  52.3801609 116.1796108  35.9147139  50.0191664 116.7969476
  36.4475475  49.2579952 116.5668783  35.3861220  49.7265315 117.5393630
  39.0816834  35.1251730 112.3263117  38.7381103  36.0153371 112.2502228
  39.4495796  34.9353387 111.4632702  27.1502684  47.4485260 105.1451719
  27.9877906  47.8582268 104.9285427  27.3280952  46.5084702 105.1151913
  39.0467116  45.1160341 100.8335552  38.5313740  45.8864945 101.0723940
  38.7744425  44.4425477 101.4568614  36.6314227  39.9610041 105.8920791
  35.7755824  39.5716892 105.7126429  37.0441179  40.0402002 105.0320576
  38.1613374  37.4956385 110.2912351  37.6578170  37.4586520 109.4780156
  38.4543981  38.4049127 110.3509007  34.4056260  37.5795114 109.2978532
  35.2709257  37.3837923 108.9384422  34.4733769  37.3505466 110.2247889
  44.0201390  47.8692695 102.7688726  43.2430833  47.5303855 102.3243888
  44.6992871  47.8745319 102.0943691  38.8353420  42.9887433 102.6595334
  38.5303555  43.3033582 103.5105477  39.7883862  43.0668853 102.7022667
  37.2799851  49.1477656 104.3088288  36.7521213  48.4130416 103.9961525
  36.7787354  49.9252332 104.0628256  42.2592697  47.3426677 109.4255334
  41.6016372  48.0325938 109.5135462  43.0633097  47.7323109 109.7689320
  32.0118579  39.8097322 106.6694899  32.5862331  39.5872504 105.9368092
  32.5989561  39.8786017 107.4223500  41.0698156  45.6971049 107.4759276
  41.5830038  46.3301041 107.9780985  41.7199380  45.0972245 107.1102636
  32.3388166  41.8401783 100.6890784  31.5025478  42.1776470 101.0100059
  32.1992936  41.7050763  99.7517921  34.3141247  36.6838571 105.3969968
  33.6605659  36.3687588 104.7726583  34.2721721  36.0614312 106.1229791
  35.4252452  46.9657866  97.3123261  34.5179513  46.7347120  97.5114410
  35.9223484  46.1695486  97.4997242  37.5478987  43.1720505 109.7217616
  36.6301548  43.3935452 109.5639304  37.9639131  43.2466815 108.8629323
  38.3314035  44.5711921 104.8520296  39.0785854  45.0833318 104.5427418
  38.6005624  44.2495973 105.7124690  36.6040685  47.0670461 101.8347251
  35.6951904  46.7829494 101.9319720  36.6335769  47.4869540 100.9750558
  41.8359952  50.6777051 105.6038418  41.3822279  49.8367961 105.6603609
  41.2053919  51.3138449 105.9413198  40.7792872  41.6069037 106.8339086
  40.0415629  41.0946423 107.1649328  41.0319645  41.1669418 106.0222363
  40.2792892  52.5153547 106.5388236  40.5715866  53.0758605 105.8200602
  40.7891512  52.8082108 107.2941395  40.8804499  34.3845289 107.4280855
  41.1863376  33.5242652 107.1406770  41.6057104  34.9762909 107.2279849
  27.1728855  44.7875975 105.8162453  26.9753255  44.1945336 105.0913519
  26.6175519  44.4828186 106.5338392  35.1525579  44.6799082 107.9357046
  35.2074189  43.7272918 107.8599523  34.3416781  44.8358521 108.4198344
  36.3016773  48.6079205  99.1735329  35.8636203  47.8915064  98.7140967
  37.0427214  48.8355320  98.6120421  33.0917939  43.2976142 105.6947425
  32.2785804  43.5970312 106.1012617  33.5876933  42.9031830 106.4121907
  35.2426517  53.2933899 107.6281690  35.2002696  53.5194745 106.6990222
  36.1589216  53.0597273 107.7767491  38.6892151  43.7617966 114.5262319
  39.0441538  43.9889439 115.3856785  39.3364282  44.0936343 113.9039574
  44.4189888  46.8836402 105.2311648  44.2807786  47.0737998 104.3032837
  44.0626106  47.6455785 105.6879699  32.5832014  40.8694497 111.3108660
  33.2231393  40.7283256 110.6131623  31.7509544  40.5829011 110.9347262
  44.4459267  48.9512929 110.2422919  44.8795774  48.8588218 111.0905973
  45.1590848  48.9270429 109.6042935  33.3592318  50.1696928 107.4243652
  34.1532916  49.6747248 107.2226227  32.6484010  49.6414791 107.0611358
  38.1787162  52.5515023 111.7756020  38.2324184  53.1205959 112.5433736
  37.3101943  52.7216908 111.4110057  29.6675081  44.3140009 103.5003405
  28.7372669  44.2524465 103.7173367  29.7632553  43.7915962 102.7040046
  29.5860630  40.8394822 106.0881647  29.8467447  41.7540155 105.9790807
  30.4077802  40.3719265 106.2378259  31.0585555  42.2532579 113.2580471
  31.7308609  42.0449941 112.6093120  30.2315342  42.0554665 112.8185703
  45.3074817  48.9936630 112.7755805  45.5010707  49.8982440 113.0215080
  45.2075435  48.5344049 113.6094390  36.9611127  38.8794520 115.2746132
  36.3139043  39.5784470 115.1810608  37.7312143  39.3130664 115.6422380
  40.3689925  49.1443372 118.3496685  40.2175432  48.9153924 117.4326769
  40.3594605  50.1013974 118.3628030  37.1375262  46.7175285 113.3342952
  38.0667322  46.8686445 113.1611919  36.7166292  46.8059306 112.4791598
  35.9363594  50.7425950 111.1041489  35.7974679  50.3744734 111.9767427
  35.1478190  51.2573589 110.9325447  37.4868809  50.1207552 108.4930327
  37.1518641  50.0808322 109.3887977  36.9872754  49.4552268 108.0200737
  31.4613053  45.5275182 114.0182908  31.3232851  44.7955421 114.6194447
  32.3717976  45.4384082 113.7367096  34.0895353  45.2395142 113.5066588
  34.7994972  44.5988334 113.4653206  34.0464662  45.4908036 114.4292769
  42.0782132  52.1762495 116.4273167  42.0194678  51.4921715 115.7603750
  42.4801650  52.9181485 115.9753793  32.8024287  42.2260359 115.3262227
  32.2661644  41.7751098 115.9783824  32.2140996  42.3606268 114.5832692
  31.0972831  58.9924409 109.2206886  31.3369429  59.6242933 109.8985905
  30.2542027  58.6412449 109.5072245  32.2126546  41.6849011  97.8888691
  31.3356013  41.5637812  97.5250938  32.6884299  40.8935089  97.6367580
  42.0799539  50.1402079 114.6587147  41.1926318  49.8028001 114.7813546
  42.6498090  49.4085110 114.8955912  23.7328686  46.4726171 107.9830198
  24.4199726  46.1587901 107.3951214  23.5776815  47.3767535 107.7097450
  28.5363409  41.3616367 112.4115222  28.4521597  40.7542037 111.6765632
  27.7146115  41.8525385 112.4124718  35.6100693  54.8003531 111.6248390
  35.5370864  55.6058503 112.1367695  35.1678086  54.9995497 110.7996411
  35.3990472  54.0375301 105.1351212  34.6157994  54.5796981 105.2289436
  36.0983218  54.5549281 105.5345453  38.7087122  39.8469931 107.7785417
  39.2055822  39.0939893 107.4586487  37.9374104  39.8834247 107.2128626
  46.5616880  45.5510296 109.4203708  46.5506756  46.4335012 109.0497642
  45.6934259  45.1981847 109.2258246  38.0699376  54.6990365 113.7806549
  38.7827348  55.3337830 113.7082450  37.5789405  54.7954231 112.9646551
  39.7916903  48.6041618 105.3523840  38.8573182  48.7243080 105.1828545
  39.9693572  47.7014085 105.0883850  35.2922091  41.9887314 107.5057102
  34.9219879  41.4358354 108.1938007  35.7881184  41.3845447 106.9532102
  43.1789454  44.4458937 105.8873875  43.6449907  45.2786929 105.8134177
  43.6296955  43.9803919 106.5919133  33.1211290  52.4484809 114.6012120
  33.8220749  53.0821292 114.7541514  32.6506405  52.7899540 113.8407759
  41.1506117  36.8139524 109.9264776  40.2369197  37.0443751 110.0946983
  41.5799219  36.8977968 110.7778808  40.9212576  45.0029416 112.4264670
  40.2684026  45.2505324 111.7717123  41.2992956  44.1893554 112.0927147
  37.8819750  55.0389109 106.5292840  38.0642144  54.2210765 106.9920593
  38.7052736  55.2556802 106.0917730  38.2161915  53.9657294 103.7907889
  38.7449682  53.4549749 103.1778051  38.4790135  53.6499825 104.6553422
  36.9700149  45.7449227 118.9130707  36.2940786  45.6443357 119.5833082
  37.7927783  45.5888441 119.3766704  28.7179008  51.9821164 111.5343222
  29.3032445  51.2364852 111.6671126  28.5203846  52.2925120 112.4179886
  31.5717663  55.0172411 106.5505665  30.9028038  55.5018539 106.0669705
  31.4330533  55.2641632 107.4649043  23.3096663  44.5526764 110.2547665
  23.3480762  44.0190355 111.0484783  22.8036955  44.0261969 109.6358643
  35.7122932  57.0516155 113.1488323  36.2641240  57.2147776 113.9137408
  36.0529125  57.6420592 112.4768348  30.6887425  39.3991304 113.7510208
  30.7528751  40.2606135 113.3387605  30.6254545  38.7865306 113.0182566
  30.1639697  41.4714437 117.3983242  30.7911736  41.0891514 118.0120766
  29.3067616  41.2528639 117.7638934  40.5633806  51.8777412 119.0036977
  41.1073710  52.4907370 118.5091932  39.9820651  52.4356991 119.5203990
  26.9405240  43.2790866 103.3301597  27.2358681  42.3701545 103.2768650
  26.0393276  43.2578606 103.0082599  38.8491319  54.9998130 110.1352005
  38.7242458  54.1987870 109.6262951  39.5070410  55.4944324 109.6465975
  30.4699487  41.3546863 109.3129145  29.7486073  41.9682830 109.1736619
  31.2592743  41.8904628 109.2345791  40.9126227  52.8007150 111.7631555
  39.9656563  52.6812501 111.6909882  41.2609000  51.9129648 111.8457817
  33.2725801  38.6901289 115.5869797  33.7960202  38.9363586 116.3496106
  33.0538134  39.5221324 115.1672934  28.6693082  40.9604964 103.4540922
  28.3405788  40.0802343 103.2716028  29.0232452  40.9052632 104.3417311
  37.9172661  52.5959866 107.9635907  37.7697623  51.6676574 108.1443477
  38.7426154  52.6179957 107.4792983  31.7834905  41.2477934 103.8216400
  32.1230977  41.7763855 103.0995008  32.2307025  41.5858340 104.5974966
  41.5206782  53.4188425 109.0500780  42.4453330  53.2131287 108.9125231
  41.3522086  53.1704826 109.9590122  34.4778346  39.6314984 113.2719468
  34.1375166  38.8322797 113.6740148  33.7717352  39.9316695 112.6996301
  35.1294818  36.7164297 111.7246791  35.9520887  36.2424775 111.6025681
  35.3732881  37.4954780 112.2245477  33.7703052  39.7452555 102.0209692
  34.4911415  40.1233808 101.5173409  33.1468356  40.4641432 102.1244670
  37.9134175  40.4497704 102.9568025  38.1297789  41.3322342 102.6556853
  37.4328242  40.0583918 102.2273667  32.6533396  43.4083417 109.5338769
  32.5077977  43.7223720 110.4263051  32.1758600  44.0268318 108.9809668
  34.5129779  40.3985965 109.5819659  34.4991348  39.5027059 109.2451957
  35.2302207  40.4056629 110.2157945  36.3655910  40.8323306 111.6272786
  36.1073688  41.7540376 111.6257117  35.8340950  40.4353740 112.3173250
  41.3102099  53.9374093 104.4062872  41.4838976  53.3720515 103.6536724
  41.8030990  54.7374988 104.2242362  27.1279058  45.9488762 112.4726430
  26.5832527  46.7248570 112.6046705  28.0058408  46.2959566 112.3145552
  33.9166675  39.2800346 104.8507229  34.0382586  38.3516992 105.0498116
  33.6268717  39.2939032 103.9385544  36.7857866  36.9655256 107.9873949
  36.8079562  37.0294589 107.0325928  37.2025925  36.1259765 108.1814455
  47.1641490  46.7010516 106.0253171  47.6072636  45.9517841 105.6272295
  46.2868000  46.6920652 105.6426903  27.9145080  45.0758658 115.3656587
  27.1726816  45.2241293 115.9521218  27.5937825  45.3366924 114.5023337
  35.8588743  54.6174636 115.1636977  36.1675869  54.3723783 116.0359677
  36.6564225  54.8221275 114.6755848  35.8809355  56.7712546 107.3942354
  35.4414345  56.2788925 108.0875211  36.6317472  56.2285514 107.1534429
  28.3601694  52.9624087 107.3966982  29.1859714  52.6627859 107.0165625
  28.0095746  52.1931709 107.8456771  33.3283227  52.3150555 109.4664656
  32.7063236  51.6521260 109.1666883  33.9988094  52.3411687 108.7838303
  26.5610299  50.8810413 108.3555916  25.7242207  50.4532588 108.1739917
  26.5333944  51.0742857 109.2926707  33.4007755  40.7932343 119.0597162
  33.4495910  41.6694466 118.6774931  33.9430269  40.2509736 118.4868805
  43.8862600  51.3373466 118.3398299  43.0958144  51.3197605 117.8002798
  43.6495955  51.8761760 119.0947335  44.0060475  48.1865933 115.6531027
  44.0558480  48.0215940 116.5946550  43.8974399  47.3193192 115.2628908
  32.8896734  50.8654478 102.9423116  33.0384854  51.5489943 102.2889789
  33.6963178  50.8459568 103.4572572  41.2964238  44.1696861 116.9690334
  42.1974101  44.0303325 116.6774332  41.3712212  44.3351315 117.9088511
  35.6307043  41.5463715 115.8143520  34.7610353  41.8397281 115.5426109
  35.8666523  42.1304160 116.5350784  45.5078672  50.6062874 115.8973049
  45.2163481  50.9692855 116.7336510  44.8950803  49.8929882 115.7186381
  46.7074355  48.1715754 108.4175619  47.5421246  48.6105558 108.5813179
  46.8433483  47.6954407 107.5983865  43.7565860  45.7295489 114.3653107
  44.2319982  45.9223135 113.5571958  42.8331426  45.7854675 114.1196490
  30.6449367  46.8919656 103.9484185  30.3995409  45.9881986 104.1464395
  30.8145282  46.8936806 103.0063663  38.3346077  37.7643332 113.3308941
  38.8528021  38.5004359 113.0055429  37.9801210  38.0707326 114.1655700
  29.9145015  42.6248014 101.4470346  29.2214260  42.6992368 100.7910382
  29.6696766  41.8608357 101.9691863  38.5858671  34.1843615 108.8509837
  38.8660425  33.5166804 109.4770264  39.3709278  34.3772710 108.3384501
  42.4567529  42.6061249 112.5981412  43.4084952  42.7059347 112.6193636
  42.2870980  41.8139517 113.1079497  40.4781909  39.6916832 112.7840813
  39.8831841  39.9721845 112.0887302  40.1931606  40.1810733 113.5557554
  44.9355607  45.8267369 111.7123712  44.9031927  44.8883369 111.8983396
  45.5456231  45.9051405 110.9789537  36.7738938  44.6963422  97.7550916
  37.7198043  44.5669630  97.8239334  36.3953183  43.9578083  98.2320344
  45.0850096  42.6178412 111.7581995  44.5689144  41.8336869 111.5711924
  45.9690044  42.2897129 111.9228515  42.7460823  36.3619428 107.7177808
  42.5485644  36.0534516 108.6021140  43.3560528  37.0881066 107.8475738
  50.7532157  46.8883375 110.8529749  51.4835546  46.6268664 111.4137452
  50.1439103  46.1512097 110.8931817  48.8347454  45.0291238 111.4504200
  48.1080618  44.8947203 110.8420692  48.4194741  45.3368067 112.2560918
  36.6577631  48.7481168 119.2151573  37.5780640  48.9259767 119.4091620
  36.6227214  47.8037213 119.0631272  34.9581855  42.6213398  97.6905801
  34.0513311  42.3246511  97.7668515  35.2357836  42.3243216  96.8240087
  25.8759796  43.9419761 108.1404848  25.5562580  43.0885069 107.8479222
  25.3293224  44.1568339 108.8962815  29.6539703  46.6582202 111.8574354
  29.8725713  47.5899310 111.8762388  30.0665477  46.2990177 112.6429158
  36.5743921  37.1650288 103.8450043  35.7644649  36.8197373 104.2205289
  37.2628338  36.8557831 104.4337654  38.5034469  36.2428334 105.4674339
  39.0565508  36.6623788 106.1264362  38.7404556  35.3164083 105.5097295
  34.5267568  42.2315408 121.2477103  34.4264295  43.1809765 121.1789194
  34.3089111  41.9033647 120.3753173  33.7280640  39.4800333  97.8317780
  34.5899804  39.8055231  98.0913598  33.9130984  38.6931829  97.3190846
  25.7448056  47.5622673 110.1097969  25.0511527  47.1476626 109.5967924
  26.4921047  47.6043209 109.5131388  41.8813276  38.3528860 104.9753003
  41.3011945  39.0113664 104.5931056  41.6149209  37.5306204 104.5640421
  40.3316843  37.7533917 107.1774324  40.8316621  37.8650452 106.3688643
  40.9752451  37.4494970 107.8175132  34.3898839  45.6612547 120.0642165
  33.9065920  46.4612907 120.2706054  34.4759778  45.6720492 119.1109609
  27.6584798  47.4940927 107.9863984  27.6355486  47.5928614 107.0345867
  27.9685435  48.3406077 108.3081150  30.3172176  49.5517082 112.1010599
  31.2715430  49.5201024 112.0340530  30.1184700  49.0907705 112.9160824
  30.9071558  48.1218198 114.6681396  31.7264447  48.6162276 114.6916233
  31.1808366  47.2050166 114.6398964  40.6638154  40.5128950 104.0309352
  39.7764009  40.7978601 103.8129546  41.0792143  40.3522713 103.1836629
  44.0152691  40.5375471 107.7463691  44.7913081  41.0271923 108.0188308
  43.2900825  40.9633525 108.2035560  46.4525249  41.2503090 108.8037632
  47.0469740  41.0098826 108.0930940  46.5251833  40.5310221 109.4311168
  28.6722405  55.0936701 109.1180796  28.5376873  54.3337102 108.5518794
  28.2554467  55.8177601 108.6509585  40.6379178  46.0283486 104.2459642
  40.5814380  46.4852037 103.4067274  41.1907521  45.2674170 104.0682485
  44.4483984  41.8173218 105.0709761  44.1920918  41.4169853 105.9017969
  43.8236852  42.5317012 104.9459901  48.7596322  44.5569291 107.5781053
  48.1995880  44.6262480 108.3512615  48.1539825  44.3810276 106.8580549
  31.8291531  55.9906018 109.3299239  31.7123915  56.9351451 109.2277929
  31.0083977  55.6879580 109.7185038  41.3713957  47.2188267 101.5412171
  41.3162761  47.0532539 100.6000615  40.7460013  47.9264300 101.6974361
  26.1606472  42.4556332 115.3673593  26.8065336  41.9455285 115.8560818
  25.9523624  43.1925013 115.9417019  38.6859865  49.5237179 120.8665734
  39.5551024  49.6977831 120.5052369  38.2066616  50.3431596 120.7441463
  34.6810083  36.7196376 101.1197489  34.6688753  37.6638216 101.2765760
  35.5733505  36.5366522 100.8256951  32.8546045  56.6434280 112.5455167
  33.7573292  56.6757890 112.8621662  32.6283415  55.7134731 112.5601503
  34.6099647  55.3965267 109.2065246  33.6595278  55.3967128 109.0929618
  34.9132133  54.6498001 108.6901281  38.4962202  33.3139153 105.3743426
  37.7294598  32.7597639 105.5200109  38.9072907  33.3861022 106.2357578
  50.3452340  61.2325805 110.2711008  50.9830750  61.1132552 109.5674349
  50.2273183  62.1806649 110.3298961  47.1542047  61.1853233 110.2072533
  46.8160558  61.0694298 109.3193068  48.0231815  60.7844398 110.1873539
  43.0128862  63.0388709 106.1969424  42.4493727  62.9478646 105.4285712
  42.8981257  62.2188614 106.6771917  47.6361830  62.3388085 116.1658739
  47.6250470  61.9440883 115.2939242  47.7982469  61.6054157 116.7592510
  40.5593294  64.5339901 109.0353645  41.3514586  64.1930726 108.6199944
  40.7989944  64.6434876 109.9555798  48.5928421  66.7059677 101.5083889
  47.9416401  67.2913758 101.1217903  49.3872784  67.2365872 101.5678927
  42.5184048  63.7948814 101.9071023  43.2914924  63.2477801 101.7683899
  42.8709447  64.6593064 102.1185485  44.3569091  65.1225197 115.1137923
  44.0658957  66.0270827 114.9984589  44.9926075  65.1641724 115.8281992
  45.2825298  62.5002045 111.7039282  45.8788870  62.2758067 110.9896245
  45.3400269  61.7586791 112.3064730  44.8550326  59.9541480  99.5389473
  45.1075847  59.4323002  98.7772936  43.9174885  59.7907626  99.6416157
  49.8993609  58.9577259 107.3464217  50.6856698  58.5396682 106.9954634
  50.1632313  59.8623351 107.5145865  50.0703686  64.3950109 102.0452873
  49.4349519  64.4684736 102.7573778  49.7401093  64.9843708 101.3671953
  55.3002036  58.8952492 108.2497195  56.0327208  58.3251709 108.4835025
  54.5441392  58.5074092 108.6903701  44.5746615  61.8569586 101.7413848
  44.4582873  61.1814490 102.4094933  44.6848875  61.3701960 100.9246001
  46.9178156  61.3179733 105.4460537  46.5536363  60.7910354 106.1573459
  47.7745272  60.9278203 105.2727023  52.8227456  52.6074066 112.7091804
  52.4910781  53.4769477 112.4853019  52.2273070  52.2910350 113.3885834
  49.3158976  64.8086612 112.1087716  49.0159699  65.7111651 112.0003524
  48.9710035  64.5418795 112.9608869  42.7671457  61.2600409 108.1424421
  41.8421954  61.1276623 108.3502113  43.0155871  62.0394628 108.6394363
  52.7156120  57.3269152 109.7885154  51.8072997  57.2584561 109.4943915
  52.6643715  57.8041097 110.6166979  46.5372864  58.8027291 101.4268553
  46.4172489  59.2484341 102.2654033  45.8425452  59.1512608 100.8682091
  40.1280268  60.9033682 108.9768210  40.2572650  61.1568161 109.8907622
  39.4477720  61.4961390 108.6572865  44.2979756  71.5730932 105.0758684
  44.2203785  72.5238758 105.1547165  43.6941399  71.2276805 105.7333610
  46.7896985  58.7458798 117.7320051  46.0130319  59.3052718 117.7222916
  47.4287548  59.2315581 118.2534921  54.5817766  55.5285591 111.5663028
  53.9392146  55.8218124 110.9202822  54.0772695  55.4138511 112.3716224
  52.2357930  59.2748764 102.2548887  53.1475786  59.5076151 102.0796584
  51.7267577  59.8585808 101.6923965  45.0443358  61.5544251 117.2938018
  45.7858042  62.0929295 117.0172842  44.3380343  62.1810540 117.4509570
  50.5198697  63.6973392 115.8910179  50.9282053  63.2555802 115.1464812
  49.7975959  63.1226019 116.1444372  46.8729767  58.6345998 113.2643736
  47.7190963  59.0585412 113.4078385  46.8128405  57.9779623 113.9582300
  50.8427512  64.2574582 109.6462468  50.2136374  64.4220296 108.9438536
  50.4553174  64.6716192 110.4173432  54.7216744  65.1929020 107.0006832
  54.0367782  65.5727922 106.4503865  54.8060593  65.8024347 107.7338780
  50.0229213  56.2950367 114.9224910  49.7790145  57.0492427 114.3859186
  50.2989143  56.6735714 115.7572157  51.9767675  62.8388979 113.6002176
  52.1884571  63.4820739 112.9236557  51.9297424  62.0051296 113.1324106
  49.5793904  55.4506800 110.5038748  48.7178383  55.7488053 110.7955485
  49.6056339  55.6677199 109.5719780  46.3955474  63.9948990 106.9112553
  46.8593819  64.2736693 106.1217176  46.1312272  63.0932435 106.7285644
  43.2879555  63.5420472 109.8492317  43.8580912  63.9707740 109.2109801
  43.8787667  63.2603057 110.5476502  45.3324360  60.1172143 103.7202119
  46.0348403  60.5693186 104.1876045  45.0004988  59.4755962 104.3482012
  43.7804721  58.7083899 118.0953328  43.1503382  59.3900180 118.3288725
  43.6740809  58.5966981 117.1506466  39.0749694  58.3755695 109.0219252
  38.2848748  58.6313224 108.5459363  39.5660941  59.1904033 109.1271293
  53.0913503  65.7160935 111.7724533  53.9130947  65.3141122 111.4907215
  53.0875906  65.6129169 112.7240649  41.0264439  58.7400275 105.9802729
  40.2295603  58.8518969 106.4986225  40.7990031  59.0786927 105.1143619
  46.8570107  65.2644978 113.9285243  46.9214539  65.7265385 114.7643415
  46.1481031  64.6342343 114.0567553  37.3587397  58.6286186 111.4534243
  37.6095435  59.5133196 111.7191819  37.8946945  58.4490787 110.6809335
  61.1819496  62.0599683 108.1209504  60.4283205  61.4907081 107.9653509
  61.3167038  62.0262348 109.0680139  46.5718125  66.9313085 103.7964224
  46.4363799  67.7764621 104.2249072  47.1127937  67.1332363 103.0330158
  43.0585464  53.0104665 120.4578579  42.6652410  52.4570864 121.1326223
  43.8751605  53.3215244 120.8485097  40.0247522  64.4488523 104.3692149
  40.5372043  65.2431774 104.5197714  40.6770235  63.7514814 104.3025750
  41.8342407  67.5654280 106.4514902  42.0109035  68.4872244 106.2635886
  42.6299240  67.2512699 106.8809282  45.9753425  54.4262544 118.0498836
  46.7163139  55.0269697 117.9703298  46.2071348  53.6840182 117.4916878
  41.1194763  59.6118912 116.3277065  41.0048278  58.7104169 116.6284164
  40.2639281  59.8582608 115.9761882  48.1986601  67.5536652 117.9264566
  47.7550455  66.7673030 117.6085470  48.8603815  67.7415802 117.2608457
  42.9573722  69.0832453 112.4525244  43.5081147  68.9549517 111.6802238
  42.1185198  69.3827343 112.1020137  50.2967839  67.8339452 115.9545967
  50.2786314  68.6548333 115.4626236  51.2187759  67.7093527 116.1796108
  46.7540893  65.3483581 116.7969476  47.2869230  64.5871869 116.5668783
  46.2254974  65.0557233 117.5393630  49.9210588  50.4543647 112.3263117
  49.5774858  51.3445289 112.2502228  50.2889551  50.2645305 111.4632702
  37.9896439  62.7777178 105.1451719  38.8271661  63.1874186 104.9285427
  38.1674706  61.8376620 105.1151913  49.8860871  60.4452258 100.8335552
  49.3707494  61.2156863 101.0723940  49.6138179  59.7717395 101.4568614
  47.4707982  55.2901959 105.8920791  46.6149578  54.9008810 105.7126429
  47.8834934  55.3693920 105.0320576  49.0007129  52.8248302 110.2912351
  48.4971924  52.7878438 109.4780156  49.2937735  53.7341045 110.3509007
  45.2450014  52.9087032 109.2978532  46.1103011  52.7129841 108.9384422
  45.3127523  52.6797384 110.2247889  54.8595145  63.1984613 102.7688726
  54.0824588  62.8595773 102.3243888  55.5386626  63.2037236 102.0943691
  49.6747174  58.3179350 102.6595334  49.3697310  58.6325500 103.5105477
  50.6277616  58.3960770 102.7022667  48.1193606  64.4769574 104.3088288
  47.5914967  63.7422333 103.9961525  47.6181109  65.2544250 104.0628256
  53.0986452  62.6718594 109.4255334  52.4410126  63.3617856 109.5135462
  53.9026851  63.0615026 109.7689320  42.8512333  55.1389240 106.6694899
  43.4256085  54.9164422 105.9368092  43.4383316  55.2077935 107.4223500
  51.9091911  61.0262967 107.4759276  52.4223792  61.6592959 107.9780985
  52.5593135  60.4264162 107.1102636  46.2646206  62.2949784  97.3123261
  45.3573268  62.0639038  97.5114410  46.7617238  61.4987403  97.4997242
  49.1714285  71.0047291 100.2319947  48.4975984  71.3078988 100.8404905
  49.5580107  71.8076372  99.8825404  48.3872742  58.5012423 109.7217616
  47.4695303  58.7227370 109.5639304  48.8032885  58.5758733 108.8629323
  49.1707789  59.9003838 104.8520296  49.9179608  60.4125235 104.5427418
  49.4399379  59.5787891 105.7124690  47.4434439  62.3962379 101.8347251
  46.5345659  62.1121412 101.9319720  47.4729523  62.8161457 100.9750558
  52.6753707  66.0068968 105.6038418  52.2216034  65.1659878 105.6603609
  52.0447674  66.6430367 105.9413198  51.6186626  56.9360954 106.8339086
  50.8809383  56.4238341 107.1649328  51.8713400  56.4961336 106.0222363
  51.1186646  67.8445465 106.5388236  51.4109621  68.4050522 105.8200602
  51.6285267  68.1374026 107.2941395  51.7198254  49.7137206 107.4280855
  52.0257131  48.8534570 107.1406770  52.4450859  50.3054827 107.2279849
  38.0122610  60.1167893 105.8162453  37.8147010  59.5237254 105.0913519
  37.4569274  59.8120103 106.5338392  45.9919334  60.0091000 107.9357046
  46.0467943  59.0564836 107.8599523  45.1810536  60.1650439 108.4198344
  47.1410527  63.9371123  99.1735329  46.7029957  63.2206982  98.7140967
  47.8820968  64.1647237  98.6120421  43.9311693  58.6268059 105.6947425
  43.1179559  58.9262230 106.1012617  44.4270688  58.2323748 106.4121907
  46.0820271  68.6225816 107.6281690  46.0396450  68.8486663 106.6990222
  46.9982970  68.3889191 107.7767491  49.5285905  59.0909884 114.5262319
  49.8835293  59.3181357 115.3856785  50.1758036  59.4228261 113.9039574
  55.2583642  62.2128320 105.2311648  55.1201541  62.4029916 104.3032837
  54.9019861  62.9747702 105.6879699  43.4225768  56.1986415 111.3108660
  44.0625148  56.0575174 110.6131623  42.5903299  55.9120928 110.9347262
  55.2853022  64.2804847 110.2422919  55.7189528  64.1880136 111.0905973
  55.9984602  64.2562347 109.6042935  44.1986072  65.4988845 107.4243652
  44.9926671  65.0039165 107.2226227  43.4877764  64.9706708 107.0611358
  49.0180917  67.8806941 111.7756020  49.0717939  68.4497877 112.5433736
  48.1495698  68.0508826 111.4110057  40.5068836  59.6431927 103.5003405
  39.5766424  59.5816382 103.7173367  40.6026308  59.1207880 102.7040046
  40.4254385  56.1686740 106.0881647  40.6861202  57.0832073 105.9790807
  41.2471557  55.7011182 106.2378259  41.8979310  57.5824497 113.2580471
  42.5702363  57.3741859 112.6093120  41.0709096  57.3846583 112.8185703
  56.1468571  64.3228547 112.7755805  56.3404461  65.2274358 113.0215080
  56.0469189  63.8635966 113.6094390  47.8004882  54.2086438 115.2746132
  47.1532797  54.9076388 115.1810608  48.5705897  54.6422582 115.6422380
  51.2083680  64.4735290 118.3496685  51.0569186  64.2445842 117.4326769
  51.1988359  65.4305891 118.3628030  47.9769016  62.0467203 113.3342952
  48.9061076  62.1978362 113.1611919  47.5560046  62.1351224 112.4791598
  46.7757348  66.0717867 111.1041489  46.6368434  65.7036652 111.9767427
  45.9871944  66.5865507 110.9325447  47.3705500  71.1726964 102.4467026
  47.5457256  70.7015007 103.2612649  46.6838288  71.7992730 102.6748287
  48.3262563  65.4499470 108.4930327  47.9912396  65.4100240 109.3887977
  47.8266509  64.7844186 108.0200737  42.3006807  60.8567100 114.0182908
  42.1626605  60.1247339 114.6194447  43.2111731  60.7676000 113.7367096
  51.2621755  62.7955504  98.7667387  50.6450926  62.0702332  98.6700439
  50.7938243  63.5564865  98.4234461  44.9289108  60.5687059 113.5066588
  45.6388726  59.9280251 113.4653206  44.8858416  60.8199954 114.4292769
  52.9175887  67.5054413 116.4273167  52.8588433  66.8213633 115.7603750
  53.3195405  68.2473403 115.9753793  43.6418042  57.5552277 115.3262227
  43.1055399  57.1043016 115.9783824  43.0534750  57.6898186 114.5832692
  41.9366585  74.3216326 109.2206886  42.1763184  74.9534851 109.8985905
  41.0935782  73.9704366 109.5072245  52.9193294  65.4693997 114.6587147
  52.0320073  65.1319918 114.7813546  53.4891845  64.7377028 114.8955912
  34.5722441  61.8018088 107.9830198  35.2593481  61.4879818 107.3951214
  34.4170570  62.7059453 107.7097450  39.3757163  56.6908285 112.4115222
  39.2915352  56.0833954 111.6765632  38.5539869  57.1817303 112.4124718
  46.4494447  70.1295449 111.6248390  46.3764619  70.9350420 112.1367695
  46.0071840  70.3287415 110.7996411  46.2384227  69.3667219 105.1351212
  45.4551749  69.9088899 105.2289436  46.9376972  69.8841199 105.5345453
  49.5480877  55.1761848 107.7785417  50.0449576  54.4231811 107.4586487
  48.7767858  55.2126165 107.2128626  57.4010634  60.8802214 109.4203708
  57.3900511  61.7626929 109.0497642  56.5328014  60.5273765 109.2258246
  48.9093131  70.0282283 113.7806549  49.6221103  70.6629748 113.7082450
  48.4183159  70.1246149 112.9646551  50.6310658  63.9333536 105.3523840
  49.6966936  64.0534998 105.1828545  50.8087326  63.0306002 105.0883850
  46.1315846  57.3179231 107.5057102  45.7613633  56.7650272 108.1938007
  46.6274938  56.7137365 106.9532102  54.0183209  59.7750855 105.8873875
  54.4843661  60.6078846 105.8134177  54.4690709  59.3095836 106.5919133
  43.9605044  67.7776726 114.6012120  44.6614504  68.4113209 114.7541514
  43.4900159  68.1191458 113.8407759  52.0859440  66.1194676 102.8860027
  52.3619284  66.0051271 103.7953901  51.2163939  65.7212161 102.8472200
  51.9899872  52.1431442 109.9264776  51.0762952  52.3735669 110.0946983
  52.4192973  52.2269886 110.7778808  51.7606330  60.3321334 112.4264670
  51.1077780  60.5797241 111.7717123  52.1386710  59.5185472 112.0927147
  48.7213504  70.3681027 106.5292840  48.9035899  69.5502683 106.9920593
  49.5446490  70.5848719 106.0917730  49.0555670  69.2949212 103.7907889
  49.5843436  68.7841667 103.1778051  49.3183889  68.9791742 104.6553422
  47.8093903  61.0741145 118.9130707  47.1334540  60.9735274 119.5833082
  48.6321537  60.9180359 119.3766704  39.5572762  67.3113081 111.5343222
  40.1426199  66.5656769 111.6671126  39.3597601  67.6217038 112.4179886
  42.4111418  70.3464329 106.5505665  41.7421793  70.8310456 106.0669705
  42.2724287  70.5933549 107.4649043  34.1490417  59.8818682 110.2547665
  34.1874517  59.3482272 111.0484783  33.6430710  59.3553887 109.6358643
  46.5516686  72.3808072 113.1488323  47.1034994  72.5439694 113.9137408
  46.8922880  72.9712510 112.4768348  41.5281179  54.7283222 113.7510208
  41.5922506  55.5898053 113.3387605  41.4648300  54.1157224 113.0182566
  41.0033452  56.8006355 117.3983242  41.6305491  56.4183432 118.0120766
  40.1461371  56.5820557 117.7638934  51.4027560  67.2069330 119.0036977
  51.9467464  67.8199288 118.5091932  50.8214405  67.7648908 119.5203990
  37.7798995  58.6082784 103.3301597  38.0752436  57.6993462 103.2768650
  36.8787030  58.5870523 103.0082599  49.6885073  70.3290048 110.1352005
  49.5636213  69.5279788 109.6262951  50.3464165  70.8236241 109.6465975
  41.3093242  56.6838780 109.3129145  40.5879827  57.2974748 109.1736619
  42.0986497  57.2196545 109.2345791  51.7519982  68.1299068 111.7631555
  50.8050317  68.0104419 111.6909882  52.1002755  67.2421566 111.8457817
  44.1119555  54.0193207 115.5869797  44.6353957  54.2655503 116.3496106
  43.8931888  54.8513242 115.1672934  48.7566415  67.9251784 107.9635907
  48.6091378  66.9968492 108.1443477  49.5819909  67.9471875 107.4792983
  42.6228659  56.5769851 103.8216400  42.9624732  57.1055772 103.0995008
  43.0700780  56.9150257 104.5974966  52.3600537  68.7480343 109.0500780
  53.2847084  68.5423204 108.9125231  52.1915840  68.4996744 109.9590122
  45.3172100  54.9606902 113.2719468  44.9768921  54.1614715 113.6740148
  44.6111106  55.2608613 112.6996301  45.9688572  52.0456214 111.7246791
  46.7914641  51.5716693 111.6025681  46.2126636  52.8246698 112.2245477
  43.4927151  58.7375335 109.5338769  43.3471732  59.0515638 110.4263051
  43.0152354  59.3560235 108.9809668  45.3523534  55.7277883 109.5819659
  45.3385102  54.8318976 109.2451957  46.0695962  55.7348547 110.2157945
  47.2049664  56.1615223 111.6272786  46.9467442  57.0832294 111.6257117
  46.6734705  55.7645658 112.3173250  52.1495853  69.2666010 104.4062872
  52.3232731  68.7012433 103.6536724  52.6424744  70.0666905 104.2242362
  37.9672813  61.2780679 112.4726430  37.4226281  62.0540487 112.6046705
  38.8452163  61.6251484 112.3145552  47.6251620  52.2947174 107.9873949
  47.6473317  52.3586507 107.0325928  48.0419679  51.4551682 108.1814455
  58.0035244  62.0302433 106.0253171  58.4466390  61.2809758 105.6272295
  57.1261755  62.0212570 105.6426903  53.1371026  68.5832775 101.5059770
  53.8321930  69.2039467 101.7247085  53.4794176  67.7328126 101.7812148
  38.7538835  60.4050576 115.3656587  38.0120571  60.5533211 115.9521218
  38.4331579  60.6658841 114.5023337  55.0362449  66.0332480 103.0347101
  55.5613773  66.3719753 102.3096421  54.9484801  65.0979496 102.8510235
  46.6982497  69.9466554 115.1636977  47.0069624  69.7015701 116.0359677
  47.4957979  70.1513192 114.6755848  46.7203110  72.1004464 107.3942354
  46.2808100  71.6080842 108.0875211  47.4711226  71.5577431 107.1534429
  39.1995448  68.2916004 107.3966982  40.0253468  67.9919776 107.0165625
  38.8489500  67.5223627 107.8456771  44.1676982  67.6442473 109.4664656
  43.5456991  66.9813178 109.1666883  44.8381849  67.6703605 108.7838303
  37.4004054  66.2102331 108.3555916  36.5635962  65.7824505 108.1739917
  37.3727699  66.4034774 109.2926707  44.2401509  56.1224261 119.0597162
  44.2889665  56.9986383 118.6774931  44.7824023  55.5801654 118.4868805
  54.7256355  66.6665384 118.3398299  53.9351899  66.6489523 117.8002798
  54.4889709  67.2053678 119.0947335  54.8454230  63.5157850 115.6531027
  54.8952235  63.3507858 116.5946550  54.7368153  62.6485109 115.2628908
  43.7290489  66.1946396 102.9423116  43.8778609  66.8781860 102.2889789
  44.5356932  66.1751486 103.4572572  52.1357992  59.4988778 116.9690334
  53.0367855  59.3595243 116.6774332  52.2105967  59.6643233 117.9088511
  46.4700798  56.8755633 115.8143520  45.6004107  57.1689199 115.5426109
  46.7060278  57.4596078 116.5350784  56.3472427  65.9354792 115.8973049
  56.0557235  66.2984772 116.7336510  55.7344558  65.2221800 115.7186381
  57.5468109  63.5007672 108.4175619  58.3815000  63.9397476 108.5813179
  57.6827238  63.0246325 107.5983865  54.5959615  61.0587406 114.3653107
  55.0713737  61.2515053 113.5571958  53.6725180  61.1146592 114.1196490
  41.4843122  62.2211574 103.9484185  41.2389163  61.3173904 104.1464395
  41.6539036  62.2228724 103.0063663  49.1739831  53.0935250 113.3308941
  49.6921775  53.8296277 113.0055429  48.8194964  53.3999243 114.1655700
  49.4252426  49.5135533 108.8509837  49.7054179  48.8458722 109.4770264
  50.2103033  49.7064628 108.3384501  47.2285894  68.6894526 100.4134864
  46.6559861  69.3084714  99.9605335  47.8018688  69.2393888 100.9474785
  53.2961284  57.9353167 112.5981412  54.2478707  58.0351264 112.6193636
  53.1264734  57.1431435 113.1079497  51.3175663  55.0208750 112.7840813
  50.7225596  55.3013762 112.0887302  51.0325360  55.5102651 113.5557554
  50.4483154  68.9731677 101.5443446  51.3813827  68.9077238 101.7476321
  50.3606367  69.8087943 101.0857978  53.0771171  68.2897547  98.5047393
  52.9984802  67.9557411  99.3983151  53.8980837  68.7819315  98.5038866
  55.7749362  61.1559286 111.7123712  55.7425682  60.2175287 111.8983396
  56.3849985  61.2343323 110.9789537  55.9243850  57.9470330 111.7581995
  55.4082899  57.1628786 111.5711924  56.8083799  57.6189046 111.9228515
  53.5854577  51.6911345 107.7177808  53.3879398  51.3826433 108.6021140
  54.1954283  52.4172984 107.8475738  61.5925912  62.2175293 110.8529749
  62.3229300  61.9560581 111.4137452  60.9832857  61.4804015 110.8931817
  59.6741209  60.3583156 111.4504200  58.9474372  60.2239121 110.8420692
  59.2588496  60.6659984 112.2560918  47.4971385  64.0773085 119.2151573
  48.4174395  64.2551684 119.4091620  47.4620968  63.1329131 119.0631272
  36.7153550  59.2711679 108.1404848  36.3956334  58.4176987 107.8479222
  36.1686978  59.4860257 108.8962815  40.4933458  61.9874120 111.8574354
  40.7119467  62.9191228 111.8762388  40.9059231  61.6282094 112.6429158
  45.3661323  57.5607326 121.2477103  45.2658050  58.5101683 121.1789194
  45.1482865  57.2325565 120.3753173  36.5841810  62.8914590 110.1097969
  35.8905282  62.4768543 109.5967924  37.3314801  62.9335127 109.5131388
  52.7207031  53.6820777 104.9753003  52.1405700  54.3405581 104.5931056
  52.4542964  52.8598122 104.5640421  51.1710597  53.0825835 107.1774324
  51.6710376  53.1942369 106.3688643  51.8146205  52.7786888 107.8175132
  45.2292593  60.9904465 120.0642165  44.7459675  61.7904825 120.2706054
  45.3153532  61.0012409 119.1109609  38.4978553  62.8232844 107.9863984
  38.4749241  62.9220532 107.0345867  38.8079189  63.6697995 108.3081150
  41.1565931  64.8808999 112.1010599  42.1109184  64.8492942 112.0340530
  40.9578454  64.4199623 112.9160824  41.7465313  63.4510115 114.6681396
  42.5658202  63.9454194 114.6916233  42.0202120  62.5342083 114.6398964
  51.5031909  55.8420868 104.0309352  50.6157764  56.1270518 103.8129546
  51.9185898  55.6814631 103.1836629  54.8546445  55.8667389 107.7463691
  55.6306835  56.3563841 108.0188308  54.1294579  56.2925443 108.2035560
  57.2919004  56.5795008 108.8037632  57.8863494  56.3390744 108.0930940
  57.3645587  55.8602138 109.4311168  39.5116159  70.4228619 109.1180796
  39.3770627  69.6629020 108.5518794  39.0948222  71.1469519 108.6509585
  50.6475122  65.6065542  98.1257372  51.3510972  65.8115545  98.7415027
  49.9237771  66.1742304  98.3906455  51.4772933  61.3575404 104.2459642
  51.4208134  61.8143955 103.4067274  52.0301275  60.5966088 104.0682485
  55.2877739  57.1465135 105.0709761  55.0314673  56.7461771 105.9017969
  54.6630607  57.8608929 104.9459901  59.5990076  59.8861209 107.5781053
  59.0389634  59.9554398 108.3512615  58.9933580  59.7102193 106.8580549
  42.6685285  71.3197936 109.3299239  42.5517669  72.2643368 109.2277929
  41.8477731  71.0171497 109.7185038  52.5561820  66.0448072 100.1755832
  53.3907424  65.6129270  99.9933307  52.3946163  65.8730085 101.1032726
  52.2107712  62.5480185 101.5412171  52.1556516  62.3824456 100.6000615
  51.5853767  63.2556218 101.6974361  37.0000227  57.7848249 115.3673593
  37.6459091  57.2747203 115.8560818  36.7917378  58.5216931 115.9417019
  49.5253619  64.8529097 120.8665734  50.3944779  65.0269749 120.5052369
  49.0460371  65.6723513 120.7441463  43.6939799  71.9726198 112.5455167
  44.5967046  72.0049808 112.8621662  43.4677169  71.0426649 112.5601503
  45.4493401  70.7257184 109.2065246  44.4989032  70.7259046 109.0929618
  45.7525887  69.9789919 108.6901281  49.3355957  48.6431070 105.3743426
  48.5688353  48.0889557 105.5200109  49.7466662  48.7152939 106.2357578
  41.3397718  54.9315866 119.4648607  42.2029179  54.5752671 119.6751932
  40.7663129  54.5929761 120.1524012  61.1846095  76.5617723 110.2711008
  61.8224505  76.4424470 109.5674349  61.0666938  77.5098567 110.3298961
  57.9935801  76.5145151 110.2072533  57.6554313  76.3986215 109.3193068
  58.8625569  76.1136316 110.1873539  53.8522617  78.3680627 106.1969424
  53.2887482  78.2770564 105.4285712  53.7375012  77.5480532 106.6771917
  58.4755584  77.6680002 116.1658739  58.4644225  77.2732801 115.2939242
  58.6376224  76.9346075 116.7592510  51.3987049  79.8631819 109.0353645
  52.1908341  79.5222643 108.6199944  51.6383699  79.9726794 109.9555798
  59.4322176  82.0351595 101.5083889  58.7810155  82.6205675 101.1217903
  60.2266538  82.5657790 101.5678927  53.3577803  79.1240732 101.9071023
  54.1308679  78.5769719 101.7683899  53.7103202  79.9884981 102.1185485
  55.1962845  80.4517114 115.1137923  54.9052711  81.3562745 114.9984589
  55.8319830  80.4933642 115.8281992  56.1219052  77.8293963 111.7039282
  56.7182624  77.6049985 110.9896245  56.1794024  77.0878708 112.3064730
  55.6944081  75.2833398  99.5389473  55.9469601  74.7614919  98.7772936
  54.7568640  75.1199544  99.6416157  60.7387363  74.2869176 107.3464217
  61.5250453  73.8688600 106.9954634  61.0026068  75.1915269 107.5145865
  60.9097441  79.7242027 102.0452873  60.2743274  79.7976653 102.7573778
  60.5794847  80.3135626 101.3671953  66.1395790  74.2244410 108.2497195
  66.8720962  73.6543626 108.4835025  65.3835146  73.8366010 108.6903701
  55.4140369  77.1861504 101.7413848  55.2976627  76.5106407 102.4094933
  55.5242629  76.6993878 100.9246001  57.7571910  76.6471651 105.4460537
  57.3930117  76.1202272 106.1573459  58.6139026  76.2570120 105.2727023
  63.6621211  67.9365984 112.7091804  63.3304536  68.8061395 112.4853019
  63.0666824  67.6202268 113.3885834  57.3977397  71.6761551 100.4421886
  57.5651799  72.5441787 100.8092357  57.2074566  71.8388833  99.5183175
  60.1552730  80.1378530 112.1087716  59.8553453  81.0403569 112.0003524
  59.8103790  79.8710713 112.9608869  53.6065212  76.5892327 108.1424421
  52.6815708  76.4568541 108.3502113  53.8549625  77.3686546 108.6394363
  63.5549874  72.6561070 109.7885154  62.6466751  72.5876478 109.4943915
  63.5037470  73.1333015 110.6166979  57.3766618  74.1319208 101.4268553
  57.2566243  74.5776259 102.2654033  56.6819206  74.4804526 100.8682091
  50.9674023  76.2325600 108.9768210  51.0966404  76.4860079 109.8907622
  50.2871474  76.8253308 108.6572865  55.1373510  86.9022850 105.0758684
  55.0597540  87.8530675 105.1547165  54.5335154  86.5568723 105.7333610
  57.6290740  74.0750716 117.7320051  56.8524074  74.6344636 117.7222916
  58.2681303  74.5607499 118.2534921  65.4211521  70.8577508 111.5663028
  64.7785901  71.1510042 110.9202822  64.9166449  70.7430429 112.3716224
  63.0751684  74.6040682 102.2548887  63.9869540  74.8368068 102.0796584
  62.5661331  75.1877726 101.6923965  55.8837112  76.8836169 117.2938018
  56.6251797  77.4221213 117.0172842  55.1774098  77.5102458 117.4509570
  61.3592452  79.0265309 115.8910179  61.7675808  78.5847720 115.1464812
  60.6369713  78.4517937 116.1444372  57.7123522  73.9637916 113.2643736
  58.5584717  74.3877330 113.4078385  57.6522160  73.3071540 113.9582300
  61.6821266  79.5866500 109.6462468  61.0530129  79.7512214 108.9438536
  61.2946929  80.0008110 110.4173432  65.5610498  80.5220938 107.0006832
  64.8761537  80.9019839 106.4503865  65.6454348  81.1316264 107.7338780
  60.8622967  71.6242284 114.9224910  60.6183899  72.3784345 114.3859186
  61.1382898  72.0027632 115.7572157  62.8161430  78.1680897 113.6002176
  63.0278325  78.8112657 112.9236557  62.7691178  77.3343213 113.1324106
  60.4187659  70.7798718 110.5038748  59.5572138  71.0779971 110.7955485
  60.4450094  70.9969116 109.5719780  57.2349228  79.3240908 106.9112553
  57.6987574  79.6028611 106.1217176  56.9706026  78.4224353 106.7285644
  54.1273309  78.8712390 109.8492317  54.6974666  79.2999658 109.2109801
  54.7181421  78.5894974 110.5476502  56.1718114  75.4464060 103.7202119
  56.8742158  75.8985104 104.1876045  55.8398743  74.8047879 104.3482012
  54.6198476  74.0375817 118.0953328  53.9897137  74.7192098 118.3288725
  54.5134564  73.9258899 117.1506466  49.9143448  73.7047613 109.0219252
  49.1242502  73.9605142 108.5459363  50.4054696  74.5195951 109.1271293
  63.9307258  81.0452852 111.7724533  64.7524702  80.6433040 111.4907215
  63.9269661  80.9421086 112.7240649  51.8658194  74.0692192 105.9802729
  51.0689357  74.1810887 106.4986225  51.6383786  74.4078845 105.1143619
  57.6963861  80.5936896 113.9285243  57.7608294  81.0557303 114.7643415
  56.9874785  79.9634260 114.0567553  48.1981151  73.9578104 111.4534243
  48.4489190  74.8425113 111.7191819  48.7340700  73.7782705 110.6809335
  72.0213251  77.3891601 108.1209504  71.2676959  76.8198999 107.9653509
  72.1560792  77.3554265 109.0680139  57.4111879  82.2605003 103.7964224
  57.2757554  83.1056539 104.2249072  57.9521692  82.4624281 103.0330158
  53.8979219  68.3396583 120.4578579  53.5046164  67.7862781 121.1326223
  54.7145359  68.6507161 120.8485097  50.8641276  79.7780441 104.3692149
  51.3765797  80.5723691 104.5197714  51.5163989  79.0806732 104.3025750
  52.6736161  82.8946197 106.4514902  52.8502789  83.8164162 106.2635886
  53.4692995  82.5804617 106.8809282  56.8147180  69.7554462 118.0498836
  57.5556893  70.3561615 117.9703298  57.0465102  69.0132100 117.4916878
  51.9588518  74.9410829 116.3277065  51.8442033  74.0396087 116.6284164
  51.1033035  75.1874526 115.9761882  59.0380355  82.8828570 117.9264566
  58.5944210  82.0964948 117.6085470  59.6997569  83.0707720 117.2608457
  53.7967477  84.4124371 112.4525244  54.3474902  84.2841435 111.6802238
  52.9578952  84.7119260 112.1020137  61.1361593  83.1631370 115.9545967
  61.1180069  83.9840251 115.4626236  62.0581514  83.0385445 116.1796108
  57.5934648  80.6775499 116.7969476  58.1262984  79.9163787 116.5668783
  57.0648729  80.3849151 117.5393630  60.7604343  65.7835565 112.3263117
  60.4168612  66.6737207 112.2502228  61.1283305  65.5937223 111.4632702
  48.8290193  78.1069095 105.1451719  49.6665415  78.5166104 104.9285427
  49.0068461  77.1668538 105.1151913  60.7254625  75.7744176 100.8335552
  60.2101249  76.5448781 101.0723940  60.4531934  75.1009312 101.4568614
  58.3101736  70.6193877 105.8920791  57.4543333  70.2300727 105.7126429
  58.7228688  70.6985838 105.0320576  59.8400883  68.1540220 110.2912351
  59.3365679  68.1170355 109.4780156  60.1331490  69.0632963 110.3509007
  56.0843769  68.2378950 109.2978532  56.9496766  68.0421759 108.9384422
  56.1521278  68.0089302 110.2247889  65.6988899  78.5276531 102.7688726
  64.9218342  78.1887690 102.3243888  66.3780380  78.5329154 102.0943691
  60.5140928  73.6471268 102.6595334  60.2091064  73.9617417 103.5105477
  61.4671371  73.7252688 102.7022667  58.9587360  79.8061491 104.3088288
  58.4308722  79.0714251 103.9961525  58.4574863  80.5836168 104.0628256
  63.9380206  78.0010512 109.4255334  63.2803881  78.6909773 109.5135462
  64.7420606  78.3906944 109.7689320  53.6906088  70.4681158 106.6694899
  54.2649840  70.2456339 105.9368092  54.2777070  70.5369852 107.4223500
  62.7485665  76.3554885 107.4759276  63.2617547  76.9884876 107.9780985
  63.3986889  75.7556080 107.1102636  54.0175675  72.4985619 100.6890784
  53.1812987  72.8360305 101.0100059  53.8780445  72.3634599  99.7517921
  55.9928756  67.3422407 105.3969968  55.3393168  67.0271424 104.7726583
  55.9509230  66.7198147 106.1229791  57.1039961  77.6241702  97.3123261
  56.1967022  77.3930955  97.5114410  57.6010993  76.8279321  97.4997242
  60.0108039  86.3339209 100.2319947  59.3369738  86.6370906 100.8404905
  60.3973861  87.1368289  99.8825404  59.2266496  73.8304340 109.7217616
  58.3089057  74.0519287 109.5639304  59.6426640  73.9050651 108.8629323
  60.0101544  75.2295756 104.8520296  60.7573363  75.7417153 104.5427418
  60.2793133  74.9079809 105.7124690  58.2828194  77.7254297 101.8347251
  57.3739413  77.4413329 101.9319720  58.3123278  78.1453375 100.9750558
  63.5147461  81.3360886 105.6038418  63.0609788  80.4951796 105.6603609
  62.8841428  81.9722284 105.9413198  62.4580381  72.2652872 106.8339086
  61.7203138  71.7530258 107.1649328  62.7107154  71.8253254 106.0222363
  61.9580401  83.1737383 106.5388236  62.2503375  83.7342440 105.8200602
  62.4679021  83.4665944 107.2941395  62.5592008  65.0429124 107.4280855
  62.8650885  64.1826488 107.1406770  63.2844613  65.6346744 107.2279849
  48.8516364  75.4459811 105.8162453  48.6540764  74.8529171 105.0913519
  48.2963028  75.1412021 106.5338392  56.8313088  75.3382917 107.9357046
  56.8861698  74.3856754 107.8599523  56.0204290  75.4942356 108.4198344
  57.9804282  79.2663040  99.1735329  57.5423712  78.5498899  98.7140967
  58.7214723  79.4939155  98.6120421  54.7705448  73.9559977 105.6947425
  53.9573313  74.2554147 106.1012617  55.2664442  73.5615666 106.4121907
  56.9214026  83.9517734 107.6281690  56.8790205  84.1778580 106.6990222
  57.8376725  83.7181108 107.7767491  60.3679660  74.4201801 114.5262319
  60.7229047  74.6473275 115.3856785  61.0151791  74.7520178 113.9039574
  66.0977397  77.5420237 105.2311648  65.9595295  77.7321833 104.3032837
  65.7413615  78.3039620 105.6879699  54.2619523  71.5278332 111.3108660
  54.9018902  71.3867092 110.6131623  53.4297053  71.2412846 110.9347262
  66.1246776  79.6096764 110.2422919  66.5583283  79.5172053 111.0905973
  66.8378357  79.5854265 109.6042935  55.0379827  80.8280763 107.4243652
  55.8320425  80.3331083 107.2226227  54.3271519  80.2998626 107.0611358
  59.8574671  83.2098858 111.7756020  59.9111693  83.7789795 112.5433736
  58.9889452  83.3800743 111.4110057  51.3462590  74.9723845 103.5003405
  50.4160178  74.9108300 103.7173367  51.4420062  74.4499797 102.7040046
  51.2648139  71.4978657 106.0881647  51.5254956  72.4123991 105.9790807
  52.0865311  71.0303100 106.2378259  52.7373064  72.9116415 113.2580471
  53.4096118  72.7033777 112.6093120  51.9102851  72.7138501 112.8185703
  66.9862326  79.6520465 112.7755805  67.1798216  80.5566275 113.0215080
  66.8862944  79.1927884 113.6094390  58.6398636  69.5378356 115.2746132
  57.9926551  70.2368305 115.1810608  59.4099652  69.9714499 115.6422380
  62.0477434  79.8027208 118.3496685  61.8962941  79.5737759 117.4326769
  62.0382114  80.7597809 118.3628030  58.8162771  77.3759120 113.3342952
  59.7454831  77.5270280 113.1611919  58.3953801  77.4643141 112.4791598
  57.6151103  81.4009785 111.1041489  57.4762188  81.0328569 111.9767427
  56.8265699  81.9157424 110.9325447  58.2099255  86.5018881 102.4467026
  58.3851010  86.0306925 103.2612649  57.5232043  87.1284648 102.6748287
  59.1656318  80.7791388 108.4930327  58.8306150  80.7392158 109.3887977
  58.6660263  80.1136103 108.0200737  53.1400562  76.1859018 114.0182908
  53.0020360  75.4539256 114.6194447  54.0505485  76.0967918 113.7367096
  62.1015509  78.1247422  98.7667387  61.4844680  77.3994250  98.6700439
  61.6331998  78.8856782  98.4234461  55.7682862  75.8978977 113.5066588
  56.4782481  75.2572169 113.4653206  55.7252171  76.1491872 114.4292769
  63.7569641  82.8346330 116.4273167  63.6982187  82.1505550 115.7603750
  64.1589159  83.5765320 115.9753793  54.4811796  72.8844195 115.3262227
  53.9449153  72.4334933 115.9783824  53.8928505  73.0190104 114.5832692
  52.7760340  89.6508244 109.2206886  53.0156938  90.2826768 109.8985905
  51.9329536  89.2996284 109.5072245  53.8914055  72.3432846  97.8888691
  53.0143522  72.2221647  97.5250938  54.3671808  71.5518925  97.6367580
  63.7587048  80.7985914 114.6587147  62.8713827  80.4611836 114.7813546
  64.3285599  80.0668945 114.8955912  45.4116195  77.1310006 107.9830198
  46.0987235  76.8171736 107.3951214  45.2564324  78.0351371 107.7097450
  50.2150918  72.0200203 112.4115222  50.1309106  71.4125872 111.6765632
  49.3933624  72.5109221 112.4124718  57.2888202  85.4587367 111.6248390
  57.2158373  86.2642338 112.1367695  56.8465595  85.6579332 110.7996411
  57.0777981  84.6959137 105.1351212  56.2945503  85.2380817 105.2289436
  57.7770726  85.2133116 105.5345453  60.3874631  70.5053766 107.7785417
  60.8843331  69.7523728 107.4586487  59.6161613  70.5418083 107.2128626
  68.2404389  76.2094132 109.4203708  68.2294265  77.0918847 109.0497642
  67.3721768  75.8565682 109.2258246  59.7486885  85.3574201 113.7806549
  60.4614857  85.9921665 113.7082450  59.2576914  85.4538067 112.9646551
  61.4704412  79.2625453 105.3523840  60.5360691  79.3826916 105.1828545
  61.6481081  78.3597920 105.0883850  56.9709600  72.6471149 107.5057102
  56.6007388  72.0942189 108.1938007  57.4668693  72.0429283 106.9532102
  64.8576963  75.1042773 105.8873875  65.3237416  75.9370764 105.8134177
  65.3084464  74.6387754 106.5919133  54.7998799  83.1068644 114.6012120
  55.5008258  83.7405127 114.7541514  54.3293914  83.4483376 113.8407759
  62.9253195  81.4486594 102.8860027  63.2013038  81.3343188 103.7953901
  62.0557693  81.0504079 102.8472200  62.8293626  67.4723360 109.9264776
  61.9156706  67.7027586 110.0946983  63.2586728  67.5561804 110.7778808
  62.6000085  75.6613251 112.4264670  61.9471535  75.9089159 111.7717123
  62.9780465  74.8477390 112.0927147  59.5607259  85.6972945 106.5292840
  59.7429653  84.8794601 106.9920593  60.3840245  85.9140637 106.0917730
  59.8949424  84.6241130 103.7907889  60.4237191  84.1133584 103.1778051
  60.1577644  84.3083660 104.6553422  58.6487658  76.4033063 118.9130707
  57.9728295  76.3027192 119.5833082  59.4715292  76.2472276 119.3766704
  50.3966517  82.6404999 111.5343222  50.9819954  81.8948687 111.6671126
  50.1991355  82.9508956 112.4179886  53.2505172  85.6756246 106.5505665
  52.5815547  86.1602374 106.0669705  53.1118042  85.9225467 107.4649043
  44.9884172  75.2110599 110.2547665  45.0268271  74.6774190 111.0484783
  44.4824464  74.6845805 109.6358643  57.3910441  87.7099990 113.1488323
  57.9428749  87.8731612 113.9137408  57.7316634  88.3004428 112.4768348
  52.3674934  70.0575140 113.7510208  52.4316260  70.9189971 113.3387605
  52.3042054  69.4449141 113.0182566  51.8427206  72.1298272 117.3983242
  52.4699245  71.7475350 118.0120766  50.9855125  71.9112474 117.7638934
  62.2421315  82.5361248 119.0036977  62.7861219  83.1491206 118.5091932
  61.6608160  83.0940826 119.5203990  48.6192749  73.9374701 103.3301597
  48.9146190  73.0285380 103.2768650  47.7180785  73.9162441 103.0082599
  60.5278828  85.6581966 110.1352005  60.4029967  84.8571705 109.6262951
  61.1857919  86.1528159 109.6465975  52.1486996  72.0130698 109.3129145
  51.4273582  72.6266666 109.1736619  52.9380252  72.5488463 109.2345791
  62.5913736  83.4590986 111.7631555  61.6444072  83.3396337 111.6909882
  62.9396509  82.5713484 111.8457817  54.9513310  69.3485125 115.5869797
  55.4747711  69.5947421 116.3496106  54.7325643  70.1805159 115.1672934
  50.3480591  71.6188799 103.4540922  50.0193297  70.7386178 103.2716028
  50.7019961  71.5636468 104.3417311  59.5960170  83.2543702 107.9635907
  59.4485132  82.3260409 108.1443477  60.4213663  83.2763793 107.4792983
  53.4622414  71.9061769 103.8216400  53.8018486  72.4347690 103.0995008
  53.9094534  72.2442175 104.5974966  63.1994291  84.0772261 109.0500780
  64.1240839  83.8715122 108.9125231  63.0309595  83.8288662 109.9590122
  56.1565855  70.2898820 113.2719468  55.8162675  69.4906633 113.6740148
  55.4504861  70.5900530 112.6996301  56.8082327  67.3748132 111.7246791
  57.6308396  66.9008610 111.6025681  57.0520390  68.1538616 112.2245477
  55.4490561  70.4036391 102.0209692  56.1698924  70.7817643 101.5173409
  54.8255865  71.1225267 102.1244670  59.5921684  71.1081539 102.9568025
  59.8085298  71.9906177 102.6556853  59.1115751  70.7167753 102.2273667
  54.3320905  74.0667253 109.5338769  54.1865486  74.3807556 110.4263051
  53.8546109  74.6852153 108.9809668  56.1917288  71.0569801 109.5819659
  56.1778857  70.1610894 109.2451957  56.9089716  71.0640464 110.2157945
  58.0443419  71.4907141 111.6272786  57.7861197  72.4124212 111.6257117
  57.5128459  71.0937575 112.3173250  62.9889608  84.5957928 104.4062872
  63.1626485  84.0304350 103.6536724  63.4818499  85.3958823 104.2242362
  48.8066567  76.6072597 112.4726430  48.2620036  77.3832405 112.6046705
  49.6845917  76.9543402 112.3145552  55.5954184  69.9384181 104.8507229
  55.7170095  69.0100827 105.0498116  55.3056226  69.9522867 103.9385544
  58.4645374  67.6239091 107.9873949  58.4867071  67.6878424 107.0325928
  58.8813433  66.7843600 108.1814455  68.8428999  77.3594351 106.0253171
  69.2860145  76.6101676 105.6272295  67.9655509  77.3504487 105.6426903
  49.5932589  75.7342493 115.3656587  48.8514325  75.8825129 115.9521218
  49.2725334  75.9950759 114.5023337  65.8756203  81.3624398 103.0347101
  66.4007527  81.7011671 102.3096421  65.7878556  80.4271413 102.8510235
  57.5376252  85.2758472 115.1636977  57.8463378  85.0307618 116.0359677
  58.3351734  85.4805110 114.6755848  57.5596864  87.4296381 107.3942354
  57.1201854  86.9372760 108.0875211  58.3104981  86.8869349 107.1534429
  50.0389203  83.6207922 107.3966982  50.8647223  83.3211694 107.0165625
  49.6883255  82.8515545 107.8456771  55.0070736  82.9734390 109.4664656
  54.3850745  82.3105095 109.1666883  55.6775603  82.9995522 108.7838303
  48.2397808  81.5394249 108.3555916  47.4029716  81.1116423 108.1739917
  48.2121453  81.7326692 109.2926707  55.0795264  71.4516178 119.0597162
  55.1283419  72.3278301 118.6774931  55.6217778  70.9093571 118.4868805
  65.5650109  81.9957302 118.3398299  64.7745653  81.9781440 117.8002798
  65.3283464  82.5345595 119.0947335  65.6847984  78.8449768 115.6531027
  65.7345989  78.6799775 116.5946550  65.5761908  77.9777027 115.2628908
  54.5684243  81.5238314 102.9423116  54.7172363  82.2073778 102.2889789
  55.3750687  81.5043404 103.4572572  62.9751747  74.8280696 116.9690334
  63.8761610  74.6887161 116.6774332  63.0499721  74.9935151 117.9088511
  57.3094552  72.2047551 115.8143520  56.4397861  72.4981117 115.5426109
  57.5454032  72.7887996 116.5350784  67.1866181  81.2646709 115.8973049
  66.8950989  81.6276690 116.7336510  66.5738312  80.5513718 115.7186381
  68.3861864  78.8299589 108.4175619  69.2208755  79.2689393 108.5813179
  68.5220992  78.3538242 107.5983865  65.4353369  76.3879324 114.3653107
  65.9107491  76.5806970 113.5571958  64.5118935  76.4438510 114.1196490
  52.3236876  77.5503491 103.9484185  52.0782918  76.6465821 104.1464395
  52.4932791  77.5520642 103.0063663  60.0133586  68.4227168 113.3308941
  60.5315530  69.1588195 113.0055429  59.6588719  68.7291161 114.1655700
  51.5932524  73.2831849 101.4470346  50.9001769  73.3576204 100.7910382
  51.3484275  72.5192193 101.9691863  60.2646180  64.8427450 108.8509837
  60.5447934  64.1750639 109.4770264  61.0496787  65.0356546 108.3384501
  58.0679649  84.0186444 100.4134864  57.4953616  84.6376631  99.9605335
  58.6412442  84.5685806 100.9474785  64.1355038  73.2645084 112.5981412
  65.0872461  73.3643182 112.6193636  63.9658489  72.4723353 113.1079497
  62.1569418  70.3500667 112.7840813  61.5619350  70.6305680 112.0887302
  61.8719115  70.8394568 113.5557554  61.2876908  84.3023594 101.5443446
  62.2207582  84.2369156 101.7476321  61.2000121  85.1379861 101.0857978
  66.6143116  76.4851204 111.7123712  66.5819436  75.5467205 111.8983396
  67.2243740  76.5635241 110.9789537  58.4526447  75.3547257  97.7550916
  59.3985552  75.2253465  97.8239334  58.0740692  74.6161919  98.2320344
  66.7637605  73.2762247 111.7581995  66.2476653  72.4920704 111.5711924
  67.6477553  72.9480964 111.9228515  64.4248332  67.0203263 107.7177808
  64.2273153  66.7118351 108.6021140  65.0348037  67.7464902 107.8475738
  72.4319666  77.5467211 110.8529749  73.1623055  77.2852499 111.4137452
  71.8226612  76.8095933 110.8931817  70.5134963  75.6875073 111.4504200
  69.7868127  75.5531038 110.8420692  70.0982250  75.9951902 112.2560918
  58.3365140  79.4065003 119.2151573  59.2568149  79.5843602 119.4091620
  58.3014723  78.4621048 119.0631272  56.6369364  73.2797233  97.6905801
  55.7300820  72.9830346  97.7668515  56.9145345  72.9827051  96.8240087
  47.5547305  74.6003597 108.1404848  47.2350089  73.7468905 107.8479222
  47.0080733  74.8152175 108.8962815  51.3327212  77.3166038 111.8574354
  51.5513222  78.2483145 111.8762388  51.7452986  76.9574012 112.6429158
  58.2531430  67.8234123 103.8450043  57.4432158  67.4781208 104.2205289
  58.9415847  67.5141667 104.4337654  60.1821978  66.9012170 105.4674339
  60.7353017  67.3207623 106.1264362  60.4192065  65.9747918 105.5097295
  56.2055077  72.8899243 121.2477103  56.1051804  73.8393600 121.1789194
  55.9876620  72.5617482 120.3753173  55.4068149  70.1384168  97.8317780
  56.2687313  70.4639067  98.0913598  55.5918493  69.3515664  97.3190846
  47.4235565  78.2206508 110.1097969  46.7299036  77.8060461 109.5967924
  48.1708556  78.2627045 109.5131388  63.5600785  69.0112695 104.9753003
  62.9799454  69.6697499 104.5931056  63.2936718  68.1890040 104.5640421
  62.0104352  68.4117753 107.1774324  62.5104130  68.5234287 106.3688643
  62.6539960  68.1078805 107.8175132  56.0686348  76.3196382 120.0642165
  55.5853429  77.1196742 120.2706054  56.1547287  76.3304327 119.1109609
  49.3372307  78.1524762 107.9863984  49.3142995  78.2512449 107.0345867
  49.6472944  78.9989913 108.3081150  51.9959685  80.2100917 112.1010599
  52.9502939  80.1784859 112.0340530  51.7972209  79.7491541 112.9160824
  52.5859067  78.7802033 114.6681396  53.4051956  79.2746112 114.6916233
  52.8595875  77.8634001 114.6398964  62.3425663  71.1712785 104.0309352
  61.4551518  71.4562436 103.8129546  62.7579652  71.0106549 103.1836629
  65.6940199  71.1959306 107.7463691  66.4700590  71.6855759 108.0188308
  64.9688334  71.6217360 108.2035560  68.1312758  71.9086926 108.8037632
  68.7257249  71.6682661 108.0930940  68.2039342  71.1894056 109.4311168
  50.3509914  85.7520536 109.1180796  50.2164382  84.9920937 108.5518794
  49.9341976  86.4761436 108.6509585  61.4868877  80.9357460  98.1257372
  62.1904727  81.1407462  98.7415027  60.7631526  81.5034222  98.3906455
  62.3166687  76.6867321 104.2459642  62.2601888  77.1435873 103.4067274
  62.8695030  75.9258006 104.0682485  66.1271493  72.4757053 105.0709761
  65.8708427  72.0753689 105.9017969  65.5024361  73.1900847 104.9459901
  70.4383831  75.2153126 107.5781053  69.8783389  75.2846316 108.3512615
  69.8327334  75.0394111 106.8580549  53.5079040  86.6489853 109.3299239
  53.3911424  87.5935286 109.2277929  52.6871486  86.3463415 109.7185038
  63.3955574  81.3739989 100.1755832  64.2301178  80.9421188  99.9933307
  63.2339917  81.2022003 101.1032726  63.0501466  77.8772102 101.5412171
  62.9950270  77.7116374 100.6000615  62.4247522  78.5848135 101.6974361
  47.8393981  73.1140167 115.3673593  48.4852845  72.6039121 115.8560818
  47.6311133  73.8508849 115.9417019  60.3647374  80.1821014 120.8665734
  61.2338533  80.3561667 120.5052369  59.8854125  81.0015431 120.7441463
  56.3597592  67.3780211 101.1197489  56.3476262  68.3222051 101.2765760
  57.2521014  67.1950357 100.8256951  54.5333554  87.3018115 112.5455167
  55.4360801  87.3341726 112.8621662  54.3070924  86.3718566 112.5601503
  56.2887156  86.0549102 109.2065246  55.3382787  86.0550964 109.0929618
  56.5919642  85.3081836 108.6901281  60.1749711  63.9722988 105.3743426
  59.4082107  63.4181475 105.5200109  60.5860416  64.0444857 106.2357578
  52.1791472  70.2607784 119.4648607  53.0422934  69.9044589 119.6751932
  51.6056883  69.9221679 120.1524012  72.0239849  91.8909640 110.2711008
  72.6618259  91.7716388 109.5674349  71.9060692  92.8390484 110.3298961
  68.8329556  91.8437068 110.2072533  68.4948067  91.7278133 109.3193068
  69.7019324  91.4428233 110.1873539  64.6916371  93.6972545 106.1969424
  64.1281236  93.6062482 105.4285712  64.5768766  92.8772449 106.6771917
  69.3149339  92.9971920 116.1658739  69.3037979  92.6024718 115.2939242
  69.4769978  92.2637993 116.7592510  62.2380803  95.1923736 109.0353645
  63.0302095  94.8514561 108.6199944  62.4777453  95.3018711 109.9555798
  66.0356600  95.7809032 115.1137923  65.7446466  96.6854663 114.9984589
  66.6713584  95.8225560 115.8281992  66.9612807  93.1585880 111.7039282
  67.5576379  92.9341903 110.9896245  67.0187778  92.4170626 112.3064730
  71.5781118  89.6161094 107.3464217  72.3644207  89.1980517 106.9954634
  71.8419822  90.5207186 107.5145865  76.9789545  89.5536327 108.2497195
  77.7114717  88.9835544 108.4835025  76.2228901  89.1657928 108.6903701
  68.5965665  91.9763569 105.4460537  68.2323872  91.4494190 106.1573459
  69.4532781  91.5862038 105.2727023  74.5014965  83.2657901 112.7091804
  74.1698290  84.1353312 112.4853019  73.9060579  82.9494185 113.3885834
  70.9946485  95.4670447 112.1087716  70.6947208  96.3695486 112.0003524
  70.6497544  95.2002631 112.9608869  64.4458966  91.9184244 108.1424421
  63.5209463  91.7860458 108.3502113  64.6943379  92.6978464 108.6394363
  74.3943629  87.9852988 109.7885154  73.4860506  87.9168396 109.4943915
  74.3431224  88.4624933 110.6166979  61.8067777  91.5617518 108.9768210
  61.9360158  91.8151997 109.8907622  61.1265229  92.1545226 108.6572865
  65.9767265 102.2314768 105.0758684  65.8991294 103.1822593 105.1547165
  65.3728908 101.8860640 105.7333610  68.4684494  89.4042633 117.7320051
  67.6917828  89.9636553 117.7222916  69.1075057  89.8899416 118.2534921
  76.2605275  86.1869426 111.5663028  75.6179655  86.4801959 110.9202822
  75.7560204  86.0722346 112.3716224  66.7230867  92.2128087 117.2938018
  67.4645551  92.7513131 117.0172842  66.0167852  92.8394375 117.4509570
  72.1986206  94.3557227 115.8910179  72.6069562  93.9139638 115.1464812
  71.4763468  93.7809855 116.1444372  68.5517276  89.2929834 113.2643736
  69.3978472  89.7169247 113.4078385  68.4915914  88.6363458 113.9582300
  72.5215021  94.9158418 109.6462468  71.8923883  95.0804132 108.9438536
  72.1340683  95.3300027 110.4173432  71.7016722  86.9534202 114.9224910
  71.4577654  87.7076263 114.3859186  71.9776652  87.3319550 115.7572157
  73.6555184  93.4972815 113.6002176  73.8672080  94.1404574 112.9236557
  73.6084933  92.6635131 113.1324106  71.2581413  86.1090635 110.5038748
  70.3965892  86.4071889 110.7955485  71.2843848  86.3261034 109.5719780
  68.0742983  94.6532826 106.9112553  68.5381328  94.9320529 106.1217176
  67.8099781  93.7516270 106.7285644  64.9667064  94.2004307 109.8492317
  65.5368421  94.6291576 109.2109801  65.5575176  93.9186892 110.5476502
  65.4592230  89.3667735 118.0953328  64.8290891  90.0484016 118.3288725
  65.3528318  89.2550816 117.1506466  60.7537203  89.0339531 109.0219252
  59.9636257  89.2897059 108.5459363  61.2448450  89.8487869 109.1271293
  74.7701012  96.3744770 111.7724533  75.5918456  95.9724957 111.4907215
  74.7663415  96.2713004 112.7240649  62.7051948  89.3984110 105.9802729
  61.9083112  89.5102804 106.4986225  62.4777540  89.7370762 105.1143619
  68.5357616  95.9228813 113.9285243  68.6002048  96.3849220 114.7643415
  67.8268540  95.2926178 114.0567553  59.0374906  89.2870021 111.4534243
  59.2882944  90.1717031 111.7191819  59.5734454  89.1074623 110.6809335
  68.2505634  97.5896921 103.7964224  68.1151308  98.4348456 104.2249072
  68.7915446  97.7916198 103.0330158  64.7372973  83.6688501 120.4578579
  64.3439919  83.1154699 121.1326223  65.5539113  83.9799079 120.8485097
  61.7035031  95.1072359 104.3692149  62.2159551  95.9015609 104.5197714
  62.3557744  94.4098649 104.3025750  63.5129916  98.2238115 106.4514902
  63.6896544  99.1456080 106.2635886  64.3086749  97.9096534 106.8809282
  67.6540934  85.0846380 118.0498836  68.3950648  85.6853533 117.9703298
  67.8858857  84.3424017 117.4916878  62.7982272  90.2702747 116.3277065
  62.6835787  89.3688004 116.6284164  61.9426790  90.5166444 115.9761882
  69.8774110  98.2120487 117.9264566  69.4337964  97.4256866 117.6085470
  70.5391323  98.3999638 117.2608457  64.6361231  99.7416289 112.4525244
  65.1868656  99.6133352 111.6802238  63.7972707 100.0411178 112.1020137
  71.9755348  98.4923287 115.9545967  71.9573823  99.3132168 115.4626236
  72.8975268  98.3677362 116.1796108  68.4328402  96.0067417 116.7969476
  68.9656739  95.2455705 116.5668783  67.9042483  95.7141068 117.5393630
  71.5998097  81.1127483 112.3263117  71.2562366  82.0029124 112.2502228
  71.9677060  80.9229140 111.4632702  59.6683948  93.4361013 105.1451719
  60.5059170  93.8458021 104.9285427  59.8462215  92.4960455 105.1151913
  69.1495491  85.9485795 105.8920791  68.2937087  85.5592645 105.7126429
  69.5622443  86.0277755 105.0320576  70.6794637  83.4832138 110.2912351
  70.1759433  83.4462273 109.4780156  70.9725244  84.3924880 110.3509007
  66.9237523  83.5670867 109.2978532  67.7890520  83.3713676 108.9384422
  66.9915032  83.3381219 110.2247889  74.7773961  93.3302430 109.4255334
  74.1197635  94.0201691 109.5135462  75.5814360  93.7198862 109.7689320
  64.5299842  85.7973075 106.6694899  65.1043594  85.5748257 105.9368092
  65.1170825  85.8661770 107.4223500  73.5879420  91.6846802 107.4759276
  74.1011301  92.3176794 107.9780985  74.2380644  91.0847998 107.1102636
  66.8322510  82.6714324 105.3969968  66.1786922  82.3563342 104.7726583
  66.7902984  82.0490065 106.1229791  70.0660251  89.1596258 109.7217616
  69.1482812  89.3811205 109.5639304  70.4820394  89.2342568 108.8629323
  70.8495298  90.5587674 104.8520296  71.5967117  91.0709071 104.5427418
  71.1186888  90.2371726 105.7124690  73.2974135  87.5944790 106.8339086
  72.5596892  87.0822176 107.1649328  73.5500909  87.1545171 106.0222363
  73.3985763  80.3721042 107.4280855  73.7044640  79.5118405 107.1406770
  74.1238368  80.9638662 107.2279849  59.6910119  90.7751728 105.8162453
  59.4934519  90.1821089 105.0913519  59.1356783  90.4703939 106.5338392
  67.6706842  90.6674835 107.9357046  67.7255452  89.7148671 107.8599523
  66.8598045  90.8234274 108.4198344  65.6099202  89.2851895 105.6947425
  64.7967068  89.5846065 106.1012617  66.1058197  88.8907583 106.4121907
  67.7607780  99.2809652 107.6281690  67.7183959  99.5070498 106.6990222
  68.6770479  99.0473026 107.7767491  71.2073414  89.7493719 114.5262319
  71.5622802  89.9765192 115.3856785  71.8545545  90.0812096 113.9039574
  65.1013277  86.8570250 111.3108660  65.7412656  86.7159009 110.6131623
  64.2690808  86.5704764 110.9347262  76.9640531  94.9388682 110.2422919
  77.3977037  94.8463971 111.0905973  77.6772111  94.9146182 109.6042935
  65.8773581  96.1572681 107.4243652  66.6714180  95.6623001 107.2226227
  65.1665273  95.6290544 107.0611358  62.1041894  86.8270575 106.0881647
  62.3648711  87.7415908 105.9790807  62.9259066  86.3595018 106.2378259
  63.5766819  88.2408332 113.2580471  64.2489872  88.0325694 112.6093120
  62.7496605  88.0430418 112.8185703  77.8256080  94.9812383 112.7755805
  78.0191970  95.8858193 113.0215080  77.7256698  94.5219802 113.6094390
  69.4792391  84.8670273 115.2746132  68.8320306  85.5660223 115.1810608
  70.2493406  85.3006417 115.6422380  72.8871189  95.1319125 118.3496685
  72.7356695  94.9029677 117.4326769  72.8775868  96.0889727 118.3628030
  69.6556525  92.7051038 113.3342952  70.5848585  92.8562198 113.1611919
  69.2347555  92.7935059 112.4791598  68.4544857  96.7301703 111.1041489
  68.3155943  96.3620487 111.9767427  67.6659453  97.2449342 110.9325447
  70.0050072  96.1083305 108.4930327  69.6699905  96.0684075 109.3887977
  69.5054018  95.4428021 108.0200737  63.9794316  91.5150935 114.0182908
  63.8414114  90.7831174 114.6194447  64.8899240  91.4259835 113.7367096
  66.6076617  91.2270895 113.5066588  67.3176235  90.5864087 113.4653206
  66.5645925  91.4783789 114.4292769  74.5963396  98.1638248 116.4273167
  74.5375942  97.4797468 115.7603750  74.9982914  98.9057238 115.9753793
  65.3205551  88.2136112 115.3262227  64.7842908  87.7626851 115.9783824
  64.7322259  88.3482021 114.5832692  63.6154094 104.9800162 109.2206886
  63.8550693 105.6118686 109.8985905  62.7723291 104.6288202 109.5072245
  74.5980803  96.1277832 114.6587147  73.7107582  95.7903754 114.7813546
  75.1679354  95.3960863 114.8955912  56.2509950  92.4601924 107.9830198
  56.9380990  92.1463654 107.3951214  56.0958079  93.3643288 107.7097450
  61.0544672  87.3492120 112.4115222  60.9702861  86.7417790 111.6765632
  60.2327378  87.8401138 112.4124718  68.1281956 100.7879284 111.6248390
  68.0552128 101.5934256 112.1367695  67.6859349 100.9871250 110.7996411
  67.9171736 100.0251054 105.1351212  67.1339258 100.5672734 105.2289436
  68.6164481 100.5425034 105.5345453  71.2268386  85.8345684 107.7785417
  71.7237085  85.0815646 107.4586487  70.4555367  85.8710000 107.2128626
  79.0798143  91.5386049 109.4203708  79.0688020  92.4210765 109.0497642
  78.2115523  91.1857600 109.2258246  70.5880640 100.6866118 113.7806549
  71.3008612 101.3213583 113.7082450  70.0970668 100.7829984 112.9646551
  67.8103355  87.9763067 107.5057102  67.4401142  87.4234107 108.1938007
  68.3062447  87.3721200 106.9532102  65.6392553  98.4360562 114.6012120
  66.3402013  99.0697045 114.7541514  65.1687668  98.7775293 113.8407759
  73.6687381  82.8015277 109.9264776  72.7550461  83.0319504 110.0946983
  74.0980482  82.8853721 110.7778808  73.4393839  90.9905169 112.4264670
  72.7865289  91.2381077 111.7717123  73.8174219  90.1769307 112.0927147
  69.4881412  91.7324980 118.9130707  68.8122049  91.6319110 119.5833082
  70.3109046  91.5764194 119.3766704  61.2360271  97.9696917 111.5343222
  61.8213708  97.2240605 111.6671126  61.0385110  98.2800873 112.4179886
  64.0898927 101.0048164 106.5505665  63.4209302 101.4894292 106.0669705
  63.9511796 101.2517385 107.4649043  55.8277926  90.5402517 110.2547665
  55.8662026  90.0066108 111.0484783  55.3218219  90.0137722 109.6358643
  68.2304195 103.0391908 113.1488323  68.7822503 103.2023529 113.9137408
  68.5710389 103.6296346 112.4768348  63.2068688  85.3867057 113.7510208
  63.2710015  86.2481888 113.3387605  63.1435809  84.7741059 113.0182566
  62.6820961  87.4590190 117.3983242  63.3093000  87.0767267 118.0120766
  61.8248880  87.2404392 117.7638934  73.0815069  97.8653165 119.0036977
  73.6254973  98.4783123 118.5091932  72.5001914  98.4232744 119.5203990
  59.4586504  89.2666619 103.3301597  59.7539945  88.3577298 103.2768650
  58.5574539  89.2454359 103.0082599  62.9880751  87.3422616 109.3129145
  62.2667336  87.9558583 109.1736619  63.7774006  87.8780381 109.2345791
  65.7907064  84.6777042 115.5869797  66.3141466  84.9239339 116.3496106
  65.5719397  85.5097077 115.1672934  61.1874345  86.9480717 103.4540922
  60.8587051  86.0678096 103.2716028  61.5413716  86.8928385 104.3417311
  66.9959609  85.6190737 113.2719468  66.6556430  84.8198550 113.6740148
  66.2898615  85.9192448 112.6996301  67.6476081  82.7040050 111.7246791
  68.4702150  82.2300528 111.6025681  67.8914145  83.4830533 112.2245477
  70.4315438  86.4373457 102.9568025  70.6479053  87.3198095 102.6556853
  69.9509506  86.0459671 102.2273667  65.1714660  89.3959170 109.5338769
  65.0259240  89.7099473 110.4263051  64.6939863  90.0144071 108.9809668
  67.0311043  86.3861718 109.5819659  67.0172611  85.4902812 109.2451957
  67.7483471  86.3932382 110.2157945  68.8837173  86.8199059 111.6272786
  68.6254951  87.7416129 111.6257117  68.3522214  86.4229493 112.3173250
  59.6460322  91.9364515 112.4726430  59.1013790  92.7124323 112.6046705
  60.5239672  92.2835319 112.3145552  66.4347939  85.2676099 104.8507229
  66.5563850  84.3392745 105.0498116  66.1449981  85.2814785 103.9385544
  69.3039129  82.9531009 107.9873949  69.3260826  83.0170342 107.0325928
  69.7207188  82.1135518 108.1814455  60.4326344  91.0634411 115.3656587
  59.6908080  91.2117046 115.9521218  60.1119088  91.3242677 114.5023337
  68.3770006 100.6050389 115.1636977  68.6857133 100.3599536 116.0359677
  69.1745488 100.8097028 114.6755848  68.3990618 102.7588299 107.3942354
  67.9595609 102.2664678 108.0875211  69.1498735 102.2161267 107.1534429
  60.8782957  98.9499840 107.3966982  61.7040977  98.6503612 107.0165625
  60.5277009  98.1807462 107.8456771  65.8464491  98.3026308 109.4664656
  65.2244500  97.6397013 109.1666883  66.5169358  98.3287440 108.7838303
  59.0791563  96.8686166 108.3555916  58.2423471  96.4408341 108.1739917
  59.0515208  97.0618610 109.2926707  65.9189018  86.7808096 119.0597162
  65.9677174  87.6570219 118.6774931  66.4611532  86.2385489 118.4868805
  76.4043864  97.3249219 118.3398299  75.6139408  97.3073358 117.8002798
  76.1677218  97.8637513 119.0947335  76.5241739  94.1741686 115.6531027
  76.5739744  94.0091693 116.5946550  76.4155662  93.3068945 115.2628908
  65.4077998  96.8530231 102.9423116  65.5566118  97.5365696 102.2889789
  66.2144441  96.8335321 103.4572572  73.8145501  90.1572614 116.9690334
  74.7155364  90.0179079 116.6774332  73.8893476  90.3227068 117.9088511
  68.1488307  87.5339468 115.8143520  67.2791616  87.8273034 115.5426109
  68.3847787  88.1179913 116.5350784  78.0259936  96.5938627 115.8973049
  77.7344744  96.9568608 116.7336510  77.4132067  95.8805635 115.7186381
  76.2747124  91.7171242 114.3653107  76.7501246  91.9098888 113.5571958
  75.3512689  91.7730428 114.1196490  70.8527340  83.7519085 113.3308941
  71.3709284  84.4880112 113.0055429  70.4982473  84.0583079 114.1655700
  71.1039935  80.1719368 108.8509837  71.3841688  79.5042557 109.4770264
  71.8890541  80.3648463 108.3384501  74.9748793  88.5937002 112.5981412
  75.9266216  88.6935100 112.6193636  74.8052243  87.8015270 113.1079497
  72.9963172  85.6792585 112.7840813  72.4013105  85.9597598 112.0887302
  72.7112869  86.1686486 113.5557554  77.4536871  91.8143122 111.7123712
  77.4213191  90.8759122 111.8983396  78.0637494  91.8927158 110.9789537
  77.6031359  88.6054165 111.7581995  77.0870408  87.8212622 111.5711924
  78.4871308  88.2772882 111.9228515  75.2642086  82.3495181 107.7177808
  75.0666907  82.0410269 108.6021140  75.8741792  83.0756819 107.8475738
  81.3528718  91.0166991 111.4504200  80.6261881  90.8822956 110.8420692
  80.9376005  91.3243820 112.2560918  69.1758894  94.7356921 119.2151573
  70.0961904  94.9135520 119.4091620  69.1408477  93.7912966 119.0631272
  58.3941059  89.9295514 108.1404848  58.0743843  89.0760823 107.8479222
  57.8474487  90.1444092 108.8962815  62.1720967  92.6457955 111.8574354
  62.3906976  93.5775063 111.8762388  62.5846740  92.2865930 112.6429158
  69.0925184  83.1526041 103.8450043  68.2825913  82.8073126 104.2205289
  69.7809601  82.8433584 104.4337654  71.0215733  82.2304087 105.4674339
  71.5746771  82.6499541 106.1264362  71.2585819  81.3039836 105.5097295
  67.0448832  88.2191161 121.2477103  66.9445559  89.1685518 121.1789194
  66.8270374  87.8909400 120.3753173  58.2629319  93.5498426 110.1097969
  57.5692791  93.1352379 109.5967924  59.0102310  93.5918962 109.5131388
  74.3994540  84.3404613 104.9753003  73.8193209  84.9989417 104.5931056
  74.1330473  83.5181957 104.5640421  72.8498106  83.7409670 107.1774324
  73.3497885  83.8526205 106.3688643  73.4933714  83.4370723 107.8175132
  66.9080102  91.6488300 120.0642165  66.4247184  92.4488660 120.2706054
  66.9941041  91.6596245 119.1109609  60.1766062  93.4816680 107.9863984
  60.1536750  93.5804367 107.0345867  60.4866698  94.3281830 108.3081150
  62.8353440  95.5392835 112.1010599  63.7896693  95.5076777 112.0340530
  62.6365963  95.0783458 112.9160824  63.4252822  94.1093951 114.6681396
  64.2445711  94.6038029 114.6916233  63.6989629  93.1925919 114.6398964
  73.1819418  86.5004703 104.0309352  72.2945273  86.7854354 103.8129546
  73.5973407  86.3398466 103.1836629  76.5333954  86.5251224 107.7463691
  77.3094344  87.0147676 108.0188308  75.8082088  86.9509278 108.2035560
  78.9706513  87.2378843 108.8037632  79.5651003  86.9974579 108.0930940
  79.0433096  86.5185974 109.4311168  61.1903668 101.0812454 109.1180796
  61.0558136 100.3212855 108.5518794  60.7735731 101.8053354 108.6509585
  76.9665248  87.8048971 105.0709761  76.7102182  87.4045606 105.9017969
  76.3418116  88.5192765 104.9459901  81.2777585  90.5445044 107.5781053
  80.7177143  90.6138233 108.3512615  80.6721089  90.3686029 106.8580549
  64.3472794 101.9781771 109.3299239  64.2305178 102.9227204 109.2277929
  63.5265240 101.6755333 109.7185038  58.6787736  88.4432085 115.3673593
  59.3246599  87.9331039 115.8560818  58.4704887  89.1800766 115.9417019
  71.2041128  95.5112932 120.8665734  72.0732288  95.6853584 120.5052369
  70.7247880  96.3307349 120.7441463  65.3727308 102.6310033 112.5455167
  66.2754555 102.6633643 112.8621662  65.1464678 101.7010484 112.5601503
  67.1280910 101.3841020 109.2065246  66.1776541 101.3842881 109.0929618
  67.4313396 100.6373754 108.6901281  71.0143466  79.3014906 105.3743426
  70.2475862  78.7473393 105.5200109  71.4254171  79.3736775 106.2357578
  63.0185227  85.5899702 119.4648607  63.8816688  85.2336506 119.6751932
  62.4450638  85.2513596 120.1524012  82.8633604 107.2201558 110.2711008
  83.5012014 107.1008305 109.5674349  82.7454447 108.1682402 110.3298961
  79.6723310 107.1728986 110.2072533  79.3341822 107.0570051 109.3193068
  80.5413078 106.7720151 110.1873539  80.1543093 108.3263838 116.1658739
  80.1431734 107.9316636 115.2939242  80.3163733 107.5929910 116.7592510
  76.8750354 111.1100950 115.1137923  76.5840220 112.0146580 114.9984589
  77.5107339 111.1517477 115.8281992  77.8006561 108.4877798 111.7039282
  78.3970133 108.2633821 110.9896245  77.8581533 107.7462544 112.3064730
  87.8183299 104.8828245 108.2497195  88.5508471 104.3127462 108.4835025
  87.0622655 104.4949845 108.6903701  81.8340239 110.7962365 112.1087716
  81.5340962 111.6987404 112.0003524  81.4891299 110.5294548 112.9608869
  85.2337383 103.3144905 109.7885154  84.3254260 103.2460314 109.4943915
  85.1824979 103.7916850 110.6166979  79.3078249 104.7334551 117.7320051
  78.5311583 105.2928471 117.7222916  79.9468812 105.2191334 118.2534921
  87.0999029 101.5161344 111.5663028  86.4573410 101.8093877 110.9202822
  86.5953958 101.4014264 112.3716224  77.5624621 107.5420004 117.2938018
  78.3039306 108.0805048 117.0172842  76.8561607 108.1686293 117.4509570
  83.0379961 109.6849145 115.8910179  83.4463317 109.2431555 115.1464812
  82.3157222 109.1101772 116.1444372  79.3911031 104.6221751 113.2643736
  80.2372226 105.0461165 113.4078385  79.3309669 103.9655376 113.9582300
  83.3608775 110.2450335 109.6462468  82.7317638 110.4096049 108.9438536
  82.9734438 110.6591945 110.4173432  87.2398007 111.1804773 107.0006832
  86.5549046 111.5603675 106.4503865  87.3241857 111.7900100 107.7338780
  82.5410476 102.2826120 114.9224910  82.2971408 103.0368180 114.3859186
  82.8170407 102.6611467 115.7572157  84.4948939 108.8264732 113.6002176
  84.7065834 109.4696492 112.9236557  84.4478687 107.9927049 113.1324106
  76.2985985 104.6959652 118.0953328  75.6684646 105.3775933 118.3288725
  76.1922073 104.5842734 117.1506466  85.6094767 111.7036688 111.7724533
  86.4312211 111.3016875 111.4907215  85.6057170 111.6004922 112.7240649
  79.3751370 111.2520731 113.9285243  79.4395803 111.7141138 114.7643415
  78.6662294 110.6218096 114.0567553  69.8768660 104.6161939 111.4534243
  70.1276699 105.5008949 111.7191819  70.4128209 104.4366540 110.6809335
  93.7000760 108.0475436 108.1209504  92.9464468 107.4782834 107.9653509
  93.8348301 108.0138101 109.0680139  75.5766728  98.9980418 120.4578579
  75.1833673  98.4446617 121.1326223  76.3932868  99.3090997 120.8485097
  74.3523670 113.5530033 106.4514902  74.5290298 114.4747997 106.2635886
  75.1480504 113.2388452 106.8809282  78.4934689 100.4138297 118.0498836
  79.2344402 101.0145450 117.9703298  78.7252611  99.6715935 117.4916878
  73.6376027 105.5994665 116.3277065  73.5229542 104.6979922 116.6284164
  72.7820544 105.8458361 115.9761882  80.7167864 113.5412405 117.9264566
  80.2731719 112.7548783 117.6085470  81.3785078 113.7291555 117.2608457
  75.4754986 115.0708207 112.4525244  76.0262411 114.9425270 111.6802238
  74.6366461 115.3703096 112.1020137  82.8149102 113.8215205 115.9545967
  82.7967578 114.6424086 115.4626236  83.7369023 113.6969280 116.1796108
  79.2722157 111.3359334 116.7969476  79.8050493 110.5747623 116.5668783
  78.7436238 111.0432986 117.5393630  77.7631278  98.8962785 109.2978532
  78.6284275  98.7005594 108.9384422  77.8308787  98.6673137 110.2247889
  85.6167715 108.6594347 109.4255334  84.9591390 109.3493609 109.5135462
  86.4208115 109.0490779 109.7689320  84.4273174 107.0138720 107.4759276
  84.9405056 107.6468712 107.9780985  85.0774398 106.4139916 107.1102636
  80.9054005 104.4888176 109.7217616  79.9876566 104.7103123 109.5639304
  81.3214149 104.5634486 108.8629323  85.1934970 111.9944721 105.6038418
  84.7397297 111.1535631 105.6603609  84.5628937 112.6306120 105.9413198
  83.6367910 113.8321218 106.5388236  83.9290884 114.3926275 105.8200602
  84.1466530 114.1249779 107.2941395  78.6001535 114.6101569 107.6281690
  78.5577714 114.8362416 106.6990222  79.5164234 114.3764944 107.7767491
  82.0467169 105.0785637 114.5262319  82.4016556 105.3057110 115.3856785
  82.6939300 105.4104014 113.9039574  75.9407032 102.1862168 111.3108660
  76.5806411 102.0450927 110.6131623  75.1084562 101.8996681 110.9347262
  87.8034285 110.2680600 110.2422919  88.2370792 110.1755889 111.0905973
  88.5165866 110.2438100 109.6042935  81.5362180 113.8682694 111.7756020
  81.5899202 114.4373630 112.5433736  80.6676961 114.0384579 111.4110057
  74.4160573 103.5700250 113.2580471  75.0883627 103.3617612 112.6093120
  73.5890360 103.3722336 112.8185703  88.6649835 110.3104300 112.7755805
  88.8585725 111.2150111 113.0215080  88.5650453 109.8511719 113.6094390
  80.3186145 100.1962191 115.2746132  79.6714060 100.8952141 115.1810608
  81.0887161 100.6298335 115.6422380  83.7264943 110.4611043 118.3496685
  83.5750450 110.2321595 117.4326769  83.7169623 111.4181644 118.3628030
  80.4950280 108.0342956 113.3342952  81.4242340 108.1854115 113.1611919
  80.0741310 108.1226977 112.4791598  79.2938612 112.0593620 111.1041489
  79.1549697 111.6912405 111.9767427  78.5053208 112.5741260 110.9325447
  80.8443827 111.4375223 108.4930327  80.5093659 111.3975993 109.3887977
  80.3447772 110.7719939 108.0200737  74.8188071 106.8442853 114.0182908
  74.6807869 106.1123092 114.6194447  75.7292994 106.7551753 113.7367096
  77.4470371 106.5562812 113.5066588  78.1569990 105.9156004 113.4653206
  77.4039679 106.8075707 114.4292769  85.4357150 113.4930166 116.4273167
  85.3769696 112.8089386 115.7603750  85.8376668 114.2349156 115.9753793
  76.1599305 103.5428030 115.3262227  75.6236662 103.0918769 115.9783824
  75.5716014 103.6773939 114.5832692  74.4547849 120.3092079 109.2206886
  74.6944447 120.9410604 109.8985905  73.6117045 119.9580119 109.5072245
  85.4374557 111.4569750 114.6587147  84.5501336 111.1195671 114.7813546
  86.0073108 110.7252781 114.8955912  67.0903704 107.7893841 107.9830198
  67.7774744 107.4755571 107.3951214  66.9351833 108.6935206 107.7097450
  71.8938427 102.6784038 112.4115222  71.8096615 102.0709707 111.6765632
  71.0721133 103.1693056 112.4124718  78.9675711 116.1171202 111.6248390
  78.8945882 116.9226173 112.1367695  78.5253104 116.3163168 110.7996411
  78.7565490 115.3542972 105.1351212  77.9733012 115.8964652 105.2289436
  79.4558235 115.8716952 105.5345453  89.9191898 106.8677967 109.4203708
  89.9081774 107.7502682 109.0497642  89.0509277 106.5149518 109.2258246
  81.4274394 116.0158036 113.7806549  82.1402366 116.6505501 113.7082450
  80.9364423 116.1121902 112.9646551  83.1491921 109.9209289 105.3523840
  82.2148200 110.0410751 105.1828545  83.3268590 109.0181755 105.0883850
  86.5364472 105.7626608 105.8873875  87.0024925 106.5954599 105.8134177
  86.9871973 105.2971589 106.5919133  76.4786308 113.7652479 114.6012120
  77.1795767 114.3988962 114.7541514  76.0081423 114.1067211 113.8407759
  84.2787594 106.3197087 112.4264670  83.6259044 106.5672994 111.7717123
  84.6567974 105.5061225 112.0927147  80.3275167 107.0616898 118.9130707
  79.6515804 106.9611027 119.5833082  81.1502801 106.9056112 119.3766704
  72.0754026 113.2988834 111.5343222  72.6607463 112.5532522 111.6671126
  71.8778864 113.6092791 112.4179886  66.6671681 105.8694435 110.2547665
  66.7055780 105.3358025 111.0484783  66.1611973 105.3429640 109.6358643
  79.0697950 118.3683825 113.1488323  79.6216258 118.5315447 113.9137408
  79.4104143 118.9588263 112.4768348  74.0462443 100.7158975 113.7510208
  74.1103769 101.5773806 113.3387605  73.9829563 100.1032977 113.0182566
  73.5214715 102.7882108 117.3983242  74.1486754 102.4059185 118.0120766
  72.6642634 102.5696310 117.7638934  83.9208824 113.1945083 119.0036977
  84.4648728 113.8075041 118.5091932  83.3395669 113.7524661 119.5203990
  82.2066337 116.3165801 110.1352005  82.0817476 115.5155541 109.6262951
  82.8645428 116.8111994 109.6465975  84.2701245 114.1174821 111.7631555
  83.3231581 113.9980172 111.6909882  84.6184018 113.2297319 111.8457817
  76.6300819 100.0068960 115.5869797  77.1535220 100.2531256 116.3496106
  76.4113152 100.8388995 115.1672934  81.2747679 113.9127537 107.9635907
  81.1272641 112.9844245 108.1443477  82.1001172 113.9347628 107.4792983
  84.8781800 114.7356096 109.0500780  85.8028348 114.5298957 108.9125231
  84.7097104 114.4872497 109.9590122  77.8353364 100.9482655 113.2719468
  77.4950184 100.1490468 113.6740148  77.1292370 101.2484366 112.6996301
  77.8704797 101.7153636 109.5819659  77.8566366 100.8194729 109.2451957
  78.5877225 101.7224300 110.2157945  79.7230928 102.1490976 111.6272786
  79.4648706 103.0708047 111.6257117  79.1915968 101.7521411 112.3173250
  84.6677117 115.2541763 104.4062872  84.8413994 114.6888186 103.6536724
  85.1606008 116.0542658 104.2242362  70.4854076 107.2656432 112.4726430
  69.9407544 108.0416240 112.6046705  71.3633426 107.6127237 112.3145552
  71.2720098 106.3926329 115.3656587  70.5301834 106.5408964 115.9521218
  70.9512843 106.6534594 114.5023337  79.2163761 115.9342307 115.1636977
  79.5250887 115.6891454 116.0359677  80.0139243 116.1388945 114.6755848
  71.7176712 114.2791757 107.3966982  72.5434732 113.9795529 107.0165625
  71.3670764 113.5099380 107.8456771  76.6858245 113.6318226 109.4664656
  76.0638254 112.9688931 109.1666883  77.3563112 113.6579358 108.7838303
  69.9185317 112.1978084 108.3555916  69.0817225 111.7700258 108.1739917
  69.8908962 112.3910527 109.2926707  76.7582773 102.1100014 119.0597162
  76.8070928 102.9862136 118.6774931  77.3005287 101.5677407 118.4868805
  87.2437618 112.6541137 118.3398299  86.4533162 112.6365276 117.8002798
  87.0070973 113.1929431 119.0947335  87.3635493 109.5033603 115.6531027
  87.4133498 109.3383611 116.5946550  87.2549417 108.6360862 115.2628908
  84.6539256 105.4864531 116.9690334  85.5549118 105.3470996 116.6774332
  84.7287230 105.6518986 117.9088511  78.9882061 102.8631386 115.8143520
  78.1185370 103.1564952 115.5426109  79.2241541 103.4471831 116.5350784
  88.8653690 111.9230545 115.8973049  88.5738498 112.2860525 116.7336510
  88.2525821 111.2097553 115.7186381  90.0649372 109.4883425 108.4175619
  90.8996264 109.9273229 108.5813179  90.2008501 109.0122078 107.5983865
  87.1140878 107.0463159 114.3653107  87.5895000 107.2390806 113.5571958
  86.1906444 107.1022345 114.1196490  85.8142547 103.9228920 112.5981412
  86.7659970 104.0227017 112.6193636  85.6445998 103.1307188 113.1079497
  83.8356927 101.0084503 112.7840813  83.2406859 101.2889515 112.0887302
  83.5506624 101.4978404 113.5557554  88.2930625 107.1435039 111.7123712
  88.2606945 106.2051040 111.8983396  88.9031249 107.2219076 110.9789537
  88.4425114 103.9346083 111.7581995  87.9264162 103.1504539 111.5711924
  89.3265062 103.6064799 111.9228515  94.1107175 108.2051046 110.8529749
  94.8410564 107.9436334 111.4137452  93.5014121 107.4679768 110.8931817
  92.1922472 106.3458909 111.4504200  91.4655636 106.2114874 110.8420692
  91.7769759 106.6535737 112.2560918  80.0152649 110.0648838 119.2151573
  80.9355658 110.2427437 119.4091620  79.9802232 109.1204884 119.0631272
  69.2334814 105.2587432 108.1404848  68.9137598 104.4052740 107.8479222
  68.6868242 105.4736010 108.8962815  73.0114721 107.9749873 111.8574354
  73.2300731 108.9066981 111.8762388  73.4240495 107.6157847 112.6429158
  77.8842586 103.5483079 121.2477103  77.7839313 104.4977436 121.1789194
  77.6664129 103.2201318 120.3753173  69.1023074 108.8790343 110.1097969
  68.4086545 108.4644296 109.5967924  69.8496065 108.9210880 109.5131388
  77.7473857 106.9780218 120.0642165  77.2640938 107.7780578 120.2706054
  77.8334796 106.9888162 119.1109609  73.6747194 110.8684752 112.1010599
  74.6290448 110.8368695 112.0340530  73.4759718 110.4075376 112.9160824
  74.2646576 109.4385868 114.6681396  75.0839465 109.9329947 114.6916233
  74.5383384 108.5217836 114.6398964  87.3727708 101.8543142 107.7463691
  88.1488099 102.3439594 108.0188308  86.6475843 102.2801196 108.2035560
  72.0297423 116.4104372 109.1180796  71.8951891 115.6504773 108.5518794
  71.6129485 117.1345272 108.6509585  83.9954196 107.3451157 104.2459642
  83.9389397 107.8019708 103.4067274  84.5482539 106.5841841 104.0682485
  75.1866549 117.3073689 109.3299239  75.0698933 118.2519121 109.2277929
  74.3658995 117.0047250 109.7185038  69.5181490 103.7724002 115.3673593
  70.1640354 103.2622956 115.8560818  69.3098641 104.5092684 115.9417019
  82.0434883 110.8404850 120.8665734  82.9126042 111.0145502 120.5052369
  81.5641634 111.6599267 120.7441463  76.2121063 117.9601951 112.5455167
  77.1148309 117.9925561 112.8621662  75.9858433 117.0302402 112.5601503
  77.9674665 116.7132937 109.2065246  77.0170296 116.7134799 109.0929618
  78.2707151 115.9665672 108.6901281  73.8578981 100.9191619 119.4648607
  74.7210443 100.5628424 119.6751932  73.2844392 100.5805514 120.1524012
  93.7027358 122.5493476 110.2711008  94.3405768 122.4300223 109.5674349
  93.5848201 123.4974320 110.3298961  90.5117065 122.5020904 110.2072533
  90.1735576 122.3861968 109.3193068  91.3806833 122.1012069 110.1873539
  91.9503439 128.0227348 101.5083889  91.2991419 128.6081428 101.1217903
  92.7447802 128.5533543 101.5678927  88.6400316 123.8169716 111.7039282
  89.2363888 123.5925738 110.9896245  88.6975287 123.0754461 112.3064730
  88.2125344 121.2709151  99.5389473  88.4650865 120.7490672  98.7772936
  87.2749903 121.1075297  99.6416157  93.2568627 120.2744929 107.3464217
  94.0431716 119.8564353 106.9954634  93.5207331 121.1791022 107.5145865
  93.4278704 125.7117780 102.0452873  92.7924537 125.7852406 102.7573778
  93.0976111 126.3011379 101.3671953  98.6577054 120.2120163 108.2497195
  99.3902226 119.6419379 108.4835025  97.9016410 119.8241763 108.6903701
  87.9321633 123.1737257 101.7413848  87.8157891 122.4982160 102.4094933
  88.0423893 122.6869631 100.9246001  90.2753174 122.6347404 105.4460537
  89.9111381 122.1078025 106.1573459  91.1320290 122.2445873 105.2727023
  96.1802474 113.9241737 112.7091804  95.8485799 114.7937148 112.4853019
  95.5848088 113.6078021 113.3885834  96.0731138 118.6436823 109.7885154
  95.1648015 118.5752231 109.4943915  96.0218733 119.1208768 110.6166979
  89.8947881 120.1194961 101.4268553  89.7747507 120.5652012 102.2654033
  89.2000470 120.4680279 100.8682091  87.6554774 132.8898603 105.0758684
  87.5778803 133.8406428 105.1547165  87.0516417 132.5444476 105.7333610
  97.9392784 116.8453261 111.5663028  97.2967164 117.1385795 110.9202822
  97.4347713 116.7306182 112.3716224  95.5932948 120.5916435 102.2548887
  96.5050804 120.8243821 102.0796584  95.0842595 121.1753479 101.6923965
  90.2304785 119.9513669 113.2643736  91.0765981 120.3753083 113.4078385
  90.1703423 119.2947293 113.9582300  92.9368922 116.7674471 110.5038748
  92.0753401 117.0655724 110.7955485  92.9631357 116.9844869 109.5719780
  89.7530492 125.3116661 106.9112553  90.2168837 125.5904364 106.1217176
  89.4887290 124.4100106 106.7285644  88.6899378 121.4339813 103.7202119
  89.3923421 121.8860857 104.1876045  88.3580006 120.7923632 104.3482012
  89.9293142 128.2480756 103.7964224  89.7938817 129.0932292 104.2249072
  90.4702955 128.4500034 103.0330158  85.1917425 128.8821950 106.4514902
  85.3684053 129.8039915 106.2635886  85.9874258 128.5680370 106.8809282
  84.4769781 120.9286582 116.3277065  84.3623296 120.0271840 116.6284164
  83.6214299 121.1750279 115.9761882  93.2785606 111.7711318 112.3263117
  92.9349875 112.6612960 112.2502228  93.6464569 111.5812976 111.4632702
  93.2435889 121.7619929 100.8335552  92.7282512 122.5324534 101.0723940
  92.9713197 121.0885065 101.4568614  90.8283000 116.6069630 105.8920791
  89.9724596 116.2176480 105.7126429  91.2409952 116.6861591 105.0320576
  92.3582146 114.1415973 110.2912351  91.8546942 114.1046108 109.4780156
  92.6512753 115.0508716 110.3509007  88.6025032 114.2254703 109.2978532
  89.4678029 114.0297512 108.9384422  88.6702541 113.9965055 110.2247889
  98.2170163 124.5152284 102.7688726  97.4399606 124.1763443 102.3243888
  98.8961644 124.5204907 102.0943691  93.0322192 119.6347021 102.6595334
  92.7272328 119.9493170 103.5105477  93.9852634 119.7128441 102.7022667
  91.4768624 125.7937244 104.3088288  90.9489985 125.0590004 103.9961525
  90.9756127 126.5711921 104.0628256  86.2087351 116.4556911 106.6694899
  86.7831103 116.2332092 105.9368092  86.7958334 116.5245605 107.4223500
  95.2666929 122.3430638 107.4759276  95.7798810 122.9760630 107.9780985
  95.9168153 121.7431833 107.1102636  88.5110019 113.3298160 105.3969968
  87.8574431 113.0147177 104.7726583  88.4690493 112.7073900 106.1229791
  89.6221224 123.6117455  97.3123261  88.7148286 123.3806708  97.5114410
  90.1192256 122.8155074  97.4997242  92.5289303 132.3214962 100.2319947
  91.8551002 132.6246659 100.8404905  92.9155125 133.1244042  99.8825404
  91.7447759 119.8180093 109.7217616  90.8270321 120.0395040 109.5639304
  92.1607903 119.8926404 108.8629323  92.5282807 121.2171509 104.8520296
  93.2754626 121.7292906 104.5427418  92.7974397 120.8955562 105.7124690
  90.8009457 123.7130050 101.8347251  89.8920677 123.4289082 101.9319720
  90.8304541 124.1329128 100.9750558  96.0328725 127.3236639 105.6038418
  95.5791052 126.4827549 105.6603609  95.4022692 127.9598037 105.9413198
  94.9761644 118.2528625 106.8339086  94.2384401 117.7406011 107.1649328
  95.2288418 117.8129007 106.0222363  94.4761664 129.1613136 106.5388236
  94.7684638 129.7218193 105.8200602  94.9860285 129.4541697 107.2941395
  95.0773272 111.0304877 107.4280855  95.3832149 110.1702241 107.1406770
  95.8025877 111.6222497 107.2279849  90.4985545 125.2538793  99.1735329
  90.0604975 124.5374652  98.7140967  91.2395986 125.4814908  98.6120421
  87.2886711 119.9435730 105.6947425  86.4754577 120.2429901 106.1012617
  87.7845706 119.5491419 106.4121907  89.4395289 129.9393487 107.6281690
  89.3971468 130.1654333 106.6990222  90.3557988 129.7056861 107.7767491
  98.6158660 123.5295990 105.2311648  98.4776559 123.7197586 104.3032837
  98.2594879 124.2915373 105.6879699  86.7800786 117.5154085 111.3108660
  87.4200165 117.3742845 110.6131623  85.9478317 117.2288599 110.9347262
  87.5561090 126.8156516 107.4243652  88.3501689 126.3206836 107.2226227
  86.8452782 126.2874379 107.0611358  85.2554328 118.8992168 113.2580471
  85.9277381 118.6909530 112.6093120  84.4284114 118.7014254 112.8185703
  91.1579900 115.5254109 115.2746132  90.5107815 116.2244058 115.1810608
  91.9280915 115.9590252 115.6422380  90.7280518 132.4894634 102.4467026
  90.9032274 132.0182678 103.2612649  90.0413306 133.1160401 102.6748287
  91.6837581 126.7667141 108.4930327  91.3487414 126.7267911 109.3887977
  91.1841527 126.1011857 108.0200737  85.6581825 122.1734771 114.0182908
  85.5201623 121.4415009 114.6194447  86.5686749 122.0843671 113.7367096
  94.6196773 124.1123175  98.7667387  94.0025943 123.3870003  98.6700439
  94.1513261 124.8732535  98.4234461  88.2864126 121.8854730 113.5066588
  88.9963744 121.2447922 113.4653206  88.2433434 122.1367625 114.4292769
  86.9993060 118.8719948 115.3262227  86.4630417 118.4210686 115.9783824
  86.4109768 119.0065857 114.5832692  82.7332181 118.0075956 112.4115222
  82.6490370 117.4001625 111.6765632  81.9114887 118.4984974 112.4124718
  89.5959245 130.6834890 105.1351212  88.8126767 131.2256570 105.2289436
  90.2951990 131.2008869 105.5345453  92.9055895 116.4929519 107.7785417
  93.4024594 115.7399481 107.4586487  92.1342876 116.5293836 107.2128626
  93.9885676 125.2501206 105.3523840  93.0541954 125.3702669 105.1828545
  94.1662344 124.3473673 105.0883850  89.4890864 118.6346902 107.5057102
  89.1188651 118.0817942 108.1938007  89.9849956 118.0305036 106.9532102
  97.3758227 121.0918526 105.8873875  97.8418679 121.9246517 105.8134177
  97.8265727 120.6263507 106.5919133  95.4434458 127.4362347 102.8860027
  95.7194302 127.3218941 103.7953901  94.5738957 127.0379832 102.8472200
  95.3474890 113.4599113 109.9264776  94.4337969 113.6903339 110.0946983
  95.7767991 113.5437557 110.7778808  92.0788522 131.6848698 106.5292840
  92.2610917 130.8670354 106.9920593  92.9021508 131.9016390 106.0917730
  92.4130688 130.6116883 103.7907889  92.9418454 130.1009337 103.1778051
  92.6758907 130.2959413 104.6553422  82.9147780 128.6280752 111.5343222
  83.5001217 127.8824440 111.6671126  82.7172619 128.9384709 112.4179886
  85.7686436 131.6632000 106.5505665  85.0996811 132.1478127 106.0669705
  85.6299305 131.9101220 107.4649043  77.5065435 121.1986352 110.2547665
  77.5449535 120.6649943 111.0484783  77.0005728 120.6721558 109.6358643
  84.8856197 116.0450893 113.7510208  84.9497524 116.9065724 113.3387605
  84.8223318 115.4324894 113.0182566  84.3608470 118.1174025 117.3983242
  84.9880509 117.7351103 118.0120766  83.5036389 117.8988227 117.7638934
  84.6668260 118.0006451 109.3129145  83.9454845 118.6142419 109.1736619
  85.4561515 118.5364216 109.2345791  87.4694573 115.3360878 115.5869797
  87.9928975 115.5823174 116.3496106  87.2506906 116.1680912 115.1672934
  92.1141433 129.2419455 107.9635907  91.9666395 128.3136162 108.1443477
  92.9394927 129.2639546 107.4792983  88.6747118 116.2774573 113.2719468
  88.3343939 115.4782386 113.6740148  87.9686124 116.5776284 112.6996301
  89.3263590 113.3623885 111.7246791  90.1489659 112.8884363 111.6025681
  89.5701654 114.1414369 112.2245477  92.1102947 117.0957293 102.9568025
  92.3266562 117.9781930 102.6556853  91.6297015 116.7043506 102.2273667
  86.8502169 120.0543006 109.5338769  86.7046749 120.3683309 110.4263051
  86.3727372 120.6727906 108.9809668  88.7098552 117.0445554 109.5819659
  88.6960120 116.1486647 109.2451957  89.4270980 117.0516217 110.2157945
  90.5624682 117.4782894 111.6272786  90.3042460 118.3999965 111.6257117
  90.0309723 117.0813328 112.3173250  95.5070871 130.5833681 104.4062872
  95.6807749 130.0180104 103.6536724  95.9999762 131.3834576 104.2242362
  88.1135448 115.9259934 104.8507229  88.2351359 114.9976580 105.0498116
  87.8237490 115.9398620 103.9385544  90.9826638 113.6114844 107.9873949
  91.0048335 113.6754178 107.0325928  91.3994697 112.7719353 108.1814455
 101.3610262 123.3470104 106.0253171 101.8041408 122.5977429 105.6272295
 100.4836773 123.3380240 105.6426903  96.4946044 129.9000445 101.5059770
  97.1896948 130.5207138 101.7247085  96.8369194 129.0495797 101.7812148
  82.1113853 121.7218246 115.3656587  81.3695589 121.8700882 115.9521218
  81.7906597 121.9826512 114.5023337  98.3937467 127.3500151 103.0347101
  98.9188791 127.6887424 102.3096421  98.3059819 126.4147166 102.8510235
  87.5252000 128.9610143 109.4664656  86.9032009 128.2980848 109.1666883
  88.1956867 128.9871275 108.7838303  87.0865507 127.5114067 102.9423116
  87.2353627 128.1949531 102.2889789  87.8931950 127.4919157 103.4572572
  92.5314849 114.4102921 113.3308941  93.0496793 115.1463948 113.0055429
  92.1769982 114.7166914 114.1655700  92.7827444 110.8303203 108.8509837
  93.0629197 110.1626392 109.4770264  93.5678050 111.0232299 108.3384501
  90.5860912 130.0062197 100.4134864  90.0134879 130.6252384  99.9605335
  91.1593706 130.5561559 100.9474785  94.6750681 116.3376420 112.7840813
  94.0800613 116.6181433 112.0887302  94.3900378 116.8270321 113.5557554
  93.8058172 130.2899347 101.5443446  94.7388845 130.2244909 101.7476321
  93.7181385 131.1255614 101.0857978  96.4346189 129.6065218  98.5047393
  96.3559820 129.2725081  99.3983151  97.2555855 130.0986986  98.5038866
  90.9707711 121.3423010  97.7550916  91.9166815 121.2129218  97.8239334
  90.5921955 120.6037672  98.2320344  96.9429595 113.0079016 107.7177808
  96.7454416 112.6994104 108.6021140  97.5529301 113.7340655 107.8475738
  90.7712693 113.8109876 103.8450043  89.9613422 113.4656961 104.2205289
  91.4597110 113.5017420 104.4337654  92.7003242 112.8887923 105.4674339
  93.2534280 113.3083376 106.1264362  92.9373328 111.9623671 105.5097295
  96.0782049 114.9988448 104.9753003  95.4980718 115.6573252 104.5931056
  95.8117981 114.1765793 104.5640421  94.5285615 114.3993506 107.1774324
  95.0285394 114.5110040 106.3688643  95.1721223 114.0954559 107.8175132
  84.5140948 126.1976670 112.1010599  85.4684202 126.1660612 112.0340530
  84.3153472 125.7367294 112.9160824  94.8606927 117.1588538 104.0309352
  93.9732782 117.4438189 103.8129546  95.2760916 116.9982302 103.1836629
  98.2121463 117.1835059 107.7463691  98.9881853 117.6731512 108.0188308
  97.4869597 117.6093114 108.2035560 100.6494022 117.8962679 108.8037632
 101.2438512 117.6558414 108.0930940 100.7220605 117.1769809 109.4311168
  82.8691177 131.7396289 109.1180796  82.7345645 130.9796690 108.5518794
  82.4523240 132.4637189 108.6509585  94.0050140 126.9233213  98.1257372
  94.7085990 127.1283216  98.7415027  93.2812789 127.4909975  98.3906455
  94.8347951 122.6743074 104.2459642  94.7783152 123.1311626 103.4067274
  95.3876293 121.9133759 104.0682485  98.6452756 118.4632806 105.0709761
  98.3889691 118.0629442 105.9017969  98.0205625 119.1776600 104.9459901
 102.9565094 121.2028879 107.5781053 102.3964652 121.2722069 108.3512615
 102.3508598 121.0269864 106.8580549  95.9136838 127.3615742 100.1755832
  96.7482442 126.9296941  99.9933307  95.7521181 127.1897756 101.1032726
  95.5682730 123.8647856 101.5412171  95.5131534 123.6992127 100.6000615
  94.9428785 124.5723888 101.6974361  80.3575245 119.1015920 115.3673593
  81.0034108 118.5914874 115.8560818  80.1492396 119.8384602 115.9417019
  92.6930975 109.9598741 105.3743426  91.9263371 109.4057228 105.5200109
  93.1041680 110.0320610 106.2357578  99.0519098 136.6001069  99.5389473
  99.3044619 136.0782590  98.7772936  98.1143658 136.4367214  99.6416157
 100.7552415 132.9929222 100.4421886 100.9226817 133.8609458 100.8092357
 100.5649584 133.1556503  99.5183175  97.3750693 133.8153289 100.6890784
  96.5388005 134.1527976 101.0100059  97.2355463 133.6802269  99.7517921
  99.3503774 128.6590077 105.3969968  98.6968186 128.3439095 104.7726583
  99.3084248 128.0365818 106.1229791 100.4614978 138.9409372  97.3123261
  99.5542040 138.7098626  97.5114410 100.9586010 138.1446992  97.4997242
  94.7037608 136.2891515 103.5003405  93.7735196 136.2275971 103.7173367
  94.7995080 135.7667468 102.7040046  97.2489073 133.6600517  97.8888691
  96.3718540 133.5389318  97.5250938  97.7246826 132.8686595  97.6367580
  91.9767767 135.2542372 103.3301597  92.2721208 134.3453051 103.2768650
  91.0755803 135.2330112 103.0082599  93.7055609 132.9356470 103.4540922
  93.3768315 132.0553849 103.2716028  94.0594979 132.8804139 104.3417311
  98.8065579 131.7204061 102.0209692  99.5273941 132.0985314 101.5173409
  98.1830883 132.4392938 102.1244670  98.9529202 131.2551852 104.8507229
  99.0745113 130.3268498 105.0498116  98.6631244 131.2690538 103.9385544
  94.9507542 134.5999520 101.4470346  94.2576786 134.6743875 100.7910382
  94.7059293 133.8359863 101.9691863 101.8101465 136.6714928  97.7550916
 102.7560570 136.5421136  97.8239334 101.4315710 135.9329589  98.2320344
  99.9944382 134.5964904  97.6905801  99.0875838 134.2998017  97.7668515
 100.2720363 134.2994722  96.8240087 101.6106448 129.1401794 103.8450043
 100.8007176 128.7948879 104.2205289 102.2990865 128.8309337 104.4337654
  98.7643167 131.4551839  97.8317780  99.6262331 131.7806737  98.0913598
  98.9493511 130.6683335  97.3190846  99.7172610 128.6947882 101.1197489
  99.7051280 129.6389722 101.2765760 100.6096032 128.5118028 100.8256951
 103.5324729 125.2890659 105.3743426 102.7657125 124.7349146 105.5200109
 103.9435434 125.3612528 106.2357578  28.6664833   7.5804092  96.9956315
  29.3043243   7.4610840  96.2919655  28.5485676   8.5284936  97.0544267
  25.4754539   7.5331520  96.9317840  25.1373050   7.4172585  96.0438375
  26.3444307   7.1322685  96.9118846  21.3341355   9.3866997  92.9214731
  20.7706220   9.2956934  92.1531019  21.2193750   8.5666901  93.4017223
  18.8805787  10.8818188  95.7598951  19.6727078  10.5409013  95.3445251
  19.1202437  10.9913163  96.6801105  26.9140913  13.0537964  88.2329196
  26.2628893  13.6392045  87.8463209  27.7085276  13.5844159  88.2924233
  20.8396540  10.1427102  88.6316330  21.6127416   9.5956089  88.4929206
  21.1921939  11.0071351  88.8430791  23.6037790   8.8480332  98.4284589
  24.2001362   8.6236355  97.7141552  23.6612761   8.1065078  99.0310037
  23.1762818   6.3019768  86.2634780  23.4288339   5.7801289  85.5018243
  22.2387377   6.1385913  86.3661464  28.2206101   5.3055546  94.0709523
  29.0069190   4.8874969  93.7199940  28.4844805   6.2101638  94.2391172
  28.3916178  10.7428396  88.7698180  27.7562011  10.8163023  89.4819085
  28.0613585  11.3321995  88.0917259  33.6214528   5.2430779  94.9742502
  34.3539700   4.6729996  95.2080331  32.8653884   4.8552380  95.4149007
  22.8959107   8.2047874  88.4659155  22.7795365   7.5292777  89.1340239
  23.0061367   7.7180248  87.6491308  25.2390648   7.6658021  92.1705844
  24.8748855   7.1388642  92.8818766  26.0957764   7.2756490  91.9972330
  27.6371468  11.1564899  98.8333023  27.3372191  12.0589938  98.7248830
  27.2922528  10.8897083  99.6854176  21.0883950   7.6078696  94.8669727
  20.1634446   7.4754910  95.0747419  21.3368363   8.3872915  95.3639670
  31.0368612   3.6747440  96.5130460  30.1285489   3.6062848  96.2189221
  30.9856208   4.1519384  97.3412286  24.8585356   5.1505578  88.1513859
  24.7384981   5.5962629  88.9899340  24.1637944   5.4990896  87.5927398
  22.6192248  17.9209220  91.8003991  22.5416278  18.8717045  91.8792471
  22.0153892  17.5755092  92.4578917  32.9030258   1.8763878  98.2908334
  32.2604639   2.1696411  97.6448129  32.3985187   1.7616798  99.0961531
  30.5570422   5.6227051  88.9794194  31.4688278   5.8554438  88.8041891
  30.0480069   6.2064095  88.4169272  29.1640004  10.6052870  96.3707775
  28.5348867  10.7698584  95.6683843  28.7765666  11.0194479  97.1418739
  33.0429236  11.5407307  93.7252139  32.3580274  11.9206209  93.1749172
  33.1273085  12.1502634  94.4584086  30.2980168   9.1867266 100.3247482
  30.5097063   9.8299026  99.6481863  30.2509916   8.3529583  99.8569412
  24.7167966  10.3427278  93.6357860  25.1806312  10.6214981  92.8462483
  24.4524764   9.4410722  93.4530951  21.6092047   9.8898759  96.5737623
  22.1793404  10.3186028  95.9355108  22.2000159   9.6081344  97.2721809
  23.6536852   6.4650430  90.4447425  24.3560896   6.9171474  90.9121352
  23.3217481   5.8234249  91.0727318  31.4125996  12.0639222  98.4969840
  32.2343439  11.6619409  98.2152521  31.4088399  11.9607456  99.4485955
  25.1782599  11.6123265 100.6530550  25.2427032  12.0743672 101.4888722
  24.4693523  10.9820630 100.7812860  39.5031989   8.4077970  94.8454811
  38.7495697   7.8385368  94.6898816  39.6379530   8.3740635  95.7925446
  24.8930617  13.2791373  90.5209530  24.7576292  14.1242908  90.9494378
  25.4340429  13.4810650  89.7575464  18.3460014  10.7966811  91.0937456
  18.8584535  11.5910061  91.2443020  18.9982727  10.0993101  91.0271057
  20.1554899  13.9132567  93.1760209  20.3321527  14.8350532  92.9881193
  20.9511732  13.5990986  93.6054588  21.2786214  15.4310741  99.1770551
  21.8293640  15.3027804  98.4047545  20.4397690  15.7305630  98.8265444
  28.6180331  14.1817739 102.6791274  28.5998807  15.0026620 102.1871543
  29.5400251  14.0571814 102.9041415  28.2073363   6.7930546  87.5580859
  27.6919987   7.5635150  87.7969246  27.9350672   6.1195682  88.1813920
  33.1807637   9.5462900  89.4934032  32.4037080   9.2074060  89.0489195
  33.8599118   9.5515523  88.8188998  27.9959666   4.6657638  89.3840640
  27.6909802   4.9803787  90.2350783  28.9490108   4.7439058  89.4267973
  26.4406098  10.8247861  91.0333594  25.9127460  10.0900621  90.7206832
  25.9393601  11.6022537  90.7873563  31.4198944   9.0196882  96.1500640
  30.7622619   9.7096143  96.2380769  32.2239343   9.4093313  96.4934627
  30.2304403   7.3741254  94.2004582  30.7436285   8.0071246  94.7026292
  30.8805627   6.7742450  93.8347942  24.5858698   8.6428071  84.0368567
  23.6785760   8.4117325  84.2359716  25.0829730   7.8465691  84.2242549
  27.4926777  17.3525578  86.9565253  26.8188476  17.6557275  87.5650211
  27.8792599  18.1554659  86.6070710  26.7085234   4.8490710  96.4462923
  25.7907795   5.0705657  96.2884611  27.1245377   4.9237020  95.5874630
  27.4920282   6.2482125  91.5765603  28.2392101   6.7603523  91.2672725
  27.7611871   5.9266178  92.4369997  25.7646932   8.7440666  88.5592557
  24.8558151   8.4599699  88.6565027  25.7942016   9.1639745  87.6995864
  30.9966199  12.3547256  92.3283725  30.5428526  11.5138166  92.3848915
  30.3660166  12.9908654  92.6658505  29.9399119   3.2839242  93.5584392
  29.2021876   2.7716628  93.8894635  30.1925892   2.8439623  92.7467669
  29.4399138  14.1923752  93.2633543  29.7322113  14.7528809  92.5445909
  29.9497759  14.4852313  94.0186702  24.3131826   6.3569287  94.6602353
  24.3680436   5.4043123  94.5844829  23.5023028   6.5128726  95.1443651
  25.4623020  10.2849410  85.8980636  25.0242449   9.5685269  85.4386273
  26.2033460  10.5125525  85.3365727  24.4032764  14.9704103  94.3526996
  24.3608942  15.1964950  93.4235528  25.3195462  14.7367478  94.5012797
  33.5796134   8.5606607  91.9556954  33.4414033   8.7508203  91.0278144
  33.2232353   9.3225990  92.4125006  33.6065514  10.6283134  96.9668226
  34.0402021  10.5358423  97.8151280  34.3197095  10.6040634  96.3288242
  22.5198564  11.8467132  94.1488959  23.3139163  11.3517453  93.9471534
  21.8090257  11.3184996  93.7856664  27.3393409  14.2285228  98.5001327
  27.3930431  14.7976164  99.2679042  26.4708190  14.3987113  98.1355364
  34.4681064  10.6706835  99.5001111  34.6616954  11.5752645  99.7460386
  34.3681682  10.2114254 100.3339696  26.2981509   8.3945490 100.0588258
  27.2273569   8.5456650  99.8857226  25.8772539   8.4829511  99.2036905
  25.0969840  12.4196154  97.8286796  24.9580926  12.0514939  98.7012734
  24.3084437  12.9343794  97.6570754  25.6917992  17.5205251  89.1712333
  25.8669748  17.0493294  89.9857955  25.0050780  18.1471017  89.3993593
  26.6475056  11.7977757  95.2175634  26.3124888  11.7578527  96.1133284
  26.1479001  11.1322473  94.7446044  29.5834247   9.1433791  85.4912693
  28.9663418   8.4180620  85.3945746  29.1150736   9.9043152  85.1479768
  31.2388379  13.8532700 103.1518474  31.1800925  13.1691920 102.4849057
  31.6407897  14.5951690 102.6999100  20.2579078  20.6694614  95.9452193
  20.4975676  21.3013138  96.6231211  19.4148274  20.3182654  96.2317552
  31.2405786  11.8172284 101.3832453  30.3532565  11.4798206 101.5058852
  31.8104337  11.0855315 101.6201219  24.7706939  16.4773736  98.3493697
  24.6977111  17.2828708  98.8613001  24.3284333  16.6765702  97.5241718
  24.5596719  15.7145506  91.8596518  23.7764241  16.2567186  91.9534743
  25.2589464  16.2319486  92.2590759  35.7223127   7.2280501  96.1449015
  35.7113003   8.1105217  95.7742948  34.8540506   6.8752052  95.9503552
  27.2305623  16.3760570 100.5051855  27.9433595  17.0108035 100.4327757
  26.7395652  16.4724436  99.6891857  28.9523150  10.2811823  92.0769147
  28.0179429  10.4013285  91.9073851  29.1299818   9.3784290  91.8129157
  32.3395701   6.1229142  92.6119181  32.8056153   6.9557134  92.5379484
  32.7903202   5.6574124  93.3164440  22.2817537  14.1255014 101.3257426
  22.9826996  14.7591497 101.4786820  21.8112652  14.4669745 100.5653065
  30.4071932  12.4672963  89.6105333  30.6831776  12.3529558  90.5199207
  29.5376431  12.0690448  89.5717506  30.0818823   6.6799621  99.1509977
  29.4290273   6.9275529  98.4962429  30.4599202   5.8663759  98.8172454
  27.0425996  16.7159314  93.2538147  27.2248391  15.8980970  93.7165899
  27.8658982  16.9327006  92.8163037  27.3768162  15.6427499  90.5153195
  27.9055928  15.1319954  89.9023357  27.6396381  15.3270030  91.3798728
  17.8785255  13.6591369  98.2588529  18.4638691  12.9135057  98.3916433
  17.6810093  13.9695325  99.1425193  20.7323910  16.6942616  93.2750971
  20.0634285  17.1788744  92.7915011  20.5936780  16.9411836  94.1894350
  24.8729178  18.7286360  99.8733630  25.4247486  18.8917981 100.6382715
  25.2135372  19.3190797  99.2013654  28.0097566  16.6768335  96.8597312
  27.8848705  15.8758075  96.3508257  28.6676657  17.1714528  96.3711282
  30.0732474  14.4777355  98.4876862  29.1262810  14.3582706  98.4155189
  30.4215247  13.5899853  98.5703123  27.0778907  14.2730071  94.6881214
  26.9303870  13.3446779  94.8688784  27.9032401  14.2950162  94.2038289
  30.6813029  15.0958630  95.7746087  31.6059577  14.8901491  95.6370538
  30.5128333  14.8475031  96.6835428  30.4708345  15.6144298  91.1308178
  30.6445223  15.0490720  90.3782031  30.9637237  16.4145192  90.9487668
  36.3247737   8.3780721  92.7498478  36.7678883   7.6288046  92.3517601
  35.4474247   8.3690857  92.3672210  31.4583518  14.9311062  88.2305077
  32.1534423  15.5517755  88.4492391  31.8006668  14.0806413  88.5057454
  33.3574941  12.3810768  89.7592407  33.8826265  12.7198040  89.0341727
  33.2697294  11.4457783  89.5755542  25.0194990  16.2944841 101.8882284
  25.3282116  16.0493988 102.7604984  25.8170472  16.4991480 101.4001154
  25.0415602  18.4482751  94.1187661  24.6020592  17.9559129  94.8120517
  25.7923719  17.9055718  93.8779736  17.5207941  14.6394292  94.1212289
  18.3465961  14.3398064  93.7410932  17.1701993  13.8701914  94.5702077
  22.4889474  13.9920760  96.1909962  21.8669483  13.3291465  95.8912190
  23.1594341  14.0181892  95.5083610  15.7216546  12.5580618  95.0801222
  14.8848454  12.1302792  94.8985223  15.6940191  12.7513061  96.0172013
  33.0468847  13.0143671 105.0643605  32.2564391  12.9967810 104.5248105
  32.8102202  13.5531965 105.8192642  33.1666722   9.8636138 102.3776334
  33.2164727   9.6986145 103.3191857  33.0580645   8.9963397 101.9874215
  22.0502981  12.5424683  89.6668423  22.1991101  13.2260148  89.0135095
  22.8569424  12.5229773  90.1817878  34.6684919  12.2833079 102.6218355
  34.3769727  12.6463060 103.4581816  34.0557050  11.5700087 102.4431687
  35.8680601   9.8485959  95.1420926  36.7027493  10.2875763  95.3058486
  36.0039730   9.3724612  94.3229171  32.9172107   7.4065694 101.0898413
  33.3926229   7.5993340 100.2817265  31.9937673   7.4624880 100.8441797
  19.8055614   8.5689861  90.6729492  19.5601656   7.6652191  90.8709702
  19.9751528   8.5707011  89.7308970  25.5498386  15.0372814  87.1380170
  24.9772353  15.6563001  86.6850642  26.1231180  15.5872175  87.6720092
  31.6173776   4.2831454  99.3226719  32.5691199   4.3829551  99.3438943
  31.4477227   3.4909722  99.8324803  28.7695646  15.3209964  88.2688752
  29.7026319  15.2555525  88.4721628  28.6818859  16.1566231  87.8103285
  31.3983663  14.6375834  85.2292700  31.3197294  14.3035698  86.1228458
  32.2193330  15.1297602  85.2284172  34.0961854   7.5037573  98.4369019
  34.0638174   6.5653574  98.6228702  34.7062478   7.5821610  97.7034843
  25.9345185   6.3733626  84.4796223  26.8804290   6.2439835  84.5484641
  25.5559430   5.6348288  84.9565651  34.2456342   4.2948617  98.4827302
  33.7295391   3.5107074  98.2957231  35.1296291   3.9667334  98.6473821
  39.9138404   8.5653580  97.5775055  40.6441792   8.3038868  98.1382759
  39.3045349   7.8282302  97.6177123  37.9953701   6.7061443  98.1749507
  37.2686865   6.5717408  97.5665998  37.5800988   7.0138271  98.9806225
  31.0419523   0.0299064  91.6998310  30.4618192   0.6883869  91.3176362
  30.7755456  -0.7923591  91.2885728  16.8191045   9.1711131  94.7109291
  16.7961733   9.2698819  93.7591174  17.1291681  10.0176282  95.0326457
  29.8244401   2.1899155  90.7554658  28.9370256   2.4748805  90.5374853
  30.2398390   2.0292918  89.9081935  33.1758937   2.2145676  94.4708998
  33.9519327   2.7042128  94.7433614  32.4507071   2.6403730  94.9280867
  35.6131496   2.9273295  95.5282938  36.2075987   2.6869031  94.8176246
  35.6858080   2.2080426  96.1556474  17.8328652  16.7706906  95.8426103
  17.6983120  16.0107307  95.2764101  17.4160714  17.4947806  95.3754892
  28.9687615  11.9543830  84.8502678  29.6723465  12.1593832  85.4660334
  28.2450263  12.5220591  85.1151762  29.7985425   7.7053691  90.9704948
  29.7420626   8.1622242  90.1312581  30.3513767   6.9444375  90.7927791
  33.6090231   3.4943423  91.7955068  33.3527165   3.0940058  92.6263276
  32.9843099   4.2087217  91.6705207  37.9202569   6.2339496  94.3026359
  37.3602127   6.3032685  95.0757921  37.3146072   6.0580481  93.5825856
  20.9897777  17.6676223  96.0544546  20.8730162  18.6121656  95.9523236
  20.1690224  17.3649785  96.4430345  30.8774312  12.3926359  86.9001138
  31.7119916  11.9607557  86.7178613  30.7158655  12.2208372  87.8278033
  30.5320204   8.8958472  88.2657478  30.4769008   8.7302743  87.3245922
  29.9066259   9.6034505  88.4219667  22.0152292  18.3204485  99.2700474
  22.9179538  18.3528095  99.5866969  21.7889662  17.3904936  99.2846810
  23.7705894  17.0735471  95.9310553  22.8201525  17.0737333  95.8174925
  24.0738380  16.3268206  95.4146587  39.5058587  22.9096010  96.9956315
  40.1436997  22.7902757  96.2919655  39.3879430  23.8576854  97.0544267
  36.3148293  22.8623438  96.9317840  35.9766805  22.7464503  96.0438375
  37.1838062  22.4614603  96.9118846  32.1735109  24.7158914  92.9214731
  31.6099974  24.6248851  92.1531019  32.0587504  23.8958819  93.4017223
  36.7968076  24.0158290 102.8904045  36.7856717  23.6211088 102.0184549
  36.9588716  23.2824362 103.4837817  29.7199541  26.2110106  95.7598951
  30.5120833  25.8700931  95.3445251  29.9596191  26.3205081  96.6801105
  37.7534668  28.3829882  88.2329196  37.1022648  28.9683962  87.8463209
  38.5479031  28.9136077  88.2924233  31.6790295  25.4719019  88.6316330
  32.4521171  24.9248006  88.4929206  32.0315694  26.3363269  88.8430791
  33.5175338  26.7995401 101.8383229  33.2265203  27.7041032 101.7229896
  34.1532322  26.8411929 102.5527299  34.4431544  24.1772250  98.4284589
  35.0395117  23.9528272  97.7141552  34.5006516  23.4356995  99.0310037
  34.0156573  21.6311685  86.2634780  34.2682093  21.1093207  85.5018243
  33.0781132  21.4677831  86.3661464  39.0599856  20.6347464  94.0709523
  39.8462945  20.2166887  93.7199940  39.3238560  21.5393556  94.2391172
  39.2309933  26.0720314  88.7698180  38.5955766  26.1454941  89.4819085
  38.9007339  26.6613913  88.0917259  44.4608283  20.5722697  94.9742502
  45.1933455  20.0021914  95.2080331  43.7047638  20.1844297  95.4149007
  33.7352862  23.5339791  88.4659155  33.6189120  22.8584695  89.1340239
  33.8455121  23.0472165  87.6491308  36.0784402  22.9949938  92.1705844
  35.7142610  22.4680559  92.8818766  36.9351518  22.6048407  91.9972330
  41.9833703  14.2844271  99.4337110  41.6517028  15.1539682  99.2098325
  41.3879316  13.9680555 100.1131141  35.7189889  18.0239838  87.1667193
  35.8864292  18.8920075  87.5337664  35.5287058  18.1867120  86.2428482
  38.4765223  26.4856817  98.8333023  38.1765946  27.3881856  98.7248830
  38.1316282  26.2189000  99.6854176  31.9277704  22.9370614  94.8669727
  31.0028201  22.8046828  95.0747419  32.1762117  23.7164833  95.3639670
  41.8762366  19.0039357  96.5130460  40.9679244  18.9354766  96.2189221
  41.8249962  19.4811302  97.3412286  35.6979110  20.4797496  88.1513859
  35.5778735  20.9254546  88.9899340  35.0031699  20.8282813  87.5927398
  29.2886515  22.5803887  95.7013517  29.4178896  22.8338366  96.6152928
  28.6083966  23.1731595  95.3818172  33.4586002  33.2501137  91.8003991
  33.3810032  34.2008962  91.8792471  32.8547646  32.9047010  92.4578917
  35.9503232  20.4229003 104.4565358  35.1736566  20.9822923 104.4468222
  36.5893795  20.9085786 104.9780228  43.7424013  17.2055796  98.2908334
  43.0998393  17.4988329  97.6448129  43.2378941  17.0908716  99.0961531
  41.3964176  20.9518969  88.9794194  42.3082033  21.1846356  88.8041891
  40.8873824  21.5356013  88.4169272  34.2049604  23.2314456 104.0183325
  34.9464289  23.7699500 103.7418148  33.4986590  23.8580745 104.1754876
  39.6804944  25.3743597 102.6155486  40.0888300  24.9326007 101.8710118
  38.9582206  24.7996224 102.8689679  36.0336014  20.3116203  99.9889043
  36.8797209  20.7355617 100.1323692  35.9734652  19.6549828 100.6827606
  40.0033759  25.9344787  96.3707775  39.3742621  26.0990501  95.6683843
  39.6159421  26.3486397  97.1418739  43.8822991  26.8699225  93.7252139
  43.1974029  27.2498126  93.1749172  43.9666840  27.4794552  94.4584086
  39.1835459  17.9720572 101.6470217  38.9396391  18.7262632 101.1104492
  39.4595390  18.3505919 102.4817464  41.1373922  24.5159184 100.3247482
  41.3490818  25.1590944  99.6481863  41.0903671  23.6821501  99.8569412
  38.7400151  17.1277005  97.2284054  37.8784630  17.4258258  97.5200792
  38.7662586  17.3447404  96.2965087  35.5561721  25.6719195  93.6357860
  36.0200066  25.9506898  92.8462483  35.2918519  24.7702640  93.4530951
  32.4485802  25.2190677  96.5737623  33.0187159  25.6477945  95.9355108
  33.0393914  24.9373262  97.2721809  34.4930607  21.7942348  90.4447425
  35.1954650  22.2463391  90.9121352  34.1611235  21.1526167  91.0727318
  32.9410968  20.3854104 104.8198635  32.3109629  21.0670385 105.0534031
  32.8347056  20.2737186 103.8751773  28.2355941  20.0525900  95.7464559
  27.4454995  20.3083429  95.2704669  28.7267188  20.8674238  95.8516599
  42.2519750  27.3931140  98.4969840  43.0737194  26.9911327  98.2152521
  42.2482153  27.2899374  99.4485955  30.1870686  20.4170480  92.7048035
  29.3901849  20.5289174  93.2231531  29.9596278  20.7557132  91.8388926
  36.0176354  26.9415183 100.6530550  36.0820786  27.4035590 101.4888722
  35.3087278  26.3112548 100.7812860  26.5193644  20.3056391  98.1779550
  26.7701682  21.1903401  98.4437126  27.0553192  20.1260992  97.4054641
  50.3425743  23.7369888  94.8454811  49.5889452  23.1677286  94.6898816
  50.4773284  23.7032553  95.7925446  35.7324371  28.6083290  90.5209530
  35.5970046  29.4534826  90.9494378  36.2734184  28.8102568  89.7575464
  29.1853769  26.1258728  91.0937456  29.6978289  26.9201979  91.2443020
  29.8376482  25.4285019  91.0271057  30.9948653  29.2424485  93.1760209
  31.1715282  30.1642449  92.9881193  31.7905487  28.9282904  93.6054588
  35.1359672  16.1032749 104.7744142  35.8769385  16.7039902 104.6948605
  35.3677595  15.3610387 104.2162185  30.2801010  21.2889117 103.0522372
  30.1654525  20.3874374 103.3529471  29.4245528  21.5352813 102.7007188
  37.3592848  29.2306857 104.6509873  36.9156702  28.4443235 104.3330777
  38.0210061  29.4186007 103.9853763  32.1179969  30.7602658  99.1770551
  32.6687394  30.6319722  98.4047545  31.2791445  31.0597547  98.8265444
  39.4574086  29.5109657 102.6791274  39.4392561  30.3318538 102.1871543
  40.3794006  29.3863732 102.9041415  35.9147140  27.0253786 103.5214782
  36.4475477  26.2642074 103.2914090  35.3861221  26.7327438 104.2638937
  39.0816835  12.1313852  99.0508424  38.7381104  13.0215494  98.9747534
  39.4495797  11.9415510  98.1878009  27.1502685  24.4547383  91.8697026
  27.9877907  24.8644391  91.6530734  27.3280953  23.5146825  91.8397220
  39.0467118  22.1222463  87.5580859  38.5313741  22.8927068  87.7969246
  38.7744426  21.4487599  88.1813920  36.6314229  16.9672164  92.6166097
  35.7755825  16.5779014  92.4371736  37.0441180  17.0464125  91.7565883
  38.1613375  14.5018507  97.0157657  37.6578171  14.4648643  96.2025462
  38.4543982  15.4111250  97.0754314  34.4056261  14.5857237  96.0223839
  35.2709258  14.3900046  95.6629728  34.4733770  14.3567589  96.9493196
  44.0201392  24.8754818  89.4934032  43.2430835  24.5365977  89.0489195
  44.6992873  24.8807441  88.8188998  38.8353421  19.9949555  89.3840640
  38.5303556  20.3095705  90.2350783  39.7883863  20.0730975  89.4267973
  37.2799853  26.1539779  91.0333594  36.7521214  25.4192538  90.7206832
  36.7787355  26.9314455  90.7873563  42.2592699  24.3488799  96.1500640
  41.6016373  25.0388061  96.2380769  43.0633098  24.7385231  96.4934627
  32.0118580  16.8159445  93.3940206  32.5862332  16.5934626  92.6613399
  32.5989563  16.8848140  94.1468807  41.0698157  22.7033172  94.2004582
  41.5830039  23.3363164  94.7026292  41.7199381  22.1034367  93.8347942
  32.3388167  18.8463906  87.4136091  31.5025480  19.1838593  87.7345366
  32.1992937  18.7112886  86.4763228  34.3141248  13.6900694  92.1215275
  33.6605660  13.3749711  91.4971890  34.2721722  13.0676434  92.8475098
  35.4252453  23.9719989  84.0368567  34.5179515  23.7409242  84.2359716
  35.9223485  23.1757608  84.2242549  38.3320532  32.6817496  86.9565253
  37.6582230  32.9849193  87.5650211  38.7186354  33.4846577  86.6070710
  37.5478988  20.1782627  96.4462923  36.6301550  20.3997574  96.2884611
  37.9639132  20.2528938  95.5874630  38.3314036  21.5774043  91.5765603
  39.0785855  22.0895440  91.2672725  38.6005626  21.2558096  92.4369997
  36.6040686  24.0732584  88.5592557  35.6951906  23.7891617  88.6565027
  36.6335770  24.4931662  87.6995864  41.8359954  27.6839173  92.3283725
  41.3822281  26.8430083  92.3848915  41.2053920  28.3200572  92.6658505
  40.7792873  18.6131159  93.5584392  40.0415630  18.1008546  93.8894635
  41.0319647  18.1731541  92.7467669  40.2792893  29.5215670  93.2633543
  40.5715867  30.0820727  92.5445909  40.7891513  29.8144231  94.0186702
  40.8804501  11.3907411  94.1526162  41.1863377  10.5304775  93.8652077
  41.6057105  11.9825032  93.9525155  27.1728857  21.7938098  92.5407759
  26.9753256  21.2007459  91.8158826  26.6175521  21.4890308  93.2583698
  35.1525580  21.6861204  94.6602353  35.2074190  20.7335041  94.5844829
  34.3416782  21.8420644  95.1443651  36.3016774  25.6141328  85.8980636
  35.8636204  24.8977186  85.4386273  37.0427215  25.8417442  85.3365727
  33.0917940  20.3038264  92.4192732  32.2785806  20.6032435  92.8257924
  33.5876934  19.9093953  93.1367214  35.2426518  30.2996021  94.3526996
  35.2002697  30.5256867  93.4235528  36.1589217  30.0659396  94.5012797
  38.6892152  20.7680089 101.2507625  39.0441540  20.9951562 102.1102091
  39.3364283  21.0998465 100.6284881  44.4189889  23.8898525  91.9556954
  44.2807787  24.0800121  91.0278144  44.0626108  24.6517907  92.4125006
  32.5832015  17.8756620  98.0353966  33.2231394  17.7345379  97.3376930
  31.7509546  17.5891133  97.6592568  44.4459268  25.9575052  96.9668226
  44.8795775  25.8650341  97.8151280  45.1590849  25.9332552  96.3288242
  33.3592319  27.1759050  94.1488959  34.1532917  26.6809370  93.9471534
  32.6484011  26.6476913  93.7856664  38.1787163  29.5577146  98.5001327
  38.2324186  30.1268082  99.2679042  37.3101945  29.7279031  98.1355364
  29.6675082  21.3202132  90.2248712  28.7372670  21.2586587  90.4418674
  29.7632554  20.7978085  89.4285353  29.5860631  17.8456945  92.8126953
  29.8467449  18.7602278  92.7036114  30.4077804  17.3781387  92.9623566
  31.0585557  19.2594702  99.9825778  31.7308610  19.0512064  99.3338427
  30.2315343  19.0616788  99.5431010  45.3074818  25.9998752  99.5001111
  45.5010708  26.9044563  99.7460386  45.2075436  25.5406171 100.3339696
  36.9611129  15.8856643 101.9991439  36.3139044  16.5846592 101.9055915
  37.7312144  16.3192787 102.3667687  40.3689927  26.1505495 105.0741992
  40.2175433  25.9216047 104.1572076  40.3594606  27.1076096 105.0873337
  37.1375263  23.7237408 100.0588258  38.0667323  23.8748567  99.8857226
  36.7166293  23.8121428  99.2036905  35.9363595  27.7488072  97.8286796
  35.7974681  27.3806857  98.7012734  35.1478191  28.2635712  97.6570754
  36.5311747  32.8497169  89.1712333  36.7063503  32.3785212  89.9857955
  35.8444535  33.4762935  89.3993593  37.4868810  27.1269675  95.2175634
  37.1518643  27.0870445  96.1133284  36.9872756  26.4614391  94.7446044
  31.4613054  22.5337305 100.7428215  31.3232852  21.8017544 101.3439754
  32.3717977  22.4446205 100.4612403  40.4228002  24.4725709  85.4912693
  39.8057172  23.7472537  85.3945746  39.9544490  25.2335069  85.1479768
  34.0895355  22.2457264 100.2311895  34.7994973  21.6050456 100.1898513
  34.0464663  22.4970159 101.1538075  42.0782133  29.1824618 103.1518474
  42.0194679  28.4983838 102.4849057  42.4801652  29.9243608 102.6999100
  32.8024289  19.2322482 102.0507534  32.2661646  18.7813221 102.7029130
  32.2140997  19.3668391 101.3077998  31.0972832  35.9986531  95.9452193
  31.3369430  36.6305056  96.6231211  30.2542029  35.6474571  96.2317552
  32.2126548  18.6911133  84.6133998  31.3356014  18.5699934  84.2496244
  32.6884301  17.8997212  84.3612886  42.0799541  27.1464201 101.3832453
  41.1926319  26.8090123 101.5058852  42.6498092  26.4147233 101.6201219
  23.7328688  23.4788293  94.7075505  24.4199728  23.1650023  94.1196520
  23.5776816  24.3829658  94.4342756  28.5363410  18.3678490  99.1360529
  28.4521599  17.7604159  98.4010939  27.7146116  18.8587508  99.1370025
  35.6100694  31.8065654  98.3493697  35.5370865  32.6120625  98.8613001
  35.1678087  32.0057620  97.5241718  35.3990474  31.0437424  91.8596518
  34.6157995  31.5859104  91.9534743  36.0983219  31.5611403  92.2590759
  38.7087124  16.8532053  94.5030724  39.2055823  16.1002016  94.1831794
  37.9374105  16.8896370  93.9373933  46.5616881  22.5572419  96.1449015
  46.5506757  23.4397134  95.7742948  45.6934261  22.2043970  95.9503552
  38.0699378  31.7052488 100.5051855  38.7827350  32.3399953 100.4327757
  37.5789406  31.8016354  99.6891857  39.7916904  25.6103741  92.0769147
  38.8573183  25.7305203  91.9073851  39.9693573  24.7076207  91.8129157
  35.2922092  18.9949436  94.2302408  34.9219880  18.4420477  94.9183314
  35.7881185  18.3907570  93.6777408  43.1789456  21.4521060  92.6119181
  43.6449908  22.2849051  92.5379484  43.6296956  20.9866041  93.3164440
  33.1211291  29.4546931 101.3257426  33.8220751  30.0883414 101.4786820
  32.6506406  29.7961663 100.5653065  41.2465687  27.7964881  89.6105333
  41.5225531  27.6821476  90.5199207  40.3770186  27.3982366  89.5717506
  41.1506119  13.8201647  96.6510082  40.2369198  14.0505874  96.8192289
  41.5799220  13.9040091  97.5024115  40.9212577  22.0091539  99.1509977
  40.2684027  22.2567446  98.4962429  41.2992957  21.1955677  98.8172454
  37.8819751  32.0451232  93.2538147  38.0642145  31.2272888  93.7165899
  38.7052737  32.2618924  92.8163037  38.2161916  30.9719417  90.5153195
  38.7449683  30.4611872  89.9023357  38.4790136  30.6561947  91.3798728
  36.9700150  22.7511350 105.6376014  36.2940787  22.6505479 106.3078389
  37.7927784  22.5950564 106.1012011  28.7179009  28.9883286  98.2588529
  29.3032446  28.2426974  98.3916433  28.5203848  29.2987243  99.1425193
  31.5717664  32.0234534  93.2750971  30.9028040  32.5080661  92.7915011
  31.4330534  32.2703754  94.1894350  23.3096664  21.5588887  96.9792972
  23.3480763  21.0252477  97.7730090  22.8036957  21.0324092  96.3603949
  35.7122933  34.0578277  99.8733630  36.2641241  34.2209899 100.6382715
  36.0529126  34.6482715  99.2013654  30.6887426  16.4053427 100.4755514
  30.7528753  17.2668258 100.0632912  30.6254546  15.7927429  99.7427873
  30.1639699  18.4776560 104.1228549  30.7911737  18.0953637 104.7366073
  29.3067618  18.2590762 104.4884241  40.5633807  28.8839535 105.7282284
  41.1073711  29.4969493 105.2337239  39.9820652  29.4419113 106.2449297
  26.9405241  20.2852989  90.0546903  27.2358682  19.3763667  90.0013957
  26.0393277  20.2640728  89.7327906  38.8491320  32.0060253  96.8597312
  38.7242460  31.2049993  96.3508257  39.5070411  32.5006446  96.3711282
  30.4699488  18.3608985  96.0374452  29.7486074  18.9744953  95.8981925
  31.2592744  18.8966750  95.9591098  40.9126229  29.8069273  98.4876862
  39.9656564  29.6874624  98.4155189  41.2609002  28.9191771  98.5703123
  33.2725802  15.6963412 102.3115104  33.7960204  15.9425708 103.0741413
  33.0538135  16.5283447 101.8918241  28.6693083  17.9667086  90.1786229
  28.3405789  17.0864465  89.9961334  29.0232454  17.9114755  91.0662618
  37.9172662  29.6021989  94.6881214  37.7697624  28.6738696  94.8688784
  38.7426155  29.6242080  94.2038289  31.7834906  18.2540056  90.5461706
  32.1230979  18.7825977  89.8240315  32.2307027  18.5920462  91.3220273
  41.5206784  30.4250548  95.7746087  42.4453331  30.2193409  95.6370538
  41.3522087  30.1766949  96.6835428  34.4778347  16.6377107  99.9964774
  34.1375167  15.8384920 100.3985454  33.7717353  16.9378818  99.4241607
  35.1294819  13.7226419  98.4492097  35.9520888  13.2486898  98.3270988
  35.3732882  14.5016903  98.9490784  33.7703053  16.7514678  88.7454999
  34.4911416  17.1295931  88.2418716  33.1468357  17.4703555  88.8489977
  37.9134176  17.4559827  89.6813331  38.1297791  18.3384465  89.3802159
  37.4328243  17.0646040  88.9518973  32.6533398  20.4145540  96.2584076
  32.5077978  20.7285843  97.1508357  32.1758601  21.0330440  95.7054975
  34.5129780  17.4048088  96.3064965  34.4991349  16.5089181  95.9697263
  35.2302209  17.4118752  96.9403252  36.3655911  17.8385428  98.3518093
  36.1073689  18.7602499  98.3502423  35.8340952  17.4415863  99.0418557
  41.3102100  30.9436215  91.1308178  41.4838977  30.3782638  90.3782031
  41.8030991  31.7437110  90.9487668  27.1279060  22.9550884  99.1971737
  26.5832528  23.7310692  99.3292011  28.0058410  23.3021689  99.0390859
  33.9166676  16.2862468  91.5752536  34.0382588  15.3579114  91.7743423
  33.6268719  16.3001154  90.6630851  36.7857867  13.9717379  94.7119255
  36.8079564  14.0356712  93.7571235  37.2025926  13.1321887  94.9059762
  47.1641491  23.7072638  92.7498478  47.6072637  22.9579963  92.3517601
  46.2868001  23.6982775  92.3672210  42.2977272  30.2602980  88.2305077
  42.9928177  30.8809672  88.4492391  42.6400423  29.4098331  88.5057454
  27.9145082  22.0820781 102.0901894  27.1726818  22.2303416 102.6766524
  27.5937826  22.3429046 101.2268643  44.1968696  27.7102685  89.7592407
  44.7220020  28.0489958  89.0341727  44.1091048  26.7749701  89.5755542
  35.8588744  31.6236759 101.8882284  36.1675871  31.3785906 102.7604984
  36.6564226  31.8283397 101.4001154  35.8809356  33.7774668  94.1187661
  35.4414347  33.2851047  94.8120517  36.6317473  33.2347636  93.8779736
  28.3601695  29.9686209  94.1212289  29.1859715  29.6689981  93.7410932
  28.0095747  29.1993832  94.5702077  33.3283228  29.3212678  96.1909962
  32.7063238  28.6583383  95.8912190  33.9988095  29.3473809  95.5083610
  26.5610300  27.8872536  95.0801222  25.7242209  27.4594710  94.8985223
  26.5333946  28.0804979  96.0172013  33.4007756  17.7994466 105.7842468
  33.4495911  18.6756588 105.4020238  33.9430270  17.2571859 105.2114111
  43.8862602  28.3435589 105.0643605  43.0958145  28.3259728 104.5248105
  43.6495956  28.8823883 105.8192642  44.0060477  25.1928055 102.3776334
  44.0558482  25.0278063 103.3191857  43.8974400  24.3255314 101.9874215
  32.8896735  27.8716601  89.6668423  33.0384856  28.5552065  89.0135095
  33.6963179  27.8521691  90.1817878  41.2964239  21.1758983 103.6935641
  42.1974102  21.0365448 103.4019638  41.3712214  21.3413438 104.6333818
  35.6307044  18.5525838 102.5388827  34.7610354  18.8459404 102.2671415
  35.8666525  19.1366283 103.2596090  45.5078673  27.6124997 102.6218355
  45.2163482  27.9754977 103.4581816  44.8950805  26.8992005 102.4431687
  46.7074356  25.1777877  95.1420926  47.5421247  25.6167681  95.3058486
  46.8433485  24.7016530  94.3229171  43.7565862  22.7357611 101.0898413
  44.2319983  22.9285258 100.2817265  42.8331427  22.7916797 100.8441797
  30.6449368  23.8981779  90.6729492  30.3995410  22.9944109  90.8709702
  30.8145283  23.8998929  89.7308970  38.3346078  14.7705455 100.0554247
  38.8528022  15.5066482  99.7300736  37.9801211  15.0769448 100.8901006
  29.9145016  19.6310136  88.1715653  29.2214261  19.7054491  87.5155689
  29.6696768  18.8670480  88.6937170  38.5858672  11.1905737  95.5755144
  38.8660426  10.5228927  96.2015570  39.3709279  11.3834833  95.0629808
  36.3892141  30.3664731  87.1380170  35.8166108  30.9854918  86.6850642
  36.9624935  30.9164093  87.6720092  42.4567531  19.6123371  99.3226719
  43.4084954  19.7121469  99.3438943  42.2870981  18.8201640  99.8324803
  40.4781910  16.6978955  99.5086120  39.8831842  16.9783967  98.8132609
  40.1931607  17.1872856 100.2802861  39.6089401  30.6501881  88.2688752
  40.5420074  30.5847443  88.4721628  39.5212613  31.4858148  87.8103285
  42.2377417  29.9667752  85.2292700  42.1591049  29.6327615  86.1228458
  43.0587084  30.4589520  85.2284172  44.9355608  22.8329491  98.4369019
  44.9031929  21.8945492  98.6228702  45.5456232  22.9113528  97.7034843
  36.7738939  21.7025544  84.4796223  37.7198044  21.5731752  84.5484641
  36.3953184  20.9640206  84.9565651  45.0850097  19.6240535  98.4827302
  44.5689146  18.8398991  98.2957231  45.9690046  19.2959251  98.6473821
  42.7460824  13.3681550  94.4423114  42.5485645  13.0596638  95.3266446
  43.3560529  14.0943189  94.5721044  50.7532158  23.8945498  97.5775055
  51.4835547  23.6330786  98.1382759  50.1439104  23.1574220  97.6177123
  48.8347455  22.0353361  98.1749507  48.1080619  21.9009325  97.5665998
  48.4194742  22.3430189  98.9806225  36.6577632  25.7543290 105.9396880
  37.5780641  25.9321889 106.1336926  36.6227215  24.8099336 105.7876579
  34.9581857  19.6275520  84.4151108  34.0513312  19.3308633  84.4913821
  35.2357838  19.3305339  83.5485394  25.8759797  20.9481884  94.8650154
  25.5562581  20.0947192  94.5724528  25.3293225  21.1630462  95.6208122
  29.6539704  23.6644325  98.5819661  29.8725714  24.5961433  98.6007695
  30.0665478  23.3052299  99.3674465  36.5743922  14.1712410  90.5695349
  35.7644651  13.8259495  90.9450595  37.2628339  13.8619954  91.1582961
  38.5034471  13.2490457  92.1919646  39.0565509  13.6685910  92.8509669
  38.7404557  12.3226205  92.2342602  34.5267570  19.2377531 107.9722410
  34.4264297  20.1871888 107.9034501  34.3089112  18.9095770 107.0998480
  33.7280641  16.4862456  84.5563087  34.5899805  16.8117354  84.8158904
  33.9130985  15.6993952  84.0436153  25.7448057  24.5684795  96.8343276
  25.0511528  24.1538748  96.3213230  26.4921048  24.6105332  96.2376695
  41.8813278  15.3590982  91.6998310  41.3011947  16.0175786  91.3176362
  41.6149210  14.5368327  91.2885728  40.3316844  14.7596040  93.9019630
  40.8316622  14.8712574  93.0933949  40.9752452  14.4557093  94.5420439
  34.3898840  22.6674669 106.7887471  33.9065922  23.4675030 106.9951360
  34.4759779  22.6782614 105.8354915  27.6584799  24.5003049  94.7109291
  27.6355488  24.5990736  93.7591174  27.9685436  25.3468200  95.0326457
  30.3172177  26.5579204  98.8255905  31.2715431  26.5263147  98.7585837
  30.1184701  26.0969828  99.6406131  30.9071559  25.1280320 101.3926703
  31.7264448  25.6224399 101.4161540  31.1808367  24.2112288 101.3644270
  40.6638156  17.5191073  90.7554658  39.7764011  17.8040723  90.5374853
  41.0792145  17.3584836  89.9081935  44.0152692  17.5437594  94.4708998
  44.7913082  18.0334046  94.7433614  43.2900826  17.9695648  94.9280867
  46.4525250  18.2565213  95.5282938  47.0469741  18.0160949  94.8176246
  46.5251834  17.5372343  96.1556474  28.6722406  32.0998824  95.8426103
  28.5376874  31.3399225  95.2764101  28.2554468  32.8239724  95.3754892
  39.8081369  27.2835747  84.8502678  40.5117219  27.4885750  85.4660334
  39.0844018  27.8512509  85.1151762  40.6379179  23.0345608  90.9704948
  40.5814381  23.4914160  90.1312581  41.1907522  22.2736293  90.7927791
  44.4483985  18.8235340  91.7955068  44.1920920  18.4231976  92.6263276
  43.8236853  19.5379134  91.6705207  48.7596323  21.5631414  94.3026359
  48.1995881  21.6324603  95.0757921  48.1539827  21.3872398  93.5825856
  31.8291532  32.9968141  96.0544546  31.7123916  33.9413573  95.9523236
  31.0083978  32.6941702  96.4430345  41.7168067  27.7218276  86.9001138
  42.5513670  27.2899475  86.7178613  41.5552409  27.5500290  87.8278033
  41.3713959  24.2250390  88.2657478  41.3162762  24.0594661  87.3245922
  40.7460014  24.9326423  88.4219667  26.1606474  19.4618454 102.0918900
  26.8065337  18.9517408 102.5806125  25.9523625  20.1987136 102.6662325
  38.6859866  26.5299302 107.5911040  39.5551025  26.7039954 107.2297675
  38.2066617  27.3493718 107.4686770  34.6810084  13.7258499  87.8442796
  34.6688754  14.6700339  88.0011067  35.5733506  13.5428644  87.5502257
  32.8546046  33.6496403  99.2700474  33.7573293  33.6820013  99.5866969
  32.6283416  32.7196854  99.2846810  34.6099648  32.4027389  95.9310553
  33.6595279  32.4029251  95.8174925  34.9132134  31.6560124  95.4146587
  38.4962204  10.3201275  92.0988733  37.7294599   9.7659762  92.2445415
  38.9072909  10.3923144  92.9602884  47.6361831  39.3450207 102.8904045
  47.6250472  38.9503006 102.0184549  47.7982470  38.6116280 103.4837817
  40.5593296  41.5402024  95.7598951  41.3514587  41.1992848  95.3445251
  40.7989946  41.6496999  96.6801105  42.5184049  40.8010937  88.6316330
  43.2914925  40.2539924  88.4929206  42.8709448  41.6655186  88.8430791
  44.3569092  42.1287319 101.8383229  44.0658958  43.0332950 101.7229896
  44.9926076  42.1703847 102.5527299  49.8993610  35.9639381  94.0709523
  50.6856699  35.5458805  93.7199940  50.1632314  36.8685474  94.2391172
  55.3002037  35.9014615  94.9742502  56.0327209  35.3313831  95.2080331
  54.5441393  35.5136215  95.4149007  52.8227458  29.6136189  99.4337110
  52.4910782  30.4831600  99.2098325  52.2273071  29.2972473 100.1131141
  46.5583644  33.3531756  87.1667193  46.7258046  34.2211992  87.5337664
  46.3680813  33.5159037  86.2428482  42.7671459  38.2662532  94.8669727
  41.8421955  38.1338746  95.0747419  43.0155872  39.0456751  95.3639670
  52.7156121  34.3331275  96.5130460  51.8072998  34.2646683  96.2189221
  52.6643717  34.8103220  97.3412286  46.5372865  35.8089413  88.1513859
  46.4172490  36.2546464  88.9899340  45.8425453  36.1574731  87.5927398
  40.1280270  37.9095805  95.7013517  40.2572651  38.1630284  96.6152928
  39.4477721  38.5023513  95.3818172  46.7896987  35.7520920 104.4565358
  46.0130321  36.3114841 104.4468222  47.4287550  36.2377703 104.9780228
  54.5817767  32.5347713  98.2908334  53.9392148  32.8280246  97.6448129
  54.0772696  32.4200634  99.0961531  45.0443359  38.5606374 104.0183325
  45.7858043  39.0991418 103.7418148  44.3380344  39.1872663 104.1754876
  50.5198699  40.7035514 102.6155486  50.9282055  40.2617925 101.8710118
  49.7975960  40.1288142 102.8689679  46.8729769  35.6408121  99.9889043
  47.7190964  36.0647535 100.1323692  46.8128406  34.9841745 100.6827606
  50.0229214  33.3012489 101.6470217  49.7790146  34.0554550 101.1104492
  50.2989144  33.6797837 102.4817464  51.9767677  39.8451102 100.3247482
  52.1884572  40.4882862  99.6481863  51.9297425  39.0113418  99.8569412
  49.5793906  32.4568922  97.2284054  48.7178385  32.7550176  97.5200792
  49.6056340  32.6739321  96.2965087  43.7804723  35.7146022 104.8198635
  43.1503383  36.3962303 105.0534031  43.6740811  35.6029104 103.8751773
  39.0749695  35.3817818  95.7464559  38.2848749  35.6375347  95.2704669
  39.5660943  36.1966156  95.8516599  41.0264441  35.7462397  92.7048035
  40.2295604  35.8581092  93.2231531  40.7990033  36.0849049  91.8388926
  37.3587398  35.6348308  98.1779550  37.6095437  36.5195318  98.4437126
  37.8946947  35.4552910  97.4054641  43.0585465  30.0166788 107.1823886
  42.6652411  29.4632986 107.8571530  43.8751606  30.3277366 107.5730403
  40.0247523  41.4550646  91.0937456  40.5372044  42.2493896  91.2443020
  40.6770236  40.7576936  91.0271057  45.9753426  31.4324667 104.7744142
  46.7163140  32.0331820 104.6948605  46.2071349  30.6902305 104.2162185
  41.1194764  36.6181034 103.0522372  41.0048280  35.7166291 103.3529471
  40.2639282  36.8644731 102.7007188  48.1986602  44.5598774 104.6509873
  47.7550456  43.7735153 104.3330777  48.8603816  44.7477925 103.9853763
  46.7540894  42.3545704 103.5214782  47.2869231  41.5933992 103.2914090
  46.2254976  42.0619356 104.2638937  49.9210589  27.4605770  99.0508424
  49.5774859  28.3507412  98.9747534  50.2889552  27.2707428  98.1878009
  37.9896440  39.7839300  91.8697026  38.8271662  40.1936309  91.6530734
  38.1674708  38.8438742  91.8397220  47.4707983  32.2964082  92.6166097
  46.6149579  31.9070932  92.4371736  47.8834935  32.3756043  91.7565883
  49.0007130  29.8310425  97.0157657  48.4971925  29.7940560  96.2025462
  49.2937737  30.7403168  97.0754314  45.2450016  29.9149155  96.0223839
  46.1103012  29.7191963  95.6629728  45.3127525  29.6859507  96.9493196
  53.0986453  39.6780717  96.1500640  52.4410128  40.3679978  96.2380769
  53.9026852  40.0677149  96.4934627  42.8512335  32.1451363  93.3940206
  43.4256087  31.9226544  92.6613399  43.4383317  32.2140057  94.1468807
  43.1781922  34.1755824  87.4136091  42.3419234  34.5130510  87.7345366
  43.0386691  34.0404803  86.4763228  45.1535002  29.0192612  92.1215275
  44.4999415  28.7041629  91.4971890  45.1115477  28.3968352  92.8475098
  48.3872743  35.5074545  96.4462923  47.4695304  35.7289492  96.2884611
  48.8032886  35.5820856  95.5874630  51.6186628  33.9423077  93.5584392
  50.8809385  33.4300463  93.8894635  51.8713401  33.5023459  92.7467669
  51.7198255  26.7199329  94.1526162  52.0257132  25.8596692  93.8652077
  52.4450860  27.3116949  93.9525155  38.0122611  37.1230016  92.5407759
  37.8147011  36.5299376  91.8158826  37.4569275  36.8182226  93.2583698
  47.1410529  40.9433245  85.8980636  46.7029958  40.2269104  85.4386273
  47.8820969  41.1709360  85.3365727  43.9311695  35.6330182  92.4192732
  43.1179560  35.9324352  92.8257924  44.4270689  35.2385871  93.1367214
  49.5285906  36.0972006 101.2507625  49.8835294  36.3243479 102.1102091
  50.1758038  36.4290383 100.6284881  43.4225769  33.2048537  98.0353966
  44.0625149  33.0637296  97.3376930  42.5903300  32.9183051  97.6592568
  40.5068837  36.6494050  90.2248712  39.5766425  36.5878505  90.4418674
  40.6026309  36.1270002  89.4285353  40.4254386  33.1748862  92.8126953
  40.6861203  34.0894196  92.7036114  41.2471558  32.7073305  92.9623566
  41.8979311  34.5886620  99.9825778  42.5702365  34.3803982  99.3338427
  41.0709098  34.3908706  99.5431010  56.1468572  41.3290670  99.5001111
  56.3404463  42.2336480  99.7460386  56.0469191  40.8698089 100.3339696
  47.8004883  31.2148560 101.9991439  47.1532798  31.9138510 101.9055915
  48.5705899  31.6484704 102.3667687  51.2083681  41.4797413 105.0741992
  51.0569188  41.2507964 104.1572076  51.1988361  42.4368014 105.0873337
  42.3006808  37.8629223 100.7428215  42.1626606  37.1309461 101.3439754
  43.2111732  37.7738123 100.4612403  44.9289109  37.5749182 100.2311895
  45.6388728  36.9342374 100.1898513  44.8858417  37.8262077 101.1538075
  52.9175888  44.5116535 103.1518474  52.8588434  43.8275755 102.4849057
  53.3195406  45.2535525 102.6999100  43.6418043  34.5614400 102.0507534
  43.1055400  34.1105138 102.7029130  43.0534752  34.6960309 101.3077998
  43.0520302  34.0203051  84.6133998  42.1749768  33.8991852  84.2496244
  43.5278055  33.2289129  84.3612886  52.9193295  42.4756119 101.3832453
  52.0320074  42.1382041 101.5058852  53.4891846  41.7439150 101.6201219
  34.5722442  38.8080211  94.7075505  35.2593482  38.4941941  94.1196520
  34.4170571  39.7121576  94.4342756  39.3757164  33.6970407  99.1360529
  39.2915353  33.0896077  98.4010939  38.5539871  34.1879426  99.1370025
  49.5480878  32.1823971  94.5030724  50.0449578  31.4293933  94.1831794
  48.7767860  32.2188288  93.9373933  46.1315847  34.3241354  94.2302408
  45.7613634  33.7712394  94.9183314  46.6274939  33.7199487  93.6777408
  43.9605046  44.7838849 101.3257426  44.6614505  45.4175332 101.4786820
  43.4900161  45.1253581 100.5653065  51.9899873  29.1493564  96.6510082
  51.0762953  29.3797791  96.8192289  52.4192974  29.2332009  97.5024115
  51.7606331  37.3383456  99.1509977  51.1077782  37.5859364  98.4962429
  52.1386711  36.5247595  98.8172454  47.8093905  38.0803267 105.6376014
  47.1334542  37.9797397 106.3078389  48.6321538  37.9242481 106.1012011
  39.5572764  44.3175204  98.2588529  40.1426200  43.5718892  98.3916433
  39.3597602  44.6279161  99.1425193  34.1490418  36.8880804  96.9792972
  34.1874518  36.3544395  97.7730090  33.6430711  36.3616010  96.3603949
  41.5281181  31.7345345 100.4755514  41.5922507  32.5960176 100.0632912
  41.4648301  31.1219346  99.7427873  41.0033453  33.8068477 104.1228549
  41.6305492  33.4245555 104.7366073  40.1461372  33.5882679 104.4884241
  51.4027562  44.2131452 105.7282284  51.9467466  44.8261411 105.2337239
  50.8214407  44.7711031 106.2449297  37.7798996  35.6144906  90.0546903
  38.0752437  34.7055585  90.0013957  36.8787032  35.5932646  89.7327906
  41.3093243  33.6900903  96.0374452  40.5879829  34.3036871  95.8981925
  42.0986499  34.2258668  95.9591098  44.1119556  31.0255329 102.3115104
  44.6353958  31.2717626 103.0741413  43.8931890  31.8575364 101.8918241
  39.5086837  33.2959004  90.1786229  39.1799544  32.4156383  89.9961334
  39.8626208  33.2406673  91.0662618  42.6228661  33.5831974  90.5461706
  42.9624733  34.1117895  89.8240315  43.0700781  33.9212380  91.3220273
  45.3172101  31.9669025  99.9964774  44.9768922  31.1676838 100.3985454
  44.6111108  32.2670735  99.4241607  45.9688573  29.0518337  98.4492097
  46.7914643  28.5778815  98.3270988  46.2126637  29.8308821  98.9490784
  44.6096808  32.0806595  88.7454999  45.3305170  32.4587848  88.2418716
  43.9862112  32.7995472  88.8489977  48.7527931  32.7851744  89.6813331
  48.9691545  33.6676382  89.3802159  48.2721998  32.3937958  88.9518973
  43.4927152  35.7437458  96.2584076  43.3471733  36.0577761  97.1508357
  43.0152356  36.3622358  95.7054975  45.3523535  32.7340006  96.3064965
  45.3385104  31.8381099  95.9697263  46.0695963  32.7410669  96.9403252
  47.2049666  33.1677346  98.3518093  46.9467443  34.0894416  98.3502423
  46.6734706  32.7707780  99.0418557  37.9672814  38.2842802  99.1971737
  37.4226282  39.0602610  99.3292011  38.8452164  38.6313606  99.0390859
  44.7560431  31.6154386  91.5752536  44.8776342  30.6871032  91.7743423
  44.4662473  31.6293072  90.6630851  47.6251621  29.3009296  94.7119255
  47.6473318  29.3648629  93.7571235  48.0419680  28.4613805  94.9059762
  38.7538836  37.4112698 102.0901894  38.0120572  37.5595334 102.6766524
  38.4331580  37.6720964 101.2268643  37.4004055  43.2164453  95.0801222
  36.5635963  42.7886628  94.8985223  37.3727700  43.4096897  96.0172013
  44.2401510  33.1286383 105.7842468  44.2889666  34.0048506 105.4020238
  44.7824025  32.5863776 105.2114111  54.7256356  43.6727507 105.0643605
  53.9351900  43.6551645 104.5248105  54.4889711  44.2115800 105.8192642
  54.8454231  40.5219973 102.3776334  54.8952236  40.3569980 103.3191857
  54.7368154  39.6547232 101.9874215  52.1357994  36.5050901 103.6935641
  53.0367856  36.3657366 103.4019638  52.2105968  36.6705356 104.6333818
  46.4700799  33.8817756 102.5388827  45.6004108  34.1751322 102.2671415
  46.7060279  34.4658201 103.2596090  56.3472428  42.9416914 102.6218355
  56.0557236  43.3046895 103.4581816  55.7344559  42.2283923 102.4431687
  54.5959616  38.0649529 101.0898413  55.0713738  38.2577175 100.2817265
  53.6725182  38.1208715 100.8441797  41.4843123  39.2273696  90.6729492
  41.2389165  38.3236026  90.8709702  41.6539037  39.2290847  89.7308970
  49.1739833  30.0997373 100.0554247  49.6921777  30.8358400  99.7300736
  48.8194965  30.4061366 100.8901006  40.7538770  34.9602054  88.1715653
  40.0608015  35.0346409  87.5155689  40.5090522  34.1962397  88.6937170
  49.4252427  26.5197655  95.5755144  49.7054181  25.8520844  96.2015570
  50.2103034  26.7126751  95.0629808  53.2961285  34.9415289  99.3226719
  54.2478708  35.0413387  99.3438943  53.1264736  34.1493558  99.8324803
  51.3175665  32.0270872  99.5086120  50.7225597  32.3075885  98.8132609
  51.0325361  32.5164773 100.2802861  55.7749363  38.1621409  98.4369019
  55.7425683  37.2237410  98.6228702  56.3849987  38.2405446  97.7034843
  55.9243851  34.9532452  98.4827302  55.4082900  34.1690909  98.2957231
  56.8083800  34.6251169  98.6473821  53.5854578  28.6973468  94.4423114
  53.3879400  28.3888556  95.3266446  54.1954284  29.4235107  94.5721044
  61.5925913  39.2237416  97.5775055  62.3229301  38.9622704  98.1382759
  60.9832858  38.4866138  97.6177123  59.6741210  37.3645278  98.1749507
  58.9474374  37.2301243  97.5665998  59.2588497  37.6722107  98.9806225
  47.4971386  41.0835208 105.9396880  48.4174396  41.2613807 106.1336926
  47.4620969  40.1391253 105.7876579  36.7153551  36.2773802  94.8650154
  36.3956336  35.4239110  94.5724528  36.1686980  36.4922380  95.6208122
  40.4933459  38.9936243  98.5819661  40.7119469  39.9253350  98.6007695
  40.9059233  38.6344217  99.3674465  47.4137677  29.5004328  90.5695349
  46.6038405  29.1551413  90.9450595  48.1022094  29.1911872  91.1582961
  49.3428225  28.5782375  92.1919646  49.8959264  28.9977828  92.8509669
  49.5798311  27.6518123  92.2342602  45.3661324  34.5669448 107.9722410
  45.2658051  35.5163805 107.9034501  45.1482866  34.2387687 107.0998480
  36.5841811  39.8976713  96.8343276  35.8905283  39.4830666  96.3213230
  37.3314802  39.9397250  96.2376695  52.7207032  30.6882900  91.6998310
  52.1405701  31.3467704  91.3176362  52.4542965  29.8660244  91.2885728
  51.1710598  30.0887958  93.9019630  51.6710377  30.2004492  93.0933949
  51.8146206  29.7849010  94.5420439  45.2292594  37.9966587 106.7887471
  44.7459676  38.7966947 106.9951360  45.3153533  38.0074532 105.8354915
  38.4978554  39.8294967  94.7109291  38.4749242  39.9282654  93.7591174
  38.8079190  40.6760118  95.0326457  41.1565932  41.8871122  98.8255905
  42.1109185  41.8555064  98.7585837  40.9578455  41.4261746  99.6406131
  41.7465314  40.4572238 101.3926703  42.5658203  40.9516317 101.4161540
  42.0202122  39.5404206 101.3644270  51.5031910  32.8482990  90.7554658
  50.6157765  33.1332641  90.5374853  51.9185899  32.6876754  89.9081935
  54.8546446  32.8729511  94.4708998  55.6306836  33.3625964  94.7433614
  54.1294580  33.2987565  94.9280867  57.2919005  33.5857130  95.5282938
  57.8863496  33.3452866  94.8176246  57.3645589  32.8664261  96.1556474
  55.2877740  34.1527258  91.7955068  55.0314674  33.7523894  92.6263276
  54.6630608  34.8671052  91.6705207  37.0000228  34.7910372 102.0918900
  37.6459092  34.2809326 102.5806125  36.7917379  35.5279053 102.6662325
  49.5253620  41.8591219 107.5911040  50.3944780  42.0331872 107.2297675
  49.0460372  42.6785636 107.4686770  45.5203839  29.0550416  87.8442796
  45.5082508  29.9992256  88.0011067  46.4127261  28.8720562  87.5502257
  49.3355958  25.6493193  92.0988733  48.5688354  25.0951680  92.2445415
  49.7466663  25.7215062  92.9602884  41.3397719  31.9377989 106.1893914
  42.2029181  31.5814794 106.3997239  40.7663130  31.5991884 106.8769318
  61.1846096  53.5679845  96.9956315  61.8224506  53.4486593  96.2919655
  61.0666939  54.5160689  97.0544267  57.9935802  53.5207273  96.9317840
  57.6554314  53.4048338  96.0438375  58.8625571  53.1198438  96.9118846
  58.4755585  54.6742125 102.8904045  58.4644226  54.2794923 102.0184549
  58.6376225  53.9408198 103.4837817  55.1962846  57.4579237 101.8383229
  54.9052712  58.3624868 101.7229896  55.8319831  57.4995764 102.5527299
  56.1219053  54.8356085  98.4284589  56.7182626  54.6112108  97.7141552
  56.1794025  54.0940831  99.0310037  55.6944082  52.2895521  86.2634780
  55.9469602  51.7677042  85.5018243  54.7568641  52.1261666  86.3661464
  60.7387365  51.2931299  94.0709523  61.5250454  50.8750722  93.7199940
  61.0026069  52.1977391  94.2391172  57.7571911  53.6533774  92.1705844
  57.3930119  53.1264395  92.8818766  58.6139027  53.2632243  91.9972330
  63.6621212  44.9428106  99.4337110  63.3304537  45.8123517  99.2098325
  63.0666825  44.6264390 100.1131141  57.3766619  51.1381331  88.1513859
  57.2566244  51.5838382  88.9899340  56.6819208  51.4866649  87.5927398
  57.6290741  51.0812838 104.4565358  56.8524075  51.6406758 104.4468222
  58.2681304  51.5669621 104.9780228  65.4211522  47.8639631  98.2908334
  64.7785902  48.1572164  97.6448129  64.9166450  47.7492551  99.0961531
  63.0751685  51.6102804  88.9794194  63.9869542  51.8430191  88.8041891
  62.5661333  52.1939848  88.4169272  55.8837113  53.8898291 104.0183325
  56.6251798  54.4283335 103.7418148  55.1774099  54.5164580 104.1754876
  61.3592453  56.0327432 102.6155486  61.7675809  55.5909842 101.8710118
  60.6369715  55.4580059 102.8689679  57.7123523  50.9700039  99.9889043
  58.5584718  51.3939452 100.1323692  57.6522161  50.3133663 100.6827606
  60.8622968  48.6304407 101.6470217  60.6183900  49.3846468 101.1104492
  61.1382899  49.0089755 102.4817464  62.8161431  55.1743019 100.3247482
  63.0278326  55.8174779  99.6481863  62.7691179  54.3405336  99.8569412
  60.4187660  47.7860840  97.2284054  59.5572139  48.0842094  97.5200792
  60.4450095  48.0031239  96.2965087  54.1273311  55.8774512  96.5737623
  54.6974668  56.3061781  95.9355108  54.7181423  55.5957097  97.2721809
  56.1718116  52.4526183  90.4447425  56.8742159  52.9047227  90.9121352
  55.8398744  51.8110002  91.0727318  54.6198477  51.0437940 104.8198635
  53.9897138  51.7254221 105.0534031  54.5134565  50.9321021 103.8751773
  57.6963863  57.5999018 100.6530550  57.7608295  58.0619425 101.4888722
  56.9874787  56.9696383 100.7812860  72.0213252  54.3953723  94.8454811
  71.2676961  53.8261121  94.6898816  72.1560793  54.3616388  95.7925446
  53.8979220  45.3458706 107.1823886  53.5046165  44.7924904 107.8571530
  54.7145360  45.6569284 107.5730403  52.6736162  59.9008320  93.1760209
  52.8502791  60.8226285  92.9881193  53.4692996  59.5866739  93.6054588
  56.8147181  46.7616585 104.7744142  57.5556894  47.3623738 104.6948605
  57.0465104  46.0194222 104.2162185  51.9588519  51.9472952 103.0522372
  51.8442034  51.0458209 103.3529471  51.1033037  52.1936649 102.7007188
  59.0380357  59.8890692 104.6509873  58.5944211  59.1027071 104.3330777
  59.6997570  60.0769843 103.9853763  53.7967478  61.4186494  99.1770551
  54.3474903  61.2903557  98.4047545  52.9578954  61.7181383  98.8265444
  61.1361595  60.1693492 102.6791274  61.1180070  60.9902373 102.1871543
  62.0581515  60.0447567 102.9041415  57.5934649  57.6837622 103.5214782
  58.1262986  56.9225910 103.2914090  57.0648730  57.3911273 104.2638937
  60.7604344  42.7897688  99.0508424  60.4168613  43.6799329  98.9747534
  61.1283306  42.5999345  98.1878009  59.8400884  45.1602343  97.0157657
  59.3365680  45.1232478  96.2025462  60.1331491  46.0695085  97.0754314
  60.5140930  50.6533391  89.3840640  60.2091065  50.9679540  90.2350783
  61.4671372  50.7314811  89.4267973  54.0175676  49.5047741  87.4136091
  53.1812989  49.8422428  87.7345366  53.8780446  49.3696721  86.4763228
  59.2266497  50.8366463  96.4462923  58.3089059  51.0581410  96.2884611
  59.6426641  50.9112773  95.5874630  60.0101545  52.2357878  91.5765603
  60.7573364  52.7479276  91.2672725  60.2793135  51.9141931  92.4369997
  56.8313089  52.3445040  94.6602353  56.8861699  51.3918876  94.5844829
  56.0204291  52.5004479  95.1443651  60.3679661  51.4263924 101.2507625
  60.7229049  51.6535397 102.1102091  61.0151792  51.7582301 100.6284881
  58.6398638  46.5440478 101.9991439  57.9926553  47.2430428 101.9055915
  59.4099653  46.9776622 102.3667687  62.0477436  56.8089330 105.0741992
  61.8962942  56.5799882 104.1572076  62.0382115  57.7659932 105.0873337
  58.8162772  54.3821243 100.0588258  59.7454832  54.5332403  99.8857226
  58.3953802  54.4705264  99.2036905  55.7682864  52.9041100 100.2311895
  56.4782482  52.2634292 100.1898513  55.7252172  53.1553994 101.1538075
  63.7569642  59.8408453 103.1518474  63.6982188  59.1567673 102.4849057
  64.1589161  60.5827443 102.6999100  54.4811798  49.8906317 102.0507534
  53.9449155  49.4397056 102.7029130  53.8928506  50.0252226 101.3077998
  52.7760341  66.6570367  95.9452193  53.0156939  67.2888891  96.6231211
  51.9329538  66.3058407  96.2317552  53.8914057  49.3494969  84.6133998
  53.0143523  49.2283770  84.2496244  54.3671810  48.5581047  84.3612886
  63.7587050  57.8048037 101.3832453  62.8713828  57.4673959 101.5058852
  64.3285601  57.0731068 101.6201219  57.2888203  62.4649489  98.3493697
  57.2158374  63.2704461  98.8613001  56.8465596  62.6641455  97.5241718
  59.7486886  62.3636323 100.5051855  60.4614859  62.9983788 100.4327757
  59.2576915  62.4600189  99.6891857  56.9709601  49.6533272  94.2302408
  56.6007389  49.1004312  94.9183314  57.4668694  49.0491405  93.6777408
  54.7998800  60.1130767 101.3257426  55.5008260  60.7467250 101.4786820
  54.3293915  60.4545498 100.5653065  62.6000086  52.6675374  99.1509977
  61.9471536  52.9151282  98.4962429  62.9780466  51.8539512  98.8172454
  58.6487659  53.4095185 105.6376014  57.9728296  53.3089314 106.3078389
  59.4715293  53.2534399 106.1012011  50.3966518  59.6467122  98.2588529
  50.9819955  58.9010810  98.3916433  50.1991357  59.9571078  99.1425193
  53.2505173  62.6818369  93.2750971  52.5815549  63.1664497  92.7915011
  53.1118043  62.9287590  94.1894350  57.3910442  64.7162113  99.8733630
  57.9428750  64.8793734 100.6382715  57.7316635  65.3066550  99.2013654
  51.8427208  49.1360395 104.1228549  52.4699246  48.7537472 104.7366073
  50.9855126  48.9174597 104.4884241  62.2421316  59.5423370 105.7282284
  62.7861220  60.1553328 105.2337239  61.6608161  60.1002949 106.2449297
  54.9513311  46.3547247 102.3115104  55.4747713  46.6009544 103.0741413
  54.7325644  47.1867282 101.8918241  56.1565856  47.2960942  99.9964774
  55.8162676  46.4968755 100.3985454  55.4504862  47.5962653  99.4241607
  55.4490562  47.4098513  88.7454999  56.1698925  47.7879766  88.2418716
  54.8255866  48.1287390  88.8489977  54.3320907  51.0729375  96.2584076
  54.1865487  51.3869678  97.1508357  53.8546110  51.6914276  95.7054975
  58.0443420  48.4969263  98.3518093  57.7861198  49.4186334  98.3502423
  57.5128461  48.0999698  99.0418557  57.5376253  62.2820594 101.8882284
  57.8463380  62.0369741 102.7604984  58.3351735  62.4867233 101.4001154
  57.5596865  64.4358504  94.1187661  57.1201856  63.9434883  94.8120517
  58.3104982  63.8931471  93.8779736  55.0070737  59.9796513  96.1909962
  54.3850747  59.3167218  95.8912190  55.6775604  60.0057645  95.5083610
  55.0795265  48.4578301 105.7842468  55.1283420  49.3340424 105.4020238
  55.6217779  47.9155694 105.2114111  65.5650111  59.0019424 105.0643605
  64.7745654  58.9843563 104.5248105  65.3283465  59.5407718 105.8192642
  65.6847986  55.8511891 102.3776334  65.7345991  55.6861898 103.3191857
  65.5761909  54.9839150 101.9874215  62.9751748  51.8342819 103.6935641
  63.8761611  51.6949283 103.4019638  63.0499723  51.9997273 104.6333818
  57.3094553  49.2109673 102.5388827  56.4397863  49.5043239 102.2671415
  57.5454034  49.7950118 103.2596090  67.1866182  58.2708832 102.6218355
  66.8950991  58.6338813 103.4581816  66.5738314  57.5575840 102.4431687
  65.4353371  53.3941447 101.0898413  65.9107492  53.5869093 100.2817265
  64.5118936  53.4500633 100.8441797  60.0133587  45.4289290 100.0554247
  60.5315531  46.1650317  99.7300736  59.6588720  45.7353284 100.8901006
  51.5932525  50.2893971  88.1715653  50.9001770  50.3638326  87.5155689
  51.3484277  49.5254315  88.6937170  64.1355040  50.2707207  99.3226719
  65.0872463  50.3705304  99.3438943  63.9658490  49.4785475  99.8324803
  62.1569419  47.3562790  99.5086120  61.5619351  47.6367803  98.8132609
  61.8719116  47.8456691 100.2802861  66.7637606  50.2824370  98.4827302
  66.2476655  49.4982827  98.2957231  67.6477554  49.9543087  98.6473821
  72.4319667  54.5529333  97.5775055  73.1623056  54.2914621  98.1382759
  71.8226613  53.8158055  97.6177123  70.5134964  52.6937196  98.1749507
  69.7868128  52.5593161  97.5665998  70.0982251  53.0014025  98.9806225
  58.3365141  56.4127126 105.9396880  59.2568150  56.5905725 106.1336926
  58.3014724  55.4683171 105.7876579  56.2055079  49.8961366 107.9722410
  56.1051806  50.8455723 107.9034501  55.9876621  49.5679605 107.0998480
  56.0686349  53.3258505 106.7887471  55.5853430  54.1258865 106.9951360
  56.1547288  53.3366450 105.8354915  52.5859068  55.7864156 101.3926703
  53.4051957  56.2808234 101.4161540  52.8595876  54.8696124 101.3644270
  50.3509915  62.7582659  95.8426103  50.2164383  61.9983060  95.2764101
  49.9341977  63.4823559  95.3754892  61.4868878  57.9419583  84.8502678
  62.1904728  58.1469585  85.4660334  60.7631527  58.5096344  85.1151762
  53.5079041  63.6551976  96.0544546  53.3911425  64.5997409  95.9523236
  52.6871487  63.3525538  96.4430345  63.0501468  54.8834225  88.2657478
  62.9950271  54.7178497  87.3245922  62.4247523  55.5910258  88.4219667
  60.3647375  57.1883137 107.5911040  61.2338534  57.3623789 107.2297675
  59.8854126  58.0077554 107.4686770  54.5333555  64.3080238  99.2700474
  55.4360802  64.3403848  99.5866969  54.3070925  63.3780689  99.2846810
  56.2887157  63.0611224  95.9310553  55.3382788  63.0613086  95.8174925
  56.5919643  62.3143959  95.4146587  52.1791474  47.2669907 106.1893914
  53.0422935  46.9106711 106.3997239  51.6056884  46.9283801 106.8769318
  72.0239851  68.8971763  96.9956315  72.6618261  68.7778510  96.2919655
  71.9060693  69.8452607  97.0544267  68.8329557  68.8499191  96.9317840
  68.4948068  68.7340256  96.0438375  69.7019325  68.4490356  96.9118846
  64.6916373  70.7034667  92.9214731  64.1281238  70.6124604  92.1531019
  64.5768768  69.8834572  93.4017223  69.3149340  70.0034043 102.8904045
  69.3037981  69.6086841 102.0184549  69.4769979  69.2700115 103.4837817
  62.2380804  72.1985859  95.7598951  63.0302096  71.8576684  95.3445251
  62.4777455  72.3080834  96.6801105  66.0356601  72.7871155 101.8383229
  65.7446467  73.6916785 101.7229896  66.6713585  72.8287682 102.5527299
  66.9612808  70.1648003  98.4284589  67.5576380  69.9404025  97.7141552
  67.0187779  69.4232749  99.0310037  71.5781119  66.6223217  94.0709523
  72.3644208  66.2042640  93.7199940  71.8419823  67.5269309  94.2391172
  71.7491196  72.0596067  88.7698180  71.1137029  72.1330694  89.4819085
  71.4188603  72.6489666  88.0917259  76.9789546  66.5598450  94.9742502
  77.7114718  65.9897667  95.2080331  76.2228902  66.1720050  95.4149007
  74.5014967  60.2720024  99.4337110  74.1698291  61.1415435  99.2098325
  73.9060580  59.9556308 100.1131141  70.9946486  72.4732570  98.8333023
  70.6947209  73.3757609  98.7248830  70.6497546  72.2064753  99.6854176
  64.4458968  68.9246367  94.8669727  63.5209464  68.7922581  95.0747419
  64.6943381  69.7040586  95.3639670  74.3943630  64.9915110  96.5130460
  73.4860507  64.9230519  96.2189221  74.3431226  65.4687055  97.3412286
  61.8067779  68.5679640  95.7013517  61.9360160  68.8214119  96.6152928
  61.1265230  69.1607348  95.3818172  68.4684496  66.4104756 104.4565358
  67.6917830  66.9698676 104.4468222  69.1075059  66.8961539 104.9780228
  76.2605276  63.1931549  98.2908334  75.6179657  63.4864082  97.6448129
  75.7560205  63.0784469  99.0961531  73.9145440  66.9394722  88.9794194
  74.8263296  67.1722109  88.8041891  73.4055087  67.5231766  88.4169272
  66.7230868  69.2190209 104.0183325  67.4645552  69.7575253 103.7418148
  66.0167853  69.8456498 104.1754876  72.1986208  71.3619350 102.6155486
  72.6069564  70.9201760 101.8710118  71.4763469  70.7871977 102.8689679
  68.5517278  66.2991956  99.9889043  69.3978473  66.7231370 100.1323692
  68.4915915  65.6425581 100.6827606  72.5215022  71.9220540  96.3707775
  71.8923885  72.0866254  95.6683843  72.1340684  72.3362150  97.1418739
  76.4004254  72.8574978  93.7252139  75.7155292  73.2373879  93.1749172
  76.4848103  73.4670305  94.4584086  71.7016723  63.9596325 101.6470217
  71.4577655  64.7138385 101.1104492  71.9776653  64.3381672 102.4817464
  73.6555186  70.5034937 100.3247482  73.8672081  71.1466697  99.6481863
  73.6084934  69.6697254  99.8569412  71.2581415  63.1152758  97.2284054
  70.3965894  63.4134011  97.5200792  71.2843849  63.3323157  96.2965087
  68.0742984  71.6594948  93.6357860  68.5381330  71.9382651  92.8462483
  67.8099782  70.7578393  93.4530951  64.9667065  71.2066430  96.5737623
  65.5368422  71.6353698  95.9355108  65.5575177  70.9249015  97.2721809
  65.4592232  66.3729857 104.8198635  64.8290892  67.0546138 105.0534031
  65.3528320  66.2612939 103.8751773  60.7537204  66.0401653  95.7464559
  59.9636258  66.2959182  95.2704669  61.2448451  66.8549991  95.8516599
  74.7701014  73.3806893  98.4969840  75.5918457  72.9787080  98.2152521
  74.7663417  73.2775127  99.4485955  68.5357617  72.9290936 100.6530550
  68.6002050  73.3911343 101.4888722  67.8268541  72.2988301 100.7812860
  59.0374907  66.2932144  98.1779550  59.2882946  67.1779154  98.4437126
  59.5734456  66.1136745  97.4054641  82.8607007  69.7245641  94.8454811
  82.1070715  69.1553039  94.6898816  82.9954548  69.6908306  95.7925446
  64.7372974  60.6750623 107.1823886  64.3439920  60.1216822 107.8571530
  65.5539115  60.9861202 107.5730403  63.5129917  75.2300238  93.1760209
  63.6896545  76.1518202  92.9881193  64.3086750  74.9158657  93.6054588
  67.6540935  62.0908502 104.7744142  68.3950649  62.6915655 104.6948605
  67.8858858  61.3486140 104.2162185  62.7982273  67.2764870 103.0522372
  62.6835789  66.3750127 103.3529471  61.9426791  67.5228566 102.7007188
  69.8774111  75.2182610 104.6509873  69.4337965  74.4318988 104.3330777
  70.5391325  75.4061760 103.9853763  64.6361232  76.7478411  99.1770551
  65.1868657  76.6195475  98.4047545  63.7972708  77.0473300  98.8265444
  71.9755349  75.4985410 102.6791274  71.9573825  76.3194291 102.1871543
  72.8975269  75.3739485 102.9041415  68.4328403  73.0129539 103.5214782
  68.9656740  72.2517827 103.2914090  67.9042484  72.7203191 104.2638937
  71.5998098  58.1189605  99.0508424  71.2562368  59.0091247  98.9747534
  71.9677061  57.9291263  98.1878009  70.6794639  60.4894260  97.0157657
  70.1759434  60.4524396  96.2025462  70.9725246  61.3987003  97.0754314
  76.5382655  70.8630571  89.4934032  75.7612098  70.5241730  89.0489195
  77.2174136  70.8683194  88.8188998  69.7981116  72.1415532  91.0333594
  69.2702478  71.4068291  90.7206832  69.2968619  72.9190208  90.7873563
  74.7773962  70.3364552  96.1500640  74.1197637  71.0263814  96.2380769
  75.5814361  70.7260984  96.4934627  73.5879421  68.6908925  94.2004582
  74.1011303  69.3238917  94.7026292  74.2380645  68.0910120  93.8347942
  70.0660252  66.1658380  96.4462923  69.1482813  66.3873327  96.2884611
  70.4820395  66.2404691  95.5874630  70.8495300  67.5649796  91.5765603
  71.5967118  68.0771193  91.2672725  71.1186889  67.2433849  92.4369997
  74.3541217  73.6714926  92.3283725  73.9003544  72.8305836  92.3848915
  73.7235184  74.3076325  92.6658505  73.2974137  64.6006912  93.5584392
  72.5596893  64.0884299  93.8894635  73.5500910  64.1607294  92.7467669
  72.7974156  75.5091423  93.2633543  73.0897131  76.0696480  92.5445909
  73.3072777  75.8019984  94.0186702  73.3985764  57.3783164  94.1526162
  73.7044641  56.5180528  93.8652077  74.1238369  57.9700785  93.9525155
  67.7607782  76.2871774  94.3526996  67.7183960  76.5132620  93.4235528
  68.6770480  76.0535149  94.5012797  71.2073415  66.7555842 101.2507625
  71.5622803  66.9827315 102.1102091  71.8545547  67.0874218 100.6284881
  76.9371152  69.8774278  91.9556954  76.7989051  70.0675874  91.0278144
  76.5807371  70.6393660  92.4125006  65.1013278  63.8632373  98.0353966
  65.7412658  63.7221132  97.3376930  64.2690809  63.5766886  97.6592568
  76.9640532  71.9450805  96.9668226  77.3977039  71.8526094  97.8151280
  77.6772113  71.9208305  96.3288242  65.8773582  73.1634803  94.1488959
  66.6714181  72.6685123  93.9471534  65.1665275  72.6352666  93.7856664
  70.6968427  75.5452899  98.5001327  70.7505449  76.1143835  99.2679042
  69.8283208  75.7154784  98.1355364  63.5766820  65.2470455  99.9825778
  64.2489874  65.0387817  99.3338427  62.7496607  65.0492541  99.5431010
  77.8256081  71.9874505  99.5001111  78.0191972  72.8920316  99.7460386
  77.7256700  71.5281924 100.3339696  69.4792392  61.8732396 101.9991439
  68.8320307  62.5722345 101.9055915  70.2493408  62.3068540 102.3667687
  72.8871190  72.1381248 105.0741992  72.7356697  71.9091800 104.1572076
  72.8775870  73.0951849 105.0873337  69.6556527  69.7113161 100.0588258
  70.5848587  69.8624320  99.8857226  69.2347557  69.7997182  99.2036905
  68.4544858  73.7363825  97.8286796  68.3155944  73.3682610  98.7012734
  67.6659455  74.2511465  97.6570754  70.0050073  73.1145428  95.2175634
  69.6699906  73.0746198  96.1133284  69.5054019  72.4490144  94.7446044
  63.9794317  68.5213058 100.7428215  63.8414115  67.7893297 101.3439754
  64.8899241  68.4321958 100.4612403  66.6076618  68.2333017 100.2311895
  67.3176237  67.5926209 100.1898513  66.5645926  68.4845912 101.1538075
  74.5963397  75.1700371 103.1518474  74.5375943  74.4859591 102.4849057
  74.9982915  75.9119361 102.6999100  65.3205552  65.2198235 102.0507534
  64.7842909  64.7688974 102.7029130  64.7322261  65.3544144 101.3077998
  63.6154096  81.9862284  95.9452193  63.8550694  82.6180809  96.6231211
  62.7723292  81.6350324  96.2317552  74.5980804  73.1339954 101.3832453
  73.7107583  72.7965876 101.5058852  75.1679355  72.4022986 101.6201219
  56.2509951  69.4664046  94.7075505  56.9380991  69.1525776  94.1196520
  56.0958080  70.3705411  94.4342756  61.0544673  64.3554243  99.1360529
  60.9702862  63.7479912  98.4010939  60.2327380  64.8463261  99.1370025
  68.1281957  77.7941407  98.3493697  68.0552129  78.5996378  98.8613001
  67.6859351  77.9933373  97.5241718  67.9171737  77.0313177  91.8596518
  67.1339259  77.5734857  91.9534743  68.6164482  77.5487156  92.2590759
  71.2268387  62.8407806  94.5030724  71.7237087  62.0877769  94.1831794
  70.4555369  62.8772123  93.9373933  79.0798145  68.5448172  96.1449015
  79.0688021  69.4272887  95.7742948  78.2115524  68.1919723  95.9503552
  70.5880641  77.6928241 100.5051855  71.3008613  78.3275706 100.4327757
  70.0970670  77.7892107  99.6891857  72.3098168  71.5979494  92.0769147
  71.3754447  71.7180956  91.9073851  72.4874836  70.6951960  91.8129157
  75.6970719  67.4396813  92.6119181  76.1631171  68.2724804  92.5379484
  76.1478220  66.9741794  93.3164440  65.6392555  75.4422684 101.3257426
  66.3402014  76.0759167 101.4786820  65.1687669  75.7837416 100.5653065
  73.7646950  73.7840634  89.6105333  74.0406794  73.6697229  90.5199207
  72.8951449  73.3858119  89.5717506  73.6687382  59.8077400  96.6510082
  72.7550462  60.0381627  96.8192289  74.0980483  59.8915844  97.5024115
  73.4393840  67.9967292  99.1509977  72.7865291  68.2443199  98.4962429
  73.8174220  67.1831430  98.8172454  70.4001014  78.0326985  93.2538147
  70.5823409  77.2148641  93.7165899  71.2234000  78.2494677  92.8163037
  69.4881413  68.7387103 105.6376014  68.8122051  68.6381232 106.3078389
  70.3109047  68.5826317 106.1012011  61.2360273  74.9759039  98.2588529
  61.8213709  74.2302727  98.3916433  61.0385111  75.2862996  99.1425193
  64.0898928  78.0110287  93.2750971  63.4209303  78.4956414  92.7915011
  63.9511797  78.2579507  94.1894350  55.8277927  67.5464640  96.9792972
  55.8662027  67.0128230  97.7730090  55.3218220  67.0199845  96.3603949
  68.2304196  80.0454030  99.8733630  68.7822504  80.2085652 100.6382715
  68.5710390  80.6358468  99.2013654  62.6820962  64.4652313 104.1228549
  63.3093001  64.0829390 104.7366073  61.8248881  64.2466515 104.4884241
  73.0815071  74.8715288 105.7282284  73.6254975  75.4845246 105.2337239
  72.5001916  75.4294866 106.2449297  71.3672584  77.9936006  96.8597312
  71.2423723  77.1925746  96.3508257  72.0251675  78.4882199  96.3711282
  73.4307492  75.7945026  98.4876862  72.4837828  75.6750377  98.4155189
  73.7790265  74.9067524  98.5703123  65.7907065  61.6839165 102.3115104
  66.3141467  61.9301461 103.0741413  65.5719399  62.5159200 101.8918241
  70.4353925  75.5897742  94.6881214  70.2878888  74.6614450  94.8688784
  71.2607419  75.6117833  94.2038289  74.0388047  76.4126301  95.7746087
  74.9634595  76.2069162  95.6370538  73.8703351  76.1642702  96.6835428
  66.9959610  62.6252860  99.9964774  66.6556431  61.8260673 100.3985454
  66.2898617  62.9254571  99.4241607  65.1714661  66.4021293  96.2584076
  65.0259242  66.7161596  97.1508357  64.6939865  67.0206193  95.7054975
  67.0311044  63.3923841  96.3064965  67.0172613  62.4964934  95.9697263
  67.7483472  63.3994505  96.9403252  68.8837175  63.8261181  98.3518093
  68.6254952  64.7478252  98.3502423  68.3522215  63.4291616  99.0418557
  73.8283363  76.9311968  91.1308178  74.0020241  76.3658391  90.3782031
  74.3212255  77.7312863  90.9487668  59.6460323  68.9426637  99.1971737
  59.1013791  69.7186445  99.3292011  60.5239673  69.2897442  99.0390859
  79.6822755  69.6948391  92.7498478  80.1253901  68.9455716  92.3517601
  78.8049265  69.6858528  92.3672210  60.4326345  68.0696534 102.0901894
  59.6908081  68.2179169 102.6766524  60.1119089  68.3304799 101.2268643
  76.7149959  73.6978438  89.7592407  77.2401283  74.0365711  89.0341727
  76.6272312  72.7625454  89.5755542  68.3770008  77.6112512 101.8882284
  68.6857134  77.3661659 102.7604984  69.1745490  77.8159150 101.4001154
  60.8782959  75.9561962  94.1212289  61.7040979  75.6565734  93.7410932
  60.5277011  75.1869585  94.5702077  65.8464492  75.3088431  96.1909962
  65.2244501  74.6459136  95.8912190  66.5169359  75.3349562  95.5083610
  59.0791564  73.8748289  95.0801222  58.2423472  73.4470463  94.8985223
  59.0515209  74.0680732  96.0172013  65.9189019  63.7870219 105.7842468
  65.9677175  64.6632341 105.4020238  66.4611534  63.2447612 105.2114111
  76.4043865  74.3311342 105.0643605  75.6139409  74.3135481 104.5248105
  76.1677220  74.8699636 105.8192642  76.5241740  71.1803808 102.3776334
  76.5739745  71.0153816 103.3191857  76.4155663  70.3131067 101.9874215
  73.8145503  67.1634736 103.6935641  74.7155365  67.0241201 103.4019638
  73.8893477  67.3289191 104.6333818  68.1488308  64.5401591 102.5388827
  67.2791617  64.8335157 102.2671415  68.3847788  65.1242036 103.2596090
  78.0259937  73.6000750 102.6218355  77.7344745  73.9630730 103.4581816
  77.4132068  72.8867758 102.4431687  79.2255619  71.1653630  95.1420926
  80.0602511  71.6043434  95.3058486  79.3614748  70.6892283  94.3229171
  76.2747125  68.7233364 101.0898413  76.7501247  68.9161011 100.2817265
  75.3512691  68.7792550 100.8441797  70.8527342  60.7581208 100.0554247
  71.3709286  61.4942235  99.7300736  70.4982474  61.0645201 100.8901006
  71.1039936  57.1781490  95.5755144  71.3841690  56.5104680  96.2015570
  71.8890543  57.3710586  95.0629808  74.9748794  65.5999124  99.3226719
  75.9266217  65.6997222  99.3438943  74.8052245  64.8077393  99.8324803
  72.9963174  62.6854708  99.5086120  72.4013106  62.9659720  98.8132609
  72.7112870  63.1748609 100.2802861  77.4536872  68.8205244  98.4369019
  77.4213192  67.8821245  98.6228702  78.0637496  68.8989281  97.7034843
  77.6031360  65.6116288  98.4827302  77.0870409  64.8274744  98.2957231
  78.4871309  65.2835004  98.6473821  75.2642087  59.3557303  94.4423114
  75.0666909  59.0472391  95.3266446  75.8741793  60.0818942  94.5721044
  83.2713422  69.8821251  97.5775055  84.0016810  69.6206539  98.1382759
  82.6620367  69.1449973  97.6177123  81.3528719  68.0229114  98.1749507
  80.6261883  67.8885079  97.5665998  80.9376006  68.3305942  98.9806225
  69.1758895  71.7419043 105.9396880  70.0961905  71.9197642 106.1336926
  69.1408478  70.7975089 105.7876579  62.1720968  69.6520078  98.5819661
  62.3906978  70.5837186  98.6007695  62.5846742  69.2928052  99.3674465
  67.0448833  65.2253284 107.9722410  66.9445560  66.1747641 107.9034501
  66.8270375  64.8971523 107.0998480  58.2629320  70.5560548  96.8343276
  57.5692792  70.1414501  96.3213230  59.0102311  70.5981085  96.2376695
  74.3994541  61.3466735  91.6998310  73.8193210  62.0051539  91.3176362
  74.1330474  60.5244080  91.2885728  72.8498107  60.7471793  93.9019630
  73.3497886  60.8588327  93.0933949  73.4933715  60.4432846  94.5420439
  66.9080103  68.6550423 106.7887471  66.4247185  69.4550783 106.9951360
  66.9941042  68.6658367 105.8354915  62.8353441  72.5454957  98.8255905
  63.7896694  72.5138900  98.7585837  62.6365964  72.0845581  99.6406131
  63.4252823  71.1156073 101.3926703  64.2445712  71.6100152 101.4161540
  63.6989631  70.1988041 101.3644270  73.1819419  63.5066826  90.7554658
  72.2945274  63.7916476  90.5374853  73.5973408  63.3460589  89.9081935
  76.5333955  63.5313347  94.4708998  77.3094345  64.0209799  94.7433614
  75.8082089  63.9571401  94.9280867  78.9706514  64.2440966  95.5282938
  79.5651005  64.0036702  94.8176246  79.0433098  63.5248096  96.1556474
  61.1903670  78.0874577  95.8426103  61.0558137  77.3274978  95.2764101
  60.7735732  78.8115477  95.3754892  73.1560443  69.0221362  90.9704948
  73.0995644  69.4789913  90.1312581  73.7088785  68.2612046  90.7927791
  76.9665249  64.8111093  91.7955068  76.7102183  64.4107729  92.6263276
  76.3418117  65.5254887  91.6705207  81.2777587  67.5507167  94.3026359
  80.7177145  67.6200356  95.0757921  80.6721090  67.3748151  93.5825856
  64.3472795  78.9843894  96.0544546  64.2305180  79.9289326  95.9523236
  63.5265242  78.6817455  96.4430345  58.6787737  65.4494207 102.0918900
  59.3246601  64.9393161 102.5806125  58.4704888  66.1862889 102.6662325
  71.2041129  72.5175055 107.5911040  72.0732289  72.6915707 107.2297675
  70.7247881  73.3369471 107.4686770  65.3727310  79.6372156  99.2700474
  66.2754556  79.6695766  99.5866969  65.1464680  78.7072607  99.2846810
  67.1280912  78.3903142  95.9310553  66.1776543  78.3905004  95.8174925
  67.4313398  77.6435877  95.4146587  71.0143467  56.3077028  92.0988733
  70.2475863  55.7535515  92.2445415  71.4254172  56.3798897  92.9602884
  63.0185228  62.5961824 106.1893914  63.8816690  62.2398629 106.3997239
  62.4450639  62.2575719 106.8769318  85.3408721  75.6011942  99.4337110
  85.0092046  76.4707353  99.2098325  84.7454334  75.2848226 100.1131141
  75.5766729  76.0042541 107.1823886  75.1833674  75.4508739 107.8571530
  76.3932869  76.3153119 107.5730403  73.6376028  82.6056787 103.0522372
  73.5229543  81.7042044 103.3529471  72.7820546  82.8520484 102.7007188
  82.4391853  73.4481523  99.0508424  82.0956122  74.3383165  98.9747534
  82.8070815  73.2583181  98.1878009  77.7631279  75.9024908  96.0223839
  78.6284276  75.7067716  95.6629728  77.8308788  75.6735260  96.9493196
  75.3693598  78.1327116  93.3940206  75.9437350  77.9102297  92.6613399
  75.9564581  78.2015810  94.1468807  77.6716266  75.0068365  92.1215275
  77.0180678  74.6917382  91.4971890  77.6296740  74.3844105  92.8475098
  84.2379518  72.7075082  94.1526162  84.5438395  71.8472446  93.8652077
  84.9632123  73.2992702  93.9525155  75.9407033  79.1924290  98.0353966
  76.5806412  79.0513050  97.3376930  75.1084563  78.9058804  97.6592568
  72.9435649  79.1624615  92.8126953  73.2042467  80.0769949  92.7036114
  73.7652822  78.6949058  92.9623566  71.8938428  79.6846160  99.1360529
  71.8096617  79.0771830  98.4010939  71.0721134  80.1755179  99.1370025
  84.5081136  75.1369317  96.6510082  83.5944216  75.3673544  96.8192289
  84.9374238  75.2207762  97.5024115  73.5214717  79.7944230 104.1228549
  74.1486755  79.4121308 104.7366073  72.6642635  79.5758432 104.4884241
  76.6300820  77.0131082 102.3115104  77.1535222  77.2593379 103.0741413
  76.4113153  77.8451117 101.8918241  75.1409924  79.5707727  90.5461706
  75.4805997  80.0993648  89.8240315  75.5882045  79.9088133  91.3220273
  77.8353365  77.9544778  99.9964774  77.4950185  77.1552591 100.3985454
  77.1292371  78.2546488  99.4241607  78.4869837  75.0394090  98.4492097
  79.3095906  74.5654568  98.3270988  78.7307900  75.8184574  98.9490784
  77.2741694  77.6030139  91.5752536  77.3957606  76.6746785  91.7743423
  76.9843737  77.6168825  90.6630851  80.1432885  75.2885049  94.7119255
  80.1654582  75.3524382  93.7571235  80.5600944  74.4489558  94.9059762
  71.2720100  83.3988451 102.0901894  70.5301836  83.5471087 102.6766524
  70.9512844  83.6596717 101.2268643  81.6921096  76.0873126 100.0554247
  82.2103040  76.8234153  99.7300736  81.3376229  76.3937119 100.8901006
  81.9433690  72.5073408  95.5755144  82.2235444  71.8396597  96.2015570
  82.7284297  72.7002504  95.0629808  83.8356928  78.0146625  99.5086120
  83.2406860  78.2951638  98.8132609  83.5506625  78.5040526 100.2802861
  86.1035842  74.6849221  94.4423114  85.9060663  74.3764309  95.3266446
  86.7135547  75.4110860  94.5721044  80.0152650  87.0710961 105.9396880
  80.9355659  87.2489560 106.1336926  79.9802233  86.1267006 105.7876579
  79.9318940  75.4880081  90.5695349  79.1219669  75.1427166  90.9450595
  80.6203357  75.1787625  91.1582961  81.8609488  74.5658128  92.1919646
  82.4140527  74.9853581  92.8509669  82.0979575  73.6393876  92.2342602
  77.8842588  80.5545201 107.9722410  77.7839315  81.5039558 107.9034501
  77.6664130  80.2263440 107.0998480  83.6891862  76.0763711  93.9019630
  84.1891640  76.1880245  93.0933949  84.3327470  75.7724763  94.5420439
  69.5181492  80.7786125 102.0918900  70.1640355  80.2685079 102.5806125
  69.3098643  81.5154806 102.6662325  82.0434884  87.8466972 107.5911040
  82.9126043  88.0207625 107.2297675  81.5641635  88.6661389 107.4686770
  81.8537222  71.6368946  92.0988733  81.0869617  71.0827433  92.2445415
  82.2647927  71.7090815  92.9602884  73.8578983  77.9253742 106.1893914
  74.7210444  77.5690547 106.3997239  73.2844393  77.5867637 106.8769318
  91.9503440 105.0289470  88.2329196  91.2991420 105.6143551  87.8463209
  92.7447803 105.5595665  88.2924233  89.6221225 100.6179577  84.0368567
  88.7148287 100.3868831  84.2359716  90.1192257  99.8217197  84.2242549
  95.4434459 104.4424469  89.6105333  95.7194303 104.3281064  90.5199207
  94.5738958 104.0441954  89.5717506  95.5070872 107.5895804  91.1308178
  95.6807750 107.0242226  90.3782031  95.9999764 108.3896699  90.9487668
  96.4946045 106.9062568  88.2305077  97.1896949 107.5269261  88.4492391
  96.8369195 106.0557919  88.5057454  87.0865508 104.5176189  89.6668423
  87.2353628 105.2011654  89.0135095  87.8931951 104.4981279  90.1817878
  93.8058173 107.2961470  88.2688752  94.7388846 107.2307032  88.4721628
  93.7181386 108.1317737  87.8103285 104.5421114 114.8847516  96.9956315
 105.1799524 114.7654263  96.2919655 104.4241957 115.8328360  97.0544267
 101.3510820 114.8374944  96.9317840 101.0129332 114.7216009  96.0438375
 102.2200589 114.4366109  96.9118846  97.2097636 116.6910420  92.9214731
  96.6462501 116.6000357  92.1531019  97.0950031 115.8710325  93.4017223
 101.8330603 115.9909796 102.8904045 101.8219244 115.5962594 102.0184549
 101.9951243 115.2575868 103.4837817  94.7562068 118.1861612  95.7598951
  95.5483360 117.8452437  95.3445251  94.9958718 118.2956587  96.6801105
 102.7897195 120.3581388  88.2329196 102.1385174 120.9435469  87.8463209
 103.5841558 120.8887583  88.2924233  96.7152822 117.4470525  88.6316330
  97.4883698 116.8999512  88.4929206  97.0678221 118.3114775  88.8430791
  98.5537864 118.7746908 101.8383229  98.2627730 119.6792538 101.7229896
  99.1894849 118.8163435 102.5527299  99.4794071 116.1523756  98.4284589
 100.0757644 115.9279778  97.7141552  99.5369043 115.4108502  99.0310037
 104.0962383 112.6098970  94.0709523 104.8825472 112.1918393  93.7199940
 104.3601087 113.5145062  94.2391172 104.2672460 118.0471820  88.7698180
 103.6318293 118.1206447  89.4819085 103.9369866 118.6365419  88.0917259
 109.4970810 112.5474203  94.9742502 110.2295982 111.9773420  95.2080331
 108.7410165 112.1595803  95.4149007  98.7715388 115.5091297  88.4659155
  98.6551647 114.8336201  89.1340239  98.8817648 115.0223671  87.6491308
 101.1146929 114.9701444  92.1705844 100.7505137 114.4432065  92.8818766
 101.9714045 114.5799914  91.9972330 103.5127750 118.4608323  98.8333023
 103.2128473 119.3633362  98.7248830 103.1678809 118.1940506  99.6854176
  96.9640231 114.9122120  94.8669727  96.0390727 114.7798334  95.0747419
  97.2124644 115.6916339  95.3639670 106.9124893 110.9790863  96.5130460
 106.0041771 110.9106272  96.2189221 106.8612489 111.4562808  97.3412286
  94.3249042 114.5555393  95.7013517  94.4541423 114.8089872  96.6152928
  93.6446493 115.1483101  95.3818172  98.4948529 125.2252643  91.8003991
  98.4172559 126.1760468  91.8792471  97.8910173 124.8798516  92.4578917
 100.9865759 112.3980509 104.4565358 100.2099093 112.9574429 104.4468222
 101.6256322 112.8837292 104.9780228 108.7786540 109.1807302  98.2908334
 108.1360920 109.4739835  97.6448129 108.2741468 109.0660222  99.0961531
  99.2412131 115.2065962 104.0183325  99.9826816 115.7451006 103.7418148
  98.5349117 115.8332251 104.1754876 104.7167471 117.3495103 102.6155486
 105.1250827 116.9077513 101.8710118 103.9944733 116.7747730 102.8689679
 101.0698541 112.2867709  99.9889043 101.9159736 112.7107123 100.1323692
 101.0097179 111.6301334 100.6827606 105.0396286 117.9096293  96.3707775
 104.4105148 118.0742007  95.6683843 104.6521948 118.3237903  97.1418739
 108.9185518 118.8450731  93.7252139 108.2336556 119.2249632  93.1749172
 109.0029367 119.4546058  94.4584086 104.2197986 109.9472078 101.6470217
 103.9758918 110.7014138 101.1104492 104.4957917 110.3257425 102.4817464
 106.1736449 116.4910690 100.3247482 106.3853344 117.1342450  99.6481863
 106.1266197 115.6573007  99.8569412 100.5924248 117.6470701  93.6357860
 101.0562593 117.9258404  92.8462483 100.3281046 116.7454146  93.4530951
  97.4848329 117.1942183  96.5737623  98.0549686 117.6229451  95.9355108
  98.0756440 116.9124768  97.2721809  99.5293134 113.7693854  90.4447425
 100.2317177 114.2214897  90.9121352  99.1973762 113.1277673  91.0727318
  97.9773495 112.3605610 104.8198635  97.3472156 113.0421891 105.0534031
  97.8709583 112.2488692 103.8751773  93.2718468 112.0277406  95.7464559
  92.4817522 112.2834935  95.2704669  93.7629715 112.8425744  95.8516599
 107.2882277 119.3682646  98.4969840 108.1099721 118.9662833  98.2152521
 107.2844680 119.2650880  99.4485955  95.2233213 112.3921986  92.7048035
  94.4264376 112.5040680  93.2231531  94.9958805 112.7308638  91.8388926
 101.0538881 118.9166689 100.6530550 101.1183313 119.3787096 101.4888722
 100.3449804 118.2864054 100.7812860 115.3788270 115.7121394  94.8454811
 114.6251979 115.1428792  94.6898816 115.5135811 115.6784059  95.7925446
 100.7686898 120.5834796  90.5209530 100.6332573 121.4286332  90.9494378
 101.3096711 120.7854074  89.7575464  97.2554238 106.6626376 107.1823886
  96.8621183 106.1092575 107.8571530  98.0720378 106.9736955 107.5730403
  94.2216296 118.1010234  91.0937456  94.7340816 118.8953485  91.2443020
  94.8739008 117.4036525  91.0271057  96.0311180 121.2175991  93.1760209
  96.2077809 122.1393955  92.9881193  96.8268014 120.9034410  93.6054588
 100.1722199 108.0784255 104.7744142 100.9131912 108.6791408 104.6948605
 100.4040122 107.3361893 104.2162185  95.3163537 113.2640623 103.0522372
  95.2017052 112.3625880 103.3529471  94.4608055 113.5104319 102.7007188
 102.3955375 121.2058363 104.6509873 101.9519229 120.4194741 104.3330777
 103.0572588 121.3937513 103.9853763  97.1542496 122.7354164  99.1770551
  97.7049921 122.6071228  98.4047545  96.3153972 123.0349053  98.8265444
 104.4936613 121.4861163 102.6791274 104.4755088 122.3070044 102.1871543
 105.4156533 121.3615238 102.9041415 100.9509667 119.0005292 103.5214782
 101.4838004 118.2393580 103.2914090 100.4223748 118.7078944 104.2638937
  99.4418788 106.5608743  96.0223839 100.3071785 106.3651552  95.6629728
  99.5096297 106.3319095  96.9493196 109.0563919 116.8506324  89.4934032
 108.2793361 116.5117483  89.0489195 109.7355400 116.8558947  88.8188998
 102.3162380 118.1291285  91.0333594 101.7883741 117.3944044  90.7206832
 101.8149882 118.9065961  90.7873563 107.2955226 116.3240305  96.1500640
 106.6378900 117.0139567  96.2380769 108.0995625 116.7136737  96.4934627
  97.0481107 108.7910951  93.3940206  97.6224859 108.5686133  92.6613399
  97.6352090 108.8599646  94.1468807 106.1060684 114.6784678  94.2004582
 106.6192566 115.3114670  94.7026292 106.7561908 114.0785873  93.8347942
  97.3750694 110.8215412  87.4136091  96.5388007 111.1590099  87.7345366
  97.2355464 110.6864392  86.4763228 103.3683059 124.6569002  86.9565253
 102.6944757 124.9600699  87.5650211 103.7548881 125.4598083  86.6070710
 102.5841515 112.1534133  96.4462923 101.6664077 112.3749080  96.2884611
 103.0001659 112.2280444  95.5874630 103.3676563 113.5525549  91.5765603
 104.1148382 114.0646946  91.2672725 103.6368153 113.2309602  92.4369997
 101.6403213 116.0484090  88.5592557 100.7314432 115.7643123  88.6565027
 101.6698297 116.4683168  87.6995864 106.8722481 119.6590679  92.3283725
 106.4184808 118.8181589  92.3848915 106.2416447 120.2952078  92.6658505
 105.8155400 110.5882665  93.5584392 105.0778157 110.0760052  93.8894635
 106.0682174 110.1483047  92.7467669 105.3155420 121.4967176  93.2633543
 105.6078394 122.0572233  92.5445909 105.8254040 121.7895737  94.0186702
 100.1888107 113.6612710  94.6602353 100.2436717 112.7086547  94.5844829
  99.3779309 113.8172150  95.1443651 101.3379301 117.5892834  85.8980636
 100.8998731 116.8728692  85.4386273 102.0789742 117.8168948  85.3365727
  98.1280467 112.2789770  92.4192732  97.3148333 112.5783941  92.8257924
  98.6239461 111.8845459  93.1367214 100.2789045 122.2747527  94.3526996
 100.2365224 122.5008373  93.4235528 101.1951744 122.0410902  94.5012797
 103.7254679 112.7431595 101.2507625 104.0804067 112.9703068 102.1102091
 104.3726810 113.0749972 100.6284881 109.4552416 115.8650031  91.9556954
 109.3170314 116.0551627  91.0278144 109.0988635 116.6269413  92.4125006
  97.6194542 109.8508126  98.0353966  98.2593921 109.7096885  97.3376930
  96.7872072 109.5642639  97.6592568 109.4821795 117.9326558  96.9668226
 109.9158302 117.8401847  97.8151280 110.1953376 117.9084058  96.3288242
  98.3954846 119.1510556  94.1488959  99.1895444 118.6560876  93.9471534
  97.6846538 118.6228419  93.7856664 103.2149690 121.5328652  98.5001327
 103.2686713 122.1019588  99.2679042 102.3464472 121.7030537  98.1355364
  94.6223158 109.8208451  92.8126953  94.8829976 110.7353784  92.7036114
  95.4440331 109.3532893  92.9623566  96.0948084 111.2346208  99.9825778
  96.7671137 111.0263570  99.3338427  95.2677870 111.0368294  99.5431010
 110.3437345 117.9750258  99.5001111 110.5373235 118.8796069  99.7460386
 110.2437963 117.5157677 100.3339696 105.4052454 118.1257001 105.0741992
 105.2537960 117.8967553 104.1572076 105.3957133 119.0827602 105.0873337
 102.1737790 115.6988914 100.0588258 103.1029850 115.8500073  99.8857226
 101.7528820 115.7872935  99.2036905 100.9726122 119.7239578  97.8286796
 100.8337207 119.3558363  98.7012734 100.1840718 120.2387218  97.6570754
 101.5674274 124.8248675  89.1712333 101.7426029 124.3536718  89.9857955
 100.8807062 125.4514441  89.3993593 102.5231337 119.1021181  95.2175634
 102.1881170 119.0621951  96.1133284 102.0235283 118.4365897  94.7446044
  96.4975581 114.5088811 100.7428215  96.3595379 113.7769050 101.3439754
  97.4080504 114.4197711 100.4612403  99.1257882 114.2208770 100.2311895
  99.8357500 113.5801962 100.1898513  99.0827190 114.4721665 101.1538075
 107.1144660 121.1576124 103.1518474 107.0557206 120.4735344 102.4849057
 107.5164179 121.8995114 102.6999100  97.8386816 111.2073988 102.0507534
  97.3024173 110.7564727 102.7029130  97.2503524 111.3419897 101.3077998
  96.1335359 127.9738037  95.9452193  96.3731957 128.6056562  96.6231211
  95.2904556 127.6226077  96.2317552  97.2489075 110.6662640  84.6133998
  96.3718541 110.5451440  84.2496244  97.7246828 109.8748718  84.3612886
 107.1162068 119.1215708 101.3832453 106.2288846 118.7841629 101.5058852
 107.6860619 118.3898739 101.6201219  93.5725937 110.3429996  99.1360529
  93.4884126 109.7355665  98.4010939  92.7508643 110.8339014  99.1370025
 100.6463221 123.7817160  98.3493697 100.5733392 124.5872131  98.8613001
 100.2040614 123.9809126  97.5241718 100.4353001 123.0188930  91.8596518
  99.6520522 123.5610610  91.9534743 101.1345746 123.5362910  92.2590759
 103.7449651 108.8283559  94.5030724 104.2418350 108.0753522  94.1831794
 102.9736632 108.8647876  93.9373933 111.5979408 114.5323925  96.1449015
 111.5869284 115.4148640  95.7742948 110.7296787 114.1795476  95.9503552
 103.1061904 123.6803994 100.5051855 103.8189877 124.3151459 100.4327757
 102.6151933 123.7767860  99.6891857 104.8279431 117.5855247  92.0769147
 103.8935710 117.7056709  91.9073851 105.0056100 116.6827713  91.8129157
 100.3284619 110.9700942  94.2302408  99.9582407 110.4171983  94.9183314
 100.8243712 110.3659076  93.6777408 108.2151983 113.4272566  92.6119181
 108.6812435 114.2600557  92.5379484 108.6659483 112.9617547  93.3164440
  98.1573818 121.4298437 101.3257426  98.8583277 122.0634920 101.4786820
  97.6868933 121.7713169 100.5653065 106.2828214 119.7716387  89.6105333
 106.5588058 119.6572982  90.5199207 105.4132713 119.3733872  89.5717506
 105.9575104 113.9843045  99.1509977 105.3046554 114.2318952  98.4962429
 106.3355484 113.1707183  98.8172454 102.9182278 124.0202738  93.2538147
 103.1004672 123.2024394  93.7165899 103.7415264 124.2370430  92.8163037
 103.2524443 122.9470923  90.5153195 103.7812210 122.4363378  89.9023357
 103.5152663 122.6313453  91.3798728 102.0062677 114.7262856 105.6376014
 101.3303314 114.6256985 106.3078389 102.8290311 114.5702070 106.1012011
  93.7541536 120.9634792  98.2588529  94.3394973 120.2178480  98.3916433
  93.5566374 121.2738749  99.1425193  96.6080191 123.9986040  93.2750971
  95.9390567 124.4832167  92.7915011  96.4693061 124.2455260  94.1894350
 100.7485460 126.0329783  99.8733630 101.3003768 126.1961405 100.6382715
 101.0891653 126.6234221  99.2013654  95.2002226 110.4528066 104.1228549
  95.8274264 110.0705143 104.7366073  94.3430144 110.2342268 104.4884241
 105.5996334 120.8591041 105.7282284 106.1436238 121.4720999 105.2337239
 105.0183179 121.4170619 106.2449297 103.8853847 123.9811759  96.8597312
 103.7604987 123.1801499  96.3508257 104.5432938 124.4757952  96.3711282
  95.5062015 110.3360491  96.0374452  94.7848601 110.9496459  95.8981925
  96.2955271 110.8718256  95.9591098 105.9488755 121.7820779  98.4876862
 105.0019091 121.6626130  98.4155189 106.2971529 120.8943277  98.5703123
  98.3088329 107.6714918 102.3115104  98.8322731 107.9177214 103.0741413
  98.0900662 108.5034953 101.8918241 102.9535189 121.5773495  94.6881214
 102.8060151 120.6490203  94.8688784 103.7788682 121.5993586  94.2038289
  96.8197433 110.2291562  90.5461706  97.1593506 110.7577483  89.8240315
  97.2669554 110.5671968  91.3220273 106.5569311 122.4002054  95.7746087
 107.4815858 122.1944915  95.6370538 106.3884614 122.1518455  96.6835428
  97.6895924 112.3897046  96.2584076  97.5440505 112.7037349  97.1508357
  97.2121128 113.0081946  95.7054975  99.5492307 109.3799594  96.3064965
  99.5353876 108.4840687  95.9697263 100.2664735 109.3870258  96.9403252
 106.3464627 122.9187721  91.1308178 106.5201504 122.3534144  90.3782031
 106.8393518 123.7188616  90.9487668  92.1641587 114.9302390  99.1971737
  91.6195055 115.7062198  99.3292011  93.0420937 115.2773195  99.0390859
 112.2004018 115.6824144  92.7498478 112.6435164 114.9331469  92.3517601
 111.3230528 115.6734281  92.3672210 107.3339799 122.2354486  88.2305077
 108.0290704 122.8561178  88.4492391 107.6762949 121.3849837  88.5057454
  92.9507609 114.0572287 102.0901894  92.2089345 114.2054922 102.6766524
  92.6300353 114.3180552 101.2268643 109.2331222 119.6854191  89.7592407
 109.7582547 120.0241464  89.0341727 109.1453575 118.7501207  89.5755542
 100.8951271 123.5988265 101.8882284 101.2038398 123.3537412 102.7604984
 101.6926753 123.8034903 101.4001154 100.9171883 125.7526175  94.1187661
 100.4776874 125.2602553  94.8120517 101.6680000 125.2099142  93.8779736
  93.3964222 121.9437715  94.1212289  94.2222242 121.6441487  93.7410932
  93.0458274 121.1745338  94.5702077  98.3645755 121.2964184  96.1909962
  97.7425765 120.6334889  95.8912190  99.0350622 121.3225316  95.5083610
  91.5972827 119.8624042  95.0801222  90.7604736 119.4346216  94.8985223
  91.5696473 120.0556485  96.0172013  98.4370283 109.7745972 105.7842468
  98.4858438 110.6508094 105.4020238  98.9792797 109.2323365 105.2114111
 108.9225129 120.3187095 105.0643605 108.1320672 120.3011234 104.5248105
 108.6858483 120.8575389 105.8192642 109.0423004 117.1679561 102.3776334
 109.0921009 117.0029569 103.3191857 108.9336927 116.3006820 101.9874215
  97.9259262 119.8468107  89.6668423  98.0747383 120.5303571  89.0135095
  98.7325706 119.8273197  90.1817878 106.3326766 113.1510489 103.6935641
 107.2336629 113.0116954 103.4019638 106.4074740 113.3164944 104.6333818
 100.6669571 110.5277344 102.5388827  99.7972881 110.8210910 102.2671415
 100.9029052 111.1117789 103.2596090 110.5441200 119.5876503 102.6218355
 110.2526009 119.9506483 103.4581816 109.9313332 118.8743511 102.4431687
 111.7436883 117.1529383  95.1420926 112.5783774 117.5919187  95.3058486
 111.8796012 116.6768036  94.3229171 108.7928389 114.7109117 101.0898413
 109.2682510 114.9036764 100.2817265 107.8693954 114.7668303 100.8441797
  95.6811895 115.8733285  90.6729492  95.4357937 114.9695615  90.8709702
  95.8507810 115.8750435  89.7308970 101.4254668 122.3416237  87.1380170
 100.8528635 122.9606425  86.6850642 101.9987461 122.8915599  87.6720092
 107.4930058 111.5874877  99.3226719 108.4447481 111.6872975  99.3438943
 107.3233508 110.7953146  99.8324803 104.6451928 122.6253388  88.2688752
 105.5782601 122.5598949  88.4721628 104.5575140 123.4609654  87.8103285
 107.2739944 121.9419258  85.2292700 107.1953576 121.6079121  86.1228458
 108.0949611 122.4341026  85.2284172 109.9718135 114.8080997  98.4369019
 109.9394456 113.8696998  98.6228702 110.5818759 114.8865034  97.7034843
 110.1212624 111.5992041  98.4827302 109.6051673 110.8150497  98.2957231
 111.0052572 111.2710757  98.6473821 115.7894685 115.8697004  97.5775055
 116.5198074 115.6082292  98.1382759 115.1801631 115.1325726  97.6177123
 113.8709982 114.0104867  98.1749507 113.1443146 113.8760832  97.5665998
 113.4557269 114.3181695  98.9806225 101.6940159 117.7294796 105.9396880
 102.6143168 117.9073395 106.1336926 101.6589742 116.7850842 105.7876579
  94.6902231 115.6395831  98.5819661  94.9088241 116.5712939  98.6007695
  95.1028005 115.2803805  99.3674465  99.5630097 111.2129037 107.9722410
  99.4626824 112.1623394 107.9034501  99.3451639 110.8847276 107.0998480
  99.4261367 114.6426176 106.7887471  98.9428448 115.4426536 106.9951360
  99.5122306 114.6534120 105.8354915  92.6947326 116.4754555  94.7109291
  92.6718014 116.5742242  93.7591174  93.0047963 117.3219706  95.0326457
  95.3534704 118.5330710  98.8255905  96.3077958 118.5014653  98.7585837
  95.1547228 118.0721334  99.6406131  95.9434086 117.1031826 101.3926703
  96.7626975 117.5975905 101.4161540  96.2170894 116.1863794 101.3644270
 109.0515219 109.5189100  94.4708998 109.8275609 110.0085552  94.7433614
 108.3263353 109.9447154  94.9280867 111.4887777 110.2316719  95.5282938
 112.0832268 109.9912455  94.8176246 111.5614361 109.5123849  96.1556474
  93.7084933 124.0750330  95.8426103  93.5739401 123.3150731  95.2764101
  93.2916995 124.7991230  95.3754892 104.8443896 119.2587253  84.8502678
 105.5479746 119.4637256  85.4660334 104.1206545 119.8264015  85.1151762
 105.6741706 115.0097115  90.9704948 105.6176908 115.4665666  90.1312581
 106.2270049 114.2487799  90.7927791 113.7958850 113.5382920  94.3026359
 113.2358408 113.6076109  95.0757921 113.1902353 113.3623904  93.5825856
  96.8654059 124.9719647  96.0544546  96.7486443 125.9165079  95.9523236
  96.0446505 124.6693208  96.4430345 106.7530593 119.6969782  86.9001138
 107.5876197 119.2650981  86.7178613 106.5914936 119.5251796  87.8278033
 106.4076486 116.2001896  88.2657478 106.3525289 116.0346167  87.3245922
 105.7822541 116.9077929  88.4219667 103.7222393 118.5050808 107.5911040
 104.5913552 118.6791460 107.2297675 103.2429144 119.3245224 107.4686770
  97.8908573 125.6247909  99.2700474  98.7935820 125.6571519  99.5866969
  97.6645943 124.6948360  99.2846810  99.6462175 124.3778895  95.9310553
  98.6957806 124.3780757  95.8174925  99.9494661 123.6311630  95.4146587
  95.5366492 108.5837577 106.1893914  96.3997953 108.2274382 106.3997239
  94.9631902 108.2451472 106.8769318 115.3814869 130.2139434  96.9956315
 116.0193278 130.0946181  96.2919655 115.2635711 131.1620278  97.0544267
 112.1904575 130.1666862  96.9317840 111.8523086 130.0507926  96.0438375
 113.0594343 129.7658027  96.9118846 108.0491391 132.0202338  92.9214731
 107.4856256 131.9292275  92.1531019 107.9343786 131.2002243  93.4017223
 105.5955822 133.5153530  95.7598951 106.3877114 133.1744354  95.3445251
 105.8352473 133.6248505  96.6801105 107.5546576 132.7762443  88.6316330
 108.3277452 132.2291430  88.4929206 107.9071975 133.6406692  88.8430791
 110.3187826 131.4815674  98.4284589 110.9151398 131.2571696  97.7141552
 110.3762797 130.7400419  99.0310037 109.8912854 128.9355109  86.2634780
 110.1438375 128.4136630  85.5018243 108.9537413 128.7721255  86.3661464
 114.9356137 127.9390887  94.0709523 115.7219226 127.5210311  93.7199940
 115.1994841 128.8436980  94.2391172 120.3364564 127.8766121  94.9742502
 121.0689736 127.3065337  95.2080331 119.5803920 127.4887721  95.4149007
 109.6109143 130.8383215  88.4659155 109.4945401 130.1628118  89.1340239
 109.7211403 130.3515589  87.6491308 111.9540684 130.2993362  92.1705844
 111.5898891 129.7723983  92.8818766 112.8107800 129.9091831  91.9972330
 117.8589984 121.5887695  99.4337110 117.5273309 122.4583106  99.2098325
 117.2635598 121.2723979 100.1131141 111.5946171 125.3283262  87.1667193
 111.7620573 126.1963498  87.5337664 111.4043340 125.4910544  86.2428482
 107.8033985 130.2414038  94.8669727 106.8784482 130.1090252  95.0747419
 108.0518399 131.0208257  95.3639670 117.7518648 126.3082781  96.5130460
 116.8435525 126.2398189  96.2189221 117.7006244 126.7854726  97.3412286
 111.5735392 127.7840919  88.1513859 111.4535017 128.2297970  88.9899340
 110.8787980 128.1326237  87.5927398 105.1642797 129.8847311  95.7013517
 105.2935178 130.1381790  96.6152928 104.4840248 130.4775019  95.3818172
 119.6180294 124.5099219  98.2908334 118.9754674 124.8031752  97.6448129
 119.1135223 124.3952140  99.0961531 117.2720458 128.2562393  88.9794194
 118.1838314 128.4889779  88.8041891 116.7630105 128.8399437  88.4169272
 111.9092296 127.6159627  99.9889043 112.7553491 128.0399041 100.1323692
 111.8490933 126.9593251 100.6827606 114.6156433 124.4320428  97.2284054
 113.7540912 124.7301682  97.5200792 114.6418867 124.6490827  96.2965087
 111.4318002 132.9762619  93.6357860 111.8956348 133.2550322  92.8462483
 111.1674800 132.0746064  93.4530951 108.3242083 132.5234101  96.5737623
 108.8943440 132.9521369  95.9355108 108.9150195 132.2416685  97.2721809
 110.3686888 129.0985771  90.4447425 111.0710931 129.5506815  90.9121352
 110.0367517 128.4569590  91.0727318 104.1112222 127.3569324  95.7464559
 103.3211276 127.6126853  95.2704669 104.6023469 128.1717662  95.8516599
 106.0626967 127.7213903  92.7048035 105.2658131 127.8332598  93.2231531
 105.8352560 128.0600556  91.8388926 102.3949925 127.6099815  98.1779550
 102.6457963 128.4946824  98.4437126 102.9309473 127.4304416  97.4054641
 105.0610050 133.4302152  91.0937456 105.5734571 134.2245402  91.2443020
 105.7132763 132.7328443  91.0271057 106.8704935 136.5467908  93.1760209
 107.0471563 137.4685873  92.9881193 107.6661768 136.2326328  93.6054588
 106.1557291 128.5932540 103.0522372 106.0410807 127.6917797 103.3529471
 105.3001809 128.8396237 102.7007188 114.9573116 119.4357276  99.0508424
 114.6137386 120.3258918  98.9747534 115.3252079 119.2458934  98.1878009
 103.0258967 131.7590806  91.8697026 103.8634189 132.1687815  91.6530734
 103.2037235 130.8190249  91.8397220 114.9223399 129.4265887  87.5580859
 114.4070022 130.1970492  87.7969246 114.6500707 128.7531023  88.1813920
 112.5070510 124.2715588  92.6166097 111.6512106 123.8822438  92.4371736
 112.9197462 124.3507549  91.7565883 114.0369657 121.8061931  97.0157657
 113.5334452 121.7692066  96.2025462 114.3300264 122.7154674  97.0754314
 110.2812543 121.8900661  96.0223839 111.1465539 121.6943469  95.6629728
 110.3490051 121.6611013  96.9493196 114.7109702 127.2992979  89.3840640
 114.4059838 127.6139128  90.2350783 115.6640144 127.3774399  89.4267973
 113.1556134 133.4583202  91.0333594 112.6277496 132.7235962  90.7206832
 112.6543637 134.2357879  90.7873563 107.8874862 124.1202869  93.3940206
 108.4618614 123.8978050  92.6613399 108.4745844 124.1891563  94.1468807
 116.9454439 130.0076596  94.2004582 117.4586321 130.6406587  94.7026292
 117.5955663 129.4077791  93.8347942 108.2144449 126.1507330  87.4136091
 107.3781761 126.4882016  87.7345366 108.0749218 126.0156310  86.4763228
 110.1897529 120.9944118  92.1215275 109.5361942 120.6793135  91.4971890
 110.1478004 120.3719858  92.8475098 111.3008734 131.2763413  84.0368567
 110.3935796 131.0452666  84.2359716 111.7979766 130.4801032  84.2242549
 113.4235270 127.4826051  96.4462923 112.5057831 127.7040998  96.2884611
 113.8395413 127.5572362  95.5874630 114.2070317 128.8817467  91.5765603
 114.9542136 129.3938864  91.2672725 114.4761907 128.5601520  92.4369997
 112.4796968 131.3776008  88.5592557 111.5708187 131.0935040  88.6565027
 112.5092051 131.7975086  87.6995864 116.6549155 125.9174583  93.5584392
 115.9171911 125.4051969  93.8894635 116.9075928 125.4774965  92.7467669
 116.7560782 118.6950835  94.1526162 117.0619659 117.8348199  93.8652077
 117.4813387 119.2868455  93.9525155 103.0485138 129.0981522  92.5407759
 102.8509538 128.5050882  91.8158826 102.4931802 128.7933732  93.2583698
 111.0281862 128.9904628  94.6602353 111.0830471 128.0378465  94.5844829
 110.2173064 129.1464067  95.1443651 112.1773055 132.9184751  85.8980636
 111.7392485 132.2020610  85.4386273 112.9183496 133.1460866  85.3365727
 108.9674222 127.6081688  92.4192732 108.1542087 127.9075858  92.8257924
 109.4633216 127.2137377  93.1367214 108.4588296 125.1800043  98.0353966
 109.0987676 125.0388803  97.3376930 107.6265827 124.8934557  97.6592568
 109.2348600 134.4802474  94.1488959 110.0289199 133.9852794  93.9471534
 108.5240293 133.9520337  93.7856664 105.5431364 128.6245556  90.2248712
 104.6128952 128.5630011  90.4418674 105.6388836 128.1021508  89.4285353
 105.4616913 125.1500368  92.8126953 105.7223730 126.0645702  92.7036114
 106.2834085 124.6824811  92.9623566 106.9341838 126.5638126  99.9825778
 107.6064892 126.3555488  99.3338427 106.1071625 126.3660212  99.5431010
 112.8367410 123.1900067 101.9991439 112.1895325 123.8890016 101.9055915
 113.6068426 123.6236210 102.3667687 113.3625091 134.4313099  95.2175634
 113.0274924 134.3913869  96.1133284 112.8629037 133.7657814  94.7446044
 107.3369335 129.8380729 100.7428215 107.1989133 129.1060967 101.3439754
 108.2474259 129.7489629 100.4612403 116.2984283 131.7769133  85.4912693
 115.6813454 131.0515961  85.3945746 115.8300772 132.5378493  85.1479768
 109.9651636 129.5500688 100.2311895 110.6751255 128.9093880 100.1898513
 109.9220944 129.8013583 101.1538075 108.6780570 126.5365906 102.0507534
 108.1417927 126.0856644 102.7029130 108.0897278 126.6711815 101.3077998
 108.0882829 125.9954557  84.6133998 107.2112295 125.8743358  84.2496244
 108.5640582 125.2040635  84.3612886  99.6084969 130.7831717  94.7075505
 100.2956009 130.4693447  94.1196520  99.4533098 131.6873082  94.4342756
 104.4119691 125.6721913  99.1360529 104.3277880 125.0647583  98.4010939
 103.5902398 126.1630932  99.1370025 114.5843405 124.1575477  94.5030724
 115.0812105 123.4045439  94.1831794 113.8130387 124.1939794  93.9373933
 115.6673186 132.9147164  92.0769147 114.7329465 133.0348627  91.9073851
 115.8449854 132.0119631  91.8129157 111.1678374 126.2992860  94.2302408
 110.7976161 125.7463900  94.9183314 111.6637466 125.6950993  93.6777408
 119.0545737 128.7564484  92.6119181 119.5206189 129.5892475  92.5379484
 119.5053238 128.2909465  93.3164440 117.0262400 121.1245071  96.6510082
 116.1125480 121.3549297  96.8192289 117.4555501 121.2083515  97.5024115
 104.5935291 136.2926710  98.2588529 105.1788727 135.5470398  98.3916433
 104.3960129 136.6030667  99.1425193  99.1852945 128.8632310  96.9792972
  99.2237045 128.3295901  97.7730090  98.6793238 128.3367516  96.3603949
 106.5643708 123.7096851 100.4755514 106.6285034 124.5711682 100.0632912
 106.5010828 123.0970852  99.7427873 106.0395980 125.7819983 104.1228549
 106.6668019 125.3997061 104.7366073 105.1823899 125.5634185 104.4884241
 102.8161523 127.5896412  90.0546903 103.1114964 126.6807091  90.0013957
 101.9149559 127.5684152  89.7327906 106.3455770 125.6652409  96.0374452
 105.6242356 126.2788377  95.8981925 107.1349026 126.2010174  95.9591098
 109.1482083 123.0006836 102.3115104 109.6716485 123.2469132 103.0741413
 108.9294417 123.8326870 101.8918241 104.5449364 125.2710510  90.1786229
 104.2162071 124.3907889  89.9961334 104.8988735 125.2158179  91.0662618
 107.6591188 125.5583480  90.5461706 107.9987260 126.0869401  89.8240315
 108.1063308 125.8963886  91.3220273 110.3534628 123.9420531  99.9964774
 110.0131449 123.1428344 100.3985454 109.6473635 124.2422241  99.4241607
 111.0051100 121.0269843  98.4492097 111.8277170 120.5530321  98.3270988
 111.2489164 121.8060327  98.9490784 109.6459335 124.0558101  88.7454999
 110.3667697 124.4339354  88.2418716 109.0224639 124.7746978  88.8489977
 113.7890458 124.7603250  89.6813331 114.0054072 125.6427888  89.3802159
 113.3084525 124.3689464  88.9518973 108.5289679 127.7188964  96.2584076
 108.3834260 128.0329267  97.1508357 108.0514883 128.3373864  95.7054975
 110.3886062 124.7091512  96.3064965 110.3747631 123.8132605  95.9697263
 111.1058490 124.7162175  96.9403252 112.2412193 125.1428852  98.3518093
 111.9829970 126.0645923  98.3502423 111.7097233 124.7459286  99.0418557
 103.0035341 130.2594308  99.1971737 102.4588809 131.0354116  99.3292011
 103.8814691 130.6065113  99.0390859 109.7922958 123.5905892  91.5752536
 109.9138869 122.6622538  91.7743423 109.5025000 123.6044578  90.6630851
 112.6614148 121.2760802  94.7119255 112.6835845 121.3400135  93.7571235
 113.0782207 120.4365311  94.9059762 103.7901363 129.3864204 102.0901894
 103.0483099 129.5346840 102.6766524 103.4694107 129.6472470 101.2268643
 104.2357977 137.2729633  94.1212289 105.0615997 136.9733405  93.7410932
 103.8852029 136.5037255  94.5702077 109.2039510 136.6256101  96.1909962
 108.5819519 135.9626806  95.8912190 109.8744377 136.6517233  95.5083610
 102.4366582 135.1915960  95.0801222 101.5998490 134.7638134  94.8985223
 102.4090227 135.3848403  96.0172013 108.7653017 135.1760025  89.6668423
 108.9141137 135.8595489  89.0135095 109.5719460 135.1565115  90.1817878
 106.5205650 131.2025202  90.6729492 106.2751692 130.2987532  90.8709702
 106.6901564 131.2042353  89.7308970 114.2102360 122.0748879 100.0554247
 114.7284303 122.8109906  99.7300736 113.8557492 122.3812872 100.8901006
 105.7901297 126.9353560  88.1715653 105.0970542 127.0097915  87.5155689
 105.5453049 126.1713903  88.6937170 114.4614954 118.4949161  95.5755144
 114.7416708 117.8272350  96.2015570 115.2465561 118.6878257  95.0629808
 116.3538192 124.0022378  99.5086120 115.7588124 124.2827391  98.8132609
 116.0687888 124.4916279 100.2802861 112.6495221 129.0068968  84.4796223
 113.5954326 128.8775176  84.5484641 112.2709466 128.2683630  84.9565651
 118.6217105 120.6724974  94.4423114 118.4241926 120.3640062  95.3266446
 119.2316811 121.3986613  94.5721044 110.8338138 126.9318944  84.4151108
 109.9269593 126.6352057  84.4913821 111.1114119 126.6348762  83.5485394
 101.7516078 128.2525308  94.8650154 101.4318863 127.3990616  94.5724528
 101.2049507 128.4673886  95.6208122 105.5295986 130.9687749  98.5819661
 105.7481996 131.9004856  98.6007695 105.9421760 130.6095723  99.3674465
 112.4500204 121.4755834  90.5695349 111.6400932 121.1302919  90.9450595
 113.1384621 121.1663378  91.1582961 114.3790752 120.5533881  92.1919646
 114.9321791 120.9729334  92.8509669 114.6160838 119.6269629  92.2342602
 109.6036923 123.7905879  84.5563087 110.4656087 124.1160778  84.8158904
 109.7887267 123.0037375  84.0436153 101.6204338 131.8728219  96.8343276
 100.9267810 131.4582172  96.3213230 102.3677329 131.9148756  96.2376695
 117.7569559 122.6634406  91.6998310 117.1768228 123.3219210  91.3176362
 117.4905492 121.8411750  91.2885728 116.2073125 122.0639464  93.9019630
 116.7072904 122.1755998  93.0933949 116.8508733 121.7600516  94.5420439
 103.5341081 131.8046473  94.7109291 103.5111769 131.9034160  93.7591174
 103.8441717 132.6511624  95.0326457 106.1928459 133.8622628  98.8255905
 107.1471712 133.8306570  98.7585837 105.9940982 133.4013252  99.6406131
 116.5394437 124.8234496  90.7554658 115.6520292 125.1084147  90.5374853
 116.9548426 124.6628260  89.9081935 119.8908973 124.8481017  94.4708998
 120.6669363 125.3377470  94.7433614 119.1657107 125.2739071  94.9280867
 122.3281532 125.5608636  95.5282938 122.9226023 125.3204372  94.8176246
 122.4008116 124.8415767  96.1556474 104.5478688 139.4042247  95.8426103
 104.4133155 138.6442648  95.2764101 104.1310750 140.1283147  95.3754892
 116.5135461 130.3389032  90.9704948 116.4570662 130.7957584  90.1312581
 117.0663803 129.5779717  90.7927791 120.3240267 126.1278764  91.7955068
 120.0677201 125.7275400  92.6263276 119.6993135 126.8422558  91.6705207
 117.2470240 131.5293813  88.2657478 117.1919044 131.3638085  87.3245922
 116.6216295 132.2369846  88.4219667 102.0362755 126.7661878 102.0918900
 102.6821619 126.2560832 102.5806125 101.8279906 127.5030559 102.6662325
 110.5566366 121.0301922  87.8442796 110.5445035 121.9743762  88.0011067
 111.4489787 120.8472068  87.5502257 114.3718485 117.6244699  92.0988733
 113.6050881 117.0703186  92.2445415 114.7829190 117.6966568  92.9602884
  39.5058588  -0.0841868  83.7201622  40.1436998  -0.2035120  83.0164962
  39.3879431   0.8638976  83.7789574  36.3148295  -0.1314439  83.6563146
  35.9766806  -0.2473375  82.7683681  37.1838063  -0.5323274  83.6364153
  32.1735110   1.7221037  79.6460037  31.6099975   1.6310974  78.8776325
  32.0587505   0.9020941  80.1262530  36.7968078   1.0220412  89.6149352
  36.7856718   0.6273211  88.7429856  36.9588717   0.2886485  90.2083123
  29.7199542   3.2172229  82.4844258  30.5120834   2.8763053  82.0690557
  29.9596192   3.3267204  83.4046411  37.7534669   5.3892005  74.9574502
  37.1022649   5.9746085  74.5708516  38.5479032   5.9198200  75.0169540
  31.6790296   2.4781142  75.3561637  32.4521172   1.9310129  75.2174512
  32.0315695   3.3425391  75.5676098  33.5175339   3.8057524  88.5628536
  33.2265205   4.7103155  88.4475202  34.1532323   3.8474052  89.2772606
  34.4431546   1.1834373  85.1529896  35.0395118   0.9590395  84.4386859
  34.5006517   0.4419118  85.7555343  34.0156574  -1.3626192  72.9880087
  34.2682095  -1.8844671  72.2263550  33.0781133  -1.5260047  73.0906770
  39.0599857  -2.3590414  80.7954830  39.8462946  -2.7770991  80.4445247
  39.3238561  -1.4544322  80.9636478  39.2309934   3.0782437  75.4943487
  38.5955767   3.1517063  76.2064391  38.9007341   3.6676035  74.8162566
  44.4608284  -2.4215180  81.6987808  45.1933456  -2.9915964  81.9325638
  43.7047640  -2.8093580  82.1394314  33.7352863   0.5401914  75.1904462
  33.6189121  -0.1353183  75.8585546  33.8455123   0.0534288  74.3736615
  36.0784404   0.0012061  78.8951151  35.7142611  -0.5257318  79.6064072
  36.9351520  -0.3889470  78.7217636  38.4765224   3.4918940  85.5578330
  38.1765947   4.3943978  85.4494137  38.1316283   3.2251123  86.4099483
  31.9277705  -0.0567264  81.5915034  31.0028202  -0.1891049  81.7992726
  32.1762119   0.7226956  82.0884976  41.8762368  -3.9898520  83.2375767
  40.9679245  -4.0583112  82.9434528  41.8249963  -3.5126575  84.0657592
  35.6979112  -2.5140382  74.8759166  35.5778737  -2.0683331  75.7144646
  35.0031700  -2.1655064  74.3172704  33.4586004  10.2563260  78.5249297
  33.3810033  11.2071085  78.6037778  32.8547647   9.9109132  79.1824224
  35.9503233  -2.5708875  91.1810664  35.1736567  -2.0114954  91.1713529
  36.5893796  -2.0852092  91.7025534  43.7424014  -5.7882082  85.0153641
  43.0998394  -5.4949549  84.3693435  43.2378943  -5.9029161  85.8206838
  41.3964178  -2.0418909  75.7039500  42.3082034  -1.8091522  75.5287198
  40.8873825  -1.4581864  75.1414579  34.2049606   0.2376579  90.7428631
  34.9464290   0.7761623  90.4663455  33.4986591   0.8642867  90.9000183
  39.6804945   2.3805719  89.3400793  40.0888301   1.9388130  88.5955425
  38.9582207   1.8058347  89.5934986  36.0336015  -2.6821674  86.7134350
  36.8797211  -2.2582260  86.8568999  35.9734653  -3.3388050  87.4072913
  40.0033760   2.9406910  83.0953082  39.3742622   3.1052624  82.3929149
  39.6159422   3.3548519  83.8664046  43.8822992   3.8761348  80.4497445
  43.1974030   4.2560249  79.8994479  43.9666841   4.4856674  81.1829393
  39.1835461  -5.0217306  88.3715523  38.9396393  -4.2675245  87.8349799
  39.4595391  -4.6431958  89.2062770  41.1373924   1.5221307  87.0492789
  41.3490819   2.1653067  86.3727170  41.0903672   0.6883623  86.5814719
  38.7400152  -5.8660873  83.9529361  37.8784632  -5.5679619  84.2446099
  38.7662587  -5.6490474  83.0210394  35.5561722   2.6781318  80.3603167
  36.0200067   2.9569021  79.5707789  35.2918520   1.7764762  80.1776257
  32.4485803   2.2252799  83.2982930  33.0187160   2.6540068  82.6600414
  33.0393915   1.9435384  83.9967116  34.4930608  -1.1995530  77.1692732
  35.1954651  -0.7474486  77.6366658  34.1611236  -1.8411711  77.7972625
  42.2519751   4.3993262  85.2215146  43.0737195   3.9973449  84.9397828
  42.2482154   4.2961496  86.1731262  36.0176355   3.9477305  87.3775857
  36.0820787   4.4097713  88.2134029  35.3087279   3.3174670  87.5058167
  50.3425745   0.7432011  81.5700118  49.5889453   0.1739409  81.4144122
  50.4773286   0.7094675  82.5170752  35.7324373   5.6145413  77.2454837
  35.5970047   6.4596949  77.6739685  36.2734185   5.8164691  76.4820771
  29.1853770   3.1320851  77.8182762  29.6978291   3.9264101  77.9688327
  29.8376483   2.4347141  77.7516364  30.9948655   6.2486607  79.9005515
  31.1715283   7.1704572  79.7126499  31.7905488   5.9345026  80.3299895
  37.3592849   6.2368979  91.3755179  36.9156703   5.4505358  91.0576084
  38.0210063   6.4248130  90.7099070  32.1179970   7.7664781  85.9015858
  32.6687395   7.6381844  85.1292852  31.2791446   8.0659670  85.5510750
  39.4574087   6.5171779  89.4036580  39.4392562   7.3380660  88.9116850
  40.3794007   6.3925855  89.6286722  35.9147141   4.0315909  90.2460089
  36.4475478   3.2704197  90.0159397  35.3861222   3.7389561  90.9884243
  39.0467119  -0.8715414  74.2826166  38.5313742  -0.1010809  74.5214553
  38.7744427  -1.5450278  74.9059227  44.0201393   1.8816941  76.2179339
  43.2430836   1.5428100  75.7734501  44.6992874   1.8869564  75.5434304
  38.8353422  -2.9988322  76.1085947  38.5303558  -2.6842173  76.9596090
  39.7883864  -2.9206902  76.1513280  37.2799854   3.1601901  77.7578901
  36.7521215   2.4254661  77.4452138  36.7787357   3.9376578  77.5118869
  42.2592700   1.3550922  82.8745947  41.6016374   2.0450183  82.9626076
  43.0633099   1.7447354  83.2179933  41.0698159  -0.2904706  80.9249889
  41.5830040   0.3425286  81.4271599  41.7199383  -0.8903510  80.5593249
  35.4252454   0.9782112  70.7613874  34.5179516   0.7471365  70.9605023
  35.9223486   0.1819731  70.9487855  38.3320533   9.6879619  73.6810560
  37.6582232   9.9911316  74.2895518  38.7186355  10.4908699  73.3316017
  37.5478990  -2.8155250  83.1708229  36.6301551  -2.5940303  83.0129917
  37.9639133  -2.7408939  82.3119937  38.3314037  -1.4163834  78.3010910
  39.0785856  -0.9042437  77.9918032  38.6005627  -1.7379782  79.1615303
  36.6040687   1.0794706  75.2837864  35.6951907   0.7953739  75.3810334
  36.6335771   1.4993785  74.4241171  41.8359955   4.6901296  79.0529031
  41.3822282   3.8492206  79.1094222  41.2053922   5.3262694  79.3903812
  40.7792874  -4.3806718  80.2829699  40.0415631  -4.8929332  80.6139942
  41.0319648  -4.8206336  79.4712976  40.2792894   6.5277793  79.9878850
  40.5715869   7.0882850  79.2691215  40.7891515   6.8206354  80.7432009
  35.1525582  -1.3076673  81.3847659  35.2074191  -2.2602837  81.3090136
  34.3416784  -1.1517234  81.8688958  36.3016775   2.6203450  72.6225943
  35.8636205   1.9039309  72.1631580  37.0427216   2.8479565  72.0611034
  35.2426519   7.3058144  81.0772303  35.2002698   7.5318990  80.1480835
  36.1589218   7.0721518  81.2258104  38.6892153  -2.2257789  87.9752932
  39.0441541  -1.9986316  88.8347398  39.3364284  -1.8939412  87.3530187
  44.4189890   0.8960647  78.6802261  44.2807789   1.0862243  77.7523450
  44.0626109   1.6580030  79.1370312  44.4459270   2.9637174  83.6913533
  44.8795776   2.8712463  84.5396587  45.1590850   2.9394675  83.0533549
  33.3592320   4.1821173  80.8734266  34.1532919   3.6871493  80.6716841
  32.6484013   3.6539036  80.5101971  38.1787165   6.5639268  85.2246633
  38.2324187   7.1330205  85.9924349  37.3101946   6.7341153  84.8600670
  45.3074819   3.0060875  86.2246418  45.5010709   3.9106685  86.4705693
  45.2075437   2.5468294  87.0585003  40.3689928   3.1567618  91.7987299
  40.2175434   2.9278169  90.8817382  40.3594607   4.1138219  91.8118644
  37.1375264   0.7299530  86.7833565  38.0667324   0.8810690  86.6102532
  36.7166294   0.8183551  85.9282212  35.9363596   4.7550195  84.5532103
  35.7974682   4.3868979  85.4258041  35.1478192   5.2697834  84.3816060
  36.5311748   9.8559291  75.8957639  36.7063504   9.3847334  76.7103262
  35.8444536  10.4825057  76.1238900  37.4868811   4.1331797  81.9420940
  37.1518644   4.0932567  82.8378590  36.9872757   3.4676513  81.4691351
  31.4613055  -0.4600573  87.4673522  31.3232853  -1.1920334  88.0685061
  32.3717979  -0.5491672  87.1857709  40.4228003   1.4787832  72.2158000
  39.8057174   0.7534660  72.1191053  39.9544491   2.2397192  71.8725074
  34.0895356  -0.7480613  86.9557201  34.7994974  -1.3887421  86.9143820
  34.0464664  -0.4967718  87.8783382  42.0782135   6.1886740  89.8763780
  42.0194681   5.5045960  89.2094363  42.4801653   6.9305730  89.4244406
  31.0972833  13.0048654  82.6697499  31.3369432  13.6367178  83.3476518
  30.2542030  12.6536694  82.9562859  42.0799542   4.1526324  88.1077760
  41.1926321   3.8152246  88.2304159  42.6498093   3.4209355  88.3446526
  35.6100695   8.8127776  85.0739003  35.5370867   9.6182748  85.5858308
  35.1678088   9.0119742  84.2487025  35.3990475   8.0499546  78.5841825
  34.6157997   8.5921227  78.6780049  36.0983220   8.5673526  78.9836066
  46.5616882  -0.4365459  82.8694322  46.5506759   0.4459257  82.4988255
  45.6934262  -0.7893908  82.6748859  38.0699379   8.7114610  87.2297162
  38.7827351   9.3462075  87.1573063  37.5789407   8.8078476  86.4137164
  39.7916906   2.6165863  78.8014454  38.8573184   2.7367326  78.6319158
  39.9693574   1.7138330  78.5374464  43.1789457  -1.5416818  79.3364488
  43.6449909  -0.7088826  79.2624790  43.6296958  -2.0071836  80.0409746
  33.1211292   6.4609054  88.0502733  33.8220752   7.0945537  88.2032127
  32.6506407   6.8023785  87.2898372  41.2465688   4.8027004  76.3350640
  41.5225532   4.6883598  77.2444514  40.3770187   4.4044489  76.2962813
  40.9212578  -0.9846339  85.8755283  40.2684028  -0.7370431  85.2207736
  41.2992958  -1.7982200  85.5417760  37.8819752   9.0513355  79.9783453
  38.0642147   8.2335010  80.4411206  38.7052738   9.2681047  79.5408343
  38.2161918   7.9781540  77.2398502  38.7449684   7.4673994  76.6268664
  38.4790137   7.6624070  78.1044035  36.9700151  -0.2426528  92.3621320
  36.2940788  -0.3432398  93.0323695  37.7927785  -0.3987314  92.8257317
  28.7179010   5.9945409  84.9833835  29.3032447   5.2489097  85.1161740
  28.5203849   6.3049366  85.8670499  31.5717666   9.0296656  79.9996278
  30.9028041   9.5142784  79.5160318  31.4330535   9.2765877  80.9139656
  35.7122934  11.0640400  86.5978936  36.2641242  11.2272021  87.3628021
  36.0529128  11.6544838  85.9258961  40.5633808   5.8901657  92.4527591
  41.1073712   6.5031616  91.9582545  39.9820653   6.4481236  92.9694604
  38.8491321   9.0122375  83.5842618  38.7242461   8.2112115  83.0753564
  39.5070413   9.5068569  83.0956588  40.9126230   6.8131395  85.2122168
  39.9656565   6.6936747  85.1400495  41.2609003   5.9253893  85.2948430
  37.9172663   6.6084112  81.4126521  37.7697626   5.6800819  81.5934091
  38.7426157   6.6304202  80.9283596  41.5206785   7.4312670  82.4991393
  42.4453332   7.2255532  82.3615845  41.3522088   7.1829072  83.4080735
  41.3102101   7.9498338  77.8553485  41.4838979   7.3844760  77.1027337
  41.8030992   8.7499233  77.6732975  47.1641492   0.7134761  79.4743785
  47.6072638  -0.0357914  79.0762908  46.2868003   0.7044897  79.0917517
  42.2977274   7.2665102  74.9550383  42.9928178   7.8871795  75.1737698
  42.6400424   6.4160453  75.2302761  44.1968697   4.7164808  76.4837714
  44.7220021   5.0552081  75.7587034  44.1091049   3.7811823  76.3000849
  35.8588745   8.6298881  88.6127591  36.1675872   8.3848028  89.4850290
  36.6564228   8.8345520  88.1246461  35.8809358  10.7836791  80.8432967
  35.4414348  10.2913170  81.5365824  36.6317474  10.2409759  80.6025042
  28.3601697   6.9748332  80.8457595  29.1859716   6.6752104  80.4656239
  28.0095749   6.2055954  81.2947384  33.3283230   6.3274800  82.9155269
  32.7063239   5.6645505  82.6157497  33.9988097   6.3535932  82.2328917
  26.5610302   4.8934658  81.8046529  25.7242210   4.4656833  81.6230530
  26.5333947   5.0867102  82.7417320  43.8862603   5.3497711  91.7888912
  43.0958147   5.3321850  91.2493411  43.6495957   5.8886005  92.5437949
  44.0060478   2.1990178  89.1021640  44.0558483   2.0340185  90.0437163
  43.8974401   1.3317437  88.7119521  32.8896737   4.8778724  76.3913729
  33.0384857   5.5614188  75.7380402  33.6963180   4.8583814  76.9063185
  41.2964240  -1.8178894  90.4180947  42.1974103  -1.9572429  90.1264945
  41.3712215  -1.6524439  91.3579125  45.5078675   4.6187119  89.3463662
  45.2163483   4.9817100  90.1827123  44.8950806   3.9054128  89.1676994
  46.7074357   2.1839999  81.8666232  47.5421248   2.6229803  82.0303793
  46.8433486   1.7078652  81.0474478  43.7565863  -0.2580266  87.8143720
  44.2319985  -0.0652620  87.0062571  42.8331428  -0.2021080  87.5687104
  30.6449370   0.9043901  77.3974798  30.3995412   0.0006231  77.5955008
  30.8145284   0.9061052  76.4554276  36.3892142   7.3726854  73.8625477
  35.8166109   7.9917041  73.4095949  36.9624936   7.9226216  74.3965399
  42.4567532  -3.3814506  86.0472026  43.4084955  -3.2816408  86.0684250
  42.2870982  -4.1736237  86.5570110  40.4781911  -6.2958923  86.2331427
  39.8831844  -6.0153910  85.5377915  40.1931608  -5.8065022  87.0048168
  39.6089402   7.6564004  74.9934059  40.5420075   7.5909566  75.1966935
  39.5212615   8.4920271  74.5348592  42.2377419   6.9729874  71.9538007
  42.1591050   6.6389738  72.8473765  43.0587085   7.4651642  71.9529479
  44.9355610  -0.1608386  85.1614325  44.9031930  -1.0992386  85.3474009
  45.5456233  -0.0824350  84.4280150  36.7738941  -1.2912333  71.2041529
  37.7198045  -1.4206125  71.2729947  36.3953186  -2.0297671  71.6810957
  45.0850098  -3.3697343  85.2072608  44.5689147  -4.1538886  85.0202537
  45.9690047  -3.6978626  85.3719128  50.7532160   0.9007621  84.3020362
  51.4835548   0.6392909  84.8628065  50.1439105   0.1636343  84.3422430
  48.8347457  -0.9584517  84.8994813  48.1080620  -1.0928552  84.2911305
  48.4194744  -0.6507688  85.7051531  36.6577633   2.7605413  92.6642186
  37.5780643   2.9384012  92.8582233  36.6227216   1.8161458  92.5121886
  29.6539706   0.6706447  85.3064967  29.8725715   1.6023555  85.3253001
  30.0665480   0.3114422  86.0919771  41.8813279  -7.6346895  78.4243617
  41.3011948  -6.9762091  78.0421669  41.6149212  -8.4569551  78.0131034
  34.3898841  -0.3263208  93.5132778  33.9065923   0.4737152  93.7196667
  34.4759780  -0.3155263  92.5600222  27.6584801   1.5065172  81.4354597
  27.6355489   1.6052859  80.4836480  27.9685437   2.3530323  81.7571764
  30.3172179   3.5641327  85.5501212  31.2715432   3.5325269  85.4831143
  30.1184702   3.1031951  86.3651438  30.9071561   2.1342443  88.1172009
  31.7264450   2.6286522  88.1406847  31.1808368   1.2174411  88.0889577
  40.6638157  -5.4746805  77.4799965  39.7764012  -5.1897154  77.2620160
  41.0792146  -5.6353041  76.6327242  44.0152693  -5.4500284  81.1954304
  44.7913083  -4.9603831  81.4678921  43.2900827  -5.0242230  81.6526174
  46.4525252  -4.7372665  82.2528245  47.0469742  -4.9776929  81.5421553
  46.5251835  -5.4565534  82.8801781  28.6722407   9.1060946  82.5671410
  28.5376875   8.3461347  82.0009408  28.2554470   9.8301846  82.1000199
  39.8081370   4.2897870  71.5747985  40.5117220   4.4947872  72.1905641
  39.0844019   4.8574632  71.8397068  40.6379181   0.0407731  77.6950255
  40.5814382   0.4976283  76.8557888  41.1907523  -0.7201584  77.5173098
  44.4483987  -4.1702537  78.5200375  44.1920921  -4.5705901  79.3508582
  43.8236855  -3.4558743  78.3950514  48.7596324  -1.4306464  81.0271666
  48.1995882  -1.3613274  81.8003228  48.1539828  -1.6065479  80.3071162
  31.8291533  10.0030263  82.7789852  31.7123917  10.9475696  82.6768543
  31.0083979   9.7003825  83.1675652  41.7168068   4.7280399  73.6246445
  42.5513672   4.2961597  73.4423920  41.5552411   4.5562413  74.5523339
  41.3713960   1.2312512  74.9902784  41.3162764   1.0656784  74.0491228
  40.7460015   1.9388545  75.1464974  38.6859867   3.5361424  94.3156347
  39.5551027   3.7102076  93.9542982  38.2066619   4.3555841  94.1932076
  32.8546047  10.6558525  85.9945781  33.7573294  10.6882135  86.3112276
  32.6283417   9.7258976  86.0092117  34.6099649   9.4089512  82.6555859
  33.6595280   9.4091373  82.5420232  34.9132136   8.6622246  82.1391894
  43.0128865  17.0512955  79.6460037  42.4493730  16.9602892  78.8776325
  42.8981260  16.2312859  80.1262530  47.6361832  16.3512330  89.6149352
  47.6250473  15.9565128  88.7429856  47.7982472  15.6178403  90.2083123
  40.5593297  18.5464146  82.4844258  41.3514589  18.2054971  82.0690557
  40.7989947  18.6559121  83.4046411  44.3569093  19.1349442  88.5628536
  44.0658959  20.0395073  88.4475202  44.9926078  19.1765969  89.2772606
  45.2825300  16.5126290  85.1529896  45.8788872  16.2882313  84.4386859
  45.3400272  15.7711036  85.7555343  55.3002038  12.9076737  81.6987808
  56.0327210  12.3375954  81.9325638  54.5441394  12.5198338  82.1394314
  52.8227459   6.6198311  86.1582417  52.4910784   7.4893722  85.9343632
  52.2273072   6.3034595  86.8376447  46.5583645  10.3593878  73.8912499
  46.7258048  11.2274115  74.2582970  46.3680814  10.5221160  72.9673789
  49.3158978  18.8210857  85.5578330  49.0159701  19.7235896  85.4494137
  48.9710038  18.5543040  86.4099483  42.7671460  15.2724654  81.5915034
  41.8421956  15.1400868  81.7992726  43.0155873  16.0518873  82.0884976
  52.7156122  11.3393397  83.2375767  51.8072999  11.2708806  82.9434528
  52.6643718  11.8165342  84.0657592  40.1280271  14.9157928  82.4258823
  40.2572652  15.1692407  83.3398235  39.4477722  15.5085636  82.1063478
  46.7896988  12.7583043  91.1810664  46.0130322  13.3176963  91.1713529
  47.4287551  13.2439826  91.7025534  54.5817769   9.5409836  85.0153641
  53.9392149   9.8342369  84.3693435  54.0772697   9.4262756  85.8206838
  45.0443360  15.5668496  90.7428631  45.7858045  16.1053540  90.4663455
  44.3380346  16.1934785  90.9000183  50.5198700  17.7097637  89.3400793
  50.9282056  17.2680047  88.5955425  49.7975961  17.1350264  89.5934986
  46.8729770  12.6470244  86.7134350  47.7190965  13.0709657  86.8568999
  46.8128408  11.9903868  87.4072913  50.0229215  10.3074612  88.3715523
  49.7790147  11.0616673  87.8349799  50.2989146  10.6859960  89.2062770
  51.9767678  16.8513224  87.0492789  52.1884573  17.4944984  86.3727170
  51.9297426  16.0175541  86.5814719  49.5793907   9.4631045  83.9529361
  48.7178386   9.7612299  84.2446099  49.6056342   9.6801444  83.0210394
  43.2879557  17.5544717  83.2982930  43.8580915  17.9831986  82.6600414
  43.8787669  17.2727302  83.9967116  43.7804724  12.7208145  91.5443941
  43.1503385  13.4024425  91.7779338  43.6740812  12.6091226  90.5997079
  39.0749696  12.3879941  82.4709865  38.2848750  12.6437469  81.9949976
  39.5660944  13.2028278  82.5761906  53.0913506  19.7285180  85.2215146
  53.9130950  19.3265367  84.9397828  53.0875909  19.6253414  86.1731262
  41.0264442  12.7524520  79.4293342  40.2295605  12.8643214  79.9476838
  40.7990034  13.0911172  78.5634233  46.8570109  19.2769223  87.3775857
  46.9214542  19.7389630  88.2134029  46.1481033  18.6466588  87.5058167
  37.3587399  12.6410431  84.9024856  37.6095438  13.5257441  85.1682432
  37.8946948  12.4615033  84.1299948  61.1819499  16.0723928  81.5700118
  60.4283207  15.5031326  81.4144122  61.3167040  16.0386593  82.5170752
  43.0585467   7.0228910  93.9069192  42.6652412   6.4695109  94.5816837
  43.8751607   7.3339489  94.2975710  45.9753428   8.4386790  91.4989449
  46.7163141   9.0393943  91.4193911  46.2071351   7.6964427  90.9407491
  41.1194766  13.6243157  89.7767679  41.0048281  12.7228414  90.0774777
  40.2639283  13.8706854  89.4252495  48.1986603  21.5660897  91.3755179
  47.7550458  20.7797276  91.0576084  48.8603817  21.7540048  90.7099070
  42.9573725  23.0956699  85.9015858  43.5081150  22.9673762  85.1292852
  42.1185201  23.3951588  85.5510750  50.2967842  21.8463697  89.4036580
  50.2786317  22.6672578  88.9116850  51.2187762  21.7217772  89.6286722
  46.7540896  19.3607827  90.2460089  47.2869232  18.5996115  90.0159397
  46.2254977  19.0681478  90.9884243  49.9210591   4.4667892  85.7753731
  49.5774860   5.3569534  85.6992841  50.2889553   4.2769550  84.9123316
  47.4707984   9.3026204  79.3411404  46.6149581   8.9133055  79.1617043
  47.8834936   9.3818165  78.4811190  49.0007131   6.8372548  83.7402964
  48.4971927   6.8002683  82.9270769  49.2937738   7.7465290  83.7999620
  45.2450017   6.9211277  82.7469146  46.1103014   6.7254086  82.3875035
  45.3127526   6.6921629  83.6738502  42.8512336   9.1513485  80.1185512
  43.4256088   8.9288667  79.3858705  43.4383318   9.2202180  80.8714114
  43.1781923  11.1817946  74.1381398  42.3419235  11.5192633  74.4590672
  43.0386693  11.0466926  73.2008535  45.1535004   6.0254734  78.8460582
  44.4999416   5.7103751  78.2217197  45.1115478   5.4030475  79.5720405
  51.7198256   3.7261452  80.8771468  52.0257133   2.8658815  80.5897383
  52.4450861   4.3179072  80.6770462  38.0122612  14.1292138  79.2653066
  37.8147012  13.5361499  78.5404133  37.4569276  13.8244348  79.9829005
  43.9311696  12.6392304  79.1438038  43.1179561  12.9386475  79.5503230
  44.4270690  12.2447993  79.8612520  49.5285908  13.1034129  87.9752932
  49.8835295  13.3305602  88.8347398  50.1758039  13.4352506  87.3530187
  43.4225771  10.2110660  84.7599273  44.0625150  10.0699419  84.0622236
  42.5903301   9.9245173  84.3837875  40.4254387  10.1810985  79.5372260
  40.6861204  11.0956318  79.4281420  41.2471559   9.7135428  79.6868873
  41.8979312  11.5948742  86.7071084  42.5702366  11.3866104  86.0583733
  41.0709099  11.3970828  86.2676317  56.1468574  18.3352792  86.2246418
  56.3404464  19.2398603  86.4705693  56.0469192  17.8760212  87.0585003
  47.8004884   8.2210683  88.7236745  47.1532800   8.9200633  88.6301222
  48.5705900   8.6546827  89.0912994  51.2083682  18.4859535  91.7987299
  51.0569189  18.2570087  90.8817382  51.1988362  19.4430137  91.8118644
  47.9769019  16.0591448  86.7833565  48.9061079  16.2102608  86.6102532
  47.5560049  16.1475469  85.9282212  46.7757351  20.0842112  84.5532103
  46.6368436  19.7160897  85.4258041  45.9871947  20.5989752  84.3816060
  42.3006810  14.8691345  87.4673522  42.1626608  14.1371584  88.0685061
  43.2111733  14.7800245  87.1857709  44.9289110  14.5811304  86.9557201
  45.6388729  13.9404497  86.9143820  44.8858419  14.8324199  87.8783382
  52.9175889  21.5178658  89.8763780  52.8588435  20.8337878  89.2094363
  53.3195407  22.2597648  89.4244406  43.6418044  11.5676522  88.7752841
  43.1055401  11.1167261  89.4274437  43.0534753  11.7022431  88.0323305
  43.0520303  11.0265174  71.3379304  42.1749770  10.9053975  70.9741551
  43.5278056  10.2351252  71.0858193  52.9193296  19.4818242  88.1077760
  52.0320075  19.1444164  88.2304159  53.4891847  18.7501273  88.3446526
  34.5722443  15.8142333  81.4320812  35.2593483  15.5004063  80.8441827
  34.4170572  16.7183698  81.1588063  39.3757166  10.7032530  85.8605835
  39.2915354  10.0958200  85.1256245  38.5539872  11.1941548  85.8615332
  49.5480879   9.1886094  81.2276030  50.0449579   8.4356056  80.9077101
  48.7767861   9.2250410  80.6619240  57.4010637  14.8926459  82.8694322
  57.3900513  15.7751175  82.4988255  56.5328016  14.5398010  82.6748859
  48.9093133  24.0406528  87.2297162  49.6221105  24.6753993  87.1573063
  48.4183162  24.1370394  86.4137164  43.9605047  21.7900972  88.0502733
  44.6614506  22.4237455  88.2032127  43.4900162  22.1315703  87.2898372
  51.9899874   6.1555687  83.3755389  51.0762954   6.3859914  83.5437596
  52.4192976   6.2394131  84.2269422  51.7606333  14.3445579  85.8755283
  51.1077783  14.5921486  85.2207736  52.1386713  13.5309717  85.5417760
  47.8093906  15.0865390  92.3621320  47.1334543  14.9859519  93.0323695
  48.6321540  14.9304604  92.8257317  39.5572765  21.3237327  84.9833835
  40.1426202  20.5781015  85.1161740  39.3597603  21.6341283  85.8670499
  34.1490420  13.8942927  83.7038279  34.1874519  13.3606518  84.4975397
  33.6430712  13.3678132  83.0849256  41.5281182   8.7407467  87.2000821
  41.5922508   9.6022298  86.7878219  41.4648302   8.1281469  86.4673179
  41.0033454  10.8130600  90.8473855  41.6305493  10.4307677  91.4611380
  40.1461373  10.5944802  91.2129548  51.4027563  21.2193575  92.4527591
  51.9467467  21.8323533  91.9582545  50.8214408  21.7773153  92.9694604
  37.7798997  12.6207029  76.7792210  38.0752438  11.7117707  76.7259264
  36.8787033  12.5994768  76.4573212  41.3093244  10.6963026  82.7619759
  40.5879830  11.3098993  82.6227232  42.0986500  11.2320790  82.6836405
  44.1119558   8.0317452  89.0360410  44.6353959   8.2779749  89.7986720
  43.8931891   8.8637487  88.6163548  39.5086839  10.3021127  76.9031535
  39.1799545   9.4218506  76.7206641  39.8626209  10.2468795  77.7907924
  42.6228662  10.5894096  77.2707013  42.9624734  11.1180018  76.5485621
  43.0700782  10.9274503  78.0465579  45.3172103   8.9731147  86.7210081
  44.9768923   8.1738960  87.1230761  44.6111109   9.2732858  86.1486914
  45.9688575   6.0580460  85.1737404  46.7914644   5.5840938  85.0516294
  46.2126638   6.8370943  85.6736090  44.6096809   9.0868718  75.4700306
  45.3305172   9.4649971  74.9664022  43.9862113   9.8057595  75.5735284
  43.4927153  12.7499580  82.9829383  43.3471734  13.0639883  83.8753664
  43.0152357  13.3684481  82.4300281  45.3523536   9.7402128  83.0310272
  45.3385105   8.8443222  82.6942570  46.0695964   9.7472792  83.6648558
  47.2049667  10.1739468  85.0763400  46.9467445  11.0956539  85.0747730
  46.6734707   9.7769903  85.7663864  37.9672815  15.2904925  85.9217044
  37.4226284  16.0664733  86.0537318  38.8452165  15.6375729  85.7636165
  44.7560432   8.6216508  78.2997842  44.8776343   7.6933155  78.4988730
  44.4662474   8.6355194  77.3876158  47.6251623   6.3071419  81.4364562
  47.6473319   6.3710752  80.4816542  48.0419682   5.4675928  81.6305068
  58.0035247  16.0426678  79.4743785  58.4466393  15.2934004  79.0762908
  57.1261757  16.0336815  79.0917517  38.7538837  14.4174821  88.8147201
  38.0120573  14.5657456  89.4011831  38.4331582  14.6783086  87.9513950
  46.6982500  23.9590799  88.6127591  47.0069626  23.7139946  89.4850290
  47.4957982  24.1637438  88.1246461  37.4004056  20.2226576  81.8046529
  36.5635964  19.7948750  81.6230530  37.3727701  20.4159019  82.7417320
  44.2401512  10.1348506  92.5087775  44.2889667  11.0110629  92.1265544
  44.7824026   9.5925899  91.9359418  54.7256357  20.6789629  91.7888912
  53.9351901  20.6613768  91.2493411  54.4889712  21.2177923  92.5437949
  54.8454232  17.5282095  89.1021640  54.8952237  17.3632103  90.0437163
  54.7368156  16.6609355  88.7119521  52.1357995  13.5113024  90.4180947
  53.0367858  13.3719488  90.1264945  52.2105969  13.6767478  91.3579125
  46.4700800  10.8879878  89.2634133  45.6004110  11.1813444  88.9916722
  46.7060280  11.4720323  89.9841397  56.3472429  19.9479037  89.3463662
  56.0557238  20.3109018  90.1827123  55.7344560  19.2346045  89.1676994
  54.5959617  15.0711652  87.8143720  55.0713739  15.2639298  87.0062571
  53.6725183  15.1270837  87.5687104  49.1739834   7.1059495  86.7799554
  49.6921778   7.8420522  86.4546042  48.8194967   7.4123488  87.6146313
  40.7538772  11.9664176  74.8960960  40.0608017  12.0408531  74.2400996
  40.5090523  11.2024520  75.4182477  49.4252428   3.5259778  82.3000450
  49.7054182   2.8582967  82.9260877  50.2103035   3.7188873  81.7875114
  53.2961286  11.9477412  86.0472026  54.2478709  12.0475509  86.0684250
  53.1264737  11.1555680  86.5570110  51.3175666   9.0332995  86.2331427
  50.7225598   9.3138008  85.5377915  51.0325363   9.5226896  87.0048168
  55.7749364  15.1683531  85.1614325  55.7425684  14.2299532  85.3474009
  56.3849988  15.2467568  84.4280150  55.9243853  11.9594575  85.2072608
  55.4082901  11.1753031  85.0202537  56.8083801  11.6313291  85.3719128
  53.5854580   5.7035590  81.1668421  53.3879401   5.3950679  82.0511753
  54.1954285   6.4297229  81.2966351  61.5925914  16.2299538  84.3020362
  62.3229303  15.9684826  84.8628065  60.9832860  15.4928260  84.3422430
  59.6741211  14.3707401  84.8994813  58.9474375  14.2363366  84.2911305
  59.2588498  14.6784229  85.7051531  47.4971388  18.0897330  92.6642186
  48.4174397  18.2675930  92.8582233  47.4620971  17.1453376  92.5121886
  36.7153553  13.2835924  81.5895461  36.3956337  12.4301232  81.2969835
  36.1686981  13.4984502  82.3453428  40.4933460  15.9998365  85.3064967
  40.7119470  16.9315473  85.3253001  40.9059234  15.6406340  86.0919771
  47.4137678   6.5066450  77.2940656  46.6038406   6.1613535  77.6695902
  48.1022095   6.1973994  77.8828267  49.3428226   5.5844497  78.9164952
  49.8959265   6.0039951  79.5754976  49.5798313   4.6580245  78.9587908
  45.3661326  11.5731571  94.6967716  45.2658052  12.5225928  94.6279807
  45.1482868  11.2449810  93.8243786  44.5674397   8.8216496  71.2808394
  45.4293561   9.1471394  71.5404211  44.7524741   8.0347992  70.7681460
  36.5841813  16.9038836  83.5588582  35.8905284  16.4892788  83.0458537
  37.3314804  16.9459372  82.9622001  52.7207033   7.6945022  78.4243617
  52.1405702   8.3529826  78.0421669  52.4542966   6.8722367  78.0131034
  51.1710600   7.0950080  80.6264937  51.6710378   7.2066615  79.8179256
  51.8146208   6.7911133  81.2665745  45.2292596  15.0028710  93.5132778
  44.7459677  15.8029070  93.7196667  45.3153535  15.0136655  92.5600222
  38.4978555  16.8357089  81.4354597  38.4749243  16.9344777  80.4836480
  38.8079192  17.6822240  81.7571764  41.1565933  18.8933244  85.5501212
  42.1109187  18.8617187  85.4831143  40.9578457  18.4323868  86.3651438
  41.7465315  17.4634361  88.1172009  42.5658204  17.9578439  88.1406847
  42.0202123  16.5466329  88.0889577  54.8546448   9.8791634  81.1954304
  55.6306838  10.3688086  81.4678921  54.1294582  10.3049688  81.6526174
  57.2919006  10.5919253  82.2528245  57.8863497  10.3514989  81.5421553
  57.3645590   9.8726384  82.8801781  59.5990079  13.8985454  81.0271666
  59.0389637  13.9678643  81.8003228  58.9933582  13.7226438  80.3071162
  37.0000229  11.7972494  88.8164207  37.6459093  11.2871448  89.3051432
  36.7917381  12.5341176  89.3907632  49.5253622  18.8653342  94.3156347
  50.3944781  19.0393994  93.9542982  49.0460373  19.6847759  94.1932076
  45.5203840   6.0612539  74.5688103  45.5082510   7.0054379  74.7256374
  46.4127262   5.8782684  74.2747564  43.6939802  25.9850443  85.9945781
  44.5967049  26.0174053  86.3112276  43.4677172  25.0550894  86.0092117
  49.3355959   2.6555316  78.8234040  48.5688355   2.1013802  78.9690722
  49.7466664   2.7277184  79.6848191  41.3397720   8.9440111  92.9139221
  42.2029182   8.5876916  93.1242545  40.7663131   8.6054006  93.6014625
  57.6290742  28.0874961  91.1810664  56.8524076  28.6468881  91.1713529
  58.2681305  28.5731744  91.7025534  54.6198478  28.0500062  91.5443941
  53.9897139  28.7316343  91.7779338  54.5134566  27.9383144  90.5997079
  53.8979221  22.3520828  93.9069192  53.5046167  21.7987027  94.5816837
  54.7145362  22.6631407  94.2975710  56.8147182  23.7678707  91.4989449
  57.5556896  24.3685860  91.4193911  57.0465105  23.0256345  90.9407491
  51.9588520  28.9535074  89.7767679  51.8442035  28.0520332  90.0774777
  51.1033038  29.1998771  89.4252495  60.7604345  19.7959810  85.7753731
  60.4168615  20.6861452  85.6992841  61.1283308  19.6061468  84.9123316
  62.5592011  19.0553369  80.8771468  62.8650888  18.1950733  80.5897383
  63.2844616  19.6470990  80.6770462  58.6398639  23.5502601  88.7236745
  57.9926554  24.2492550  88.6301222  59.4099654  23.9838745  89.0912994
  58.6487660  30.4157308  92.3621320  57.9728297  30.3151437  93.0323695
  59.4715294  30.2596521  92.8257317  51.8427209  26.1422518  90.8473855
  52.4699248  25.7599595  91.4611380  50.9855128  25.9236719  91.2129548
  54.9513312  23.3609370  89.0360410  55.4747714  23.6071666  89.7986720
  54.7325645  24.1929405  88.6163548  56.8082329  21.3872377  85.1737404
  57.6308398  20.9132855  85.0516294  57.0520393  22.1662861  85.6736090
  49.5932592  29.7466739  88.8147201  48.8514328  29.8949374  89.4011831
  49.2725336  30.0075004  87.9513950  55.0795266  25.4640424  92.5087775
  55.1283422  26.3402546  92.1265544  55.6217780  24.9217817  91.9359418
  60.2646183  18.8551695  82.3000450  60.5447936  18.1874884  82.9260877
  61.0496790  19.0480791  81.7875114  58.3365142  33.4189248  92.6642186
  59.2568152  33.5967847  92.8582233  58.3014725  32.4745294  92.5121886
  56.2055080  26.9023489  94.6967716  56.1051807  27.8517846  94.6279807
  55.9876622  26.5741727  93.8243786  56.0686350  30.3320627  93.5132778
  55.5853432  31.1320988  93.7196667  56.1547289  30.3428572  92.5600222
  47.8393984  27.1264412  88.8164207  48.4852848  26.6163366  89.3051432
  47.6311135  27.8633094  89.3907632  60.3647376  34.1945260  94.3156347
  61.2338536  34.3685912  93.9542982  59.8854128  35.0139676  94.1932076
  52.1791475  24.2732029  92.9139221  53.0422936  23.9168834  93.1242545
  51.6056886  23.9345924  93.6014625  64.7372976  37.6812746  93.9069192
  64.3439921  37.1278944  94.5816837  65.5539116  37.9923324  94.2975710
  67.6540937  39.0970625  91.4989449  68.3950650  39.6977778  91.4193911
  67.8858859  38.3548263  90.9407491  72.8871191  49.1443371  91.7987299
  72.7356698  48.9153922  90.8817382  72.8775871  50.1013972  91.8118644
  74.5963398  52.1762493  89.8763780  74.5375944  51.4921713  89.2094363
  74.9982916  52.9181483  89.4244406  63.6154097  58.9924407  82.6697499
  63.8550695  59.6242931  83.3476518  62.7723293  58.6412447  82.9562859
  68.1281959  54.8003529  85.0739003  68.0552130  55.6058501  85.5858308
  67.6859352  54.9995495  84.2487025  68.2304198  57.0516153  86.5978936
  68.7822506  57.2147774  87.3628021  68.5710391  57.6420591  85.9258961
  73.0815072  51.8777410  92.4527591  73.6254976  52.4907369  91.9582545
  72.5001917  52.4356989  92.9694604  76.4043866  51.3373464  91.7888912
  75.6139410  51.3197603  91.2493411  76.1677221  51.8761758  92.5437949
  76.5241741  48.1865931  89.1021640  76.5739746  48.0215938  90.0437163
  76.4155665  47.3193190  88.7119521  78.0259938  50.6062872  89.3463662
  77.7344747  50.9692853  90.1827123  77.4132069  49.8929881  89.1676994
  83.2713423  46.8883374  84.3020362  84.0016812  46.6268662  84.8628065
  82.6620369  46.1512096  84.3422430  64.3472797  55.9906016  82.7789852
  64.2305181  56.9351449  82.6768543  63.5265243  55.6879578  83.1675652
  65.3727311  56.6434278  85.9945781  66.2754558  56.6757888  86.3112276
  65.1464681  55.7134729  86.0092117  80.1543096  62.3388083  89.6149352
  80.1431736  61.9440881  88.7429856  80.3163735  61.6054156  90.2083123
  76.8750357  65.1225195  88.5628536  76.5840223  66.0270826  88.4475202
  77.5107341  65.1641722  89.2772606  85.3408722  52.6074064  86.1582417
  85.0092047  53.4769475  85.9343632  84.7454336  52.2910348  86.8376447
  79.3078251  58.7458796  91.1810664  78.5311585  59.3052716  91.1713529
  79.9468814  59.2315579  91.7025534  77.5624624  61.5544249  90.7428631
  78.3039308  62.0929293  90.4663455  76.8561609  62.1810538  90.9000183
  83.0379963  63.6973390  89.3400793  83.4463319  63.2555800  88.5955425
  82.3157225  63.1226017  89.5934986  82.5410479  56.2950365  88.3715523
  82.2971411  57.0492426  87.8349799  82.8170409  56.6735713  89.2062770
  84.4948941  62.8388977  87.0492789  84.7065837  63.4820737  86.3727170
  84.4478690  62.0051294  86.5814719  75.8060821  63.5420470  83.2982930
  76.3762178  63.9707739  82.6600414  76.3968933  63.2603055  83.9967116
  76.2985987  58.7083898  91.5443941  75.6684648  59.3900178  91.7779338
  76.1922075  58.5966979  90.5997079  85.6094769  65.7160933  85.2215146
  86.4312213  65.3141120  84.9397828  85.6057172  65.6129167  86.1731262
  79.3751373  65.2644976  87.3775857  79.4395805  65.7265383  88.2134029
  78.6662297  64.6342341  87.5058167  93.7000762  62.0599681  81.5700118
  92.9464471  61.4907079  81.4144122  93.8348304  62.0262346  82.5170752
  75.5766730  53.0104663  93.9069192  75.1833676  52.4570862  94.5816837
  76.3932870  53.3215242  94.2975710  78.4934691  54.4262543  91.4989449
  79.2344405  55.0269696  91.4193911  78.7252614  53.6840180  90.9407491
  73.6376029  59.6118910  89.7767679  73.5229544  58.7104167  90.0774777
  72.7820547  59.8582607  89.4252495  80.7167867  67.5536650  91.3755179
  80.2731721  66.7673029  91.0576084  81.3785080  67.7415801  90.7099070
  82.8149105  67.8339450  89.4036580  82.7967580  68.6548331  88.9116850
  83.7369025  67.7093525  89.6286722  79.2722159  65.3483580  90.2460089
  79.8050496  64.5871868  90.0159397  78.7436240  65.0557231  90.9884243
  82.4391854  50.4543645  85.7753731  82.0956123  51.3445287  85.6992841
  82.8070817  50.2645303  84.9123316  80.9054008  58.5012421  83.1708229
  79.9876569  58.7227368  83.0129917  81.3214151  58.5758731  82.3119937
  82.0467171  59.0909882  87.9752932  82.4016559  59.3181355  88.8347398
  82.6939302  59.4228259  87.3530187  87.8034288  64.2804845  83.6913533
  88.2370794  64.1880134  84.5396587  88.5165868  64.2562345  83.0533549
  88.6649837  64.3228546  86.2246418  88.8585727  65.2274356  86.4705693
  88.5650455  63.8635965  87.0585003  83.7264946  64.4735288  91.7987299
  83.5750452  64.2445840  90.8817382  83.7169625  65.4305890  91.8118644
  80.4950282  62.0467201  86.7833565  81.4242342  62.1978361  86.6102532
  80.0741312  62.1351222  85.9282212  74.8188073  60.8567098  87.4673522
  74.6807871  60.1247337  88.0685061  75.7292997  60.7675998  87.1857709
  77.4470374  60.5687057  86.9557201  78.1569992  59.9280250  86.9143820
  77.4039682  60.8199952  87.8783382  85.4357153  67.5054411  89.8763780
  85.3769699  66.8213631  89.2094363  85.8376671  68.2473401  89.4244406
  76.1599308  57.5552275  88.7752841  75.6236665  57.1043014  89.4274437
  75.5716016  57.6898184  88.0323305  85.4374560  65.4693995  88.1077760
  84.5501339  65.1319917  88.2304159  86.0073111  64.7377026  88.3446526
  89.9191900  60.8802212  82.8694322  89.9081777  61.7626928  82.4988255
  89.0509280  60.5273763  82.6748859  81.4274397  70.0282281  87.2297162
  82.1402369  70.6629746  87.1573063  80.9364425  70.1246147  86.4137164
  84.2787596  60.3321332  85.8755283  83.6259046  60.5797239  85.2207736
  84.6567976  59.5185470  85.5417760  80.3275169  61.0741143  92.3621320
  79.6515806  60.9735272  93.0323695  81.1502803  60.9180357  92.8257317
  73.5214718  56.8006353  90.8473855  74.1486757  56.4183430  91.4611380
  72.6642637  56.5820555  91.2129548  83.9208826  67.2069328  92.4527591
  84.4648730  67.8199286  91.9582545  83.3395671  67.7648906  92.9694604
  84.2701248  68.1299066  85.2122168  83.3231583  68.0104417  85.1400495
  84.6184021  67.2421564  85.2948430  79.2163763  69.9466552  88.6127591
  79.5250890  69.7015699  89.4850290  80.0139245  70.1513191  88.1246461
  76.7582775  56.1224259  92.5087775  76.8070931  56.9986382  92.1265544
  77.3005289  55.5801652  91.9359418  87.2437621  66.6665382  91.7888912
  86.4533165  66.6489521  91.2493411  87.0070975  67.2053676  92.5437949
  87.3635496  63.5157849  89.1021640  87.4133501  63.3507856  90.0437163
  87.2549419  62.6485108  88.7119521  84.6539258  59.4988777  90.4180947
  85.5549121  59.3595241  90.1264945  84.7287233  59.6643231  91.3579125
  88.8653693  65.9354790  89.3463662  88.5738501  66.2984771  90.1827123
  88.2525824  65.2221798  89.1676994  90.0649375  63.5007670  81.8666232
  90.8996266  63.9397474  82.0303793  90.2008504  63.0246323  81.0474478
  87.1140881  61.0587405  87.8143720  87.5895003  61.2515051  87.0062571
  86.1906446  61.1146590  87.5687104  81.6921097  53.0935248  86.7799554
  82.2103041  53.8296275  86.4546042  81.3376230  53.3999242  87.6146313
  83.8356929  55.0208748  86.2331427  83.2406862  55.3013761  85.5377915
  83.5506626  55.5102649  87.0048168  88.2930628  61.1559284  85.1614325
  88.2606948  60.2175285  85.3474009  88.9031251  61.2343321  84.4280150
  94.1107178  62.2175291  84.3020362  94.8410566  61.9560579  84.8628065
  93.5014123  61.4804013  84.3422430  92.1922475  60.3583154  84.8994813
  91.4655638  60.2239119  84.2911305  91.7769762  60.6659982  85.7051531
  80.0152651  64.0773084  92.6642186  80.9355661  64.2551683  92.8582233
  79.9802234  63.1329129  92.5121886  77.8842589  57.5607324  94.6967716
  77.7839316  58.5101681  94.6279807  77.6664131  57.2325563  93.8243786
  77.7473859  60.9904463  93.5132778  77.2640941  61.7904823  93.7196667
  77.8334798  61.0012408  92.5600222  74.2646579  63.4510114  88.1172009
  75.0839468  63.9454192  88.1406847  74.5383386  62.5342082  88.0889577
  92.1171342  59.8861207  81.0271666  91.5570900  59.9554396  81.8003228
  91.5114846  59.7102192  80.3071162  82.0434885  64.8529095  94.3156347
  82.9126045  65.0269747  93.9542982  81.5641637  65.6723512  94.1932076
  73.8578984  54.9315864  92.9139221  74.7210445  54.5752669  93.1242545
  73.2844395  54.5929759  93.6014625  96.1802477  67.9365982  86.1582417
  95.8485802  68.8061393  85.9343632  95.5848090  67.6202266  86.8376447
  86.1246478  76.5892325  81.5915034  85.1996974  76.4568539  81.7992726
  86.3730891  77.3686544  82.0884976  96.0731140  72.6561068  83.2375767
  95.1648017  72.5876477  82.9434528  96.0218736  73.1333013  84.0657592
  97.9392786  70.8577507  85.0153641  97.2967167  71.1510040  84.3693435
  97.4347715  70.7430427  85.8206838  92.9368925  70.7798716  83.9529361
  92.0753404  71.0779969  84.2446099  92.9631360  70.9969115  83.0210394
  80.7162417  73.9578102  84.9024856  80.9670456  74.8425112  85.1682432
  81.2521966  73.7782703  84.1299948 104.5394517  77.3891599  81.5700118
 103.7858225  76.8198997  81.4144122 104.6742058  77.3554263  82.5170752
  86.4160485  68.3396581  93.9069192  86.0227430  67.7862780  94.5816837
  87.2326625  68.6507160  94.2975710  89.3328446  69.7554460  91.4989449
  90.0738159  70.3561613  91.4193911  89.5646368  69.0132098  90.9407491
  93.2785609  65.7835563  85.7753731  92.9349878  66.6737205  85.6992841
  93.6464571  65.5937221  84.9123316  92.3582149  68.1540218  83.7402964
  91.8546945  68.1170353  82.9270769  92.6512756  69.0632961  83.7999620
  88.6025035  68.2378948  82.7469146  89.4678032  68.0421757  82.3875035
  88.6702544  68.0089300  83.6738502  95.0773274  65.0429122  80.8771468
  95.3832151  64.1826486  80.5897383  95.8025879  65.6346743  80.6770462
  95.3474892  67.4723358  83.3755389  94.4337972  67.7027585  83.5437596
  95.7767994  67.5561802  84.2269422  89.3263592  67.3748130  85.1737404
  90.1489662  66.9008608  85.0516294  89.5701656  68.1538614  85.6736090
  88.7098554  71.0569799  83.0310272  88.6960123  70.1610892  82.6942570
  89.4270982  71.0640463  83.6648558  90.9826640  67.6239090  81.4364562
  91.0048337  67.6878423  80.4816542  91.3994699  66.7843598  81.6305068
  92.5314852  68.4227166  86.7799554  93.0496796  69.1588193  86.4546042
  92.1769985  68.7291159  87.6146313  92.7827446  64.8427448  82.3000450
  93.0629200  64.1750637  82.9260877  93.5678053  65.0356544  81.7875114
  94.6750684  70.3500666  86.2331427  94.0800616  70.6305678  85.5377915
  94.3900381  70.8394567  87.0048168  99.2818871  73.2762246  85.2072608
  98.7657919  72.4920702  85.0202537 100.1658819  72.9480962  85.3719128
  96.9429598  67.0203261  81.1668421  96.7454419  66.7118349  82.0511753
  97.5529303  67.7464900  81.2966351 104.9500932  77.5467209  84.3020362
 105.6804321  77.2852497  84.8628065 104.3407878  76.8095931  84.3422430
 103.0316229  75.6875072  84.8994813 102.3049393  75.5531036  84.2911305
 102.6163516  75.9951900  85.7051531  88.7236343  72.8899242  94.6967716
  88.6233070  73.8393599  94.6279807  88.5057886  72.5617481  93.8243786
  88.5867614  76.3196380  93.5132778  88.1034695  77.1196741  93.7196667
  88.6728553  76.3304325  92.5600222  98.2121465  71.1959305  81.1954304
  98.9881856  71.6855757  81.4678921  97.4869600  71.6217359  81.6526174
 100.6494024  71.9086924  82.2528245 101.2438515  71.6682660  81.5421553
 100.7220608  71.1894054  82.8801781  98.6452759  72.4757051  78.5200375
  98.3889693  72.0753687  79.3508582  98.0205627  73.1900845  78.3950514
  80.3575247  73.1140165  88.8164207  81.0034111  72.6039119  89.3051432
  80.1492398  73.8508847  89.3907632  92.6930977  63.9722986  78.8234040
  91.9263373  63.4181473  78.9690722  93.1041682  64.0444855  79.6848191
  84.6972738  70.2607782  92.9139221  85.5604200  69.9044587  93.1242545
  84.1238149  69.9221677  93.6014625 115.3788271  92.7183517  81.5700118
 114.6251980  92.1490915  81.4144122 115.5135813  92.6846181  82.5170752
 103.6221201  80.1719366  82.3000450 103.9022954  79.5042555  82.9260877
 104.4071807  80.3648462  81.7875114 115.7894687  92.8759127  84.3020362
 116.5198075  92.6144415  84.8628065 115.1801632  92.1387849  84.3422430
 113.8709984  91.0166989  84.8994813 113.1443147  90.8822954  84.2911305
 113.4557271  91.3243818  85.7051531 115.3814870 107.2201556  83.7201622
 116.0193280 107.1008304  83.0164962 115.2635713 108.1682400  83.7789574
 112.6724359 108.3263836  89.6149352 112.6613000 107.9316634  88.7429856
 112.8344999 107.5929909  90.2083123 113.6290950 112.6935428  74.9574502
 112.9778930 113.2789509  74.5708516 114.4235313 113.2241623  75.0169540
 120.3364565 104.8828243  81.6987808 121.0689737 104.3127460  81.9325638
 119.5803921 104.4949844  82.1394314 117.8589986  98.5949817  86.1582417
 117.5273311  99.4645228  85.9343632 117.2635599  98.2786101  86.8376447
 114.3521505 110.7962363  85.5578330 114.0522228 111.6987402  85.4494137
 114.0072565 110.5294547  86.4099483 117.7518649 103.3144904  83.2375767
 116.8435526 103.2460312  82.9434528 117.7006245 103.7916848  84.0657592
 119.6180295 101.5161342  85.0153641 118.9754676 101.8093875  84.3693435
 119.1135224 101.4014262  85.8206838 115.5561227 109.6849143  89.3400793
 115.9644583 109.2431553  88.5955425 114.8338488 109.1101770  89.5934986
 111.9092297 104.6221750  86.7134350 112.7553492 105.0461163  86.8568999
 111.8490935 103.9655374  87.4072913 115.8790041 110.2450334  83.0953082
 115.2498904 110.4096048  82.3929149 115.4915704 110.6591943  83.8664046
 119.7579273 111.1804771  80.4497445 119.0730311 111.5603673  79.8994479
 119.8423123 111.7900098  81.1829393 115.0591742 102.2826118  88.3715523
 114.8152674 103.0368179  87.8349799 115.3351673 102.6611466  89.2062770
 117.0130205 108.8264730  87.0492789 117.2247100 109.4696490  86.3727170
 116.9659953 107.9927047  86.5814719 114.6156434 101.4382551  83.9529361
 113.7540913 101.7363805  84.2446099 114.6418869 101.6552950  83.0210394
 118.1276033 111.7036686  85.2215146 118.9493477 111.3016873  84.9397828
 118.1238436 111.6004920  86.1731262 126.2182026 108.0475434  81.5700118
 125.4645734 107.4782832  81.4144122 126.3529567 108.0138099  82.5170752
 113.2349130 113.5412403  91.3755179 112.7912985 112.7548782  91.0576084
 113.8966344 113.7291554  90.7099070 115.3330368 113.8215203  89.4036580
 115.3148844 114.6424084  88.9116850 116.2550288 113.6969278  89.6286722
 114.9573118  96.4419399  85.7753731 114.6137387  97.3321040  85.6992841
 115.3252080  96.2521056  84.9123316 114.0369658  98.8124054  83.7402964
 113.5334454  98.7754189  82.9270769 114.3300265  99.7216796  83.7999620
 119.8957674 109.1860364  76.2179339 119.1187117 108.8471524  75.7734501
 120.5749155 109.1912987  75.5434304 118.1348981 108.6594346  82.8745947
 117.4772656 109.3493607  82.9626076 118.9389381 109.0490777  83.2179933
 116.9454440 107.0138718  80.9249889 117.4586322 107.6468710  81.4271599
 117.5955664 106.4139914  80.5593249 114.2076814 116.9923042  73.6810560
 113.5338513 117.2954739  74.2895518 114.5942636 117.7952123  73.3316017
 113.4235271 104.4888174  83.1708229 112.5057832 104.7103121  83.0129917
 113.8395415 104.5634484  82.3119937 117.7116236 111.9944720  79.0529031
 117.2578563 111.1535630  79.1094222 117.0810203 112.6306118  79.3903812
 116.1549176 113.8321216  79.9878850 116.4472150 114.3926273  79.2691215
 116.6647796 114.1249777  80.7432009 112.1773057 109.9246874  72.6225943
 111.7392487 109.2082733  72.1631580 112.9183498 110.1522989  72.0611034
 114.5648435 105.0785635  87.9752932 114.9197822 105.3057108  88.8347398
 115.2120566 105.4104012  87.3530187 120.2946172 108.2004071  78.6802261
 120.1564070 108.3905667  77.7523450 119.9382390 108.9623454  79.1370312
 120.3215551 110.2680598  83.6913533 120.7552058 110.1755887  84.5396587
 121.0347132 110.2438098  83.0533549 114.0543446 113.8682692  85.2246633
 114.1080468 114.4373628  85.9924349 113.1858227 114.0384577  84.8600670
 121.1831101 110.3104299  86.2246418 121.3766991 111.2150109  86.4705693
 121.0831719 109.8511718  87.0585003 116.2446209 110.4611041  91.7987299
 116.0931716 110.2321593  90.8817382 116.2350889 111.4181643  91.8118644
 113.0131546 108.0342954  86.7833565 113.9423606 108.1854114  86.6102532
 112.5922576 108.1226975  85.9282212 111.8119878 112.0593618  84.5532103
 111.6730963 111.6912403  85.4258041 111.0234474 112.5741258  84.3816060
 112.4068030 117.1602715  75.8957639 112.5819785 116.6890758  76.7103262
 111.7200818 117.7868481  76.1238900 113.3625093 111.4375221  81.9420940
 113.0274925 111.3975991  82.8378590 112.8629038 110.7719937  81.4691351
 117.9538416 113.4930164  89.8763780 117.8950962 112.8089384  89.2094363
 118.3557934 114.2349154  89.4244406 106.9729115 120.3092078  82.6697499
 107.2125713 120.9410602  83.3476518 106.1298311 119.9580118  82.9562859
 117.9555823 111.4569748  88.1077760 117.0682602 111.1195670  88.2304159
 118.5254374 110.7252779  88.3446526 111.4856977 116.1171200  85.0739003
 111.4127148 116.9226172  85.5858308 111.0434370 116.3163166  84.2487025
 122.4373164 106.8677965  82.8694322 122.4263040 107.7502681  82.4988255
 121.5690543 106.5149516  82.6748859 113.9455660 116.0158034  87.2297162
 114.6583632 116.6505499  87.1573063 113.4545689 116.1121900  86.4137164
 119.0545738 105.7626606  79.3364488 119.5206191 106.5954598  79.2624790
 119.5053239 105.2971588  80.0409746 117.1221970 112.1070427  76.3350640
 117.3981813 111.9927022  77.2444514 116.2526468 111.7087912  76.2962813
 117.0262401  98.1307193  83.3755389 116.1125481  98.3611420  83.5437596
 117.4555503  98.2145637  84.2269422 116.7968860 106.3197085  85.8755283
 116.1440310 106.5672993  85.2207736 117.1749240 105.5061223  85.5417760
 113.7576034 116.3556778  79.9783453 113.9398428 115.5378434  80.4411206
 114.5809020 116.5724470  79.5408343 114.0918199 115.2824963  77.2398502
 114.6205965 114.7717418  76.6268664 114.3546419 114.9667494  78.1044035
 111.5879216 118.3683824  86.5978936 112.1397524 118.5315445  87.3628021
 111.9285409 118.9588261  85.9258961 116.4390090 113.1945081  92.4527591
 116.9829994 113.8075039  91.9582545 115.8576935 113.7524659  92.9694604
 114.7247603 116.3165799  83.5842618 114.5998742 115.5155539  83.0753564
 115.3826694 116.8111992  83.0956588 116.7882511 114.1174819  85.2122168
 115.8412847 113.9980170  85.1400495 117.1365284 113.2297317  85.2948430
 113.7928945 113.9127535  81.4126521 113.6453907 112.9844243  81.5934091
 114.6182438 113.9347626  80.9283596 117.3963066 114.7356094  82.4991393
 118.3209614 114.5298955  82.3615845 117.2278370 114.4872495  83.4080735
 117.1858383 115.2541762  77.8553485 117.3595260 114.6888184  77.1027337
 117.6787274 116.0542656  77.6732975 123.0397774 108.0178185  79.4743785
 123.4828920 107.2685510  79.0762908 122.1624284 108.0088321  79.0917517
 118.1733555 114.5708526  74.9550383 118.8684460 115.1915219  75.1737698
 118.5156705 113.7203877  75.2302761 120.0724978 112.0208232  76.4837714
 120.5976302 112.3595504  75.7587034 119.9847331 111.0855247  76.3000849
 111.7345027 115.9342305  88.6127591 112.0432153 115.6891452  89.4850290
 112.5320509 116.1388944  88.1246461 111.7565639 118.0880215  80.8432967
 111.3170629 117.5956593  81.5365824 112.5073756 117.5453182  80.6025042
 119.7618884 112.6541135  91.7888912 118.9714428 112.6365274  91.2493411
 119.5252239 113.1929429  92.5437949 119.8816759 109.5033602  89.1021640
 119.9314764 109.3383609  90.0437163 119.7730683 108.6360861  88.7119521
 117.1720522 105.4864530  90.4180947 118.0730384 105.3470994  90.1264945
 117.2468496 105.6518984  91.3579125 121.3834956 111.9230543  89.3463662
 121.0919764 112.2860524  90.1827123 120.7707087 111.2097551  89.1676994
 122.5830638 109.4883423  81.8666232 123.4177530 109.9273227  82.0303793
 122.7189767 109.0122076  81.0474478 119.6322144 107.0463158  87.8143720
 120.1076266 107.2390804  87.0062571 118.7087710 107.1022344  87.5687104
 114.2102361  99.0811001  86.7799554 114.7284305  99.8172028  86.4546042
 113.8557494  99.3874995  87.6146313 112.2648424 114.6770278  73.8625477
 111.6922391 115.2960465  73.4095949 112.8381217 115.2269639  74.3965399
 118.3323813 103.9228918  86.0472026 119.2841236 104.0227015  86.0684250
 118.1627264 103.1307186  86.5570110 116.3538193 101.0084501  86.2331427
 115.7588125 101.2889514  85.5377915 116.0687890 101.4978402  87.0048168
 115.4845683 114.9607428  74.9934059 116.4176356 114.8952989  75.1966935
 115.3968896 115.7963695  74.5348592 118.1133700 114.2773298  71.9538007
 118.0347332 113.9433162  72.8473765 118.9343367 114.7695066  71.9529479
 120.8111891 107.1435037  85.1614325 120.7788211 106.2051038  85.3474009
 121.4212515 107.2219074  84.4280150 120.9606380 103.9346081  85.2072608
 120.4445428 103.1504538  85.0202537 121.8446328 103.6064798  85.3719128
 118.6217107  97.6787096  81.1668421 118.4241928  97.3702185  82.0511753
 119.2316812  98.4048735  81.2966351 126.6288441 108.2051044  84.3020362
 127.3591830 107.9436332  84.8628065 126.0195387 107.4679766  84.3422430
 124.7103738 106.3458907  84.8994813 123.9836902 106.2114872  84.2911305
 124.2951025 106.6535735  85.7051531 112.5333915 110.0648837  92.6642186
 113.4536924 110.2427436  92.8582233 112.4983498 109.1204882  92.5121886
 119.8908974 101.8543140  81.1954304 120.6669365 102.3439592  81.4678921
 119.1657109 102.2801194  81.6526174 122.3281533 102.5670759  82.2528245
 122.9226024 102.3266495  81.5421553 122.4008117 101.8477890  82.8801781
 115.6837652 111.5941294  71.5747985 116.3873502 111.7991296  72.1905641
 114.9600301 112.1618055  71.8397068 124.6352606 105.8736960  81.0271666
 124.0752164 105.9430149  81.8003228 124.0296109 105.6977945  80.3071162
 117.5924349 112.0323823  73.6246445 118.4269953 111.6005021  73.4423920
 117.4308692 111.8605836  74.5523339 117.2470241 108.5355936  74.9902784
 117.1919045 108.3700207  74.0491228 116.6216297 109.2431969  75.1464974
 114.5616149 110.8404848  94.3156347 115.4307308 111.0145500  93.9542982
 114.0822900 111.6599265  94.1932076 108.7302329 117.9601949  85.9945781
 109.6329575 117.9925559  86.3112276 108.5039699 117.0302400  86.0092117
 110.4855931 116.7132935  82.6555859 109.5351562 116.7134797  82.5420232
 110.7888417 115.9665670  82.1391894 126.2208624 122.5493474  83.7201622
 126.8587034 122.4300221  83.0164962 126.1029467 123.4974318  83.7789574
 123.0298331 122.5020902  83.6563146 122.6916842 122.3861967  82.7683681
 123.8988099 122.1012067  83.6364153 118.8885146 124.3556378  79.6460037
 118.3250011 124.2646315  78.8776325 118.7737541 123.5356283  80.1262530
 123.5118114 123.6555754  89.6149352 123.5006754 123.2608552  88.7429856
 123.6738753 122.9221826  90.2083123 116.4349578 125.8507570  82.4844258
 117.2270870 125.5098395  82.0690557 116.6746228 125.9602545  83.4046411
 118.3940332 125.1116483  75.3561637 119.1671208 124.5645470  75.2174512
 118.7465731 125.9760733  75.5676098 120.2325375 126.4392865  88.5628536
 119.9415241 127.3438496  88.4475202 120.8682359 126.4809393  89.2772606
 121.1581582 123.8169714  85.1529896 121.7545154 123.5925736  84.4386859
 121.2156553 123.0754459  85.7555343 120.7306610 121.2709149  72.9880087
 120.9832131 120.7490671  72.2263550 119.7931169 121.1075295  73.0906770
 125.7749893 120.2744928  80.7954830 126.5612982 119.8564351  80.4445247
 126.0388597 121.1791020  80.9636478 131.1758320 120.2120161  81.6987808
 131.9083492 119.6419378  81.9325638 130.4197676 119.8241761  82.1394314
 120.4502899 123.1737255  75.1904462 120.3339157 122.4982159  75.8585546
 120.5605159 122.6869629  74.3736615 122.7934440 122.6347402  78.8951151
 122.4292647 122.1078023  79.6064072 123.6501556 122.2445871  78.7217636
 128.6983740 113.9241735  86.1582417 128.3667065 114.7937146  85.9343632
 128.1029354 113.6078019  86.8376447 122.4339927 117.6637302  73.8912499
 122.6014329 118.5317539  74.2582970 122.2437096 117.8264584  72.9673789
 118.6427741 122.5768078  81.5915034 117.7178238 122.4444292  81.7992726
 118.8912154 123.3562297  82.0884976 128.5912404 118.6436821  83.2375767
 127.6829281 118.5752230  82.9434528 128.5399999 119.1208766  84.0657592
 122.4129147 120.1194960  74.8759166 122.2928773 120.5652010  75.7144646
 121.7181736 120.4680277  74.3172704 116.0036552 122.2201351  82.4258823
 116.1328933 122.4735830  83.3398235 115.3234004 122.8129059  82.1063478
 122.6653269 120.0626467  91.1810664 121.8886603 120.6220387  91.1713529
 123.3043832 120.5483250  91.7025534 130.4574050 116.8453260  85.0153641
 129.8148430 117.1385793  84.3693435 129.9528978 116.7306180  85.8206838
 128.1114214 120.5916433  75.7039500 129.0232070 120.8243820  75.5287198
 127.6023861 121.1753477  75.1414579 120.9199642 122.8711920  90.7428631
 121.6614326 123.4096964  90.4663455 120.2136627 123.4978209  90.9000183
 126.3954981 125.0141061  89.3400793 126.8038337 124.5723471  88.5955425
 125.6732243 124.4393688  89.5934986 122.7486051 119.9513667  86.7134350
 123.5947247 120.3753081  86.8568999 122.6884689 119.2947292  87.4072913
 125.8985497 117.6118036  88.3715523 125.6546429 118.3660096  87.8349799
 126.1745427 117.9903383  89.2062770 125.4550188 116.7674469  83.9529361
 124.5934667 117.0655722  84.2446099 125.4812623 116.9844868  83.0210394
 122.2711758 125.3116659  80.3603167 122.7350103 125.5904362  79.5707789
 122.0068556 124.4100104  80.1776257 119.1635839 124.8588141  83.2982930
 119.7337196 125.2875409  82.6600414 119.7543951 124.5770726  83.9967116
 121.2080644 121.4339812  77.1692732 121.9104687 121.8860855  77.6366658
 120.8761272 120.7923631  77.7972625 119.6561005 120.0251568  91.5443941
 119.0259666 120.7067849  91.7779338 119.5497093 119.9134650  90.5997079
 114.9505978 119.6923364  82.4709865 114.1605032 119.9480893  81.9949976
 115.4417225 120.5071702  82.5761906 116.9020723 120.0567944  79.4293342
 116.1051886 120.1686638  79.9476838 116.6746315 120.3954596  78.5634233
 122.7326391 126.5812647  87.3775857 122.7970823 127.0433054  88.2134029
 122.0237315 125.9510012  87.5058167 113.2343681 119.9453855  84.9024856
 113.4851719 120.8300865  85.1682432 113.7703229 119.7658456  84.1299948
 118.9341748 114.3272334  93.9069192 118.5408694 113.7738533  94.5816837
 119.7507888 114.6382913  94.2975710 115.9003806 125.7656192  77.8182762
 116.4128326 126.5599443  77.9688327 116.5526519 125.0682483  77.7516364
 117.7098691 128.8821949  79.9005515 117.8865319 129.8039913  79.7126499
 118.5055524 128.5680368  80.3299895 121.8509709 115.7430213  91.4989449
 122.5919422 116.3437366  91.4193911 122.0827632 115.0007851  90.9407491
 116.9951047 120.9286581  89.7767679 116.8804562 120.0271838  90.0774777
 116.1395565 121.1750277  89.4252495 118.8330006 130.4000122  85.9015858
 119.3837431 130.2717186  85.1292852 117.9941482 130.6995011  85.5510750
 122.6297177 126.6651250  90.2460089 123.1625514 125.9039538  90.0159397
 122.1011258 126.3724902  90.9884243 125.7966872 111.7711316  85.7753731
 125.4531141 112.6612958  85.6992841 126.1645835 111.5812974  84.9123316
 113.8652723 124.0944847  78.5942333 114.7027945 124.5041855  78.3776040
 114.0430990 123.1544289  78.5642527 125.7617155 121.7619927  74.2826166
 125.2463778 122.5324532  74.5214553 125.4894463 121.0885063  74.9059227
 123.3464266 116.6069628  79.3411404 122.4905862 116.2176478  79.1617043
 123.7591218 116.6861589  78.4811190 124.8763412 114.1415971  83.7402964
 124.3728208 114.1046107  82.9270769 125.1694019 115.0508714  83.7999620
 121.1206298 114.2254701  82.7469146 121.9859295 114.0297510  82.3875035
 121.1883807 113.9965053  83.6738502 125.5503458 119.6347019  76.1085947
 125.2453594 119.9493169  76.9596090 126.5033900 119.7128439  76.1513280
 123.9949890 125.7937243  77.7578901 123.4671251 125.0590002  77.4452138
 123.4937393 126.5711919  77.5118869 118.7268617 116.4556909  80.1185512
 119.3012369 116.2332090  79.3858705 119.3139600 116.5245604  80.8714114
 127.7848195 122.3430636  80.9249889 128.2980076 122.9760628  81.4271599
 128.4349419 121.7431831  80.5593249 119.0538205 118.4861370  74.1381398
 118.2175517 118.8236057  74.4590672 118.9142974 118.3510350  73.2008535
 121.0291285 113.3298158  78.8460582 120.3755697 113.0147175  78.2217197
 120.9871759 112.7073898  79.5720405 122.1402490 123.6117453  70.7613874
 121.2329552 123.3806706  70.9605023 122.6373522 122.8155072  70.9487855
 124.2629025 119.8180091  83.1708229 123.3451587 120.0395038  83.0129917
 124.6789169 119.8926402  82.3119937 125.0464073 121.2171507  78.3010910
 125.7935892 121.7292904  77.9918032 125.3155663 120.8955560  79.1615303
 123.3190723 123.7130048  75.2837864 122.4101943 123.4289081  75.3810334
 123.3485807 124.1329126  74.4241171 127.4942910 118.2528623  80.2829699
 126.7565667 117.7406010  80.6139942 127.7469684 117.8129005  79.4712976
 127.5954538 111.0304875  80.8771468 127.9013415 110.1702239  80.5897383
 128.3207143 111.6222496  80.6770462 113.8878894 121.4335562  79.2653066
 113.6903294 120.8404923  78.5404133 113.3325558 121.1287772  79.9829005
 121.8675617 121.3258668  81.3847659 121.9224227 120.3732505  81.3090136
 121.0566819 121.4818108  81.8688958 123.0166811 125.2538792  72.6225943
 122.5786241 124.5374650  72.1631580 123.7577252 125.4814906  72.0611034
 119.8067977 119.9435728  79.1438038 118.9935843 120.2429899  79.5503230
 120.3026972 119.5491417  79.8612520 125.4042189 120.4077553  87.9752932
 125.7591577 120.6349026  88.8347398 126.0514320 120.7395929  87.3530187
 119.2982052 117.5154084  84.7599273 119.9381431 117.3742843  84.0622236
 118.4659583 117.2288597  84.3837875 120.0742356 126.8156514  80.8734266
 120.8682955 126.3206834  80.6716841 119.3634048 126.2874377  80.5101971
 116.3825120 120.9599596  76.9494018 115.4522708 120.8984051  77.1663980
 116.4782591 120.4375549  76.1530660 116.3010669 117.4854409  79.5372260
 116.5617486 118.3999742  79.4281420 117.1227841 117.0178851  79.6868873
 117.7735594 118.8992166  86.7071084 118.4458647 118.6909528  86.0583733
 116.9465380 118.7014252  86.2676317 123.6761166 115.5254107  88.7236745
 123.0289081 116.2244056  88.6301222 124.4462181 115.9590251  89.0912994
 123.8525300 123.3634872  86.7833565 124.7817360 123.5146031  86.6102532
 123.4316330 123.4518892  85.9282212 122.6513632 127.3885536  84.5532103
 122.5124718 127.0204321  85.4258041 121.8628228 127.9033176  84.3816060
 124.2018847 126.7667139  81.9420940 123.8668680 126.7267909  82.8378590
 123.7022793 126.1011855  81.4691351 118.1763091 122.1734769  87.4673522
 118.0382889 121.4415008  88.0685061 119.0868015 122.0843669  87.1857709
 127.1378039 124.1123173  72.2158000 126.5207209 123.3870001  72.1191053
 126.6694527 124.8732533  71.8725074 120.8045392 121.8854728  86.9557201
 121.5145010 121.2447920  86.9143820 120.7614700 122.1367623  87.8783382
 119.5174326 118.8719946  88.7752841 118.9811683 118.4210685  89.4274437
 118.9291034 119.0065855  88.0323305 118.9276585 118.3308597  71.3379304
 118.0506051 118.2097398  70.9741551 119.4034338 117.5394676  71.0858193
 110.4478725 123.1185757  81.4320812 111.1349765 122.8047487  80.8441827
 110.2926854 124.0227122  81.1588063 115.2513447 118.0075954  85.8605835
 115.1671636 117.4001623  85.1256245 114.4296153 118.4984972  85.8615332
 125.4237161 116.4929517  81.2276030 125.9205860 115.7399480  80.9077101
 124.6524142 116.5293834  80.6619240 126.5066942 125.2501205  78.8014454
 125.5723220 125.3702667  78.6319158 126.6843610 124.3473671  78.5374464
 122.0072130 118.6346900  80.9547715 121.6369917 118.0817941  81.6428620
 122.5031222 118.0305034  80.4022715 129.8939493 121.0918524  79.3364488
 130.3599945 121.9246515  79.2624790 130.3446993 120.6263505  80.0409746
 127.8656156 113.4599111  83.3755389 126.9519235 113.6903338  83.5437596
 128.2949257 113.5437555  84.2269422 127.6362614 121.6489003  85.8755283
 126.9834064 121.8964910  85.2207736 128.0142994 120.8353141  85.5417760
 123.6850187 122.3908814  92.3621320 123.0090824 122.2902943  93.0323695
 124.5077821 122.2348028  92.8257317 115.4329046 128.6280750  84.9833835
 116.0182483 127.8824438  85.1161740 115.2353885 128.9384707  85.8670499
 110.0246701 121.1986351  83.7038279 110.0630801 120.6649941  84.4975397
 109.5186994 120.6721556  83.0849256 117.4037463 116.0450891  87.2000821
 117.4678790 116.9065722  86.7878219 117.3404584 115.4324893  86.4673179
 116.8789736 118.1174024  90.8473855 117.5061775 117.7351101  91.4611380
 116.0217655 117.8988226  91.2129548 113.6555279 119.9250453  76.7792210
 113.9508720 119.0161131  76.7259264 112.7543314 119.9038192  76.4573212
 117.1849526 118.0006449  82.7619759 116.4636111 118.6142417  82.6227232
 117.9742781 118.5364214  82.6836405 119.9875839 115.3360876  89.0360410
 120.5110241 115.5823172  89.7986720 119.7688172 116.1680911  88.6163548
 115.3843120 117.6064550  76.9031535 115.0555826 116.7261929  76.7206641
 115.7382491 117.5512219  77.7907924 118.4984943 117.8937520  77.2707013
 118.8381016 118.4223441  76.5485621 118.9457064 118.2317926  78.0465579
 121.1928384 116.2774571  86.7210081 120.8525205 115.4782384  87.1230761
 120.4867390 116.5776282  86.1486914 121.8444856 113.3623883  85.1737404
 122.6670925 112.8884362  85.0516294 122.0882920 114.1414367  85.6736090
 120.4853090 116.3912142  75.4700306 121.2061453 116.7693395  74.9664022
 119.8618395 117.1101019  75.5735284 124.6284213 117.0957291  76.4058638
 124.8447828 117.9781929  76.1047466 124.1478280 116.7043504  75.6764280
 119.3683435 120.0543004  82.9829383 119.2228015 120.3683307  83.8753664
 118.8908638 120.6727904  82.4300281 121.2279818 117.0445552  83.0310272
 121.2141386 116.1486645  82.6942570 121.9452246 117.0516216  83.6648558
 123.0805948 117.4782892  85.0763400 122.8223726 118.3999963  85.0747730
 122.5490989 117.0813327  85.7663864 113.8429097 122.5948348  85.9217044
 113.2982565 123.3708156  86.0537318 114.7208447 122.9419153  85.7636165
 120.6316714 115.9259932  78.2997842 120.7532625 114.9976578  78.4988730
 120.3418756 115.9398618  77.3876158 123.5007904 113.6114843  81.4364562
 123.5229601 113.6754176  80.4816542 123.9175963 112.7719351  81.6305068
 114.6295119 121.7218245  88.8147201 113.8876855 121.8700880  89.4011831
 114.3087863 121.9826510  87.9513950 115.0751732 129.6083673  80.8457595
 115.9009752 129.3087445  80.4656239 114.7245784 128.8391296  81.2947384
 120.0433266 128.9610142  82.9155269 119.4213275 128.2980847  82.6157497
 120.7138132 128.9871273  82.2328917 113.2760337 127.5270000  81.8046529
 112.4392246 127.0992174  81.6230530 113.2483983 127.7202443  82.7417320
 120.1157793 117.4391930  92.5087775 120.1645949 118.3154052  92.1265544
 120.6580307 116.8969323  91.9359418 119.6046773 127.5114065  76.3913729
 119.7534893 128.1949529  75.7380402 120.4113216 127.4919155  76.9063185
 128.0114276 120.8156447  90.4180947 128.9124139 120.6762912  90.1264945
 128.0862251 120.9810902  91.3579125 122.3457082 118.1923302  89.2634133
 121.4760391 118.4856868  88.9916722 122.5816562 118.7763747  89.9841397
 117.3599405 123.5379243  77.3974798 117.1145447 122.6341573  77.5955008
 117.5295320 123.5396393  76.4554276 125.0496115 114.4102919  86.7799554
 125.5678059 115.1463946  86.4546042 124.6951248 114.7166912  87.6146313
 116.6295053 119.2707600  74.8960960 115.9364298 119.3451955  74.2400996
 116.3846805 118.5067944  75.4182477 125.3008710 110.8303201  82.3000450
 125.5810463 110.1626391  82.9260877 126.0859316 111.0232297  81.7875114
 129.1717568 119.2520835  86.0472026 130.1234991 119.3518933  86.0684250
 129.0021018 118.4599104  86.5570110 127.1931947 116.3376419  86.2331427
 126.5981879 116.6181431  85.5377915 126.9081644 116.8270320  87.0048168
 123.4888977 121.3423008  71.2041529 124.4348081 121.2129216  71.2729947
 123.1103221 120.6037670  71.6810957 131.8000134 119.2637999  85.2072608
 131.2839183 118.4796455  85.0202537 132.6840083 118.9356715  85.3719128
 129.4610861 113.0079014  81.1668421 129.2635682 112.6994102  82.0511753
 130.0710567 113.7340653  81.2966351 123.3727669 125.3940754  92.6642186
 124.2930679 125.5719353  92.8582233 123.3377252 124.4496800  92.5121886
 121.6731894 119.2672984  71.1396415 120.7663349 118.9706097  71.2159128
 121.9507875 118.9702803  70.2730701 112.5909834 120.5879348  81.5895461
 112.2712618 119.7344656  81.2969835 112.0443262 120.8027926  82.3453428
 116.3689742 123.3041789  85.3064967 116.5875751 124.2358897  85.3253001
 116.7815515 122.9449763  86.0919771 123.2893959 113.8109874  77.2940656
 122.4794688 113.4656959  77.6695902 123.9778376 113.5017418  77.8828267
 125.2184508 112.8887921  78.9164952 125.7715546 113.3083374  79.5754976
 125.4554594 111.9623669  78.9587908 121.2417607 118.8774995  94.6967716
 121.1414334 119.8269352  94.6279807 121.0239149 118.5493234  93.8243786
 120.4430678 116.1259920  71.2808394 121.3049842 116.4514818  71.5404211
 120.6281022 115.3391416  70.7681460 112.4598094 124.2082259  83.5588582
 111.7661565 123.7936212  83.0458537 113.2071085 124.2502796  82.9622001
 128.5963315 114.9988446  78.4243617 128.0161984 115.6573250  78.0421669
 128.3299247 114.1765791  78.0131034 127.0466881 114.3993504  80.6264937
 127.5466660 114.5110038  79.8179256 127.6902489 114.0954557  81.2665745
 121.1048877 122.3072133  93.5132778 120.6215959 123.1072494  93.7196667
 121.1909816 122.3180078  92.5600222 114.3734837 124.1400513  81.4354597
 114.3505525 124.2388200  80.4836480 114.6835473 124.9865664  81.7571764
 117.0322214 126.1976668  85.5501212 117.9865468 126.1660611  85.4831143
 116.8334738 125.7367292  86.3651438 117.6221597 124.7677784  88.1172009
 118.4414486 125.2621863  88.1406847 117.8958404 123.8509752  88.0889577
 127.3788193 117.1588537  77.4799965 126.4914048 117.4438187  77.2620160
 127.7942182 116.9982300  76.6327242 130.7302729 117.1835058  81.1954304
 131.5063119 117.6731510  81.4678921 130.0050863 117.6093112  81.6526174
 133.1675288 117.8962677  82.2528245 133.7619778 117.6558413  81.5421553
 133.2401871 117.1769807  82.8801781 115.3872443 131.7396288  82.5671410
 115.2526911 130.9796689  82.0009408 114.9704506 132.4637188  82.1000199
 127.3529217 122.6743072  77.6950255 127.2964418 123.1311624  76.8557888
 127.9057559 121.9133757  77.5173098 131.1634022 118.4632804  78.5200375
 130.9070957 118.0629440  79.3508582 130.5386890 119.1776598  78.3950514
 128.0863996 123.8647854  74.9902784 128.0312800 123.6992125  74.0491228
 127.4610051 124.5723887  75.1464974 112.8756511 119.1015918  88.8164207
 113.5215374 118.5914872  89.3051432 112.6673662 119.8384600  89.3907632
 121.3960121 113.3655963  74.5688103 121.3838791 114.3097803  74.7256374
 122.2883543 113.1826108  74.2747564 125.2112241 109.9598739  78.8234040
 124.4444637 109.4057226  78.9690722 125.6222946 110.0320608  79.6848191
 117.2154002 116.2483535  92.9139221 118.0785463 115.8920340  93.1242545
 116.6419412 115.9097430  93.6014625  50.3452344  -7.7487827  70.4446928
  50.9830754  -7.8681080  69.7410268  50.2273187  -6.8006983  70.5034881
  47.1542050  -7.7960399  70.3808453  46.8160562  -7.9119334  69.4928988
  48.0231819  -8.1969234  70.3609459  43.0128866  -5.9424923  66.3705344
  42.4493731  -6.0334986  65.6021632  42.8981261  -6.7625018  66.8507837
  47.6361833  -6.6425547  76.3394659  47.6250474  -7.0372749  75.4675162
  47.7982473  -7.3759475  76.9328430  40.5593298  -4.4473731  69.2089564
  41.3514590  -4.7882907  68.7935864  40.7989948  -4.3378756  70.1291718
  48.5928425  -2.2753955  61.6819809  47.9416405  -1.6899875  61.2953823
  49.3872788  -1.7447760  61.7414846  42.5184052  -5.1864818  62.0806943
  43.2914928  -5.7335831  61.9419819  42.8709451  -4.3220569  62.2921405
  44.3569095  -3.8588436  75.2873843  44.0658961  -2.9542805  75.1720509
  44.9926079  -3.8171908  76.0017912  45.2825301  -6.4811587  71.8775202
  45.8788874  -6.7055565  71.1632165  45.3400273  -7.2226842  72.4800650
  44.8550330  -9.0272152  59.7125393  45.1075850  -9.5490631  58.9508856
  43.9174889  -9.1906006  59.8152077  50.0703690  -4.5863523  62.2188793
  49.4349523  -4.5128897  62.9309698  49.7401096  -3.9969924  61.5407872
  44.5746619  -7.1244046  61.9149768  44.4582877  -7.7999142  62.5830852
  44.6848878  -7.6111672  61.0981921  46.9178159  -7.6633899  65.6196457
  46.5536367  -8.1903278  66.3309379  47.7745275  -8.0535430  65.4462943
  49.3158980  -4.1727020  72.2823636  49.0159703  -3.2701981  72.1739444
  48.9710039  -4.4394837  73.1344789  42.7671461  -7.7213223  68.3160341
  41.8421958  -7.8537009  68.5238032  43.0155874  -6.9419004  68.8130283
  46.5372867 -10.1786342  61.6004473  46.4172493  -9.7329291  62.4389953
  45.8425456  -9.8301024  61.0418011  44.2979759   2.5917300  65.2494604
  44.2203789   3.5425125  65.3283085  43.6941403   2.2463173  65.9069530
  46.7896989 -10.2354834  77.9055971  46.0130323  -9.6760914  77.8958836
  47.4287552  -9.7498051  78.4270841  45.0443361  -7.4269381  77.4673938
  45.7858046  -6.8884337  77.1908761  44.3380347  -6.8003092  77.6245490
  50.5198701  -5.2840241  76.0646099  50.9282057  -5.7257830  75.3200732
  49.7975963  -5.8587613  76.3180292  46.8729771 -10.3467634  73.4379656
  47.7190966  -9.9228220  73.5814305  46.8128409 -11.0034009  74.1318219
  50.8427516  -4.7239050  69.8198388  50.2136378  -4.5593336  69.1174456
  50.4553178  -4.3097440  70.5909352  54.7216748  -3.7884612  67.1742752
  54.0367786  -3.4085711  66.6239785  54.8060597  -3.1789285  67.9074700
  51.9767679  -6.1424653  73.7738096  52.1884575  -5.4992893  73.0972477
  51.9297428  -6.9762336  73.3060026  46.3955478  -4.9864642  67.0848473
  46.8593823  -4.7076939  66.2953096  46.1312276  -5.8881197  66.9021564
  43.2879559  -5.4393160  70.0228237  43.8580916  -5.0105892  69.3845721
  43.8787671  -5.7210576  70.7212422  45.3324364  -8.8641489  63.8938038
  46.0348407  -8.4120446  64.3611965  45.0004992  -9.5057671  64.5217932
  53.0913507  -3.2652698  71.9460453  53.9130951  -3.6672510  71.6643135
  53.0875910  -3.3684463  72.8976569  46.8570111  -3.7168654  74.1021163
  46.9214543  -3.2548247  74.9379335  46.1481035  -4.3471289  74.2303473
  46.5718128  -2.0500547  63.9700144  46.4363803  -1.2049011  64.3984992
  47.1127941  -1.8481269  63.2066078  40.0247526  -4.5325109  64.5428069
  40.5372046  -3.7381859  64.6933633  40.6770239  -5.2298818  64.4761670
  41.8342410  -1.4159353  66.6250822  42.0109039  -0.4941388  66.4371806
  42.6299244  -1.7300933  67.0545202  48.1986605  -1.4276980  78.1000486
  47.7550459  -2.2140602  77.7821390  48.8603818  -1.2397830  77.4344377
  42.9573726   0.1018821  72.6261164  43.5081151  -0.0264115  71.8538158
  42.1185202   0.4013710  72.2756057  50.2967843  -1.1474180  76.1281887
  50.2786318  -0.3265299  75.6362156  51.2187763  -1.2720105  76.3532028
  46.7540897  -3.6330051  76.9705395  47.2869234  -4.3941763  76.7404703
  46.2254978  -3.9256399  77.7129550  49.8860875  -8.5361374  61.0071472
  49.3707498  -7.7656769  61.2459860  49.6138183  -9.2096238  61.6304534
  54.8595149  -5.7829019  62.9424646  54.0824592  -6.1217860  62.4979808
  55.5386630  -5.7776396  62.2679611  48.1193610  -4.5044058  64.4824207
  47.5914971  -5.2391299  64.1697445  47.6181112  -3.7269382  64.2364176
  53.0986456  -6.3095038  69.5991254  52.4410130  -5.6195777  69.6871382
  53.9026855  -5.9198606  69.9425240  51.9091914  -7.9550665  67.6495195
  52.4223796  -7.3220673  68.1516905  52.5593138  -8.5549470  67.2838556
  46.2646210  -6.6863848  57.4859180  45.3573272  -6.9174595  57.6850329
  46.7617242  -7.4826229  57.6733162  49.1714289   2.0233659  60.4055867
  48.4975987   2.3265356  61.0140824  49.5580111   2.8262739  60.0561324
  48.3872745 -10.4801210  69.8953536  47.4695307 -10.2586263  69.7375224
  48.8032889 -10.4054899  69.0365243  49.1707793  -9.0809794  65.0256216
  49.9179612  -8.5688397  64.7163338  49.4399383  -9.4025741  65.8860610
  47.4434443  -6.5851253  62.0083171  46.5345663  -6.8692220  62.1055640
  47.4729527  -6.1652175  61.1486477  52.6753711  -2.9744664  65.7774338
  52.2216038  -3.8153754  65.8339529  52.0447677  -2.3383265  66.1149118
  51.1186650  -1.1368167  66.7124156  51.4109624  -0.5763110  65.9936522
  51.6285270  -0.8439606  67.4677315  45.9919337  -8.9722633  68.1092966
  46.0467947  -9.9248796  68.0335442  45.1810539  -8.8163194  68.5934264
  47.1410531  -5.0442510  59.3471249  46.7029961  -5.7606651  58.8876886
  47.8820972  -4.8166395  58.7856341  46.0820275  -0.3587816  67.8017609
  46.0396454  -0.1326970  66.8726141  46.9982974  -0.5924441  67.9503411
  49.5285909  -9.8903748  74.6998239  49.8835297  -9.6632275  75.5592704
  50.1758040  -9.5585372  74.0775494  55.2583646  -6.7685313  65.4047568
  55.1201544  -6.5783717  64.4768757  54.9019865  -6.0065930  65.8615619
  55.2853025  -4.7008786  70.4158839  55.7189532  -4.7933496  71.2641893
  55.9984606  -4.7251285  69.7778855  44.1986076  -3.4824787  67.5979572
  44.9926674  -3.9774467  67.3962147  43.4877768  -4.0106924  67.2347278
  49.0180920  -1.1006691  71.9491940  49.0717943  -0.5315755  72.7169656
  48.1495702  -0.9304806  71.5845977  56.1468575  -4.6585085  72.9491725
  56.3404465  -3.7539274  73.1951000  56.0469193  -5.1177666  73.7830310
  51.2083684  -4.5078342  78.5232605  51.0569190  -4.7367790  77.6062689
  51.1988363  -3.5507741  78.5363950  47.9769020  -6.9346429  73.5078872
  48.9061080  -6.7835270  73.3347839  47.5560050  -6.8462409  72.6527518
  46.7757352  -2.9095765  71.2777409  46.6368438  -3.2776981  72.1503347
  45.9871948  -2.3948126  71.1061367  47.3705504   2.1913331  62.6202946
  47.5457260   1.7201375  63.4348568  46.6838292   2.8179098  62.8484207
  48.3262567  -3.5314162  68.6666247  47.9912400  -3.5713392  69.5623897
  47.8266513  -4.1969446  68.1936657  42.3006811  -8.1246532  74.1918828
  42.1626609  -8.8566293  74.7930367  43.2111734  -8.2137632  73.9103016
  51.2621759  -6.1858128  58.9403307  50.6450929  -6.9111300  58.8436359
  50.7938247  -5.4248768  58.5970381  44.9289112  -8.4126573  73.6802508
  45.6388730  -9.0533381  73.6389126  44.8858420  -8.1613678  74.6028689
  52.9175890  -1.4759220  76.6009087  52.8588436  -2.1599999  75.9339670
  53.3195409  -0.7340230  76.1489713  41.9366589   5.3402694  69.3942806
  42.1763187   5.9721218  70.0721825  41.0935786   4.9890734  69.6808165
  52.9193298  -3.5119636  74.8323067  52.0320076  -3.8493714  74.9549466
  53.4891849  -4.2436604  75.0691832  46.4494451   1.1481817  71.7984310
  46.3764622   1.9536788  72.3103615  46.0071844   1.3473782  70.9732331
  46.2384231   0.3853587  65.3087132  45.4551753   0.9275267  65.4025356
  46.9376976   0.9027566  65.7081373  48.9093135   1.0468651  73.9542469
  49.6221107   1.6816116  73.8818370  48.4183163   1.1432517  73.1382470
  50.6310661  -5.0480097  65.5259760  49.6966940  -4.9278634  65.3564465
  50.8087330  -5.9507630  65.2619770  43.9605048  -1.2036906  74.7748039
  44.6614508  -0.5700423  74.9277434  43.4900163  -0.8622174  74.0143679
  52.0859444  -2.8618956  63.0595946  52.3619288  -2.9762361  63.9689821
  51.2163943  -3.2601471  63.0208120  51.7606334  -8.6492298  72.6000590
  51.1077784  -8.4016391  71.9453043  52.1386714  -9.4628160  72.2663067
  48.7213508   1.3867395  66.7028760  48.9035902   0.5689051  67.1656512
  49.5446494   1.6035087  66.2653650  49.0555673   0.3135580  63.9643809
  49.5843440  -0.1971965  63.3513971  49.3183893  -0.0021890  64.8289342
  47.8093907  -7.9072487  79.0866627  47.1334544  -8.0078358  79.7569002
  48.6321541  -8.0633274  79.5502624  39.5572766  -1.6700551  71.7079142
  40.1426203  -2.4156863  71.8407046  39.3597605  -1.3596594  72.5915806
  42.4111421   1.3650697  66.7241585  41.7421797   1.8496824  66.2405625
  42.2724291   1.6119917  67.6384963  46.5516690   3.3994440  73.3224243
  47.1034998   3.5626062  74.0873328  46.8922883   3.9898878  72.6504268
  51.4027564  -1.7744302  79.1772897  51.9467468  -1.1614344  78.6827852
  50.8214409  -1.2164724  79.6939910  49.6885077   1.3476416  70.3087925
  49.5636217   0.5466155  69.7998871  50.3464168   1.8422609  69.8201895
  51.7519986  -0.8514564  71.9367475  50.8050321  -0.9709213  71.8645802
  52.1002759  -1.7392066  72.0193737  48.7566419  -1.0561848  68.1371827
  48.6091381  -1.9845141  68.3179397  49.5819912  -1.0341757  67.6528903
  52.3600541  -0.2333289  69.2236700  53.2847088  -0.4390428  69.0861151
  52.1915844  -0.4816888  70.1326042  52.1495857   0.2852378  64.5798792
  52.3232734  -0.2801199  63.8272644  52.6424748   1.0853273  64.3978282
  53.1371029  -0.3980857  61.6795690  53.8321934   0.2225835  61.8983004
  53.4794180  -1.2485506  61.9548068  55.0362453  -2.9481152  63.2083021
  55.5613777  -2.6093879  62.4832341  54.9484805  -3.8834137  63.0246155
  46.6982501   0.9652922  75.3372897  47.0069628   0.7202068  76.2095597
  47.4957983   1.1699560  74.8491767  46.7203113   3.1190831  67.5678274
  46.2808104   2.6267210  68.2611131  47.4711230   2.5763799  67.3270349
  39.1995452  -0.6897628  67.5702902  40.0253472  -0.9893856  67.1901545
  38.8489504  -1.4590005  68.0192691  44.1676985  -1.3371160  69.6400575
  43.5456995  -2.0000455  69.3402803  44.8381852  -1.3110028  68.9574223
  37.4004057  -2.7711301  68.5291835  36.5635966  -3.1989127  68.3475837
  37.3727703  -2.5778858  69.4662627  54.7256359  -2.3148248  78.5134219
  53.9351902  -2.3324109  77.9738718  54.4889713  -1.7759955  79.2683255
  54.8454234  -5.4655782  75.8266947  54.8952239  -5.6305774  76.7682470
  54.7368157  -6.3328523  75.4364828  43.7290492  -2.7867236  63.1159036
  43.8778613  -2.1031772  62.4625709  44.5356936  -2.8062146  63.6308492
  56.3472430  -3.0458840  76.0708969  56.0557239  -2.6828860  76.9072430
  55.7344562  -3.7591832  75.8922301  57.5468113  -5.4805961  68.5911539
  58.3815004  -5.0416157  68.7549099  57.6827242  -5.9567307  67.7719785
  54.5959619  -7.9226226  74.5389027  55.0713740  -7.7298579  73.7307878
  53.6725184  -7.8667040  74.2932410  41.4843125  -6.7602059  64.1220105
  41.2389167  -7.6639729  64.3200315  41.6539040  -6.7584908  63.1799583
  47.2285898  -0.2919106  60.5870783  46.6559865   0.3271081  60.1341255
  47.8018692   0.2580256  61.1210705  50.4483158  -0.0081956  61.7179366
  51.3813831  -0.0736394  61.9212241  50.3606370   0.8274311  61.2593898
  53.0771174  -0.6916085  58.6783313  52.9984806  -1.0256222  59.5719071
  53.8980841  -0.1994317  58.6774786  47.6132696  -8.9558293  57.9286836
  48.5591801  -9.0852085  57.9975254  47.2346941  -9.6943631  58.4056264
  47.4971389  -4.9040547  79.3887493  48.4174398  -4.7261948  79.5827539
  47.4620972  -5.8484502  79.2367192  40.4933461  -6.9939512  72.0310274
  40.7119471  -6.0622404  72.0498308  40.9059235  -7.3531538  72.8165078
  45.2292597  -7.9909168  80.2378085  44.7459679  -7.1908808  80.4441974
  45.3153536  -7.9801223  79.2845529  38.4978556  -6.1580788  68.1599904
  38.4749245  -6.0593101  67.2081787  38.8079193  -5.3115637  68.4817070
  41.1565934  -4.1004633  72.2746518  42.1109188  -4.1320691  72.2076450
  40.9578458  -4.5614009  73.0896744  41.7465316  -5.5303517  74.8417316
  42.5658205  -5.0359438  74.8652153  42.0202124  -6.4471549  74.8134884
  39.5116163   1.4414987  69.2916716  39.3770631   0.6815387  68.7254714
  39.0948225   2.1655886  68.8245505  50.6475126  -3.3748090  58.2993292
  51.3510976  -3.1698087  58.9150947  49.9237775  -2.8071328  58.5642375
  51.4772936  -7.6238229  64.4195562  51.4208138  -7.1669677  63.5803194
  52.0301279  -8.3847544  64.2418405  42.6685289   2.3384304  69.5035159
  42.5517673   3.2829736  69.4013849  41.8477735   2.0357865  69.8920958
  52.5561824  -2.9365561  60.3491752  53.3907427  -3.3684362  60.1669226
  52.3946166  -3.1083547  61.2768646  52.2107716  -6.4333447  61.7148091
  52.1556519  -6.5989176  60.7736535  51.5853771  -5.7257414  61.8710281
  49.5253623  -4.1284536  81.0401654  50.3944782  -3.9543883  80.6788289
  49.0460374  -3.3090119  80.9177383  43.6939803   2.9912565  72.7191087
  44.5967050   3.0236176  73.0357582  43.4677173   2.0613016  72.7337423
  45.4493405   1.7443552  69.3801166  44.4989036   1.7445414  69.2665538
  45.7525891   0.9976287  68.8637201  61.1846099   7.5804090  70.4446928
  61.8224509   7.4610838  69.7410268  61.0666941   8.5284934  70.5034881
  57.9935805   7.5331519  70.3808453  57.6554316   7.4172583  69.4928988
  58.8625573   7.1322684  70.3609459  53.8522621   9.3866995  66.3705344
  53.2887486   9.2956932  65.6021632  53.7375016   8.5666899  66.8507837
  58.4755588   8.6866370  76.3394659  58.4644229   8.2919169  75.4675162
  58.6376227   7.9532443  76.9328430  51.3987053  10.8818187  69.2089564
  52.1908344  10.5409011  68.7935864  51.6383703  10.9913162  70.1291718
  59.4322179  13.0537963  61.6819809  58.7810159  13.6392043  61.2953823
  60.2266542  13.5844158  61.7414846  56.1219056   8.8480331  71.8775202
  56.7182628   8.6236353  71.1632165  56.1794027   8.1065076  72.4800650
  55.6944084   6.3019766  59.7125393  55.9469605   5.7801287  58.9508856
  54.7568643   6.1385911  59.8152077  60.7387367   5.3055544  67.5200136
  61.5250456   4.8874967  67.1690553  61.0026071   6.2101636  67.6881785
  60.9097444  10.7428395  62.2188793  60.2743277  10.8163021  62.9309698
  60.5794851  11.3321993  61.5407872  66.1395794   5.2430777  68.4233115
  66.8720966   4.6729994  68.6570944  65.3835150   4.8552378  68.8639621
  55.4140373   8.2047872  61.9149768  55.2976631   7.5292775  62.5830852
  55.5242633   7.7180246  61.0981921  57.7571914   7.6658019  65.6196457
  57.3930121   7.1388640  66.3309379  58.6139030   7.2756488  65.4462943
  63.6621215  -1.0447648  72.8827724  63.3304539  -0.1752237  72.6588939
  63.0666828  -1.3611364  73.5621754  57.3977401   2.6947919  60.6157806
  57.5651803   3.5628155  60.9828277  57.2074570   2.8575200  59.6919095
  60.1552734  11.1564898  72.2823636  59.8553457  12.0589936  72.1739444
  59.8103794  10.8897081  73.1344789  53.6065216   7.6078694  68.3160341
  52.6815712   7.4754908  68.5238032  53.8549629   8.3872914  68.8130283
  63.5549878   3.6747438  69.9621074  62.6466755   3.6062846  69.6679835
  63.5037474   4.1519383  70.7902899  57.3766622   5.1505576  61.6004473
  57.2566247   5.5962627  62.4389953  56.6819210   5.4990894  61.0418011
  50.9674027   7.2511968  69.1504130  51.0966408   7.5046447  70.0643541
  50.2871478   7.8439676  68.8308785  57.6290744   5.0937083  77.9055971
  56.8524078   5.6531003  77.8958836  58.2681307   5.5793866  78.4270841
  65.4211524   1.8763876  71.7398948  64.7785905   2.1696409  71.0938742
  64.9166453   1.7616796  72.5452144  63.0751688   5.6227049  62.4284807
  63.9869544   5.8554436  62.2532504  62.5661335   6.2064094  61.8659885
  55.8837116   7.9022537  77.4673938  56.6251800   8.4407581  77.1908761
  55.1774101   8.5288825  77.6245490  61.3592456  10.0451677  76.0646099
  61.7675812   9.6034088  75.3200732  60.6369717   9.4704305  76.3180292
  57.7123526   4.9824284  73.4379656  58.5584721   5.4063697  73.5814305
  57.6522163   4.3257908  74.1318219  61.6821270  10.6052868  69.8198388
  61.0530133  10.7698582  69.1174456  61.2946932  11.0194477  70.5909352
  65.5610502  11.5407306  67.1742752  64.8761540  11.9206207  66.6239785
  65.6454351  12.1502632  67.9074700  60.8622971   2.6428652  75.0960830
  60.6183903   3.3970713  74.5595106  61.1382901   3.0214000  75.9308077
  62.8161434   9.1867265  73.7738096  63.0278329   9.8299025  73.0972477
  62.7691182   8.3529581  73.3060026  60.4187663   1.7985085  70.6774668
  59.5572142   2.0966339  70.9691405  60.4450097   2.0155484  69.7455700
  57.2349232  10.3427276  67.0848473  57.6987578  10.6214979  66.2953096
  56.9706030   9.4410720  66.9021564  54.1273313   9.8898757  70.0228237
  54.6974670  10.3186026  69.3845721  54.7181425   9.6081342  70.7212422
  56.1718118   6.4650428  63.8938038  56.8742162   6.9171472  64.3611965
  55.8398747   5.8234247  64.5217932  54.6198480   5.0562185  78.2689248
  53.9897140   5.7378466  78.5024645  54.5134568   4.9445266  77.3242386
  49.9143452   4.7233981  69.1955172  49.1242506   4.9791509  68.7195283
  50.4054700   5.5382319  69.3007213  63.9307262  12.0639220  71.9460453
  64.7524705  11.6619407  71.6643135  63.9269665  11.9607454  72.8976569
  51.8658198   5.0878560  66.1538649  51.0689361   5.1997254  66.6722144
  51.6383790   5.4265212  65.2879539  48.1981155   4.9764471  71.6270163
  48.4489194   5.8611481  71.8927739  48.7340704   4.7969073  70.8545255
  72.0213255   8.4077969  68.2945424  71.2676963   7.8385367  68.1389429
  72.1560796   8.3740633  69.2416059  53.8979222  -0.6417049  80.6314499
  53.5046168  -1.1950851  81.3062143  54.7145363  -0.3306471  81.0221016
  56.8147183   0.7740830  78.2234755  57.5556897   1.3747983  78.1439218
  57.0465106   0.0318468  77.6652798  51.9588521   5.9597197  76.5012985
  51.8442037   5.0582454  76.8020084  51.1033039   6.2060894  76.1497802
  59.0380359  13.9014937  78.1000486  58.5944213  13.1151316  77.7821390
  59.6997573  14.0894088  77.4344377  61.1361597  14.1817737  76.1281887
  61.1180073  15.0026618  75.6362156  62.0581517  14.0571813  76.3532028
  60.7604346  -3.1978067  72.4999037  60.4168616  -2.3076426  72.4238148
  61.1283309  -3.3876410  71.6368622  48.8290197   9.1255463  65.3187639
  49.6665419   9.5352472  65.1021347  49.0068465   8.1854905  65.2887833
  60.7254629   6.7930544  61.0071472  60.2101253   7.5635148  61.2459860
  60.4531938   6.1195680  61.6304534  58.3101740   1.6380245  66.0656711
  57.4543336   1.2487095  65.8862349  58.7228692   1.7172205  65.2056496
  59.8400887  -0.8273412  70.4648270  59.3365682  -0.8643277  69.6516076
  60.1331494   0.0819331  70.5244927  56.0843773  -0.7434682  69.4714452
  56.9496769  -0.9391874  69.1120342  56.1521282  -0.9724331  70.3983809
  65.6988903   9.5462898  62.9424646  64.9218346   9.2074058  62.4979808
  66.3780384   9.5515522  62.2679611  60.5140932   4.6657636  62.8331253
  60.2091068   4.9803785  63.6841397  61.4671374   4.7439056  62.8758586
  58.9587364  10.8247859  64.4824207  58.4308726  10.0900619  64.1697445
  58.4574867  11.6022536  64.2364176  63.9380210   9.0196880  69.5991254
  63.2803885   9.7096141  69.6871382  64.7420609   9.4093312  69.9425240
  53.6906092   1.4867526  66.8430819  54.2649844   1.2642707  66.1104012
  54.2777074   1.5556220  67.5959420  62.7485669   7.3741252  67.6495195
  63.2617551   8.0071244  68.1516905  63.3986893   6.7742448  67.2838556
  54.0175679   3.5171987  60.8626704  53.1812991   3.8546673  61.1835979
  53.8780448   3.3820966  59.9253841  55.9928759  -1.6391226  65.5705888
  55.3393172  -1.9542208  64.9462503  55.9509234  -2.2615485  66.2965711
  57.1039964   8.6428070  57.4859180  56.1967026   8.4117323  57.6850329
  57.6010996   7.8465689  57.6733162  60.0108043  17.3525577  60.4055867
  59.3369742  17.6557273  61.0140824  60.3973865  18.1554657  60.0561324
  59.2266500   4.8490708  69.8953536  58.3089061   5.0705655  69.7375224
  59.6426643   4.9237018  69.0365243  60.0101548   6.2482124  65.0256216
  60.7573367   6.7603521  64.7163338  60.2793137   5.9266176  65.8860610
  58.2828198   8.7440664  62.0083171  57.3739417   8.4599697  62.1055640
  58.3123282   9.1639743  61.1486477  63.5147465  12.3547254  65.7774338
  63.0609792  11.5138164  65.8339529  62.8841432  12.9908652  66.1149118
  62.4580385   3.2839240  67.0075006  61.7203142   2.7716626  67.3385248
  62.7107158   2.8439622  66.1958282  62.5592012  -3.9384508  67.6016775
  62.8650889  -4.7987145  67.3142690  63.2844617  -3.3466888  67.4015769
  48.8516368   6.4646179  65.9898373  48.6540768   5.8715539  65.2649439
  48.2963032   6.1598389  66.7074312  56.8313092   6.3569285  68.1092966
  56.8861702   5.4043121  68.0335442  56.0204294   6.5128724  68.5934264
  57.9804286  10.2849408  59.3471249  57.5423715   9.5685267  58.8876886
  58.7214726  10.5125523  58.7856341  54.7705452   4.9746345  65.8683345
  53.9573317   5.2740515  66.2748537  55.2664446   4.5802034  66.5857827
  60.3679663   5.4388169  74.6998239  60.7229051   5.6659642  75.5592704
  61.0151795   5.7706546  74.0775494  66.0977400   8.5606605  65.4047568
  65.9595299   8.7508201  64.4768757  65.7413619   9.3225988  65.8615619
  54.2619526   2.5464700  71.4844580  54.9018906   2.4053459  70.7867543
  53.4297057   2.2599214  71.1083182  66.1246780  10.6283132  70.4158839
  66.5583287  10.5358421  71.2641893  66.8378361  10.6040633  69.7778855
  51.3462594   5.9910212  63.6739325  50.4160182   5.9294668  63.8909287
  51.4420066   5.4686165  62.8775966  51.2648143   2.5165025  66.2617567
  51.5254960   3.4310358  66.1526727  52.0865315   2.0489468  66.4114179
  52.7373068   3.9302782  73.4316391  53.4096122   3.7220145  72.7829040
  51.9102855   3.7324868  72.9921623  66.9862329  10.6706833  72.9491725
  67.1798220  11.5752643  73.1951000  66.8862948  10.2114252  73.7830310
  58.6398640   0.5564723  75.4482052  57.9926555   1.2554673  75.3546528
  59.4099656   0.9900867  75.8158300  62.0477438  10.8213576  78.5232605
  61.8962945  10.5924127  77.6062689  62.0382118  11.7784177  78.5363950
  58.8162775   8.3945488  73.5078872  59.7454835   8.5456648  73.3347839
  58.3953805   8.4829509  72.6527518  53.1400565   7.2045385  74.1918828
  53.0020363   6.4725624  74.7930367  54.0505489   7.1154285  73.9103016
  62.1015513   9.1433790  58.9403307  61.4844684   8.4180618  58.8436359
  61.6332002   9.9043150  58.5970381  55.7682866   6.9165345  73.6802508
  56.4782485   6.2758537  73.6389126  55.7252174   7.1678240  74.6028689
  63.7569645  13.8532698  76.6009087  63.6982191  13.1691918  75.9339670
  64.1589163  14.5951688  76.1489713  54.4811800   3.9030563  75.4998147
  53.9449157   3.4521301  76.1519744  53.8928509   4.0376471  74.7568612
  53.8914059   3.3619214  58.0624611  53.0143525   3.2408015  57.6986858
  54.3671812   2.5705292  57.8103500  63.7587052  11.8172282  74.8323067
  62.8713831  11.4798204  74.9549466  64.3285603  11.0855313  75.0691832
  45.4116199   8.1496374  68.1566118  46.0987239   7.8358104  67.5687133
  45.2564328   9.0537738  67.8833370  50.2150921   3.0386570  72.5851142
  50.1309110   2.4312240  71.8501552  49.3933628   3.5295589  72.5860638
  60.3874635   1.5240134  67.9521337  60.8843335   0.7710096  67.6322407
  59.6161617   1.5604450  67.3864546  68.2404393   7.2280499  69.5939628
  68.2294269   8.1105215  69.2233562  67.3721772   6.8752050  69.3994165
  61.4704416  10.2811821  65.5259760  60.5360695  10.4013284  65.3564465
  61.6481084   9.3784288  65.2619770  56.9709604   3.6657517  67.6793021
  56.6007391   3.1128557  68.3673927  57.4668696   3.0615650  67.1268022
  64.8576967   6.1229140  66.0609794  65.3237419   6.9557132  65.9870097
  65.3084468   5.6574122  66.7655053  62.9253198  12.4672962  63.0595946
  63.2013042  12.3529556  63.9689821  62.0557697  12.0690446  63.0208120
  62.8293630  -1.5090273  70.1000696  61.9156710  -1.2786046  70.2682903
  63.2586731  -1.4251829  70.9514728  62.6000088   6.6799619  72.6000590
  61.9471539   6.9275527  71.9453043  62.9780468   5.8663757  72.2663067
  58.6487662   7.4219430  79.0866627  57.9728299   7.3213560  79.7569002
  59.4715295   7.2658644  79.5502624  44.9884175   6.2296967  70.4283585
  45.0268275   5.6960558  71.2220703  44.4824468   5.7032173  69.8094562
  52.3674938   1.0761508  73.9246128  52.4316264   1.9376338  73.5123525
  52.3042058   0.4635509  73.1918486  51.8427210   3.1484640  77.5719162
  52.4699249   2.7661717  78.1856686  50.9855129   2.9298842  77.9374854
  62.2421319  13.5547615  79.1772897  62.7861223  14.1677574  78.6827852
  61.6608164  14.1127194  79.6939910  48.6192753   4.9561069  63.5037517
  48.9146194   4.0471748  63.4504570  47.7180789   4.9348809  63.1818519
  52.1487000   3.0317066  69.4865065  51.4273586   3.6453034  69.3472539
  52.9380256   3.5674831  69.4081711  54.9513313   0.3671492  75.7605717
  55.4747715   0.6133789  76.5232026  54.7325647   1.1991527  75.3408854
  50.3480594   2.6375167  63.6276842  50.0193301   1.7572546  63.4451948
  50.7019965   2.5822836  64.5153231  53.4622418   2.9248137  63.9952320
  53.8018490   3.4534058  63.2730928  53.9094538   3.2628543  64.7710886
  56.1565858   1.3085187  73.4455388  55.8162679   0.5093000  73.8476067
  55.4504865   1.6086898  72.8732221  56.8082330  -1.6065500  71.8982711
  57.6308400  -2.0805022  71.7761601  57.0520394  -0.8275016  72.3981397
  55.4490565   1.4222758  62.1945612  56.1698927   1.8004011  61.6909329
  54.8255869   2.1411635  62.2980590  59.5921688   2.1267907  63.1303945
  59.8085302   3.0092545  62.8292773  59.1115755   1.7354121  62.4009587
  54.3320909   5.0853620  69.7074689  54.1865490   5.3993924  70.5998971
  53.8546113   5.7038521  69.1545588  56.1917292   2.0756168  69.7555579
  56.1778861   1.1797262  69.4187877  56.9089720   2.0826832  70.3893865
  58.0443423   2.5093509  71.8008706  57.7861200   3.4310579  71.7993037
  57.5128463   2.1123943  72.4909170  62.9889611  15.6144296  64.5798792
  63.1626489  15.0490718  63.8272644  63.4818503  16.4145191  64.3978282
  48.8066571   7.6258965  72.6462350  48.2620039   8.4018773  72.7782625
  49.6845921   7.9729769  72.4881472  55.5954188   0.9570549  65.0243149
  55.7170099   0.0287195  65.2234036  55.3056230   0.9709235  64.1121464
  58.4645378  -1.3574541  68.1609869  58.4867075  -1.2935208  67.2061848
  58.8813437  -2.1970032  68.3550375  68.8429003   8.3780719  66.1989091
  69.2860149   7.6288044  65.8008215  67.9655513   8.3690855  65.8162823
  63.9764784  14.9311060  61.6795690  64.6715689  15.5517753  61.8983004
  64.3187934  14.0806411  61.9548068  49.5932593   6.7528861  75.5392507
  48.8514329   6.9011497  76.1257138  49.2725337   7.0137127  74.6759257
  65.8756207  12.3810766  63.2083021  66.4007531  12.7198038  62.4832341
  65.7878560  11.4457781  63.0246155  55.0795267   2.4702546  79.2333082
  55.1283423   3.3464669  78.8510851  55.6217782   1.9279939  78.6604725
  65.5650113  13.0143669  78.5134219  64.7745657  12.9967808  77.9738718
  65.3283468  13.5531963  79.2683255  65.6847988   9.8636136  75.8266947
  65.7345993   9.6986143  76.7682470  65.5761911   8.9963395  75.4364828
  62.9751751   5.8467064  77.1426254  63.8761613   5.7073529  76.8510252
  63.0499725   6.0121519  78.0824431  57.3094556   3.2233919  75.9879440
  56.4397865   3.5167485  75.7162029  57.5454036   3.8074364  76.7086704
  67.1866185  12.2833077  76.0708969  66.8950993  12.6463058  76.9072430
  66.5738316  11.5700086  75.8922301  68.3861867   9.8485957  68.5911539
  69.2208759  10.2875761  68.7549099  68.5220996   9.3724610  67.7719785
  65.4353373   7.4065692  74.5389027  65.9107495   7.5993338  73.7307878
  64.5118939   7.4624878  74.2932410  52.3236880   8.5689859  64.1220105
  52.0782922   7.6652189  64.3200315  52.4932794   8.5707010  63.1799583
  60.0133590  -0.5586465  73.5044861  60.5315534   0.1774562  73.1791349
  59.6588722  -0.2522471  74.3391620  51.5932527   4.3018217  61.6206266
  50.9001772   4.3762572  60.9646302  51.3484279   3.5378560  62.1427783
  60.2646184  -4.1386182  69.0245757  60.5447938  -4.8062993  69.6506184
  61.0496791  -3.9457086  68.5120421  58.0679652  15.0372812  60.5870783
  57.4953619  15.6562999  60.1341255  58.6412446  15.5872174  61.1210705
  64.1355042   4.2831452  72.7717332  65.0872465   4.3829550  72.7929556
  63.9658493   3.4909721  73.2815417  62.1569422   1.3687035  72.9576733
  61.5619354   1.6492048  72.2623222  61.8719118   1.8580936  73.7293474
  61.2876912  15.3209962  61.7179366  62.2207585  15.2555524  61.9212241
  61.2000125  16.1566229  61.2593898  63.9164929  14.6375832  58.6783313
  63.8378560  14.3035696  59.5719071  64.7374596  15.1297600  58.6774786
  66.6143120   7.5037572  71.8859632  66.5819440   6.5653572  72.0719316
  67.2243744   7.5821608  71.1525457  58.4526451   6.3733625  57.9286836
  59.3985556   6.2439833  57.9975254  58.0740696   5.6348287  58.4056264
  66.7637608   4.2948615  71.9317915  66.2476657   3.5107072  71.7447844
  67.6477557   3.9667332  72.0964435  64.4248335  -1.9610369  67.8913728
  64.2273157  -2.2695281  68.7757060  65.0348041  -1.2348730  68.0211658
  72.4319670   8.5653579  71.0265669  73.1623058   8.3038867  71.5873372
  71.8226615   7.8282300  71.0667737  70.5134967   6.7061441  71.6240120
  69.7868131   6.5717406  71.0156611  70.0982254   7.0138270  72.4296838
  58.3365143  10.4251371  79.3887493  59.2568153  10.6029970  79.5827539
  58.3014726   9.4807416  79.2367192  56.6369368   4.2983601  57.8641721
  55.7300823   4.0016714  57.9404435  56.9145349   4.0013419  56.9976007
  47.5547308   5.6189964  68.3140768  47.2350093   4.7655273  68.0215142
  47.0080737   5.8338543  69.0698735  51.3327216   8.3352405  72.0310274
  51.5513226   9.2669513  72.0498308  51.7452990   7.9760380  72.8165078
  58.2531434  -1.1579509  64.0185962  57.4432162  -1.5032424  64.3941209
  58.9415851  -1.4671966  64.6073574  60.1821982  -2.0801462  65.6410259
  60.7353021  -1.6606009  66.3000282  60.4192068  -3.0065714  65.6833215
  56.2055081   3.9085611  81.4213023  56.1051808   4.8579968  81.3525114
  55.9876623   3.5803850  80.5489093  55.4068153   1.1570536  58.0053700
  56.2687317   1.4825435  58.2649518  55.5918497   0.3702032  57.4926766
  47.4235568   9.2392876  70.2833889  46.7299040   8.8246829  69.7703844
  48.1708559   9.2813412  69.6867308  63.5600789   0.0299063  65.1488923
  62.9799458   0.6883867  64.7666976  63.2936722  -0.7923593  64.7376341
  62.0104355  -0.5695880  67.3510244  62.5104134  -0.4579345  66.5424563
  62.6539963  -0.8734827  67.9911052  56.0686351   7.3382750  80.2378085
  55.5853433   8.1383110  80.4441974  56.1547290   7.3490695  79.2845529
  49.3372311   9.1711130  68.1599904  49.3142999   9.2698817  67.2081787
  49.6472947  10.0176281  68.4817070  62.3425667   2.1899153  64.2045272
  61.4551522   2.4748804  63.9865466  62.7579656   2.0292916  63.3572549
  65.6940203   2.2145674  67.9199611  66.4700593   2.7042127  68.1924228
  64.9688337   2.6403728  68.3771480  68.1312762   2.9273293  68.9773551
  68.7257253   2.6869029  68.2666860  68.2039346   2.2080424  69.6047088
  61.4868881  11.9543828  58.2993292  62.1904731  12.1593830  58.9150947
  60.7631529  12.5220590  58.5642375  62.3166691   7.7053689  64.4195562
  62.2601892   8.1622240  63.5803194  62.8695033   6.9444374  64.2418405
  66.1271497   3.4943421  65.2445681  65.8708431   3.0940057  66.0753889
  65.5024365   4.2087215  65.1195820  70.4383835   6.2339494  67.7516973
  69.8783393   6.3032683  68.5248535  69.8327338   6.0580479  67.0316469
  63.3955578  12.3926357  60.3491752  64.2301182  11.9607555  60.1669226
  63.2339921  12.2208371  61.2768646  63.0501470   8.8958470  61.7148091
  62.9950274   8.7302742  60.7736535  62.4247525   9.6034503  61.8710281
  47.8393985   4.1326535  75.5409513  48.4852849   3.6225489  76.0296738
  47.6311136   4.8695216  76.1152938  60.3647377  11.2007382  81.0401654
  61.2338537  11.3748034  80.6788289  59.8854129  12.0201799  80.9177383
  56.3597596  -1.6033421  61.2933409  56.3476265  -0.6591581  61.4501680
  57.2521018  -1.7863275  60.9992871  60.1749715  -5.0090644  65.5479346
  59.4082111  -5.5632157  65.6936029  60.5860420  -4.9368775  66.4093498
  52.1791476   1.2794152  79.6384527  53.0422938   0.9230957  79.8487852
  51.6056887   0.9408047  80.3259932  72.0239853  22.9096008  70.4446928
  72.6618263  22.7902755  69.7410268  71.9060696  23.8576852  70.5034881
  68.8329559  22.8623436  70.3808453  68.4948071  22.7464501  69.4928988
  69.7019328  22.4614601  70.3609459  69.3149342  24.0158288  76.3394659
  69.3037983  23.6211086  75.4675162  69.4769982  23.2824361  76.9328430
  70.2715934  28.3829880  61.6819809  69.6203914  28.9683961  61.2953823
  71.0660297  28.9136075  61.7414846  64.1971561  25.4719017  62.0806943
  64.9702437  24.9248005  61.9419819  64.5496960  26.3363267  62.2921405
  66.9612810  24.1772248  71.8775202  67.5576383  23.9528271  71.1632165
  67.0187782  23.4356994  72.4800650  66.5337839  21.6311684  59.7125393
  66.7863359  21.1093205  58.9508856  65.5962398  21.4677829  59.8152077
  71.5781122  20.6347462  67.5200136  72.3644211  20.2166885  67.1690553
  71.8419826  21.5393554  67.6881785  71.7491199  26.0720312  62.2188793
  71.1137032  26.1454939  62.9309698  71.4188605  26.6613911  61.5407872
  76.9789549  20.5722695  68.4233115  77.7114721  20.0021912  68.6570944
  76.2228904  20.1844296  68.8639621  66.2534127  23.5339790  61.9149768
  66.1370386  22.8584693  62.5830852  66.3636387  23.0472163  61.0981921
  68.5965668  22.9949937  65.6196457  68.2323876  22.4680558  66.3309379
  69.4532784  22.6048406  65.4462943  74.5014969  14.2844269  72.8827724
  74.1698294  15.1539680  72.6588939  73.9060582  13.9680553  73.5621754
  68.2371155  18.0239836  60.6157806  68.4045558  18.8920073  60.9828277
  68.0468324  18.1867118  59.6919095  70.9946489  26.4856815  72.2823636
  70.6947212  27.3881854  72.1739444  70.6497548  26.2188998  73.1344789
  74.3943632  19.0039355  69.9621074  73.4860510  18.9354764  69.6679835
  74.3431228  19.4811300  70.7902899  68.2160376  20.4797494  61.6004473
  68.0960001  20.9254545  62.4389953  67.5212965  20.8282811  61.0418011
  65.9767268  33.2501136  65.2494604  65.8991298  34.2008961  65.3283085
  65.3728912  32.9047008  65.9069530  68.4684498  20.4229001  77.9055971
  67.6917832  20.9822921  77.8958836  69.1075061  20.9085784  78.4270841
  76.2605279  17.2055794  71.7398948  75.6179659  17.4988327  71.0938742
  75.7560207  17.0908714  72.5452144  73.9145442  20.9518967  62.4284807
  74.8263299  21.1846354  62.2532504  73.4055090  21.5356011  61.8659885
  72.1986210  25.3743595  76.0646099  72.6069566  24.9326005  75.3200732
  71.4763472  24.7996222  76.3180292  68.5517280  20.3116202  73.4379656
  69.3978475  20.7355615  73.5814305  68.4915918  19.6549826  74.1318219
  72.5215025  25.9344785  69.8198388  71.8923887  26.0990500  69.1174456
  72.1340687  26.3486395  70.5909352  76.4004257  26.8699223  67.1742752
  75.7155295  27.2498125  66.6239785  76.4848106  27.4794550  67.9074700
  71.7016725  17.9720570  75.0960830  71.4577657  18.7262630  74.5595106
  71.9776656  18.3505918  75.9308077  73.6555188  24.5159182  73.7738096
  73.8672083  25.1590942  73.0972477  73.6084937  23.6821499  73.3060026
  71.2581417  17.1277003  70.6774668  70.3965896  17.4258257  70.9691405
  71.2843852  17.3447402  69.7455700  68.0742987  25.6719194  67.0848473
  68.5381332  25.9506897  66.2953096  67.8099785  24.7702638  66.9021564
  67.0111873  21.7942346  63.8938038  67.7135916  22.2463390  64.3611965
  66.6792501  21.1526165  64.5217932  65.4592234  20.3854103  78.2689248
  64.8290895  21.0670383  78.5024645  65.3528322  20.2737184  77.3242386
  74.7701016  27.3931138  71.9460453  75.5918460  26.9911325  71.6643135
  74.7663419  27.2899372  72.8976569  68.5357620  26.9415181  74.1021163
  68.6002052  27.4035588  74.9379335  67.8268544  26.3112546  74.2303473
  82.8607009  23.7369886  68.2945424  82.1070718  23.1677284  68.1389429
  82.9954550  23.7032551  69.2416059  68.2505637  28.6083289  63.9700144
  68.1151312  29.4534824  64.3984992  68.7915450  28.8102566  63.2066078
  64.7372977  14.6874868  80.6314499  64.3439923  14.1341067  81.3062143
  65.5539117  14.9985447  81.0221016  61.7035035  26.1258727  64.5428069
  62.2159555  26.9201977  64.6933633  62.3557748  25.4285017  64.4761670
  67.6540938  16.1032747  78.2234755  68.3950651  16.7039901  78.1439218
  67.8858861  15.3610385  77.6652798  71.5998101  12.1313850  72.4999037
  71.2562370  13.0215492  72.4238148  71.9677063  11.9415508  71.6368622
  71.5648384  22.1222462  61.0071472  71.0495007  22.8927066  61.2459860
  71.2925692  21.4487598  61.6304534  69.1495495  16.9672162  66.0656711
  68.2937091  16.5779013  65.8862349  69.5622446  17.0464123  65.2056496
  70.6794641  14.5018506  70.4648270  70.1759437  14.4648641  69.6516076
  70.9725248  15.4111248  70.5244927  66.9237527  14.5857235  69.4714452
  67.7890524  14.3900044  69.1120342  66.9915036  14.3567587  70.3983809
  76.5382658  24.8754816  62.9424646  75.7612100  24.5365976  62.4979808
  77.2174139  24.8807439  62.2679611  71.3534687  19.9949554  62.8331253
  71.0484822  20.3095703  63.6841397  72.3065129  20.0730974  62.8758586
  69.7981119  26.1539777  64.4824207  69.2702480  25.4192537  64.1697445
  69.2968621  26.9314453  64.2364176  74.7773965  24.3488797  69.5991254
  74.1197639  25.0388059  69.6871382  75.5814364  24.7385229  69.9425240
  64.5299846  16.8159443  66.8430819  65.1043598  16.5934625  66.1104012
  65.1170829  16.8848138  67.5959420  73.5879423  22.7033170  67.6495195
  74.1011305  23.3363162  68.1516905  74.2380647  22.1034366  67.2838556
  64.8569433  18.8463904  60.8626704  64.0206746  19.1838591  61.1835979
  64.7174203  18.7112884  59.9253841  66.8322514  13.6900692  65.5705888
  66.1786926  13.3749709  64.9462503  66.7902988  13.0676433  66.2965711
  67.9433719  23.9719987  57.4859180  67.0360781  23.7409241  57.6850329
  68.4404751  23.1757606  57.6733162  70.8501798  32.6817494  60.4055867
  70.1763496  32.9849191  61.0140824  71.2367620  33.4846575  60.0561324
  70.0660254  20.1782626  69.8953536  69.1482816  20.3997573  69.7375224
  70.4820398  20.2528936  69.0365243  70.8495302  21.5774041  65.0256216
  71.5967121  22.0895439  64.7163338  71.1186892  21.2558094  65.8860610
  69.1221952  24.0732582  62.0083171  68.2133171  23.7891615  62.1055640
  69.1517036  24.4931661  61.1486477  74.3541220  27.6839172  65.7774338
  73.9003547  26.8430081  65.8339529  73.7235186  28.3200570  66.1149118
  73.2974139  18.6131158  67.0075006  72.5596896  18.1008544  67.3385248
  73.5500913  18.1731539  66.1958282  72.7974159  29.5215668  66.7124156
  73.0897133  30.0820725  65.9936522  73.3072779  29.8144229  67.4677315
  73.3985767  11.3907410  67.6016775  73.7044643  10.5304773  67.3142690
  74.1238371  11.9825030  67.4015769  68.8198040  25.6141326  59.3471249
  68.3817470  24.8977185  58.8876886  69.5608481  25.8417441  58.7856341
  67.7607784  30.2996019  67.8017609  67.7183963  30.5256866  66.8726141
  68.6770483  30.0659394  67.9503411  71.2073418  20.7680087  74.6998239
  71.5622806  20.9951560  75.5592704  71.8545549  21.0998464  74.0775494
  76.9371155  23.8898523  65.4047568  76.7989053  24.0800119  64.4768757
  76.5807374  24.6517906  65.8615619  76.9640534  25.9575050  70.4158839
  77.3977041  25.8650339  71.2641893  77.6772115  25.9332550  69.7778855
  65.8773585  27.1759048  67.5979572  66.6714183  26.6809368  67.3962147
  65.1665277  26.6476911  67.2347278  70.6968429  29.5577144  71.9491940
  70.7505452  30.1268080  72.7169656  69.8283211  29.7279029  71.5845977
  77.8256084  25.9998750  72.9491725  78.0191974  26.9044561  73.1951000
  77.7256702  25.5406170  73.7830310  69.4792395  15.8856641  75.4482052
  68.8320310  16.5846591  75.3546528  70.2493410  16.3192785  75.8158300
  72.8871193  26.1505493  78.5232605  72.7356699  25.9216045  77.6062689
  72.8775872  27.1076095  78.5363950  69.6556529  23.7237406  73.5078872
  70.5848589  23.8748566  73.3347839  69.2347559  23.8121427  72.6527518
  69.0493013  32.8497167  62.6202946  69.2244769  32.3785210  63.4348568
  68.3625801  33.4762933  62.8484207  70.0050076  27.1269673  68.6666247
  69.6699909  27.0870443  69.5623897  69.5054022  26.4614389  68.1936657
  72.9409268  24.4725707  58.9403307  72.3238438  23.7472536  58.8436359
  72.4725756  25.2335068  58.5970381  74.5963399  29.1824616  76.6009087
  74.5375945  28.4983836  75.9339670  74.9982918  29.9243606  76.1489713
  65.3205555  19.2322480  75.4998147  64.7842912  18.7813219  76.1519744
  64.7322263  19.3668389  74.7568612  64.7307814  18.6911132  58.0624611
  63.8537280  18.5699932  57.6986858  65.2065567  17.8997210  57.8103500
  74.5980807  27.1464200  74.8323067  73.7107585  26.8090121  74.9549466
  75.1679358  26.4147231  75.0691832  67.9171740  31.0437422  65.3087132
  67.1339261  31.5859102  65.4025356  68.6164485  31.5611402  65.7081373
  71.2268390  16.8532052  67.9521337  71.7237089  16.1002014  67.6322407
  70.4555371  16.8896368  67.3864546  79.0798147  22.5572417  69.5939628
  79.0688023  23.4397132  69.2233562  78.2115527  22.2043968  69.3994165
  72.3098170  25.6103739  65.5259760  71.3754449  25.7305201  65.3564465
  72.4874839  24.7076205  65.2619770  67.8103358  18.9949434  67.6793021
  67.4401146  18.4420475  68.3673927  68.3062451  18.3907568  67.1268022
  75.6970722  21.4521058  66.0609794  76.1631174  22.2849050  65.9870097
  76.1478222  20.9866040  66.7655053  73.7646953  27.7964879  63.0595946
  74.0406797  27.6821474  63.9689821  72.8951452  27.3982364  63.0208120
  73.6687384  13.8201645  70.1000696  72.7550464  14.0505872  70.2682903
  74.0980486  13.9040089  70.9514728  73.4393843  22.0091537  72.6000590
  72.7865293  22.2567444  71.9453043  73.8174223  21.1955675  72.2663067
  70.4001017  32.0451230  66.7028760  70.5823411  31.2272886  67.1656512
  71.2234003  32.2618922  66.2653650  70.7343182  30.9719415  63.9643809
  71.2630949  30.4611870  63.3513971  70.9971402  30.6561945  64.8289342
  71.3672586  32.0060251  70.3087925  71.2423726  31.2049991  69.7998871
  72.0251677  32.5006444  69.8201895  73.4307495  29.8069271  71.9367475
  72.4837830  29.6874622  71.8645802  73.7790268  28.9191769  72.0193737
  65.7907068  15.6963410  75.7605717  66.3141470  15.9425707  76.5232026
  65.5719401  16.5283445  75.3408854  70.4353928  29.6021987  68.1371827
  70.2878890  28.6738695  68.3179397  71.2607421  29.6242078  67.6528903
  64.3016172  18.2540054  63.9952320  64.6412245  18.7825976  63.2730928
  64.7488293  18.5920461  64.7710886  74.0388050  30.4250546  69.2236700
  74.9634597  30.2193407  69.0861151  73.8703353  30.1766947  70.1326042
  66.9959613  16.6377105  73.4455388  66.6556433  15.8384918  73.8476067
  66.2898619  16.9378816  72.8732221  67.6476085  13.7226418  71.8982711
  68.4702154  13.2486896  71.7761601  67.8914148  14.5016901  72.3981397
  66.2884319  16.7514676  62.1945612  67.0092682  17.1295929  61.6909329
  65.6649623  17.4703553  62.2980590  70.4315442  17.4559825  63.1303945
  70.6479057  18.3384463  62.8292773  69.9509509  17.0646038  62.4009587
  67.0311046  17.4048086  69.7555579  67.0172615  16.5089179  69.4187877
  67.7483475  17.4118750  70.3893865  68.8837177  17.8385426  71.8008706
  68.6254955  18.7602497  71.7993037  68.3522218  17.4415861  72.4909170
  73.8283366  30.9436213  64.5798792  74.0020243  30.3782636  63.8272644
  74.3212257  31.7437108  64.3978282  66.4347942  16.2862466  65.0243149
  66.5563854  15.3579113  65.2234036  66.1449985  16.3001152  64.1121464
  69.3039133  13.9717377  68.1609869  69.3260830  14.0356710  67.2061848
  69.7207192  13.1321886  68.3550375  79.6822757  23.7072636  66.1989091
  80.1253903  22.9579962  65.8008215  78.8049267  23.6982773  65.8162823
  74.8158538  30.2602978  61.6795690  75.5109443  30.8809671  61.8983004
  75.1581689  29.4098329  61.9548068  76.7149962  27.7102683  63.2083021
  77.2401286  28.0489956  62.4832341  76.6272314  26.7749699  63.0246155
  68.3990622  33.7774667  67.5678274  67.9595613  33.2851045  68.2611131
  69.1498739  33.2347634  67.3270349  65.9189022  17.7994464  79.2333082
  65.9677177  18.6756587  78.8510851  66.4611536  17.2571857  78.6604725
  76.4043868  28.3435587  78.5134219  75.6139411  28.3259726  77.9738718
  76.1677222  28.8823881  79.2683255  76.5241743  25.1928053  75.8266947
  76.5739748  25.0278061  76.7682470  76.4155666  24.3255312  75.4364828
  65.4078001  27.8716599  63.1159036  65.5566122  28.5552064  62.4625709
  66.2144445  27.8521689  63.6308492  73.8145505  21.1758981  77.1426254
  74.7155368  21.0365446  76.8510252  73.8893480  21.3413436  78.0824431
  68.1488310  18.5525836  75.9879440  67.2791620  18.8459402  75.7162029
  68.3847791  19.1366281  76.7086704  78.0259939  27.6124995  76.0708969
  77.7344748  27.9754975  76.9072430  77.4132071  26.8992003  75.8922301
  79.2255622  25.1777875  68.5911539  80.0602513  25.6167679  68.7549099
  79.3614751  24.7016528  67.7719785  76.2747128  22.7357610  74.5389027
  76.7501249  22.9285256  73.7307878  75.3512693  22.7916795  74.2932410
  70.8527344  14.7705453  73.5044861  71.3709288  15.5066480  73.1791349
  70.4982477  15.0769446  74.3391620  62.4326282  19.6310134  61.6206266
  61.7395527  19.7054489  60.9646302  62.1878034  18.8670478  62.1427783
  71.1039938  11.1905736  69.0245757  71.3841692  10.5228925  69.6506184
  71.8890545  11.3834831  68.5120421  68.9073407  30.3664730  60.5870783
  68.3347374  30.9854917  60.1341255  69.4806201  30.9164091  61.1210705
  74.9748797  19.6123370  72.7717332  75.9266220  19.7121467  72.7929556
  74.8052247  18.8201638  73.2815417  72.9963176  16.6978953  72.9576733
  72.4013108  16.9783966  72.2623222  72.7112873  17.1872854  73.7293474
  72.1270667  30.6501880  61.7179366  73.0601340  30.5847441  61.9212241
  72.0393879  31.4858147  61.2593898  74.7558683  29.9667750  58.6783313
  74.6772315  29.6327614  59.5719071  75.5768350  30.4589518  58.6774786
  77.4536874  22.8329489  71.8859632  77.4213195  21.8945490  72.0719316
  78.0637498  22.9113526  71.1525457  69.2920205  21.7025542  57.9286836
  70.2379310  21.5731750  57.9975254  68.9134450  20.9640204  58.4056264
  77.6031363  19.6240533  71.9317915  77.0870412  18.8398989  71.7447844
  78.4871311  19.2959249  72.0964435  75.2642090  13.3681548  67.8913728
  75.0666911  13.0596637  68.7757060  75.8741795  14.0943187  68.0211658
  83.2713424  23.8945496  71.0265669  84.0016813  23.6330784  71.5873372
  82.6620370  23.1574218  71.0667737  81.3528721  22.0353359  71.6240120
  80.6261885  21.9009324  71.0156611  80.9376008  22.3430187  72.4296838
  67.4763122  19.6275519  57.8641721  66.5694578  19.3308631  57.9404435
  67.7539104  19.3305337  56.9976007  69.0925188  14.1712408  64.0185962
  68.2825917  13.8259493  64.3941209  69.7809605  13.8619952  64.6073574
  71.0215737  13.2490455  65.6410259  71.5746775  13.6685909  66.3000282
  71.2585823  12.3226203  65.6833215  66.2461907  16.4862454  58.0053700
  67.1081071  16.8117352  58.2649518  66.4312251  15.6993950  57.4926766
  74.3994544  15.3590980  65.1488923  73.8193213  16.0175784  64.7666976
  74.1330476  14.5368325  64.7376341  72.8498110  14.7596038  67.3510244
  73.3497888  14.8712573  66.5424563  73.4933718  14.4557091  67.9911052
  73.1819422  17.5191071  64.2045272  72.2945277  17.8040721  63.9865466
  73.5973411  17.3584834  63.3572549  76.5333958  17.5437592  67.9199611
  77.3094348  18.0334044  68.1924228  75.8082092  17.9695646  68.3771480
  78.9706516  18.2565211  68.9773551  79.5651007  18.0160947  68.2666860
  79.0433100  17.5372342  69.6047088  72.3262635  27.2835745  58.2993292
  73.0298485  27.4885748  58.9150947  71.6025284  27.8512507  58.5642375
  73.1560445  23.0345607  64.4195562  73.0995647  23.4914158  63.5803194
  73.7088788  22.2736291  64.2418405  76.9665251  18.8235339  65.2445681
  76.7102186  18.4231974  66.0753889  76.3418119  19.5379133  65.1195820
  81.2777589  21.5631412  67.7516973  80.7177147  21.6324601  68.5248535
  80.6721092  21.3872396  67.0316469  74.2349332  27.7218275  60.3491752
  75.0694936  27.2899473  60.1669226  74.0733675  27.5500288  61.2768646
  73.8895225  24.2250388  61.7148091  73.8344028  24.0594659  60.7736535
  73.2641280  24.9326421  61.8710281  67.1991350  13.7258497  61.2933409
  67.1870020  14.6700337  61.4501680  68.0914772  13.5428642  60.9992871
  71.0143470  10.3201274  65.5479346  70.2475865   9.7659760  65.6936029
  71.4254175  10.3923142  66.4093498  63.0185231  16.6086069  79.6384527
  63.8816692  16.2522874  79.8487852  62.4450641  16.2699964  80.3259932
  80.1543097  39.3450206  76.3394659  80.1431738  38.9503004  75.4675162
  80.3163736  38.6116278  76.9328430  82.4174876  35.9639380  67.5200136
  83.2037965  35.5458803  67.1690553  82.6813580  36.8685472  67.6881785
  87.8183303  35.9014613  68.4233115  88.5508475  35.3313830  68.6570944
  87.0622659  35.5136213  68.8639621  85.3408724  29.6136187  72.8827724
  85.0092048  30.4831598  72.6588939  84.7454337  29.2972471  73.5621754
  79.0764910  33.3531754  60.6157806  79.2439312  34.2211990  60.9828277
  78.8862079  33.5159036  59.6919095  85.2337387  34.3331273  69.9621074
  84.3254264  34.2646682  69.6679835  85.1824983  34.8103218  70.7902899
  87.0999033  32.5347711  71.7398948  86.4573414  32.8280245  71.0938742
  86.5953962  32.4200632  72.5452144  84.7539197  36.2810885  62.4284807
  85.6657053  36.5138271  62.2532504  84.2448844  36.8647929  61.8659885
  83.0379965  40.7035513  76.0646099  83.4463321  40.2617923  75.3200732
  82.3157226  40.1288140  76.3180292  79.3911035  35.6408119  73.4379656
  80.2372230  36.0647533  73.5814305  79.3309672  34.9841744  74.1318219
  82.5410480  33.3012488  75.0960830  82.2971412  34.0554548  74.5595106
  82.8170410  33.6797835  75.9308077  84.4948943  39.8451100  73.7738096
  84.7065838  40.4882860  73.0972477  84.4478691  39.0113417  73.3060026
  82.0975172  32.4568921  70.6774668  81.2359651  32.7550174  70.9691405
  82.1237606  32.6739320  69.7455700  85.6094771  42.7223055  71.9460453
  86.4312214  42.3203243  71.6643135  85.6057174  42.6191290  72.8976569
  93.7000764  39.0661804  68.2945424  92.9464472  38.4969202  68.1389429
  93.8348305  39.0324468  69.2416059  78.4934692  31.4324665  78.2234755
  79.2344406  32.0331818  78.1439218  78.7252615  30.6902303  77.6652798
  82.8149106  44.8401573  76.1281887  82.7967582  45.6610454  75.6362156
  83.7369026  44.7155648  76.3532028  82.4391855  27.4605768  72.4999037
  82.0956125  28.3507410  72.4238148  82.8070818  27.2707426  71.6368622
  82.4042138  37.4514379  61.0071472  81.8888762  38.2218984  61.2459860
  82.1319447  36.7779515  61.6304534  79.9889249  32.2964080  66.0656711
  79.1330845  31.9070930  65.8862349  80.4016201  32.3756041  65.2056496
  81.5188396  29.8310423  70.4648270  81.0153191  29.7940558  69.6516076
  81.8119003  30.7403166  70.5244927  77.7631282  29.9149153  69.4714452
  78.6284278  29.7191962  69.1120342  77.8308791  29.6859505  70.3983809
  87.3776412  40.2046734  62.9424646  86.6005855  39.8657893  62.4979808
  88.0567893  40.2099357  62.2679611  82.1928441  35.3241471  62.8331253
  81.8878577  35.6387620  63.6841397  83.1458883  35.4022891  62.8758586
  85.6167719  39.6780715  69.5991254  84.9591394  40.3679976  69.6871382
  86.4208118  40.0677147  69.9425240  75.3693601  32.1451361  66.8430819
  75.9437353  31.9226542  66.1104012  75.9564583  32.2140055  67.5959420
  84.4273178  38.0325088  67.6495195  84.9405060  38.6655080  68.1516905
  85.0774402  37.4326283  67.2838556  75.6963188  34.1755822  60.8626704
  74.8600500  34.5130508  61.1835979  75.5567957  34.0404802  59.9253841
  77.6716268  29.0192610  65.5705888  77.0180681  28.7041627  64.9462503
  77.6296743  28.3968350  66.2965711  84.1367894  33.9423075  67.0075006
  83.3990650  33.4300461  67.3385248  84.3894667  33.5023457  66.1958282
  84.2379521  26.7199327  67.6016775  84.5438398  25.8596691  67.3142690
  84.9632126  27.3116947  67.4015769  82.0467172  36.0972005  74.6998239
  82.4016560  36.3243478  75.5592704  82.6939304  36.4290381  74.0775494
  87.7764909  39.2190440  65.4047568  87.6382808  39.4092036  64.4768757
  87.4201128  39.9809823  65.8615619  75.9407035  33.2048536  71.4844580
  76.5806415  33.0637295  70.7867543  75.1084566  32.9183049  71.1083182
  87.8034289  41.2866967  70.4158839  88.2370796  41.1942257  71.2641893
  88.5165870  41.2624468  69.7778855  88.6649838  41.3290668  72.9491725
  88.8585729  42.2336479  73.1951000  88.5650457  40.8698087  73.7830310
  80.3186149  31.2148559  75.4482052  79.6714064  31.9138508  75.3546528
  81.0887165  31.6484703  75.8158300  83.7264947  41.4797411  78.5232605
  83.5750454  41.2507963  77.6062689  83.7169627  42.4368012  78.5363950
  83.7803022  39.8017625  58.9403307  83.1632193  39.0764453  58.8436359
  83.3119511  40.5626985  58.5970381  85.4357154  44.5116533  76.6009087
  85.3769700  43.8275754  75.9339670  85.8376672  45.2535523  76.1489713
  75.5701568  34.0203049  58.0624611  74.6931034  33.8991850  57.6986858
  76.0459321  33.2289128  57.8103500  85.4374561  42.4756117  74.8323067
  84.5501340  42.1382039  74.9549466  86.0073112  41.7439149  75.0691832
  82.0662144  32.1823969  67.9521337  82.5630844  31.4293932  67.6322407
  81.2949126  32.2188286  67.3864546  89.9191902  37.8864335  69.5939628
  89.9081778  38.7689050  69.2233562  89.0509281  37.5335886  69.3994165
  86.5364476  36.7812976  66.0609794  87.0024928  37.6140967  65.9870097
  86.9871977  36.3157957  66.7655053  84.5081139  29.1493563  70.1000696
  83.5944219  29.3797790  70.2682903  84.9374240  29.2332007  70.9514728
  84.2787597  37.3383455  72.6000590  83.6259048  37.5859362  71.9453043
  84.6567977  36.5247593  72.2663067  74.0462447  31.7345343  73.9246128
  74.1103773  32.5960174  73.5123525  73.9829567  31.1219345  73.1918486
  73.8274509  33.6900901  69.4865065  73.1061095  34.3036869  69.3472539
  74.6167765  34.2258666  69.4081711  76.6300822  31.0255328  75.7605717
  77.1535224  31.2717624  76.5232026  76.4113156  31.8575362  75.3408854
  72.0268103  33.2959002  63.6276842  71.6980810  32.4156381  63.4451948
  72.3807474  33.2406671  64.5153231  77.8353367  31.9669023  73.4455388
  77.4950188  31.1676836  73.8476067  77.1292374  32.2670734  72.8732221
  78.4869839  29.0518335  71.8982711  79.3095909  28.5778813  71.7761601
  78.7307903  29.8308819  72.3981397  77.1278074  32.0806594  62.1945612
  77.8486436  32.4587846  61.6909329  76.5043378  32.7995470  62.2980590
  81.2709197  32.7851743  63.1303945  81.4872811  33.6676380  62.8292773
  80.7903264  32.3937956  62.4009587  77.8704801  32.7340004  69.7555579
  77.8566370  31.8381097  69.4187877  78.5877229  32.7410668  70.3893865
  79.7230932  33.1677344  71.8008706  79.4648709  34.0894415  71.7993037
  79.1915972  32.7707779  72.4909170  77.2741697  31.6154384  65.0243149
  77.3957608  30.6871030  65.2234036  76.9843739  31.6293070  64.1121464
  80.1432887  29.3009295  68.1609869  80.1654584  29.3648628  67.2061848
  80.5600946  28.4613803  68.3550375  90.5216512  39.0364554  66.1989091
  90.9647658  38.2871879  65.8008215  89.6443022  39.0274690  65.8162823
  87.2437622  43.6727505  78.5134219  86.4533166  43.6551644  77.9738718
  87.0070977  44.2115798  79.2683255  87.3635497  40.5219971  75.8266947
  87.4133502  40.3569979  76.7682470  87.2549420  39.6547230  75.4364828
  84.6539260  36.5050899  77.1426254  85.5549122  36.3657364  76.8510252
  84.7287234  36.6705354  78.0824431  88.8653694  42.9416913  76.0708969
  88.5738502  43.3046893  76.9072430  88.2525825  42.2283921  75.8922301
  90.0649376  40.5069792  68.5911539  90.8996268  40.9459596  68.7549099
  90.2008505  40.0308446  67.7719785  87.1140882  38.0649527  74.5389027
  87.5895004  38.2577174  73.7307878  86.1906448  38.1208713  74.2932410
  81.6921099  30.0997371  73.5044861  82.2103043  30.8358398  73.1791349
  81.3376231  30.4061364  74.3391620  81.9433693  26.5197653  69.0245757
  82.2235447  25.8520842  69.6506184  82.7284300  26.7126749  68.5120421
  85.8142551  34.9415287  72.7717332  86.7659974  35.0413385  72.7929556
  85.6446002  34.1493556  73.2815417  83.8356931  32.0270871  72.9576733
  83.2406863  32.3075883  72.2623222  83.5506627  32.5164771  73.7293474
  85.5952438  45.2959668  58.6783313  85.5166069  44.9619531  59.5719071
  86.4162105  45.7881436  58.6774786  88.2930629  38.1621407  71.8859632
  88.2606949  37.2237408  72.0719316  88.9031253  38.2405444  71.1525457
  88.4425117  34.9532450  71.9317915  87.9264166  34.1690907  71.7447844
  89.3265066  34.6251167  72.0964435  86.1035844  28.6973466  67.8913728
  85.9060666  28.3888554  68.7757060  86.7135550  29.4235105  68.0211658
  94.1107179  39.2237414  71.0265669  94.8410567  38.9622702  71.5873372
  93.5014124  38.4866136  71.0667737  92.1922476  37.3645276  71.6240120
  91.4655640  37.2301241  71.0156611  91.7769763  37.6722105  72.4296838
  79.9318943  29.5004326  64.0185962  79.1219671  29.1551411  64.3941209
  80.6203360  29.1911870  64.6073574  81.8609491  28.5782373  65.6410259
  82.4140530  28.9977826  66.3000282  82.0979577  27.6518121  65.6833215
  77.0855662  31.8154372  58.0053700  77.9474826  32.1409270  58.2649518
  77.2706006  31.0285868  57.4926766  85.2388298  30.6882898  65.1488923
  84.6586967  31.3467702  64.7666976  84.9724231  29.8660243  64.7376341
  83.6891864  30.0887956  67.3510244  84.1891643  30.2004490  66.5424563
  84.3327472  29.7849009  67.9911052  84.0213176  32.8482988  64.2045272
  83.1339031  33.1332639  63.9865466  84.4367165  32.6876752  63.3572549
  87.3727712  32.8729509  67.9199611  88.1488102  33.3625962  68.1924228
  86.6475846  33.2987564  68.3771480  89.8100271  33.5857129  68.9773551
  90.4044762  33.3452865  68.2666860  89.8826855  32.8664259  69.6047088
  83.1656390  42.6127663  58.2993292  83.8692240  42.8177666  58.9150947
  82.4419038  43.1804425  58.5642375  83.9954200  38.3637524  64.4195562
  83.9389401  38.8206076  63.5803194  84.5482542  37.6028209  64.2418405
  87.8059006  34.1527256  65.2445681  87.5495940  33.7523892  66.0753889
  87.1811874  34.8671050  65.1195820  92.1171344  36.8923329  67.7516973
  91.5570902  36.9616519  68.5248535  91.5114847  36.7164314  67.0316469
  85.0743087  43.0510192  60.3491752  85.9088691  42.6191391  60.1669226
  84.9127430  42.8792206  61.2768646  84.7288979  39.5542306  61.7148091
  84.6737783  39.3886577  60.7736535  84.1035034  40.2618339  61.8710281
  78.0385105  29.0550415  61.2933409  78.0263774  29.9992255  61.4501680
  78.9308526  28.8720560  60.9992871  81.8537224  25.6493191  65.5479346
  81.0869620  25.0951678  65.6936029  82.2647929  25.7215060  66.4093498
  90.9936851  54.6742123  76.3394659  90.9825492  54.2794922  75.4675162
  91.1557491  53.9408196  76.9328430  87.7144112  57.4579235  75.2873843
  87.4233978  58.3624866  75.1720509  88.3501097  57.4995763  76.0017912
  88.6400319  54.8356084  71.8775202  89.2363892  54.6112106  71.1632165
  88.6975291  54.0940829  72.4800650  98.6577058  51.2306530  68.4233115
  99.3902230  50.6605747  68.6570944  97.9016413  50.8428131  68.8639621
  96.1802478  44.9428105  72.8827724  95.8485803  45.8123516  72.6588939
  95.5848091  44.6264389  73.5621754  96.0731141  49.6623191  69.9621074
  95.1648019  49.5938599  69.6679835  96.0218737  50.1395136  70.7902899
  90.1472007  51.0812836  77.9055971  89.3705341  51.6406756  77.8958836
  90.7862570  51.5669619  78.4270841  97.9392788  47.8639629  71.7398948
  97.2967168  48.1572162  71.0938742  97.4347716  47.7492549  72.5452144
  88.4018379  53.8898290  77.4673938  89.1433064  54.4283334  77.1908761
  87.6955365  54.5164578  77.6245490  93.8773719  56.0327430  76.0646099
  94.2857075  55.5909841  75.3200732  93.1550981  55.4580058  76.3180292
  90.2304789  50.9700037  73.4379656  91.0765984  51.3939451  73.5814305
  90.1703427  50.3133661  74.1318219  94.2002534  56.5928621  69.8198388
  93.5711396  56.7574335  69.1174456  93.8128196  57.0070230  70.5909352
  98.0791766  57.5283059  67.1742752  97.3942804  57.9081960  66.6239785
  98.1635615  58.1378385  67.9074700  93.3804234  48.6304405  75.0960830
  93.1365166  49.3846466  74.5595106  93.6564165  49.0089753  75.9308077
  95.3342697  55.1743018  73.7738096  95.5459592  55.8174778  73.0972477
  95.2872445  54.3405334  73.3060026  92.9368926  47.7860838  70.6774668
  92.0753405  48.0842092  70.9691405  92.9631361  48.0031237  69.7455700
  96.4488525  58.0514973  71.9460453  97.2705969  57.6495160  71.6643135
  96.4450928  57.9483207  72.8976569  90.2145129  57.5999016  74.1021163
  90.2789561  58.0619424  74.9379335  89.5056053  56.9696381  74.2303473
 104.5394518  54.3953722  68.2945424 103.7858227  53.8261120  68.1389429
 104.6742059  54.3616386  69.2416059  86.4160486  45.3458704  80.6314499
  86.0227431  44.7924902  81.3062143  87.2326626  45.6569282  81.0221016
  89.3328447  46.7616583  78.2234755  90.0738160  47.3623736  78.1439218
  89.5646370  46.0194221  77.6652798  91.5561623  59.8890690  78.1000486
  91.1125477  59.1027069  77.7821390  92.2178836  60.0769841  77.4344377
  86.3148744  61.4186492  72.6261164  86.8656169  61.2903555  71.8538158
  85.4760220  61.7181381  72.2756057  93.6542861  60.1693490  76.1281887
  93.6361336  60.9902371  75.6362156  94.5762781  60.0447566  76.3532028
  90.1115915  57.6837620  76.9705395  90.6444252  56.9225908  76.7404703
  89.5829996  57.3911272  77.7129550  93.2785610  42.7897686  72.4999037
  92.9349879  43.6799327  72.4238148  93.6464572  42.5999343  71.6368622
  92.3582150  45.1602341  70.4648270  91.8546946  45.1232476  69.6516076
  92.6512757  46.0695084  70.5244927  98.2170167  55.5338652  62.9424646
  97.4399609  55.1949811  62.4979808  98.8961648  55.5391275  62.2679611
  96.4561474  55.0072633  69.5991254  95.7985148  55.6971894  69.6871382
  97.2601873  55.3969065  69.9425240  95.2666932  53.3617005  67.6495195
  95.7798814  53.9946997  68.1516905  95.9168156  52.7618201  67.2838556
  94.9761648  49.2714993  67.0075006  94.2384405  48.7592379  67.3385248
  95.2288422  48.8315375  66.1958282  95.0773275  42.0491245  67.6016775
  95.3832152  41.1888608  67.3142690  95.8025880  42.6408865  67.4015769
  92.8860927  51.4263922  74.6998239  93.2410315  51.6535395  75.5592704
  93.5333058  51.7582299  74.0775494  98.6158664  54.5482358  65.4047568
  98.4776562  54.7383954  64.4768757  98.2594883  55.3101741  65.8615619
  98.6428043  56.6158885  70.4158839  99.0764550  56.5234174  71.2641893
  99.3559624  56.5916386  69.7778855  92.3755938  60.2160979  71.9491940
  92.4292961  60.7851916  72.7169656  91.5070720  60.3862864  71.5845977
  85.2554332  49.9178535  73.4316391  85.9277385  49.7095898  72.7829040
  84.4284118  49.7200621  72.9921623  99.5043593  56.6582586  72.9491725
  99.6979483  57.5628396  73.1951000  99.4044211  56.1990005  73.7830310
  91.1579904  46.5440476  75.4482052  90.5107819  47.2430426  75.3546528
  91.9280919  46.9776620  75.8158300  94.5658702  56.8089329  78.5232605
  94.4144208  56.5799880  77.6062689  94.5563381  57.7659930  78.5363950
  91.3344038  54.3821241  73.5078872  92.2636098  54.5332401  73.3347839
  90.9135068  54.4705262  72.6527518  90.1332370  58.4071906  71.2777409
  89.9943456  58.0390690  72.1503347  89.3446966  58.9219545  71.1061367
  85.6581829  53.1921138  74.1918828  85.5201627  52.4601377  74.7930367
  86.5686752  53.1030039  73.9103016  88.2864130  52.9041098  73.6802508
  88.9963748  52.2634290  73.6389126  88.2433438  53.1553993  74.6028689
  96.2750908  59.8408451  76.6009087  96.2163454  59.1567671  75.9339670
  96.6770427  60.5827441  76.1489713  86.9993064  49.8906316  75.4998147
  86.4630421  49.4397054  76.1519744  86.4109772  50.0252224  74.7568612
  96.2768316  57.8048035  74.8323067  95.3895094  57.4673957  74.9549466
  96.8466867  57.0731066  75.0691832 100.7585656  53.2156252  69.5939628
 100.7475532  54.0980968  69.2233562  99.8903036  52.8627803  69.3994165
  93.9885679  56.2687574  65.5259760  93.0541958  56.3889037  65.3564465
  94.1662348  55.3660041  65.2619770  97.3758231  52.1104893  66.0609794
  97.8418683  52.9432885  65.9870097  97.8265731  51.6449875  66.7655053
  87.3180066  60.1130765  74.7748039  88.0189525  60.7467248  74.9277434
  86.8475181  60.4545496  74.0143679  95.4434462  58.4548715  63.0595946
  95.7194306  58.3405309  63.9689821  94.5738961  58.0566200  63.0208120
  95.3474893  44.4785480  70.1000696  94.4337973  44.7089707  70.2682903
  95.7767995  44.5623924  70.9514728  95.1181352  52.6675372  72.6000590
  94.4652802  52.9151280  71.9453043  95.4961732  51.8539511  72.2663067
  91.1668925  53.4095183  79.0866627  90.4909562  53.3089313  79.7569002
  91.9896559  53.2534397  79.5502624  84.8856201  47.0637261  73.9246128
  84.9497528  47.9252092  73.5123525  84.8223321  46.4511262  73.1918486
  94.7602582  59.5423368  79.1772897  95.3042486  60.1553327  78.6827852
  94.1789427  60.1002947  79.6939910  95.1095004  60.4653106  71.9367475
  94.1625339  60.3458458  71.8645802  95.4577777  59.5775604  72.0193737
  87.4694577  46.3547245  75.7605717  87.9928979  46.6009542  76.5232026
  87.2506910  47.1867280  75.3408854  95.7175559  61.0834381  69.2236700
  96.6422106  60.8777243  69.0861151  95.5490862  60.8350783  70.1326042
  88.6747122  47.2960940  73.4455388  88.3343942  46.4968754  73.8476067
  87.9686128  47.5962651  72.8732221  89.3263594  44.3810253  71.8982711
  90.1489663  43.9070731  71.7761601  89.5701657  45.1600737  72.3981397
  90.5624686  48.4969262  71.8008706  90.3042464  49.4186332  71.7993037
  90.0309726  48.0999696  72.4909170 101.3610266  54.3656472  66.1989091
 101.8041412  53.6163797  65.8008215 100.4836776  54.3566608  65.8162823
  98.3937470  58.3686519  63.2083021  98.9188795  58.7073792  62.4832341
  98.3059823  57.4333534  63.0246155  90.0557519  62.2820592  75.3372897
  90.3644646  62.0369739  76.2095597  90.8533001  62.4867231  74.8491767
  87.5976531  48.4578299  79.2333082  87.6464686  49.3340422  78.8510851
  88.1399045  47.9155692  78.6604725  98.0831377  59.0019422  78.5134219
  97.2926920  58.9843561  77.9738718  97.8464731  59.5407716  79.2683255
  98.2029252  55.8511889  75.8266947  98.2527257  55.6861896  76.7682470
  98.0943175  54.9839148  75.4364828  95.4933014  51.8342817  77.1426254
  96.3942877  51.6949282  76.8510252  95.5680989  51.9997272  78.0824431
  89.8275819  49.2109672  75.9879440  88.9579129  49.5043238  75.7162029
  90.0635300  49.7950117  76.7086704  99.7047448  58.2708830  76.0708969
  99.4132257  58.6338811  76.9072430  99.0919580  57.5575839  75.8922301
 100.9043131  55.8361710  68.5911539 101.7390022  56.2751514  68.7549099
 101.0402260  55.3600363  67.7719785  97.9534637  53.3941445  74.5389027
  98.4288758  53.5869091  73.7307878  97.0300202  53.4500631  74.2932410
  92.5314853  45.4289288  73.5044861  93.0496797  46.1650315  73.1791349
  92.1769986  45.7353282  74.3391620  92.7827447  41.8489571  69.0245757
  93.0629201  41.1812760  69.6506184  93.5678054  42.0418667  68.5120421
  96.6536306  50.2707205  72.7717332  97.6053729  50.3705303  72.7929556
  96.4839756  49.4785474  73.2815417  94.6750685  47.3562788  72.9576733
  94.0800617  47.6367801  72.2623222  94.3900382  47.8456689  73.7293474
  99.1324383  53.4913325  71.8859632  99.1000704  52.5529325  72.0719316
  99.7425007  53.5697361  71.1525457  99.2818872  50.2824368  71.9317915
  98.7657921  49.4982825  71.7447844 100.1658820  49.9543085  72.0964435
  96.9429599  44.0265384  67.8913728  96.7454420  43.7180472  68.7757060
  97.5529304  44.7527023  68.0211658 104.9500933  54.5529332  71.0265669
 105.6804322  54.2914620  71.5873372 104.3407879  53.8158053  71.0667737
 103.0316230  52.6937194  71.6240120 102.3049394  52.5593159  71.0156611
 102.6163517  53.0014023  72.4296838  88.7236345  49.8961364  81.4213023
  88.6233072  50.8455721  81.3525114  88.5057887  49.5679603  80.5489093
  96.0782053  46.0174816  65.1488923  95.4980722  46.6759620  64.7666976
  95.8117985  45.1952160  64.7376341  94.5285619  45.4179873  67.3510244
  95.0285397  45.5296408  66.5424563  95.1721227  45.1140926  67.9911052
  94.8606931  48.1774906  64.2045272  93.9732786  48.4624557  63.9865466
  95.2760920  48.0168669  63.3572549  98.2121467  48.2021427  67.9199611
  98.9881857  48.6917880  68.1924228  97.4869601  48.6279481  68.3771480
 100.6494025  48.9149046  68.9773551 101.2438516  48.6744782  68.2666860
 100.7220609  48.1956177  69.6047088  94.8347954  53.6929442  64.4195562
  94.7783156  54.1497993  63.5803194  95.3876297  52.9320127  64.2418405
  98.6452760  49.4819174  65.2445681  98.3889694  49.0815810  66.0753889
  98.0205628  50.1962968  65.1195820 102.9565098  52.2215247  67.7516973
 102.3964656  52.2908436  68.5248535 102.3508601  52.0456232  67.0316469
  95.9136841  58.3802110  60.3491752  96.7482445  57.9483308  60.1669226
  95.7521184  58.2084124  61.2768646  92.8828641  57.1883135  81.0401654
  93.7519800  57.3623787  80.6788289  92.4035392  58.0077552  80.9177383
  92.6930979  40.9785109  65.5479346  91.9263374  40.4243596  65.6936029
  93.1041684  41.0506978  66.4093498 104.5421117  68.8971761  70.4446928
 105.1799527  68.7778508  69.7410268 104.4241959  69.8452605  70.5034881
 101.8330606  70.0034041  76.3394659 101.8219247  69.6086839  75.4675162
 101.9951245  69.2700114  76.9328430 109.4970812  66.5598448  68.4233115
 110.2295984  65.9897665  68.6570944 108.7410168  66.1720049  68.8639621
 107.0196233  60.2720022  72.8827724 106.6879557  61.1415433  72.6588939
 106.4241846  59.9556306  73.5621754 106.9124896  64.9915108  69.9621074
 106.0041773  64.9230517  69.6679835 106.8612492  65.4687053  70.7902899
 100.9865762  66.4104754  77.9055971 100.2099096  66.9698674  77.8958836
 101.6256325  66.8961537  78.4270841 108.7786542  63.1931547  71.7398948
 108.1360922  63.4864080  71.0938742 108.2741471  63.0784467  72.5452144
  99.2412134  69.2190207  77.4673938  99.9826818  69.7575251  77.1908761
  98.5349119  69.8456496  77.6245490 104.7167474  71.3619348  76.0646099
 105.1250830  70.9201758  75.3200732 103.9944735  70.7871975  76.3180292
 105.0396288  71.9220538  69.8198388 104.4105151  72.0866253  69.1174456
 104.6521950  72.3362148  70.5909352 104.2197989  63.9596323  75.0960830
 103.9758921  64.7138384  74.5595106 104.4957919  64.3381671  75.9308077
 106.1736452  70.5034935  73.7738096 106.3853347  71.1466695  73.0972477
 106.1266200  69.6697252  73.3060026 103.7762681  63.1152756  70.6774668
 102.9147160  63.4134010  70.9691405 103.8025115  63.3323155  69.7455700
  97.2554240  60.6750621  80.6314499  96.8621186  60.1216820  81.3062143
  98.0720381  60.9861200  81.0221016 100.1722201  62.0908500  78.2234755
 100.9131915  62.6915654  78.1439218 100.4040124  61.3486138  77.6652798
 104.1179364  58.1189603  72.4999037 103.7743634  59.0091245  72.4238148
 104.4858327  57.9291261  71.6368622 101.6676758  62.9547915  66.0656711
 100.8118354  62.5654766  65.8862349 102.0803710  63.0339876  65.2056496
 103.1975905  60.4894259  70.4648270 102.6940700  60.4524394  69.6516076
 103.4906512  61.3987001  70.5244927  99.4418791  60.5732988  69.4714452
 100.3071787  60.3775797  69.1120342  99.5096300  60.3443340  70.3983809
  99.3503777  59.6776445  65.5705888  98.6968190  59.3625462  64.9462503
  99.3084252  59.0552186  66.2965711 102.5841518  66.1658379  69.8953536
 101.6664079  66.3873326  69.7375224 103.0001661  66.2404689  69.0365243
 105.9167030  57.3783163  67.6016775 106.2225907  56.5180526  67.3142690
 106.6419635  57.9700783  67.4015769 101.9973658  61.8732394  75.4482052
 101.3501573  62.5722344  75.3546528 102.7674674  62.3068538  75.8158300
 105.4052456  72.1381246  78.5232605 105.2537963  71.9091798  77.6062689
 105.3957136  73.0951848  78.5363950 103.7449653  62.8407805  67.9521337
 104.2418353  62.0877767  67.6322407 102.9736635  62.8772121  67.3864546
 106.1868648  59.8077398  70.1000696 105.2731728  60.0381625  70.2682903
 106.6161749  59.8915842  70.9514728 105.9575106  67.9967290  72.6000590
 105.3046557  68.2443197  71.9453043 106.3355486  67.1831428  72.2663067
 102.0062679  68.7387101  79.0866627 101.3303316  68.6381230  79.7569002
 102.8290313  68.5826315  79.5502624 105.5996337  74.8715286  79.1772897
 106.1436241  75.4845244  78.6827852 105.0183182  75.4294864  79.6939910
  98.3088331  61.6839163  75.7605717  98.8322733  61.9301460  76.5232026
  98.0900665  62.5159198  75.3408854 100.1657348  59.7102171  71.8982711
 100.9883418  59.2362649  71.7761601 100.4095412  60.4892654  72.3981397
  99.5492310  63.3923839  69.7555579  99.5353879  62.4964932  69.4187877
 100.2664738  63.3994503  70.3893865 101.4018441  63.8261179  71.8008706
 101.1436218  64.7478250  71.7993037 100.8703481  63.4291614  72.4909170
 101.8220396  59.9593130  68.1609869 101.8442093  60.0232463  67.2061848
 102.2388455  59.1197639  68.3550375  98.4370285  63.7870217  79.2333082
  98.4858441  64.6632340  78.8510851  98.9792800  63.2447610  78.6604725
 108.9225131  74.3311340  78.5134219 108.1320675  74.3135479  77.9738718
 108.6858486  74.8699634  79.2683255 109.0423006  71.1803806  75.8266947
 109.0921011  71.0153814  76.7682470 108.9336929  70.3131065  75.4364828
 106.3326768  67.1634734  77.1426254 107.2336631  67.0241199  76.8510252
 106.4074743  67.3289189  78.0824431 110.5441203  73.6000748  76.0708969
 110.2526011  73.9630729  76.9072430 109.9313334  72.8867756  75.8922301
 108.7928391  68.7233363  74.5389027 109.2682513  68.9161009  73.7307878
 107.8693957  68.7792548  74.2932410 103.3708608  60.7581206  73.5044861
 103.8890552  61.4942233  73.1791349 103.0163740  61.0645199  74.3391620
 103.6221202  57.1781489  69.0245757 103.9022956  56.5104678  69.6506184
 104.4071809  57.3710584  68.5120421 107.4930060  65.5999123  72.7717332
 108.4447483  65.6997220  72.7929556 107.3233511  64.8077391  73.2815417
 105.5144440  62.6854706  72.9576733 104.9194372  62.9659719  72.2623222
 105.2294136  63.1748607  73.7293474 109.9718138  68.8205242  71.8859632
 109.9394458  67.8821243  72.0719316 110.5818762  68.8989279  71.1525457
 110.1212626  65.6116286  71.9317915 109.6051675  64.8274742  71.7447844
 111.0052575  65.2835002  72.0964435 107.7823353  59.3557301  67.8913728
 107.5848174  59.0472390  68.7757060 108.3923059  60.0818940  68.0211658
 115.7894688  69.8821249  71.0265669 116.5198076  69.6206537  71.5873372
 115.1801633  69.1449971  71.0667737 113.8709985  68.0229112  71.6240120
 113.1443149  67.8885077  71.0156611 113.4557272  68.3305940  72.4296838
 101.6940161  71.7419041  79.3887493 102.6143171  71.9197640  79.5827539
 101.6589744  70.7975087  79.2367192 101.6106452  60.1588161  64.0185962
 100.8007180  59.8135246  64.3941209 102.2990869  59.8495705  64.6073574
 103.5397000  59.2366208  65.6410259 104.0928039  59.6561662  66.3000282
 103.7767086  58.3101956  65.6833215  99.5630099  65.2253282  81.4213023
  99.4626826  66.1747639  81.3525114  99.3451641  64.8971521  80.5489093
 106.9175807  61.3466733  65.1488923 106.3374476  62.0051537  64.7666976
 106.6511740  60.5244078  64.7376341 105.3679373  60.7471791  67.3510244
 105.8679152  60.8588326  66.5424563 106.0114981  60.4432844  67.9911052
  99.4261369  68.6550421  80.2378085  98.9428451  69.4550781  80.4441974
  99.5122308  68.6658366  79.2845529 105.7000685  63.5066824  64.2045272
 104.8126540  63.7916474  63.9865466 106.1154674  63.3460587  63.3572549
 109.0515221  63.5313345  67.9199611 109.8275611  64.0209797  68.1924228
 108.3263355  63.9571399  68.3771480 111.4887780  64.2440964  68.9773551
 112.0832271  64.0036700  68.2666860 111.5614364  63.5248095  69.6047088
 113.7958853  67.5507165  67.7516973 113.2358411  67.6200354  68.5248535
 113.1902356  67.3748149  67.0316469 103.7222395  72.5175053  81.0401654
 104.5913555  72.6915705  80.6788289 103.2429147  73.3369470  80.9177383
 103.5324733  56.3077027  65.5479346 102.7657129  55.7535513  65.6936029
 103.9435438  56.3798895  66.4093498  95.5366494  62.5961822  79.6384527
  96.3997956  62.2398627  79.8487852  94.9631905  62.2575717  80.3259932
 109.3342286  94.5668806  65.2494604 109.2566316  95.5176631  65.3283085
 108.7303930  94.2214679  65.9069530 111.8259516  81.7396672  77.9055971
 111.0492850  82.2990592  77.8958836 112.4650079  82.2253455  78.4270841
 110.0805888  84.5482125  77.4673938 110.8220573  85.0867169  77.1908761
 109.3742874  85.1748414  77.6245490 118.1276034  88.7098808  71.9460453
 118.9493478  88.3078996  71.6643135 118.1238437  88.6067043  72.8976569
 111.6080655  89.9250959  63.9700144 111.4726330  90.7702495  64.3984992
 112.1490468  90.1270237  63.2066078 108.0947995  76.0042539  80.6314499
 107.7014940  75.4508738  81.3062143 108.9114135  76.3153118  81.0221016
 106.8704937  90.5592154  66.6250822 107.0471566  91.4810118  66.4371806
 107.6661771  90.2450573  67.0545202 111.0115956  77.4200418  78.2234755
 111.7525669  78.0207571  78.1439218 111.2433879  76.6778056  77.6652798
 113.2349132  90.5474526  78.1000486 112.7912986  89.7610904  77.7821390
 113.8966345  90.7353676  77.4344377 116.1549177  90.8383339  66.7124156
 116.4472151  91.3988396  65.9936522 116.6647797  91.1311900  67.4677315
 111.1182802  91.6163690  67.8017609 111.0758981  91.8424536  66.8726141
 112.0345501  91.3827065  67.9503411 121.1831102  87.3166421  72.9491725
 121.3766992  88.2212232  73.1951000 121.0831720  86.8573840  73.7830310
 116.2446211  87.4673164  78.5232605 116.0931717  87.2383716  77.6062689
 116.2350890  88.4243765  78.5363950 112.4068031  94.1664838  62.6202946
 112.5819786  93.6952881  63.4348568 111.7200819  94.7930604  62.8484207
 117.9538417  90.4992286  76.6009087 117.8950963  89.8151507  75.9339670
 118.3557936  91.2411276  76.1489713 117.9555825  88.4631870  74.8323067
 117.0682603  88.1257792  74.9549466 118.5254376  87.7314902  75.0691832
 111.4856978  93.1233323  71.7984310 111.4127149  93.9288294  72.3103615
 111.0434371  93.3225289  70.9732331 111.2746758  92.3605093  65.3087132
 110.4914279  92.9026773  65.4025356 111.9739503  92.8779072  65.7081373
 113.7576035  93.3618901  66.7028760 113.9398429  92.5440557  67.1656512
 114.5809021  93.5786593  66.2653650 112.8456434  84.0679019  79.0866627
 112.1697071  83.9673148  79.7569002 113.6684068  83.9118232  79.5502624
 107.4473948  93.3402203  66.7241585 106.7784324  93.8248330  66.2405625
 107.3086818  93.5871423  67.6384963 116.4390091  90.2007204  79.1772897
 116.9829995  90.8137162  78.6827852 115.8576936  90.7586782  79.6939910
 113.7928946  90.9189658  68.1371827 113.6453908  89.9906365  68.3179397
 114.6182439  90.9409749  67.6528903 117.3963068  91.7418217  69.2236700
 118.3209615  91.5361078  69.0861151 117.2278371  91.4934618  70.1326042
 111.7565640  95.0942337  67.5678274 111.3170631  94.6018716  68.2611131
 112.5073757  94.5515305  67.3270349 109.2039512  90.6380346  69.6400575
 108.5819522  89.9751052  69.3402803 109.8744379  90.6641478  68.9574223
 119.7618886  89.6603258  78.5134219 118.9714429  89.6427397  77.9738718
 119.5252240  90.1991551  79.2683255 119.8816761  86.5095724  75.8266947
 119.9314766  86.3445732  76.7682470 119.7730684  85.6422983  75.4364828
 117.1720523  82.4926652  77.1426254 118.0730386  82.3533117  76.8510252
 117.2468497  82.6581107  78.0824431 121.3834957  88.9292666  76.0708969
 121.0919766  89.2922646  76.9072430 120.7707089  88.2159674  75.8922301
 119.6322146  84.0525280  74.5389027 120.1076267  84.2452927  73.7307878
 118.7087711  84.1084466  74.2932410 120.8111892  84.1497160  71.8859632
 120.7788213  83.2113161  72.0719316 121.4212516  84.2281197  71.1525457
 110.4023854  80.5545200  81.4213023 110.3020581  81.5039557  81.3525114
 110.1845396  80.2263438  80.5489093 110.4855932  93.7195058  69.3801166
 109.5351563  93.7196920  69.2665538 110.7888418  92.9727793  68.8637201
 126.2208626  99.5555596  70.4446928 126.8587035  99.4362344  69.7410268
 126.1029468 100.5036440  70.5034881 123.0298332  99.5083025  70.3808453
 122.6916843  99.3924089  69.4928988 123.8988100  99.1074190  70.3609459
 118.8885148 101.3618501  66.3705344 118.3250013 101.2708438  65.6021632
 118.7737543 100.5418405  66.8507837 123.5118115 100.6617876  76.3394659
 123.5006756 100.2670675  75.4675162 123.6738754  99.9283949  76.9328430
 124.4684706 105.0289469  61.6819809 123.8172686 105.6143549  61.2953823
 125.2629069 105.5595664  61.7414846 118.3940333 102.1178606  62.0806943
 119.1671209 101.5707593  61.9419819 118.7465732 102.9822855  62.2921405
 121.1581583 100.8231837  71.8775202 121.7545155 100.5987859  71.1632165
 121.2156554 100.0816582  72.4800650 120.7306611  98.2771272  59.7125393
 120.9832132  97.7552793  58.9508856 119.7931170  98.1137417  59.8152077
 125.7749894  97.2807050  67.5200136 126.5612983  96.8626473  67.1690553
 126.0388598  98.1853142  67.6881785 125.9459971 102.7179901  62.2188793
 125.3105804 102.7914527  62.9309698 125.6157378 103.3073499  61.5407872
 131.1758321  97.2182284  68.4233115 131.9083493  96.6481500  68.6570944
 130.4197677  96.8303884  68.8639621 120.4502900 100.1799378  61.9149768
 120.3339158  99.5044281  62.5830852 120.5605160  99.6931752  61.0981921
 122.7934441  99.6409525  65.6196457 122.4292648  99.1140146  66.3309379
 123.6501557  99.2507994  65.4462943 128.6983741  90.9303858  72.8827724
 128.3667066  91.7999269  72.6588939 128.1029355  90.6140142  73.5621754
 122.4339928  94.6699425  60.6157806 122.6014330  95.5379661  60.9828277
 122.2437097  94.8326706  59.6919095 125.1915261 103.1316404  72.2823636
 124.8915984 104.0341442  72.1739444 124.8466321 102.8648587  73.1344789
 128.5912405  95.6498944  69.9621074 127.6829282  95.5814352  69.6679835
 128.5400001  96.1270889  70.7902899 122.4129149  97.1257082  61.6004473
 122.2928774  97.5714133  62.4389953 121.7181737  97.4742400  61.0418011
 120.1736041 109.8960724  65.2494604 120.0960071 110.8468549  65.3283085
 119.5697684 109.5506596  65.9069530 122.6653271  97.0688589  77.9055971
 121.8886605  97.6282510  77.8958836 123.3043834  97.5545372  78.4270841
 130.4574051  93.8515382  71.7398948 129.8148431  94.1447915  71.0938742
 129.9528980  93.7368303  72.5452144 128.1114215  97.5978555  62.4284807
 129.0232071  97.8305942  62.2532504 127.6023862  98.1815600  61.8659885
 126.3954983 102.0203183  76.0646099 126.8038339 101.5785594  75.3200732
 125.6732244 101.4455811  76.3180292 122.7486053  96.9575790  73.4379656
 123.5947248  97.3815204  73.5814305 122.6884690  96.3009414  74.1318219
 126.7183797 102.5804374  69.8198388 126.0892660 102.7450088  69.1174456
 126.3309459 102.9945983  70.5909352 130.5973029 103.5158812  67.1742752
 129.9124067 103.8957713  66.6239785 130.6816878 104.1254138  67.9074700
 125.8985498  94.6180158  75.0960830 125.6546430  95.3722219  74.5595106
 126.1745428  94.9965506  75.9308077 127.8523961 101.1618771  73.7738096
 128.0640856 101.8050531  73.0972477 127.8053709 100.3281087  73.3060026
 125.4550190  93.7736591  70.6774668 124.5934669  94.0717845  70.9691405
 125.4812624  93.9906990  69.7455700 122.2711759 102.3178782  67.0848473
 122.7350105 102.5966485  66.2953096 122.0068557 101.4162226  66.9021564
 121.2080645  98.4401934  63.8938038 121.9104688  98.8922978  64.3611965
 120.8761274  97.7985753  64.5217932 114.9505979  96.6985487  69.1955172
 114.1605033  96.9543015  68.7195283 115.4417226  97.5133825  69.3007213
 128.9669789 104.0390726  71.9460453 129.7887232 103.6370913  71.6643135
 128.9632192 103.9358960  72.8976569 116.9020724  97.0630066  66.1538649
 116.1051888  97.1748760  66.6722144 116.6746317  97.4016718  65.2879539
 137.0575782 100.3829475  68.2945424 136.3039490  99.8136873  68.1389429
 137.1923323 100.3492139  69.2416059 122.4474410 105.2542877  63.9700144
 122.3120085 106.0994413  64.3984992 122.9884222 105.4562155  63.2066078
 118.9341749  91.3334457  80.6314499 118.5408695  90.7800655  81.3062143
 119.7507890  91.6445035  81.0221016 115.9003807 102.7718315  64.5428069
 116.4128328 103.5661565  64.6933633 116.5526520 102.0744605  64.4761670
 121.8509710  92.7492336  78.2234755 122.5919424  93.3499489  78.1439218
 122.0827633  92.0069974  77.6652798 124.0742886 105.8766443  78.1000486
 123.6306740 105.0902822  77.7821390 124.7360100 106.0645594  77.4344377
 126.1724124 106.1569243  76.1281887 126.1542600 106.9778124  75.6362156
 127.0944044 106.0323319  76.3532028 122.6297178 103.6713373  76.9705395
 123.1625515 102.9101661  76.7404703 122.1011259 103.3787025  77.7129550
 125.7966873  88.7773439  72.4999037 125.4531143  89.6675080  72.4238148
 126.1645836  88.5875096  71.6368622 113.8652724 101.1006969  65.3187639
 114.7027946 101.5103978  65.1021347 114.0430992 100.1606411  65.2887833
 125.7617156  98.7682050  61.0071472 125.2463779  99.5386655  61.2459860
 125.4894464  98.0947186  61.6304534 123.3464267  93.6131751  66.0656711
 122.4905863  93.2238601  65.8862349 123.7591219  93.6923711  65.2056496
 121.1206300  91.2316824  69.4714452 121.9859296  91.0359632  69.1120342
 121.1883808  91.0027175  70.3983809 130.7351430 101.5214405  62.9424646
 129.9580873 101.1825564  62.4979808 131.4142911 101.5267028  62.2679611
 125.5503459  96.6409142  62.8331253 125.2453595  96.9555291  63.6841397
 126.5033901  96.7190562  62.8758586 123.9949891 102.7999365  64.4824207
 123.4671253 102.0652125  64.1697445 123.4937394 103.5774042  64.2364176
 128.9742737 100.9948386  69.5991254 128.3166412 101.6847647  69.6871382
 129.7783136 101.3844818  69.9425240 118.7268619  93.4619032  66.8430819
 119.3012371  93.2394213  66.1104012 119.3139601  93.5307726  67.5959420
 127.7848196  99.3492758  67.6495195 128.2980078  99.9822750  68.1516905
 128.4349420  98.7493954  67.2838556 119.0538206  95.4923493  60.8626704
 118.2175518  95.8298179  61.1835979 118.9142975  95.3572472  59.9253841
 122.1402491 100.6179576  57.4859180 121.2329553 100.3868829  57.6850329
 122.6373523  99.8217195  57.6733162 125.0470570 109.3277083  60.4055867
 124.3732269 109.6308780  61.0140824 125.4336392 110.1306163  60.0561324
 124.2629027  96.8242214  69.8953536 123.3451588  97.0457161  69.7375224
 124.6789170  96.8988525  69.0365243 125.0464074  98.2233630  65.0256216
 125.7935893  98.7355027  64.7163338 125.3155664  97.9017682  65.8860610
 123.3190725 100.7192170  62.0083171 122.4101944 100.4351203  62.1055640
 123.3485808 101.1391249  61.1486477 128.5509992 104.3298760  65.7774338
 128.0972319 103.4889670  65.8339529 127.9203959 104.9660158  66.1149118
 127.4942912  95.2590746  67.0075006 126.7565668  94.7468132  67.3385248
 127.7469685  94.8191128  66.1958282 126.9942931 106.1675257  66.7124156
 127.2865906 106.7280314  65.9936522 127.5041552 106.4603818  67.4677315
 127.5954539  88.0366998  67.6016775 127.9013416  87.1764361  67.3142690
 128.3207144  88.6284618  67.4015769 113.8878895  98.4397685  65.9898373
 113.6903295  97.8467045  65.2649439 113.3325559  98.1349895  66.7074312
 121.8675619  98.3320791  68.1092966 121.9224228  97.3794627  68.0335442
 121.0566821  98.4880230  68.5934264 123.0166812 102.2600914  59.3471249
 122.5786242 101.5436773  58.8876886 123.7577253 102.4877029  58.7856341
 119.8067979  96.9497851  65.8683345 118.9935844  97.2492021  66.2748537
 120.3026973  96.5553540  66.5857827 125.4042190  97.4139675  74.6998239
 125.7591578  97.6411148  75.5592704 126.0514322  97.7458052  74.0775494
 131.1339927 100.5358111  65.4047568 130.9957826 100.7259707  64.4768757
 130.7776146 101.2977494  65.8615619 119.2982053  94.5216206  71.4844580
 119.9381433  94.3804965  70.7867543 118.4659584  94.2350720  71.1083182
 131.1609307 102.6034638  70.4158839 131.5945814 102.5109927  71.2641893
 131.8740888 102.5792139  69.7778855 124.8937202 106.2036732  71.9491940
 124.9474224 106.7727669  72.7169656 124.0251983 106.3738617  71.5845977
 116.3825121  97.9661718  63.6739325 115.4522709  97.9046174  63.8909287
 116.4782593  97.4437671  62.8775966 116.3010670  94.4916531  66.2617567
 116.5617487  95.4061865  66.1526727 117.1227842  94.0240974  66.4114179
 117.7735595  95.9054288  73.4316391 118.4458649  95.6971651  72.7829040
 116.9465382  95.7076374  72.9921623 132.0224856 102.6458339  72.9491725
 132.2160747 103.5504149  73.1951000 131.9225475 102.1865758  73.7830310
 123.6761167  92.5316229  75.4482052 123.0289082  93.2306179  75.3546528
 124.4462183  92.9652373  75.8158300 127.0839965 102.7965082  78.5232605
 126.9325472 102.5675633  77.6062689 127.0744645 103.7535683  78.5363950
 123.8525302 100.3696994  73.5078872 124.7817362 100.5208154  73.3347839
 123.4316332 100.4581015  72.6527518 123.2461785 109.4956755  62.6202946
 123.4213541 109.0244798  63.4348568 122.5594573 110.1222521  62.8484207
 124.2018848 103.7729261  68.6666247 123.8668681 103.7330031  69.5623897
 123.7022794 103.1073977  68.1936657 127.1378040 101.1185296  58.9403307
 126.5207211 100.3932124  58.8436359 126.6694529 101.8794656  58.5970381
 120.8045393  98.8916851  73.6802508 121.5145012  98.2510043  73.6389126
 120.7614701  99.1429746  74.6028689 128.7932172 105.8284204  76.6009087
 128.7344718 105.1443424  75.9339670 129.1951690 106.5703194  76.1489713
 119.5174327  95.8782069  75.4998147 118.9811684  95.4272807  76.1519744
 118.9291035  96.0127977  74.7568612 117.8122871 112.6446118  69.3942806
 118.0519469 113.2764642  70.0721825 116.9692067 112.2934158  69.6808165
 118.9276586  95.3370720  58.0624611 118.0506052  95.2159521  57.6986858
 119.4034339  94.5456798  57.8103500 128.7949579 103.7923788  74.8323067
 127.9076358 103.4549710  74.9549466 129.3648130 103.0606819  75.0691832
 122.1140512 107.6897010  65.3087132 121.3308034 108.2318691  65.4025356
 122.8133257 108.2070990  65.7081373 125.4237162  93.4991640  67.9521337
 125.9205862  92.7461602  67.6322407 124.6524144  93.5355957  67.3864546
 133.2766920  99.2032005  69.5939628 133.2656796 100.0856721  69.2233562
 132.4084299  98.8503556  69.3994165 124.7849416 108.3512074  73.9542469
 125.4977388 108.9859539  73.8818370 124.2939445 108.4475940  73.1382470
 126.5066943 102.2563327  65.5259760 125.5723222 102.3764790  65.3564465
 126.6843611 101.3535794  65.2619770 122.0072131  95.6409023  67.6793021
 121.6369918  95.0880063  68.3673927 122.5031223  95.0367156  67.1268022
 129.8939494  98.0980646  66.0609794 130.3599946  98.9308638  65.9870097
 130.3446995  97.6325628  66.7655053 127.9615725 104.4424468  63.0595946
 128.2375569 104.3281062  63.9689821 127.0920224 104.0441953  63.0208120
 127.8656157  90.4661233  70.1000696 126.9519237  90.6965460  70.2682903
 128.2949258  90.5499677  70.9514728 127.6362615  98.6551125  72.6000590
 126.9834066  98.9027033  71.9453043 128.0142995  97.8415264  72.2663067
 124.5969789 108.6910819  66.7028760 124.7792184 107.8732474  67.1656512
 125.4202775 108.9078511  66.2653650 124.9311955 107.6179004  63.9643809
 125.4599721 107.1071458  63.3513971 125.1940174 107.3021534  64.8289342
 123.6850188  99.3970936  79.0866627 123.0090825  99.2965066  79.7569002
 124.5077822  99.2410150  79.5502624 122.4272971 110.7037864  73.3224243
 122.9791279 110.8669485  74.0873328 122.7679165 111.2942302  72.6504268
 127.2783846 105.5299121  79.1772897 127.8223750 106.1429080  78.6827852
 126.6970691 106.0878700  79.6939910 113.6555280  96.9312575  63.5037517
 113.9508721  96.0223254  63.4504570 112.7543316  96.9100315  63.1818519
 125.5641359 108.6519839  70.3087925 125.4392498 107.8509579  69.7998871
 126.2220450 109.1466033  69.8201895 117.1849527  95.0068572  69.4865065
 116.4636113  95.6204540  69.3472539 117.9742783  95.5426337  69.4081711
 127.6276267 106.4528859  71.9367475 126.6806603 106.3334211  71.8645802
 127.9759040 105.5651358  72.0193737 119.9875840  92.3422998  75.7605717
 120.5110242  92.5885295  76.5232026 119.7688174  93.1743033  75.3408854
 124.6322700 106.2481576  68.1371827 124.4847663 105.3198283  68.3179397
 125.4576194 106.2701666  67.6528903 118.4984945  94.8999643  63.9952320
 118.8381017  95.4285564  63.2730928 118.9457065  95.2380049  64.7710886
 128.2356822 107.0710134  69.2236700 129.1603370 106.8652996  69.0861151
 128.0672126 106.8226536  70.1326042 121.1928385  93.2836693  73.4455388
 120.8525206  92.4844507  73.8476067 120.4867392  93.5838404  72.8732221
 120.4853092  93.3974264  62.1945612 121.2061454  93.7755517  61.6909329
 119.8618396  94.1163141  62.2980590 124.6284215  94.1019413  63.1303945
 124.8447829  94.9844051  62.8292773 124.1478282  93.7105627  62.4009587
 119.3683436  97.0605127  69.7074689 119.2228017  97.3745430  70.5998971
 118.8908640  97.6790027  69.1545588 121.2279819  94.0507675  69.7555579
 121.2141388  93.1548768  69.4187877 121.9452247  94.0578338  70.3893865
 123.0805950  94.4845015  71.8008706 122.8223727  95.4062085  71.7993037
 122.5490990  94.0875449  72.4909170 128.0252138 107.5895802  64.5798792
 128.1989016 107.0242224  63.8272644 128.5181030 108.3896697  64.3978282
 120.6316715  92.9322055  65.0243149 120.7532626  92.0038701  65.2234036
 120.3418757  92.9460741  64.1121464 133.8791530 100.3532225  66.1989091
 134.3222676  99.6039550  65.8008215 133.0018040 100.3442361  65.8162823
 129.0127311 106.9062566  61.6795690 129.7078215 107.5269259  61.8983004
 129.3550461 106.0557917  61.9548068 130.9118734 104.3562272  63.2083021
 131.4370058 104.6949545  62.4832341 130.8241087 103.4209287  63.0246155
 122.5738783 108.2696345  75.3372897 122.8825909 108.0245492  76.2095597
 123.3714265 108.4742984  74.8491767 122.5959395 110.4234255  67.5678274
 122.1564385 109.9310634  68.2611131 123.3467512 109.8807223  67.3270349
 120.1157794  94.4454052  79.2333082 120.1645950  95.3216175  78.8510851
 120.6580309  93.9031445  78.6604725 130.6012640 104.9895175  78.5134219
 129.8108184 104.9719314  77.9738718 130.3645995 105.5283469  79.2683255
 130.7210515 101.8387642  75.8266947 130.7708520 101.6737649  76.7682470
 130.6124438 100.9714901  75.4364828 119.6046774 104.5176188  63.1159036
 119.7534894 105.2011652  62.4625709 120.4113217 104.4981278  63.6308492
 128.0114277  97.8218570  77.1426254 128.9124140  97.6825035  76.8510252
 128.0862252  97.9873025  78.0824431 122.3457083  95.1985425  75.9879440
 121.4760392  95.4918991  75.7162029 122.5816563  95.7825870  76.7086704
 132.2228712 104.2584583  76.0708969 131.9313520 104.6214564  76.9072430
 131.6100843 103.5451592  75.8922301 133.4224394 101.8237463  68.5911539
 134.2571286 102.2627267  68.7549099 133.5583523 101.3476116  67.7719785
 130.4715900  99.3817198  74.5389027 130.9470022  99.5744844  73.7307878
 129.5481466  99.4376384  74.2932410 117.3599407 100.5441365  64.1220105
 117.1145449  99.6403695  64.3200315 117.5295321 100.5458516  63.1799583
 125.0496117  91.4165042  73.5044861 125.5678060  92.1526068  73.1791349
 124.6951249  91.7229035  74.3391620 116.6295054  96.2769723  61.6206266
 115.9364299  96.3514078  60.9646302 116.3846806  95.5130066  62.1427783
 123.1042179 107.0124318  60.5870783 122.5316146 107.6314505  60.1341255
 123.6774973 107.5623680  61.1210705 129.1717569  96.2582958  72.7717332
 130.1234992  96.3581056  72.7929556 129.0021020  95.4661227  73.2815417
 127.1931949  93.3438541  72.9576733 126.5981881  93.6243554  72.2623222
 126.9081645  93.8332442  73.7293474 126.3239439 107.2961468  61.7179366
 127.2570112 107.2307030  61.9212241 126.2362652 108.1317735  61.2593898
 128.9527456 106.6127338  58.6783313 128.8741087 106.2787202  59.5719071
 129.7737123 107.1049106  58.6774786 131.6505647  99.4789078  71.8859632
 131.6181967  98.5405078  72.0719316 132.2606271  99.5573114  71.1525457
 123.4888978  98.3485131  57.9286836 124.4348083  98.2191339  57.9975254
 123.1103223  97.6099793  58.4056264 131.8000135  96.2700121  71.9317915
 131.2839184  95.4858578  71.7447844 132.6840084  95.9418838  72.0964435
 129.4610862  90.0141137  67.8913728 129.2635683  89.7056225  68.7757060
 130.0710568  90.7402776  68.0211658 135.5497494  98.6812947  71.6240120
 134.8230657  98.5468912  71.0156611 135.1344781  98.9889776  72.4296838
 123.3727670 102.4002877  79.3887493 124.2930680 102.5781476  79.5827539
 123.3377253 101.4558922  79.2367192 121.6731895  96.2735107  57.8641721
 120.7663350  95.9768220  57.9404435 121.9507876  95.9764925  56.9976007
 112.5909835  97.5941471  68.3140768 112.2712620  96.7406779  68.0215142
 112.0443264  97.8090049  69.0698735 121.2417608  95.8837117  81.4213023
 121.1414335  96.8331474  81.3525114 121.0239150  95.5555356  80.5489093
 120.4430680  93.1322042  58.0053700 121.3049844  93.4576941  58.2649518
 120.6281024  92.3453538  57.4926766 128.5963316  92.0050569  65.1488923
 128.0161985  92.6635373  64.7666976 128.3299249  91.1827913  64.7376341
 127.0466882  91.4055626  67.3510244 127.5466661  91.5172161  66.5424563
 127.6902490  91.1016679  67.9911052 121.1048878  99.3134256  80.2378085
 120.6215960 100.1134616  80.4441974 121.1909817  99.3242201  79.2845529
 127.3788194  94.1650659  64.2045272 126.4914049  94.4500310  63.9865466
 127.7942183  94.0044423  63.3572549 130.7302730  94.1897180  67.9199611
 131.5063120  94.6793633  68.1924228 130.0050864  94.6155234  68.3771480
 133.1675289  94.9024799  68.9773551 133.7619780  94.6620535  68.2666860
 133.2401873  94.1831930  69.6047088 126.5231408 103.9295334  58.2993292
 127.2267258 104.1345336  58.9150947 125.7994056 104.4972096  58.5642375
 127.3529218  99.6805195  64.4195562 127.2964419 100.1373747  63.5803194
 127.9057560  98.9195880  64.2418405 131.1634024  95.4694927  65.2445681
 130.9070958  95.0691563  66.0753889 130.5386892  96.1838721  65.1195820
 135.4746362  98.2091000  67.7516973 134.9145920  98.2784190  68.5248535
 134.8689865  98.0331985  67.0316469 128.4318105 104.3677863  60.3491752
 129.2663709 103.9359062  60.1669226 128.2702448 104.1959877  61.2768646
 128.0863997 100.8709976  61.7148091 128.0312801 100.7054248  60.7736535
 127.4610052 101.5786009  61.8710281 125.4009904 103.1758888  81.0401654
 126.2701064 103.3499540  80.6788289 124.9216656 103.9953305  80.9177383
 117.2154003  93.2545658  79.6384527 118.0785465  92.8982463  79.8487852
 116.6419414  92.9159553  80.3259932 133.8692086 114.8374942  70.3808453
 133.5310598 114.7216007  69.4928988 134.7381854 114.4366107  70.3609459
 129.7278902 116.6910419  66.3705344 129.1643767 116.6000356  65.6021632
 129.6131297 115.8710323  66.8507837 134.3511869 115.9909794  76.3394659
 134.3400510 115.5962592  75.4675162 134.5132509 115.2575867  76.9328430
 127.2743334 118.1861610  69.2089564 128.0664626 117.8452435  68.7935864
 127.5139984 118.2956585  70.1291718 129.2334088 117.4470524  62.0806943
 130.0064964 116.8999511  61.9419819 129.5859487 118.3114773  62.2921405
 131.0719130 118.7746906  75.2873843 130.7808996 119.6792537  75.1720509
 131.7076115 118.8163433  76.0017912 131.9975337 116.1523754  71.8775202
 132.5938910 115.9279777  71.1632165 132.0550309 115.4108500  72.4800650
 131.5700366 113.6063190  59.7125393 131.8225886 113.0844711  58.9508856
 130.6324925 113.4429335  59.8152077 136.6143649 112.6098968  67.5200136
 137.4006738 112.1918391  67.1690553 136.8782353 113.5145060  67.6881785
 131.2896654 115.5091296  61.9149768 131.1732913 114.8336199  62.5830852
 131.3998914 115.0223670  61.0981921 133.6328195 114.9701443  65.6196457
 133.2686403 114.4432064  66.3309379 134.4895311 114.5799912  65.4462943
 133.2733682 109.9991342  60.6157806 133.4408085 110.8671579  60.9828277
 133.0830851 110.1618624  59.6919095 129.4821497 114.9122118  68.3160341
 128.5571993 114.7798332  68.5238032 129.7305910 115.6916337  68.8130283
 133.2522903 112.4549000  61.6004473 133.1322528 112.9006051  62.4389953
 132.5575492 112.8034318  61.0418011 126.8430308 114.5555392  69.1504130
 126.9722689 114.8089871  70.0643541 126.1627759 115.1483100  68.8308785
 133.5047025 112.3980507  77.9055971 132.7280359 112.9574427  77.8958836
 134.1437588 112.8837290  78.4270841 131.7593397 115.2065960  77.4673938
 132.5008082 115.7451004  77.1908761 131.0530383 115.8332249  77.6245490
 137.2348737 117.3495101  76.0646099 137.6432093 116.9077511  75.3200732
 136.5125999 116.7747728  76.3180292 133.5879807 112.2867708  73.4379656
 134.4341002 112.7107121  73.5814305 133.5278445 111.6301332  74.1318219
 136.7379252 109.9472076  75.0960830 136.4940184 110.7014137  74.5595106
 137.0139183 110.3257424  75.9308077 136.2943944 109.1028509  70.6774668
 135.4328423 109.4009763  70.9691405 136.3206379 109.3198908  69.7455700
 133.1105514 117.6470700  67.0848473 133.5743859 117.9258403  66.2953096
 132.8462312 116.7454144  66.9021564 130.0029595 117.1942181  70.0228237
 130.5730952 117.6229450  69.3845721 130.5937706 116.9124766  70.7212422
 132.0474400 113.7693852  63.8938038 132.7498443 114.2214896  64.3611965
 131.7155028 113.1277671  64.5217932 130.4954761 112.3605609  78.2689248
 129.8653422 113.0421889  78.5024645 130.3890849 112.2488690  77.3242386
 125.7899734 112.0277405  69.1955172 124.9998788 112.2834933  68.7195283
 126.2810981 112.8425742  69.3007213 127.7414479 112.3921984  66.1538649
 126.9445642 112.5040678  66.6722144 127.5140071 112.7308636  65.2879539
 133.5720147 118.9166687  74.1021163 133.6364579 119.3787094  74.9379335
 132.8631070 118.2864052  74.2303473 124.0737437 112.2807895  71.6270163
 124.3245475 113.1654905  71.8927739 124.6096985 112.1012497  70.8545255
 129.7735504 106.6626374  80.6314499 129.3802449 106.1092573  81.3062143
 130.5901644 106.9736953  81.0221016 126.7397562 118.1010233  64.5428069
 127.2522082 118.8953483  64.6933633 127.3920274 117.4036523  64.4761670
 128.5492446 121.2175989  66.6250822 128.7259075 122.1393954  66.4371806
 129.3449280 120.9034408  67.0545202 132.6903465 108.0784254  78.2234755
 133.4313178 108.6791407  78.1439218 132.9221388 107.3361891  77.6652798
 127.8344803 113.2640621  76.5012985 127.7198318 112.3625878  76.8020084
 126.9789321 113.5104318  76.1497802 129.6723762 122.7354163  72.6261164
 130.2231187 122.6071226  71.8538158 128.8335238 123.0349052  72.2756057
 133.4690933 119.0005291  76.9705395 134.0019270 118.2393579  76.7404703
 132.9405014 118.7078942  77.7129550 136.6360628 104.1065356  72.4999037
 136.2924897 104.9966998  72.4238148 137.0039590 103.9167014  71.6368622
 124.7046478 116.4298887  65.3187639 125.5421700 116.8395895  65.1021347
 124.8824746 115.4898329  65.2887833 136.6010911 114.0973968  61.0071472
 136.0857534 114.8678572  61.2459860 136.3288219 113.4239104  61.6304534
 134.1858022 108.9423668  66.0656711 133.3299618 108.5530519  65.8862349
 134.5984973 109.0215629  65.2056496 135.7157168 106.4770012  70.4648270
 135.2121964 106.4400147  69.6516076 136.0087775 107.3862754  70.5244927
 131.9600054 106.5608741  69.4714452 132.8253051 106.3651550  69.1120342
 132.0277563 106.3319093  70.3983809 136.3897214 111.9701060  62.8331253
 136.0847349 112.2847209  63.6841397 137.3427656 112.0482480  62.8758586
 134.8343646 118.1291283  64.4824207 134.3065007 117.3944043  64.1697445
 134.3331148 118.9065959  64.2364176 129.5662373 108.7910949  66.8430819
 130.1406125 108.5686131  66.1104012 130.1533356 108.8599644  67.5959420
 129.8931960 110.8215410  60.8626704 129.0569273 111.1590097  61.1835979
 129.7536730 110.6864390  59.9253841 131.8685041 105.6652198  65.5705888
 131.2149453 105.3501215  64.9462503 131.8265515 105.0427939  66.2965711
 132.9796246 115.9471493  57.4859180 132.0723307 115.7160747  57.6850329
 133.4767278 115.1509113  57.6733162 135.1022781 112.1534132  69.8953536
 134.1845343 112.3749079  69.7375224 135.5182925 112.2280442  69.0365243
 135.8857829 113.5525547  65.0256216 136.6329648 114.0646945  64.7163338
 136.1549419 113.2309600  65.8860610 134.1584479 116.0484088  62.0083171
 133.2495698 115.7643121  62.1055640 134.1879563 116.4683167  61.1486477
 124.7272650 113.7689602  65.9898373 124.5297049 113.1758963  65.2649439
 124.1719314 113.4641812  66.7074312 132.7069373 113.6612709  68.1092966
 132.7617983 112.7086545  68.0335442 131.8960575 113.8172148  68.5934264
 133.8560567 117.5892832  59.3471249 133.4179997 116.8728691  58.8876886
 134.5971008 117.8168947  58.7856341 130.6461733 112.2789768  65.8683345
 129.8329599 112.5783939  66.2748537 131.1420727 111.8845457  66.5857827
 136.2435945 112.7431593  74.6998239 136.5985333 112.9703066  75.5592704
 136.8908076 113.0749970  74.0775494 130.1375808 109.8508124  71.4844580
 130.7775187 109.7096883  70.7867543 129.3053338 109.5642637  71.1083182
 130.9136112 119.1510554  67.5979572 131.7076710 118.6560875  67.3962147
 130.2027804 118.6228418  67.2347278 127.2218875 113.2953636  63.6739325
 126.2916463 113.2338092  63.8909287 127.3176347 112.7729589  62.8775966
 127.1404424 109.8208449  66.2617567 127.4011242 110.7353782  66.1526727
 127.9621597 109.3532892  66.4114179 128.6129350 111.2346206  73.4316391
 129.2852403 111.0263568  72.7829040 127.7859136 111.0368292  72.9921623
 134.5154922 107.8608147  75.4482052 133.8682837 108.5598097  75.3546528
 135.2855937 108.2944291  75.8158300 134.6919056 115.6988912  73.5078872
 135.6211116 115.8500072  73.3347839 134.2710086 115.7872933  72.6527518
 133.4907388 119.7239576  71.2777409 133.3518473 119.3558361  72.1503347
 132.7021984 120.2387216  71.1061367 135.0412603 119.1021179  68.6666247
 134.7062436 119.0621949  69.5623897 134.5416549 118.4365895  68.1936657
 129.0156847 114.5088809  74.1918828 128.8776645 113.7769048  74.7930367
 129.9261770 114.4197709  73.9103016 131.6439148 114.2208768  73.6802508
 132.3538766 113.5801961  73.6389126 131.6008456 114.4721663  74.6028689
 130.3568082 111.2073986  75.4998147 129.8205439 110.7564725  76.1519744
 129.7684790 111.3419895  74.7568612 129.7670340 110.6662638  58.0624611
 128.8899807 110.5451439  57.6986858 130.2428094 109.8748716  57.8103500
 121.2872481 115.4539797  68.1566118 121.9743520 115.1401527  67.5687133
 121.1320609 116.3581162  67.8833370 126.0907203 110.3429994  72.5851142
 126.0065392 109.7355664  71.8501552 125.2689909 110.8339012  72.5860638
 136.2630917 108.8283558  67.9521337 136.7599616 108.0753520  67.6322407
 135.4917898 108.8647874  67.3864546 137.3460697 117.5855245  65.5259760
 136.4116976 117.7056707  65.3564465 137.5237366 116.6827712  65.2619770
 132.8465885 110.9700941  67.6793021 132.4763673 110.4171981  68.3673927
 133.3424978 110.3659074  67.1268022 134.5243943 114.7262854  79.0866627
 133.8484580 114.6256983  79.7569002 135.3471577 114.5702068  79.5502624
 126.2722802 120.9634791  71.7079142 126.8576239 120.2178479  71.8407046
 126.0747640 121.2738747  72.5915806 120.8640457 113.5340391  70.4283585
 120.9024556 113.0003982  71.2220703 120.3580750 113.0075596  69.8094562
 128.2431219 108.3804931  73.9246128 128.3072546 109.2419762  73.5123525
 128.1798339 107.7678933  73.1918486 127.7183492 110.4528064  77.5719162
 128.3455530 110.0705141  78.1856686 126.8611410 110.2342266  77.9374854
 124.4949034 112.2604493  63.5037517 124.7902475 111.3515171  63.4504570
 123.5937070 112.2392232  63.1818519 128.0243281 110.3360490  69.4865065
 127.3029867 110.9496457  69.3472539 128.8136537 110.8718254  69.4081711
 130.8269595 107.6714916  75.7605717 131.3503997 107.9177213  76.5232026
 130.6081928 108.5034951  75.3408854 126.2236876 109.9418591  63.6276842
 125.8949582 109.0615970  63.4451948 126.5776247 109.8866259  64.5153231
 129.3378699 110.2291560  63.9952320 129.6774772 110.7577482  63.2730928
 129.7850820 110.5671967  64.7710886 132.0322140 108.6128611  73.4455388
 131.6918960 107.8136424  73.8476067 131.3261146 108.9130322  72.8732221
 132.6838612 105.6977924  71.8982711 133.5064681 105.2238402  71.7761601
 132.9276675 106.4768407  72.3981397 131.3246846 108.7266182  62.1945612
 132.0455209 109.1047435  61.6909329 130.7012150 109.4455059  62.2980590
 135.4677969 109.4311331  63.1303945 135.6841583 110.3135969  62.8292773
 134.9872036 109.0397544  62.4009587 130.2077190 112.3897044  69.7074689
 130.0621771 112.7037347  70.5998971 129.7302394 113.0081945  69.1545588
 132.0673573 109.3799592  69.7555579 132.0535142 108.4840686  69.4187877
 132.7846001 109.3870256  70.3893865 133.9199704 109.8136932  71.8008706
 133.6617482 110.7354003  71.7993037 133.3884744 109.4167367  72.4909170
 124.6822853 114.9302389  72.6462350 124.1376321 115.7062197  72.7782625
 125.5602203 115.2773193  72.4881472 131.4710469 108.2613972  65.0243149
 131.5926380 107.3330619  65.2234036 131.1812512 108.2752658  64.1121464
 134.3401660 105.9468883  68.1609869 134.3623357 106.0108216  67.2061848
 134.7569719 105.1073392  68.3550375 125.4688875 114.0572285  75.5392507
 124.7270611 114.2054920  76.1257138 125.1481619 114.3180550  74.6759257
 125.9145488 121.9437714  67.5702902 126.7403508 121.6441485  67.1901545
 125.5639540 121.1745336  68.0192691 130.8827021 121.2964182  69.6400575
 130.2607031 120.6334887  69.3402803 131.5531888 121.3225314  68.9574223
 124.1154093 119.8624040  68.5291835 123.2786002 119.4346214  68.3475837
 124.0877739 120.0556483  69.4662627 130.9551549 109.7745970  79.2333082
 131.0039704 110.6508093  78.8510851 131.4974063 109.2323363  78.6604725
 130.4440528 119.8468105  63.1159036 130.5928649 120.5303570  62.4625709
 131.2506972 119.8273195  63.6308492 133.1850837 110.5277342  75.9879440
 132.3154147 110.8210908  75.7162029 133.4210318 111.1117787  76.7086704
 128.1993161 115.8733283  64.1220105 127.9539203 114.9695613  64.3200315
 128.3689076 115.8750433  63.1799583 135.8889871 106.7456959  73.5044861
 136.4071815 107.4817986  73.1791349 135.5345004 107.0520952  74.3391620
 127.4688809 111.6061640  61.6206266 126.7758054 111.6805995  60.9646302
 127.2240561 110.8421984  62.1427783 136.1402465 103.1657242  69.0245757
 136.4204219 102.4980431  69.6506184 136.9253072 103.3586337  68.5120421
 134.3282732 113.6777048  57.9286836 135.2741837 113.5483256  57.9975254
 133.9496977 112.9391710  58.4056264 134.2121425 117.7294795  79.3887493
 135.1324434 117.9073394  79.5827539 134.1771008 116.7850840  79.2367192
 132.5125649 111.6027025  57.8641721 131.6057105 111.3060137  57.9404435
 132.7901630 111.3056843  56.9976007 123.4303590 112.9233388  68.3140768
 123.1106374 112.0698696  68.0215142 122.8837018 113.1381966  69.0698735
 127.2083497 115.6395829  72.0310274 127.4269507 116.5712937  72.0498308
 127.6209271 115.2803804  72.8165078 134.1287715 106.1463914  64.0185962
 133.3188443 105.8010999  64.3941209 134.8172132 105.8371458  64.6073574
 136.0578263 105.2241961  65.6410259 136.6109302 105.6437415  66.3000282
 136.2948350 104.2977709  65.6833215 132.0811363 111.2129035  81.4213023
 131.9808090 112.1623392  81.3525114 131.8632905 110.8847274  80.5489093
 131.2824434 108.4613960  58.0053700 132.1443598 108.7868858  58.2649518
 131.4674778 107.6745456  57.4926766 123.2991850 116.5436300  70.2833889
 122.6055321 116.1290252  69.7703844 124.0464841 116.5856836  69.6867308
 131.9442633 114.6426174  80.2378085 131.4609714 115.4426534  80.4441974
 132.0303572 114.6534119  79.2845529 125.2128592 116.4754553  68.1599904
 125.1899280 116.5742241  67.2081787 125.5229229 117.3219704  68.4817070
 127.8715970 118.5330708  72.2746518 128.8259224 118.5014651  72.2076450
 127.6728494 118.0721332  73.0896744 128.4615352 117.1031825  74.8417316
 129.2808241 117.5975903  74.8652153 128.7352160 116.1863793  74.8134884
 126.2266199 124.0750328  69.2916716 126.0920667 123.3150729  68.7254714
 125.8098261 124.7991228  68.8245505 123.7150267 111.4369958  75.5409513
 124.3609130 110.9268912  76.0296738 123.5067418 112.1738640  76.1152938
 132.2353877 105.7010003  61.2933409 132.2232547 106.6451843  61.4501680
 133.1277299 105.5180148  60.9992871 136.0505997 102.2952780  65.5479346
 135.2838392 101.7411266  65.6936029 136.4616701 102.3674648  66.4093498
 128.0547758 108.5837575  79.6384527 128.9179219 108.2274380  79.8487852
 127.4813168 108.2451470  80.3259932  55.1373515  -5.0728660  51.9739911
  55.0597545  -4.1220834  52.0528391  54.5335159  -5.4182787  52.6314837
  53.7967482  -7.5627138  59.3506471  54.3474907  -7.6910075  58.5783465
  52.9578958  -7.2632249  59.0001364  60.0108044  -5.6412301  47.1301173
  59.3369743  -5.3380604  47.7386131  60.3973866  -4.8383220  46.7806630
  58.2099260  -5.4732628  49.3448252  58.3851015  -5.9444585  50.1593875
  57.5232048  -4.8466862  49.5729513  52.7760345  -2.3243266  56.1188113
  53.0156943  -1.6924741  56.7967131  51.9329541  -2.6755225  56.4053472
  57.2888207  -6.5164143  58.5229617  57.2158378  -5.7109172  59.0348921
  56.8465600  -6.3172177  57.6977638  57.0777986  -7.2792373  52.0332438
  56.2945508  -6.7370693  52.1270663  57.7770732  -6.7618393  52.4326679
  59.7486890  -6.6177309  60.6787775  60.4614862  -5.9829844  60.6063677
  59.2576919  -6.5213443  59.8627777  50.3966522  -9.3346511  58.4324449
  50.9819959 -10.0802823  58.5652353  50.1991360  -9.0242554  59.3161113
  53.2505177  -6.2995263  53.4486891  52.5815552  -5.8149136  52.9650931
  53.1118047  -6.0526043  54.3630270  57.3910446  -4.2651520  60.0469550
  57.9428754  -4.1019898  60.8118635  57.7316639  -3.6747082  59.3749574
  57.5376257  -6.6993038  62.0618204  57.8463383  -6.9443891  62.9340903
  58.3351739  -6.4946400  61.5737074  57.5596869  -4.5455128  54.2923580
  57.1201859  -5.0378750  54.9856437  58.3104986  -5.0882161  54.0515656
  50.0389208  -8.3543588  54.2948209  50.8647228  -8.6539816  53.9146852
  49.6883260  -9.1235965  54.7437997  48.2397813 -10.4357261  55.2537142
  47.4029721 -10.8635087  55.0721143  48.2121458 -10.2424818  56.1907933
  50.3509919  -6.2230973  56.0162023  50.2164387  -6.9830572  55.4500021
  49.9341981  -5.4990073  55.5490812  53.5079045  -5.3261656  56.2280466
  53.3911429  -4.3816224  56.1259156  52.6871491  -5.6288095  56.6166265
  54.5333559  -4.6733394  59.4436394  55.4360806  -4.6409784  59.7602889
  54.3070929  -5.6032943  59.4582730  56.2887161  -5.9202408  56.1046473
  55.3382792  -5.9200546  55.9910845  56.5919647  -6.6669673  55.5882507
  72.0239854  -0.0841869  57.1692235  72.6618264  -0.2035122  56.4655575
  71.9060697   0.8638975  57.2280187  68.8329561  -0.1314441  57.1053760
  68.4948072  -0.2473377  56.2174295  69.7019329  -0.5323276  57.0854766
  64.6916376   1.7221035  53.0950651  64.1281241   1.6310972  52.3266938
  64.5768771   0.9020940  53.5753143  69.3149344   1.0220411  63.0639965
  69.3037984   0.6273209  62.1920469  69.4769983   0.2886483  63.6573737
  62.2380808   3.2172227  55.9334871  63.0302100   2.8763051  55.5181170
  62.4777458   3.3267202  56.8537024  70.2715935   5.3892003  48.4065116
  69.6203915   5.9746083  48.0199129  71.0660298   5.9198198  48.4660153
  64.1971562   2.4781140  48.8052250  64.9702438   1.9310127  48.6665126
  64.5496961   3.3425389  49.0166711  66.0356605   3.8057522  62.0119149
  65.7446471   4.7103153  61.8965816  66.6713589   3.8474050  62.7263219
  66.9612812   1.1834371  58.6020509  67.5576384   0.9590393  57.8877472
  67.0187783   0.4419116  59.2045957  66.5337840  -1.3626194  46.4370700
  66.7863361  -1.8844673  45.6754163  65.5962399  -1.5260048  46.5397383
  71.7491200   3.0782435  48.9434100  71.1137033   3.1517061  49.6555005
  71.4188607   3.6676034  48.2653179  66.2534129   0.5401912  48.6395075
  66.1370387  -0.1353185  49.3076159  66.3636389   0.0534286  47.8227228
  68.5965670   0.0012059  52.3441764  68.2323877  -0.5257320  53.0554686
  69.4532786  -0.3889472  52.1708249  70.9946490   3.4918938  59.0068943
  70.6947213   4.3943977  58.8984750  70.6497549   3.2251121  59.8590096
  64.4458971  -0.0567265  55.0405647  63.5209468  -0.1891051  55.2483339
  64.6943385   0.7226954  55.5375590  68.2160378  -2.5140384  48.3249779
  68.0960003  -2.0683333  49.1635260  67.5212966  -2.1655066  47.7663318
  61.8067782  -0.4133992  55.8749436  61.9360164  -0.1599513  56.7888848
  61.1265234   0.1793716  55.5554091  65.9767270  10.2563258  51.9739911
  65.8991299  11.2071083  52.0528391  65.3728913   9.9109131  52.6314837
  68.4684499  -2.5708876  64.6301278  67.6917833  -2.0114956  64.6204142
  69.1075062  -2.0852093  65.1516148  66.7230872   0.2376577  64.1919245
  67.4645556   0.7761621  63.9154068  66.0167857   0.8642866  64.3490796
  72.1986211   2.3805717  62.7891406  72.6069567   1.9388128  62.0446038
  71.4763473   1.8058345  63.0425599  68.5517281  -2.6821676  60.1624963
  69.3978477  -2.2582262  60.3059612  68.4915919  -3.3388051  60.8563526
  72.5215026   2.9406908  56.5443695  71.8923888   3.1052622  55.8419763
  72.1340688   3.3548518  57.3154659  76.4004258   3.8761346  53.8988059
  75.7155296   4.2560247  53.3485092  76.4848107   4.4856673  54.6320006
  73.6555190   1.5221305  60.4983402  73.8672085   2.1653065  59.8217783
  73.6084938   0.6883621  60.0305332  68.0742988   2.6781316  53.8093780
  68.5381333   2.9569019  53.0198402  67.8099786   1.7764761  53.6266871
  64.9667069   2.2252798  56.7473543  65.5368426   2.6540066  56.1091028
  65.5575181   1.9435382  57.4457729  67.0111874  -1.1995531  50.6183345
  67.7135917  -0.7474488  51.0857271  66.6792502  -1.8411713  51.2463238
  65.4592235  -2.6083775  64.9934555  64.8290896  -1.9267494  65.2269951
  65.3528323  -2.7200693  64.0487693  60.7537208  -2.9411979  55.9200479
  59.9636262  -2.6854450  55.4440589  61.2448455  -2.1263641  56.0252519
  74.7701017   4.3993260  58.6705760  75.5918461   3.9973448  58.3888441
  74.7663420   4.2961495  59.6221875  62.7051953  -2.5767400  52.8783955
  61.9083117  -2.4648705  53.3967451  62.4777545  -2.2380747  52.0124846
  68.5357621   3.9477304  60.8266470  68.6002053   4.4097711  61.6624642
  67.8268545   3.3174669  60.9548780  59.0374911  -2.6881488  58.3515469
  59.2882949  -1.8034478  58.6173045  59.5734459  -2.8676887  57.5790561
  68.2505639   5.6145411  50.6945450  68.1151313   6.4596947  51.1230298
  68.7915451   5.8164689  49.9311384  61.7035036   3.1320849  51.2673375
  62.2159557   3.9264099  51.4178940  62.3557749   2.4347140  51.2006977
  63.5129921   6.2486605  53.3496129  63.6896549   7.1704570  53.1617112
  64.3086754   5.9345025  53.7790508  62.7982277  -1.7048763  63.2258292
  62.6835792  -2.6063505  63.5265391  61.9426795  -1.4585066  62.8743108
  69.8774115   6.2368978  64.8245792  69.4337969   5.4505356  64.5066697
  70.5391329   6.4248128  64.1589683  64.6361236   7.7664779  59.3506471
  65.1868661   7.6381843  58.5783465  63.7972712   8.0659668  59.0001364
  71.9755353   6.5171778  62.8527194  71.9573828   7.3380659  62.3607463
  72.8975273   6.3925853  63.0777335  68.4328407   4.0315907  63.6950702
  68.9656744   3.2704195  63.4650010  67.9042488   3.7389559  64.4374857
  59.6683953   1.4609503  52.0432946  60.5059175   1.8706512  51.8266654
  59.8462220   0.5208946  52.0133140  71.5648385  -0.8715416  47.7316779
  71.0495008  -0.1010811  47.9705166  71.2925693  -1.5450280  48.3549840
  76.5382659   1.8816939  49.6669952  75.7612102   1.5428098  49.2225114
  77.2174140   1.8869562  48.9924917  69.7981120   3.1601900  51.2069514
  69.2702481   2.4254659  50.8942752  69.2968623   3.9376576  50.9609482
  74.7773966   1.3550920  56.3236560  74.1197640   2.0450181  56.4116689
  75.5814365   1.7447352  56.6670547  73.5879425  -0.2904707  54.3740502
  74.1011306   0.3425285  54.8762212  74.2380649  -0.8903512  54.0083862
  64.8569435  -4.1473973  47.5872011  64.0206747  -3.8099287  47.9081286
  64.7174204  -4.2824993  46.6499148  67.9433720   0.9782110  44.2104487
  67.0360782   0.7471363  44.4095636  68.4404752   0.1819729  44.3978469
  70.8501799   9.6879617  47.1301173  70.1763498   9.9911314  47.7386131
  71.2367621  10.4908697  46.7806630  70.0660256  -2.8155252  56.6198843
  69.1482817  -2.5940305  56.4620531  70.4820399  -2.7408941  55.7610550
  70.8495303  -1.4163836  51.7501523  71.5967122  -0.9042439  51.4408645
  71.1186893  -1.7379783  52.6105916  69.1221953   1.0794705  48.7328477
  68.2133173   0.7953737  48.8300947  69.1517037   1.4993783  47.8731784
  74.3541221   4.6901294  52.5019645  73.9003548   3.8492204  52.5584835
  73.7235188   5.3262693  52.8394425  72.7974160   6.5277791  53.4369463
  73.0897135   7.0882848  52.7181829  73.3072781   6.8206352  54.1922622
  59.6910124  -1.1999781  52.7143679  59.4934524  -1.7930421  51.9894746
  59.1356788  -1.5047571  53.4319618  67.6706848  -1.3076675  54.8338273
  67.7255457  -2.2602838  54.7580749  66.8598050  -1.1517236  55.3179571
  68.8198041   2.6203448  46.0716556  68.3817471   1.9039307  45.6122193
  69.5608482   2.8479563  45.5101647  65.6099207  -2.6899615  52.5928651
  64.7967073  -2.3905444  52.9993844  66.1058202  -3.0843926  53.3103134
  67.7607785   7.3058142  54.5262916  67.7183964   7.5318988  53.5971448
  68.6770484   7.0721517  54.6748717  71.2073419  -2.2257791  61.4243545
  71.5622807  -1.9986317  62.2838011  71.8545550  -1.8939414  60.8020801
  76.9371156   0.8960645  52.1292874  76.7989055   1.0862241  51.2014064
  76.5807375   1.6580028  52.5860925  76.9640536   2.9637172  57.1404146
  77.3977042   2.8712461  57.9887200  77.6772116   2.9394673  56.5024162
  65.8773586   4.1821171  54.3224879  66.6714185   3.6871491  54.1207454
  65.1665278   3.6539034  53.9592584  70.6968431   6.5639266  58.6737246
  70.7505453   7.1330203  59.4414962  69.8283212   6.7341152  58.3091284
  62.1856350  -1.6735747  50.3984632  61.2553938  -1.7351292  50.6154594
  62.2813822  -2.1959795  49.6021273  62.1041899  -5.1480934  52.9862873
  62.3648716  -4.2335601  52.8772034  62.9259071  -5.6156492  53.1359486
  63.5766824  -3.7343177  60.1561698  64.2489877  -3.9425815  59.5074347
  62.7496610  -3.9321091  59.7166930  77.8256085   3.0060873  59.6737031
  78.0191975   3.9106684  59.9196306  77.7256703   2.5468292  60.5075616
  72.8871194   3.1567616  65.2477912  72.7356700   2.9278167  64.3307996
  72.8775873   4.1138217  65.2609257  69.6556530   0.7299529  60.2324178
  70.5848590   0.8810688  60.0593146  69.2347560   0.8183549  59.3772825
  68.4544862   4.7550193  58.0022716  68.3155948   4.3868977  58.8748654
  67.6659458   5.2697832  57.8306674  69.0493014   9.8559289  49.3448252
  69.2244770   9.3847333  50.1593875  68.3625802  10.4825056  49.5729513
  70.0050077   4.1331796  55.3911554  69.6699910   4.0932566  56.2869204
  69.5054023   3.4676512  54.9181964  63.9794321  -0.4600574  60.9164135
  63.8414119  -1.1920336  61.5175674  64.8899245  -0.5491674  60.6348323
  72.9409269   1.4787830  45.6648613  72.3238440   0.7534658  45.5681666
  72.4725757   2.2397190  45.3215688  66.6076622  -0.7480615  60.4047815
  67.3176240  -1.3887423  60.3634433  66.5645930  -0.4967720  61.3273995
  74.5963401   6.1886738  63.3254394  74.5375947   5.5045958  62.6584977
  74.9982919   6.9305728  62.8735020  65.3205556  -3.7615397  62.2243454
  64.7842913  -4.2124659  62.8765050  64.7322264  -3.6269488  61.4813918
  63.6154099  13.0048652  56.1188113  63.8550698  13.6367176  56.7967131
  62.7723296  12.6536692  56.4053472  64.7307815  -4.3026746  44.7869918
  63.8537281  -4.4237945  44.4232164  65.2065568  -5.0940667  44.5348806
  74.5980808   4.1526322  61.5568373  73.7107587   3.8152244  61.6794772
  75.1679359   3.4209353  61.7937139  56.2509955   0.4850414  54.8811425
  56.9380995   0.1712144  54.2932440  56.0958084   1.3891779  54.6078676
  61.0544677  -4.6259389  59.3096448  60.9702866  -5.2333720  58.5746858
  60.2327383  -4.1350371  59.3105945  68.1281961   8.8127775  58.5229617
  68.0552133   9.6182746  59.0348921  67.6859354   9.0119740  57.6977638
  67.9171741   8.0499545  52.0332438  67.1339263   8.5921225  52.1270663
  68.6164486   8.5673524  52.4326679  70.5880645   8.7114609  60.6787775
  71.3008617   9.3462073  60.6063677  70.0970673   8.8078475  59.8627777
  72.3098172   2.6165861  52.2505067  71.3754450   2.7367324  52.0809771
  72.4874840   1.7138328  51.9865077  65.6392558   6.4609052  61.4993346
  66.3402018   7.0945535  61.6522740  65.1687673   6.8023784  60.7388985
  73.7646954   4.8027002  49.7841253  74.0406798   4.6883596  50.6935127
  72.8951453   4.4044487  49.7453426  73.4393844  -0.9846340  59.3245896
  72.7865294  -0.7370433  58.6698349  73.8174224  -1.7982202  58.9908374
  70.4001018   9.0513353  53.4274067  70.5823413   8.2335009  53.8901819
  71.2234004   9.2681045  52.9898957  70.7343184   7.9781538  50.6889115
  71.2630950   7.4673992  50.0759277  70.9971403   7.6624068  51.5534648
  69.4881417  -0.2426529  65.8111934  68.8122054  -0.3432400  66.4814309
  70.3109051  -0.3987316  66.2747931  61.2360276   5.9945407  58.4324449
  61.8213713   5.2489095  58.5652353  61.0385115   6.3049364  59.3161113
  64.0898932   9.0296655  53.4486891  63.4209307   9.5142782  52.9650931
  63.9511801   9.2765875  54.3630270  55.8277931  -1.4348993  57.1528892
  55.8662031  -1.9685402  57.9466010  55.3218224  -1.9613787  56.5339869
  68.2304200  11.0640398  60.0469550  68.7822508  11.2272020  60.8118635
  68.5710394  11.6544836  59.3749574  62.6820966  -4.5161320  64.2964468
  63.3093005  -4.8984242  64.9101993  61.8248885  -4.7347118  64.6620161
  73.0815074   5.8901656  65.9018204  73.6254978   6.5031614  65.4073159
  72.5001919   6.4481234  66.4185217  59.4586509  -2.7084890  50.2282823
  59.7539950  -3.6174212  50.1749877  58.5574544  -2.7297151  49.9063826
  71.3672587   9.0122374  57.0333232  71.2423727   8.2112113  56.5244177
  72.0251679   9.5068567  56.5447202  62.9880756  -4.6328894  56.2110372
  62.2667341  -4.0192926  56.0717845  63.7774011  -4.0971129  56.1327018
  73.4307496   6.8131394  58.6612782  72.4837831   6.6936745  58.5891108
  73.7790269   5.9253892  58.7439043  61.1874350  -5.0270793  50.3522148
  60.8587056  -5.9073414  50.1697254  61.5413721  -5.0823124  51.2398538
  70.4353929   6.6084110  54.8617134  70.2878892   5.6800817  55.0424704
  71.2607423   6.6304201  54.3774209  64.3016173  -4.7397823  50.7197626
  64.6412246  -4.2111902  49.9976234  64.7488294  -4.4017417  51.4956193
  74.0388051   7.4312669  55.9482007  74.9634598   7.2255530  55.8106458
  73.8703354   7.1829070  56.8571348  65.1714665  -2.5792339  56.4319996
  65.0259246  -2.2652036  57.3244277  64.6939868  -1.9607439  55.8790894
  73.8283367   7.9498336  51.3044098  74.0020245   7.3844759  50.5517951
  74.3212258   8.7499231  51.1223588  59.6460327  -0.0386995  59.3707657
  59.1013795   0.7372813  59.5027931  60.5239677   0.3083810  59.2126778
  74.8158540   7.2665100  48.4040996  75.5109444   7.8871793  48.6228311
  75.1581690   6.4160452  48.6793374  60.4326349  -0.9117099  62.2637814
  59.6908085  -0.7634463  62.8502444  60.1119093  -0.6508833  61.4004563
  76.7149963   4.7164806  49.9328327  77.2401287   5.0552079  49.2077647
  76.6272315   3.7811821  49.7491462  68.3770011   8.6298880  62.0618204
  68.6857138   8.3848026  62.9340903  69.1745493   8.8345518  61.5737074
  68.3990624  10.7836789  54.2923580  67.9595614  10.2913168  54.9856437
  69.1498740  10.2409757  54.0515656  60.8782962   6.9748330  54.2948209
  61.7040982   6.6752102  53.9146852  60.5277014   6.2055953  54.7437997
  65.8464496   6.3274798  56.3645882  65.2244505   5.6645503  56.0648110
  66.5169363   6.3535930  55.6819530  59.0791568   4.8934657  55.2537142
  58.2423476   4.4656831  55.0721143  59.0515213   5.0867100  56.1907933
  76.4043869   5.3497710  65.2379525  75.6139413   5.3321848  64.6984025
  76.1677223   5.8886003  65.9928562  76.5241744   2.1990176  62.5512254
  76.5739749   2.0340183  63.4927777  76.4155667   1.3317435  62.1610135
  65.4078003   4.8778722  49.8404343  65.5566123   5.5614186  49.1871015
  66.2144446   4.8583812  50.3553798  78.0259941   4.6187118  62.7954275
  77.7344749   4.9817098  63.6317736  77.4132072   3.9054126  62.6167607
  79.2255623   2.1839997  55.3156846  80.0602514   2.6229801  55.4794406
  79.3614752   1.7078651  54.4965091  76.2747129  -0.2580268  61.2634333
  76.7501251  -0.0652622  60.4553185  75.3512694  -0.2021082  61.0177717
  63.1630636   0.9043899  50.8465412  62.9176677   0.0006229  51.0445622
  63.3326550   0.9061050  49.9044890  62.4326283  -3.3627743  48.3451573
  61.7395528  -3.2883388  47.6891609  62.1878035  -4.1267399  48.8673090
  68.9073408   7.3726852  47.3116090  68.3347375   7.9917039  46.8586562
  69.4806202   7.9226214  47.8456012  72.1270668   7.6564002  48.4424672
  73.0601341   7.5909564  48.6457548  72.0393881   8.4920269  47.9839205
  74.7558685   6.9729873  45.4028620  74.6772316   6.6389736  46.2964378
  75.5768351   7.4651641  45.4020092  69.2920207  -1.2912335  44.6532143
  70.2379311  -1.4206127  44.7220561  68.9134452  -2.0297673  45.1301571
  69.1758899   2.7605411  66.1132800  70.0961909   2.9384010  66.3072846
  69.1408482   1.8161456  65.9612499  67.4763124  -3.3662359  44.5887028
  66.5694579  -3.6629246  44.6649741  67.7539105  -3.6632541  43.7221314
  58.3941064  -2.0455995  55.0386074  58.0743848  -2.8990687  54.7460448
  57.8474492  -1.8307417  55.7944042  62.1720972   0.6706446  58.7555581
  62.3906981   1.6023554  58.7743615  62.5846746   0.3114420  59.5410385
  67.0448837  -3.7560349  68.1458330  66.9445564  -2.8065992  68.0770421
  66.8270379  -4.0842110  67.2734400  58.2629324   1.5746916  57.0079196
  57.5692796   1.1600869  56.4949150  59.0102315   1.6167453  56.4112615
  66.9080107  -0.3263210  66.9623391  66.4247189   0.4737150  67.1687280
  66.9941046  -0.3155265  66.0090835  60.1766067   1.5065170  54.8845211
  60.1536755   1.6052857  53.9327094  60.4866703   2.3530321  55.2062377
  62.8353445   3.5641325  58.9991825  63.7896698   3.5325267  58.9321757
  62.6365968   3.1031949  59.8142051  63.4252827   2.1342441  61.5662623
  64.2445716   2.6286520  61.5897460  63.6989634   1.2174409  61.5380190
  61.1903673   9.1060945  56.0162023  61.0558141   8.3461345  55.4500021
  60.7735736   9.8301844  55.5490812  72.3262636   4.2897868  45.0238598
  73.0298486   4.4947871  45.6396254  71.6025285   4.8574630  45.2887682
  73.1560447   0.0407729  51.1440868  73.0995648   0.4976281  50.3048501
  73.7088789  -0.7201586  50.9663711  64.3472799  10.0030262  56.2280466
  64.2305183  10.9475694  56.1259156  63.5265245   9.7003823  56.6166265
  74.2349334   4.7280397  47.0737058  75.0694938   4.2961596  46.8914533
  74.0733677   4.5562411  48.0013953  73.8895226   1.2312511  48.4393398
  73.8344030   1.0656782  47.4981842  73.2641281   1.9388543  48.5955587
  58.6787741  -3.5319425  62.2654820  59.3246605  -4.0420471  62.7542045
  58.4704892  -2.7950743  62.8398245  71.2041133   3.5361422  67.7646960
  72.0732293   3.7102075  67.4033595  70.7247885   4.3555839  67.6422690
  65.3727313  10.6558523  59.4436394  66.2754560  10.6882134  59.7602889
  65.1464683   9.7258974  59.4582730  67.1280915   9.4089510  56.1046473
  66.1776546   9.4091372  55.9910845  67.4313401   8.6622245  55.5882507
  82.8633609  15.2450048  57.1692235  83.5012019  15.1256796  56.4655575
  82.7454452  16.1930892  57.2280187  79.6723315  15.1977476  57.1053760
  79.3341827  15.0818541  56.2174295  80.5413083  14.7968642  57.0854766
  75.5310131  17.0512953  53.0950651  74.9674996  16.9602890  52.3266938
  75.4162526  16.2312857  53.5753143  80.1543098  16.3512328  63.0639965
  80.1431739  15.9565126  62.1920469  80.3163738  15.6178401  63.6573737
  73.0774563  18.5464144  55.9334871  73.8695855  18.2054969  55.5181170
  73.3171213  18.6559120  56.8537024  81.1109690  20.7183921  48.4065116
  80.4597669  21.3038001  48.0199129  81.9054052  21.2490115  48.4660153
  75.0365317  17.8073058  48.8052250  75.8096193  17.2602045  48.6665126
  75.3890716  18.6717307  49.0166711  76.8750359  19.1349440  62.0119149
  76.5840225  20.0395071  61.8965816  77.5107344  19.1765968  62.7263219
  77.8006566  16.5126289  58.6020509  78.3970138  16.2882311  57.8877472
  77.8581538  15.7711034  59.2045957  77.3731595  13.9665724  46.4370700
  77.6257115  13.4447245  45.6754163  76.4356154  13.8031869  46.5397383
  82.4174877  12.9701502  54.2445443  83.2037967  12.5520925  53.8935860
  82.6813582  13.8747594  54.4127091  82.5884955  18.4074353  48.9434100
  81.9530788  18.4808979  49.6555005  82.2582361  18.9967951  48.2653179
  87.8183304  12.9076735  55.1478422  88.5508476  12.3375952  55.3816251
  87.0622660  12.5198336  55.5884927  77.0927883  15.8693830  48.6395075
  76.9764141  15.1938733  49.3076159  77.2030143  15.3826204  47.8227228
  79.4359424  15.3303977  52.3441764  79.0717631  14.8034598  53.0554686
  80.2926540  14.9402446  52.1708249  85.3408725   6.6198310  59.6073030
  85.0092050   7.4893720  59.3834245  84.7454338   6.3034594  60.2867061
  79.0764911  10.3593877  47.3403113  79.2439314  11.2274113  47.7073584
  78.8862080  10.5221158  46.4164402  81.8340244  18.8210855  59.0068943
  81.5340967  19.7235894  58.8984750  81.4891304  18.5543039  59.8590096
  75.2852726  15.2724652  55.0405647  74.3603222  15.1400866  55.2483339
  75.5337139  16.0518872  55.5375590  85.2337388  11.3393396  56.6866380
  84.3254265  11.2708804  56.3925141  85.1824984  11.8165341  57.5148206
  79.0554132  12.8151534  48.3249779  78.9353757  13.2608585  49.1635260
  78.3606720  13.1636852  47.7663318  72.6461537  14.9157926  55.8749436
  72.7753918  15.1692405  56.7888848  71.9658988  15.5085634  55.5554091
  76.8161024  25.5855176  51.9739911  76.7385054  26.5363001  52.0528391
  76.2122668  25.2401048  52.6314837  79.3078254  12.7583041  64.6301278
  78.5311588  13.3176961  64.6204142  79.9468817  13.2439824  65.1516148
  87.0999035   9.5409834  58.4644254  86.4573415   9.8342367  57.8184049
  86.5953963   9.4262754  59.2697451  84.7539198  13.2873007  49.1530113
  85.6657054  13.5200394  48.9777811  84.2448845  13.8710051  48.5905192
  77.5624626  15.5668495  64.1919245  78.3039311  16.1053539  63.9154068
  76.8561612  16.1934783  64.3490796  83.0379966  17.7097635  62.7891406
  83.4463322  17.2680046  62.0446038  82.3157227  17.1350263  63.0425599
  79.3911036  12.6470242  60.1624963  80.2372231  13.0709655  60.3059612
  79.3309674  11.9903866  60.8563526  83.3608780  18.2698826  56.5443695
  82.7317643  18.4344540  55.8419763  82.9734443  18.6840435  57.3154659
  87.2398012  19.2053264  53.8988059  86.5549051  19.5852165  53.3485092
  87.3241862  19.8148590  54.6320006  82.5410481  10.3074610  61.8206137
  82.2971413  11.0616671  61.2840412  82.8170412  10.6859958  62.6553384
  84.4948944  16.8513223  60.4983402  84.7065839  17.4944982  59.8217783
  84.4478692  16.0175539  60.0305332  82.0975173   9.4631043  57.4019974
  81.2359652   9.7612297  57.6936712  82.1237608   9.6801442  56.4701007
  78.9136742  18.0073234  53.8093780  79.3775088  18.2860937  53.0198402
  78.6493540  17.1056678  53.6266871  75.8060823  17.5544715  56.7473543
  76.3762181  17.9831984  56.1091028  76.3968935  17.2727300  57.4457729
  77.8505628  14.1296386  50.6183345  78.5529672  14.5817430  51.0857271
  77.5186257  13.4880205  51.2463238  76.2985990  12.7208143  64.9934555
  75.6684651  13.4024424  65.2269951  76.1922078  12.6091224  64.0487693
  71.5930962  12.3879939  55.9200479  70.8030016  12.6437467  55.4440589
  72.0842210  13.2028277  56.0252519  85.6094772  19.7285178  58.6705760
  86.4312216  19.3265365  58.3888441  85.6057175  19.6253412  59.6221875
  73.5445708  12.7524518  52.8783955  72.7476871  12.8643212  53.3967451
  73.3171300  13.0911170  52.0124846  79.3751375  19.2769221  60.8266470
  79.4395808  19.7389629  61.6624642  78.6662299  18.6466586  60.9548780
  69.8768665  12.6410429  58.3515469  70.1276704  13.5257439  58.6173045
  70.4128214  12.4615031  57.5790561  93.7000765  16.0723926  55.0190731
  92.9464473  15.5031325  54.8634735  93.8348306  16.0386591  55.9661366
  79.0899393  20.9437329  50.6945450  78.9545068  21.7888865  51.1230298
  79.6309206  21.1456606  49.9311384  75.5766733   7.0228909  67.3559806
  75.1833678   6.4695107  68.0307450  76.3932873   7.3339487  67.7466323
  72.5428790  18.4612767  51.2673375  73.0553311  19.2556017  51.4178940
  73.1951503  17.7639057  51.2006977  74.3523675  21.5778523  53.3496129
  74.5290303  22.4996488  53.1617112  75.1480509  21.2636942  53.7790508
  78.4934694   8.4386788  64.9480062  79.2344407   9.0393941  64.8684525
  78.7252616   7.6964426  64.3898105  73.6376032  13.6243155  63.2258292
  73.5229547  12.7228412  63.5265391  72.7820549  13.8706852  62.8743108
  80.7167869  21.5660895  64.8245792  80.2731724  20.7797274  64.5066697
  81.3785083  21.7540046  64.1589683  75.4754991  23.0956697  59.3506471
  76.0262416  22.9673760  58.5783465  74.6366467  23.3951586  59.0001364
  82.8149107  21.8463695  62.8527194  82.7967583  22.6672576  62.3607463
  83.7369028  21.7217770  63.0777335  79.2722162  19.3607825  63.6950702
  79.8050498  18.5996113  63.4650010  78.7436243  19.0681477  64.4374857
  82.4391857   4.4667891  59.2244344  82.0956126   5.3569532  59.1483454
  82.8070819   4.2769548  58.3613929  70.5077707  16.7901421  52.0432946
  71.3452929  17.1998430  51.8266654  70.6855975  15.8500863  52.0133140
  82.4042139  14.4576502  47.7316779  81.8888763  15.2281106  47.9705166
  82.1319448  13.7841638  48.3549840  79.9889250   9.3026203  52.7902017
  79.1330847   8.9133053  52.6107656  80.4016202   9.3818163  51.9301803
  81.5188397   6.8372546  57.1893577  81.0153193   6.8002681  56.3761382
  81.8119004   7.7465289  57.2490234  77.7631283   6.9211276  56.1959759
  78.6284280   6.7254084  55.8365648  77.8308792   6.6921627  57.1229116
  87.3776413  17.2108856  49.6669952  86.6005856  16.8720016  49.2225114
  88.0567894  17.2161480  48.9924917  82.1928443  12.3303594  49.5576560
  81.8878578  12.6449743  50.4086703  83.1458885  12.4085014  49.6003893
  80.6374874  18.4893817  51.2069514  80.1096236  17.7546577  50.8942752
  80.1362377  19.2668494  50.9609482  85.6167720  16.6842838  56.3236560
  84.9591395  17.3742099  56.4116689  86.4208120  17.0739270  56.6670547
  75.3693602   9.1513483  53.5676126  75.9437354   8.9288665  52.8349319
  75.9564584   9.2202178  54.3204727  84.4273179  15.0387210  54.3740502
  84.9405061  15.6717202  54.8762212  85.0774403  14.4388406  54.0083862
  75.6963189  11.1817945  47.5872011  74.8600501  11.5192631  47.9081286
  75.5567959  11.0466924  46.6499148  77.6716270   6.0254732  52.2951195
  77.0180682   5.7103750  51.6707810  77.6296744   5.4030473  53.0211018
  78.7827475  16.3074027  44.2104487  77.8754536  16.0763281  44.4095636
  79.2798507  15.5111647  44.3978469  81.6895553  25.0171535  47.1301173
  81.0157252  25.3203231  47.7386131  82.0761375  25.8200615  46.7806630
  80.9054010  12.5136666  56.6198843  79.9876571  12.7351613  56.4620531
  81.3214154  12.5882976  55.7610550  81.6889058  13.9128082  51.7501523
  82.4360877  14.4249479  51.4408645  81.9580647  13.5912134  52.6105916
  79.9615708  16.4086622  48.7328477  79.0526927  16.1245655  48.8300947
  79.9910792  16.8285701  47.8731784  85.1934975  20.0193212  52.5019645
  84.7397302  19.1784122  52.5584835  84.5628942  20.6554610  52.8394425
  84.1367895  10.9485198  53.7320312  83.3990652  10.4362584  54.0630555
  84.3894668  10.5085579  52.9203589  83.6367915  21.8569709  53.4369463
  83.9290889  22.4174766  52.7181829  84.1466535  22.1498270  54.1922622
  84.2379522   3.7261450  54.3262081  84.5438399   2.8658813  54.0387997
  84.9632127   4.3179070  54.1261075  70.5303878  14.1292136  52.7143679
  70.3328278  13.5361497  51.9894746  69.9750542  13.8244347  53.4319618
  78.5100602  14.0215243  54.8338273  78.5649212  13.0689079  54.7580749
  77.6991804  14.1774682  55.3179571  79.6591796  17.9495366  46.0716556
  79.2211226  17.2331225  45.6122193  80.4002237  18.1771481  45.5101647
  76.4492962  12.6392303  52.5928651  75.6360827  12.9386473  52.9993844
  76.9451956  12.2447991  53.3103134  78.6001540  22.6350060  54.5262916
  78.5577719  22.8610906  53.5971448  79.5164239  22.4013434  54.6748717
  82.0467174  13.1034127  61.4243545  82.4016561  13.3305600  62.2838011
  82.6939305  13.4352504  60.8020801  87.7764911  16.2252563  52.1292874
  87.6382809  16.4154159  51.2014064  87.4201129  16.9871946  52.5860925
  75.9407037  10.2110658  58.2089886  76.5806416  10.0699417  57.5112850
  75.1084567   9.9245172  57.8328488  87.8034290  18.2929090  57.1404146
  88.2370797  18.2004379  57.9887200  88.5165871  18.2686591  56.5024162
  76.7167341  19.5113089  54.3224879  77.5107939  19.0163409  54.1207454
  76.0059033  18.9830952  53.9592584  81.5362185  21.8931184  58.6737246
  81.5899207  22.4622120  59.4414962  80.6676966  22.0633069  58.3091284
  73.0250104  13.6556170  50.3984632  72.0947692  13.5940626  50.6154594
  73.1207576  13.1332123  49.6021273  72.9435653  10.1810983  52.9862873
  73.2042470  11.0956316  52.8772034  73.7652825   9.7135426  53.1359486
  74.4160578  11.5948740  60.1561698  75.0883632  11.3866102  59.5074347
  73.5890365  11.3970826  59.7166930  88.6649840  18.3352791  59.6737031
  88.8585730  19.2398601  59.9196306  88.5650458  17.8760210  60.5075616
  80.3186150   8.2210681  62.1727359  79.6714065   8.9200631  62.0791835
  81.0887166   8.6546825  62.5403607  83.7264948  18.4859533  65.2477912
  83.5750455  18.2570085  64.3307996  83.7169628  19.4430135  65.2609257
  80.4950285  16.0591446  60.2324178  81.4242345  16.2102606  60.0593146
  80.0741315  16.1475467  59.3772825  79.2938617  20.0842111  58.0022716
  79.1549702  19.7160895  58.8748654  78.5053213  20.5989750  57.8306674
  79.8886769  25.1851207  49.3448252  80.0638524  24.7139250  50.1593875
  79.2019557  25.8116973  49.5729513  80.8443832  19.4623713  55.3911554
  80.5093664  19.4224483  56.2869204  80.3447777  18.7968429  54.9181964
  74.8188076  14.8691343  60.9164135  74.6807874  14.1371582  61.5175674
  75.7292999  14.7800243  60.6348323  83.7803023  16.8079748  45.6648613
  83.1632194  16.0826576  45.5681666  83.3119512  17.5689108  45.3215688
  77.4470376  14.5811303  60.4047815  78.1569995  13.9404495  60.3634433
  77.4039685  14.8324198  61.3273995  85.4357155  21.5178656  63.3254394
  85.3769701  20.8337876  62.6584977  85.8376673  22.2597646  62.8735020
  76.1599310  11.5676521  62.2243454  75.6236667  11.1167259  62.8765050
  75.5716019  11.7022429  61.4813918  74.4547854  28.3340570  56.1188113
  74.6944452  28.9659094  56.7967131  73.6117050  27.9828610  56.4053472
  75.5701569  11.0265172  44.7869918  74.6931036  10.9053973  44.4232164
  76.0459322  10.2351250  44.5348806  85.4374562  19.4818240  61.5568373
  84.5501341  19.1444162  61.6794772  86.0073113  18.7501271  61.7937139
  67.0903709  15.8142332  54.8811425  67.7774749  15.5004062  54.2932440
  66.9351838  16.7183696  54.6078676  71.8938432  10.7032528  59.3096448
  71.8096620  10.0958198  58.5746858  71.0721138  11.1941547  59.3105945
  78.9675716  24.1419692  58.5229617  78.8945887  24.9474664  59.0348921
  78.5253109  24.3411658  57.6977638  78.7565495  23.3791462  52.0332438
  77.9733017  23.9213143  52.1270663  79.4558241  23.8965442  52.4326679
  82.0662145   9.1886092  54.6766644  82.5630845   8.4356054  54.3567714
  81.2949127   9.2250408  54.1109853  89.9191903  14.8926457  56.3184935
  89.9081779  15.7751173  55.9478868  89.0509282  14.5398008  56.1239472
  81.4274399  24.0406526  60.6787775  82.1402371  24.6753991  60.6063677
  80.9364428  24.1370392  59.8627777  83.1491926  17.9457779  52.2505067
  82.2148205  18.0659241  52.0809771  83.3268595  17.0430246  51.9865077
  78.6497114  11.3303475  54.4038328  78.2794902  10.7774515  55.0919234
  79.1456207  10.7261608  53.8513328  86.5364477  13.7875098  52.7855101
  87.0024930  14.6203090  52.7115404  86.9871978  13.3220080  53.4900360
  76.4786313  21.7900970  61.4993346  77.1795772  22.4237453  61.6522740
  76.0081428  22.1315701  60.7388985  84.6040709  20.1318920  49.7841253
  84.8800552  20.0175514  50.6935127  83.7345207  19.7336404  49.7453426
  84.5081140   6.1555685  56.8246002  83.5944220   6.3859912  56.9928209
  84.9374242   6.2394129  57.6760035  84.2787599  14.3445577  59.3245896
  83.6259049  14.5921485  58.6698349  84.6567979  13.5309715  58.9908374
  81.2394773  24.3805270  53.4274067  81.4217167  23.5626926  53.8901819
  82.0627759  24.5972963  52.9898957  81.5736938  23.3073456  50.6889115
  82.1024705  22.7965910  50.0759277  81.8365158  22.9915986  51.5534648
  80.3275172  15.0865388  65.8111934  79.6515809  14.9859518  66.4814309
  81.1502806  14.9304602  66.2747931  72.0754031  21.3237325  58.4324449
  72.6607468  20.5781013  58.5652353  71.8778869  21.6341282  59.3161113
  74.9292686  24.3588572  53.4486891  74.2603061  24.8434700  52.9650931
  74.7905556  24.6057793  54.3630270  66.6671686  13.8942925  57.1528892
  66.7055785  13.3606516  57.9466010  66.1611978  13.3678131  56.5339869
  79.0697955  26.3932316  60.0469550  79.6216263  26.5563937  60.8118635
  79.4104148  26.9836754  59.3749574  74.0462448   8.7407466  60.6491434
  74.1103774   9.6022296  60.2368832  73.9829568   8.1281467  59.9163793
  73.5214720  10.8130598  64.2964468  74.1486759  10.4307675  64.9101993
  72.6642639  10.5944800  64.6620161  83.9208829  21.2193573  65.9018204
  84.4648733  21.8323532  65.4073159  83.3395674  21.7773152  66.4185217
  70.2980263  12.6207027  50.2282823  70.5933704  11.7117706  50.1749877
  69.3968299  12.5994767  49.9063826  82.2066342  24.3414291  57.0333232
  82.0817481  23.5404031  56.5244177  82.8645433  24.8360485  56.5447202
  73.8274510  10.6963024  56.2110372  73.1061096  11.3098991  56.0717845
  74.6167766  11.2320789  56.1327018  84.2701250  22.1423311  58.6612782
  83.3231586  22.0228663  58.5891108  84.6184023  21.2545809  58.7439043
  76.6300824   8.0317450  62.4851024  77.1535225   8.2779747  63.2477333
  76.4113157   8.8637485  62.0654161  72.0268105  10.3021125  50.3522148
  71.6980811   9.4218504  50.1697254  72.3807475  10.2468794  51.2398538
  81.2747684  21.9376028  54.8617134  81.1272646  21.0092735  55.0424704
  82.1001177  21.9596118  54.3774209  75.1409928  10.5894095  50.7197626
  75.4806000  11.1180016  49.9976234  75.5882048  10.9274501  51.4956193
  84.8781805  22.7604586  55.9482007  85.8028353  22.5547448  55.8106458
  84.7097109  22.5120987  56.8571348  77.8353369   8.9731145  60.1700694
  77.4950189   8.1738958  60.5721374  77.1292375   9.2732856  59.5977527
  78.4869841   6.0580458  58.6228017  79.3095910   5.5840936  58.5006908
  78.7307904   6.8370942  59.1226704  77.1278075   9.0868716  48.9190919
  77.8486438   9.4649969  48.4154636  76.5043379   9.8057593  49.0225897
  81.2709198   9.7913865  49.8549251  81.4872812  10.6738503  49.5538079
  80.7903265   9.4000079  49.1254893  76.0108419  12.7499578  56.4319996
  75.8653000  13.0639882  57.3244277  75.5333623  13.3684479  55.8790894
  77.8704802   9.7402126  56.4800885  77.8566371   8.8443220  56.1433183
  78.5877230   9.7472790  57.1139171  79.7230933  10.1739467  58.5254013
  79.4648711  11.0956537  58.5238343  79.1915973   9.7769901  59.2154477
  84.6677122  23.2790254  51.3044098  84.8413999  22.7136676  50.5517951
  85.1606013  24.0791149  51.1223588  70.4854081  15.2904923  59.3707657
  69.9407550  16.0664731  59.5027931  71.3633431  15.6375727  59.2126778
  77.2741698   8.6216507  51.7488456  77.3957609   7.6933153  51.9479343
  76.9843740   8.6355193  50.8366771  80.1432888   6.3071417  54.8855175
  80.1654585   6.3710750  53.9307155  80.5600948   5.4675926  55.0795682
  90.5216513  16.0426677  52.9234398  90.9647659  15.2934002  52.5253521
  89.6443023  16.0336813  52.5408130  85.6552294  22.5957018  48.4040996
  86.3503199  23.2163711  48.6228311  85.9975444  21.7452369  48.6793374
  71.2720103  14.4174819  62.2637814  70.5301839  14.5657454  62.8502444
  70.9512848  14.6783085  61.4004563  87.5543717  20.0456724  49.9328327
  88.0795041  20.3843996  49.2077647  87.4666070  19.1103739  49.7491462
  79.2163766  23.9590797  62.0618204  79.5250892  23.7139944  62.9340903
  80.0139248  24.1637436  61.5737074  79.2384378  26.1128707  54.2923580
  78.7989368  25.6205086  54.9856437  79.9892495  25.5701675  54.0515656
  71.7176717  22.3040248  54.2948209  72.5434737  22.0044020  53.9146852
  71.3670769  21.5347870  54.7437997  76.6858250  21.6566716  56.3645882
  76.0638259  20.9937421  56.0648110  77.3563117  21.6827848  55.6819530
  69.9185322  20.2226574  55.2537142  69.0817230  19.7948749  55.0721143
  69.8908967  20.4159018  56.1907933  76.7582778  10.1348504  65.9578388
  76.8070933  11.0110627  65.5756158  77.3005292   9.5925897  65.3850031
  87.2437623  20.6789627  65.2379525  86.4533167  20.6613766  64.6984025
  87.0070978  21.2177921  65.9928562  87.3635498  17.5282094  62.5512254
  87.4133503  17.3632101  63.4927777  87.2549422  16.6609353  62.1610135
  76.2471757  20.2070639  49.8404343  76.3959877  20.8906104  49.1871015
  77.0538201  20.1875729  50.3553798  84.6539261  13.5113022  63.8671560
  85.5549124  13.3719487  63.5755558  84.7287235  13.6767477  64.8069738
  78.9882066  10.8879876  62.7124747  78.1185375  11.1813443  62.4407335
  79.2241546  11.4720321  63.4332010  88.8653695  19.9479035  62.7954275
  88.5738504  20.3109016  63.6317736  88.2525826  19.2346044  62.6167607
  90.0649378  17.5131915  55.3156846  90.8996269  17.9521719  55.4794406
  90.2008506  17.0370568  54.4965091  87.1140883  15.0711650  61.2634333
  87.5895005  15.2639296  60.4553185  86.1906449  15.1270836  61.0177717
  74.0024390  16.2335817  50.8465412  73.7570432  15.3298147  51.0445622
  74.1720305  16.2352967  49.9044890  81.6921100   7.1059493  60.2290167
  82.2103044   7.8420520  59.9036656  81.3376233   7.4123487  61.0636926
  73.2720038  11.9664175  48.3451573  72.5789283  12.0408530  47.6891609
  73.0271789  11.2024518  48.8673090  81.9433694   3.5259776  55.7491064
  82.2235448   2.8582965  56.3751490  82.7284301   3.7188872  55.2365728
  79.7467163  22.7018770  47.3116090  79.1741130  23.3208957  46.8586562
  80.3199956  23.2518132  47.8456012  85.8142552  11.9477410  59.4962639
  86.7659975  12.0475508  59.5174863  85.6446003  11.1555678  60.0060723
  83.8356932   9.0332993  59.6822040  83.2406864   9.3138006  58.9868528
  83.5506629   9.5226894  60.4538781  82.9664422  22.9855920  48.4424672
  83.8995096  22.9201482  48.6457548  82.8787635  23.8212187  47.9839205
  85.5952439  22.3021790  45.4028620  85.5166071  21.9681654  46.2964378
  86.4162106  22.7943558  45.4020092  88.2930630  15.1683530  58.6104939
  88.2606950  14.2299530  58.7964622  88.9031254  15.2467566  57.8770763
  80.1313961  14.0379583  44.6532143  81.0773066  13.9085791  44.7220561
  79.7528206  13.2994244  45.1301571  88.4425119  11.9594573  58.6563222
  87.9264167  11.1753030  58.4693151  89.3265067  11.6313290  58.8209741
  86.1035846   5.7035589  54.6159034  85.9060667   5.3950677  55.5002366
  86.7135551   6.4297228  54.7456964  94.1107180  16.2299536  57.7510975
  94.8410569  15.9684825  58.3118679  93.5014126  15.4928258  57.7913043
  92.1922477  14.3707399  58.3485427  91.4655641  14.2363364  57.7401918
  91.7769764  14.6784228  59.1542145  80.0152654  18.0897329  66.1132800
  80.9355663  18.2675928  66.3072846  79.9802237  17.1453374  65.9612499
  78.3156878  11.9629559  44.5887028  77.4088334  11.6662672  44.6649741
  78.5932859  11.6659377  43.7221314  69.2334819  13.2835922  55.0386074
  68.9137603  12.4301231  54.7460448  68.6868247  13.4984501  55.7944042
  73.0114726  15.9998363  58.7555581  73.2300736  16.9315471  58.7743615
  73.4240500  15.6406338  59.5410385  79.9318944   6.5066449  50.7431269
  79.1219672   6.1613534  51.1186515  80.6203361   6.1973992  51.3318881
  81.8609492   5.5844496  52.3655566  82.4140531   6.0039949  53.0245589
  82.0979579   4.6580244  52.4078522  77.8842591  11.5731569  68.1458330
  77.7839318  12.5225926  68.0770421  77.6664134  11.2449808  67.2734400
  77.0855663   8.8216494  44.7299007  77.9474827   9.1471393  44.9894824
  77.2706007   8.0347990  44.2172073  69.1023079  16.9038834  57.0079196
  68.4086550  16.4892787  56.4949150  69.8496070  16.9459370  56.4112615
  85.2388299   7.6945021  51.8734230  84.6586968   8.3529825  51.4912282
  84.9724232   6.8722365  51.4621647  83.6891866   7.0950078  54.0755550
  84.1891644   7.2066613  53.2669869  84.3327474   6.7911131  54.7156359
  77.7473862  15.0028708  66.9623391  77.2640943  15.8029068  67.1687280
  77.8334801  15.0136653  66.0090835  71.0159821  16.8357088  54.8845211
  70.9930509  16.9344775  53.9327094  71.3260458  17.6822238  55.2062377
  73.6747199  18.8933243  58.9991825  74.6290453  18.8617185  58.9321757
  73.4759723  18.4323866  59.8142051  74.2646581  17.4634359  61.5662623
  75.0839470  17.9578437  61.5897460  74.5383389  16.5466327  61.5380190
  84.0213177   9.8545111  50.9290578  83.1339032  10.1394762  50.7110773
  84.4367166   9.6938874  50.0817855  87.3727714   9.8791632  54.6444917
  88.1488104  10.3688084  54.9169534  86.6475848  10.3049686  55.1016787
  89.8100272  10.5919251  55.7018858  90.4044763  10.3514987  54.9912166
  89.8826856   9.8726382  56.3292394  72.0297428  24.4352862  56.0162023
  71.8951896  23.6753263  55.4500021  71.6129490  25.1593762  55.5490812
  83.1656391  19.6189786  45.0238598  83.8692241  19.8239788  45.6396254
  82.4419040  20.1866548  45.2887682  83.9954201  15.3699647  51.1440868
  83.9389403  15.8268198  50.3048501  84.5482544  14.6090332  50.9663711
  87.8059007  11.1589379  51.9690988  87.5495941  10.7586015  52.7999196
  87.1811875  11.8733173  51.8441127  92.1171345  13.8985452  54.4762279
  91.5570903  13.9678641  55.2493841  91.5114848  13.7226437  53.7561776
  75.1866554  25.3322179  56.2280466  75.0698938  26.2767612  56.1259156
  74.3659000  25.0295741  56.6166265  85.0743088  20.0572315  47.0737058
  85.9088692  19.6253513  46.8914533  84.9127431  19.8854329  48.0013953
  84.7288980  16.5604428  48.4393398  84.6737784  16.3948700  47.4981842
  84.1035036  17.2680461  48.5955587  69.5181495  11.7972493  62.2654820
  70.1640359  11.2871447  62.7542045  69.3098647  12.5341174  62.8398245
  82.0434888  18.8653340  67.7646960  82.9126047  19.0393992  67.4033595
  81.5641639  19.6847757  67.6422690  78.0385106   6.0612537  48.0178716
  78.0263776   7.0054377  48.1746987  78.9308528   5.8782683  47.7238177
  76.2121068  25.9850441  59.4436394  77.1148315  26.0174051  59.7602889
  75.9858438  25.0550892  59.4582730  77.9674670  24.7381428  56.1046473
  77.0170301  24.7383289  55.9910845  78.2707156  23.9914162  55.5882507
  81.8537225   2.6555314  52.2724653  81.0869621   2.1013801  52.4181335
  82.2647930   2.7277183  53.1338804  73.8578986   8.9440110  66.3629834
  74.7210448   8.5876915  66.5733159  73.2844397   8.6054004  67.0505238
  93.7027363  30.5741966  57.1692235  94.3405773  30.4548713  56.4655575
  93.5848206  31.5222810  57.2280187  90.5117070  30.5269394  57.1053760
  90.1735581  30.4110459  56.2174295  91.3806838  30.1260559  57.0854766
  86.3703885  32.3804871  53.0950651  85.8068750  32.2894807  52.3266938
  86.2556280  31.5604775  53.5753143  90.9936853  31.6804246  63.0639965
  90.9825493  31.2857044  62.1920469  91.1557492  30.9470318  63.6573737
  83.9168317  33.8756062  55.9334871  84.7089609  33.5346887  55.5181170
  84.1564967  33.9851037  56.8537024  91.9503444  36.0475838  48.4065116
  91.2991424  36.6329919  48.0199129  92.7447807  36.5782033  48.4660153
  85.8759071  33.1364975  48.8052250  86.6489947  32.5893962  48.6665126
  86.2284470  34.0009225  49.0166711  87.7144114  34.4641358  62.0119149
  87.4233980  35.3686989  61.8965816  88.3501098  34.5057885  62.7263219
  88.6400321  31.8418206  58.6020509  89.2363893  31.6174229  57.8877472
  88.6975292  31.1002952  59.2045957  88.2125349  29.2957642  46.4370700
  88.4650870  28.7739163  45.6754163  87.2749908  29.1323787  46.5397383
  93.2568632  28.2993420  54.2445443  94.0431721  27.8812843  53.8935860
  93.5207336  29.2039512  54.4127091  93.4278709  33.7366270  48.9434100
  92.7924542  33.8100897  49.6555005  93.0976116  34.3259869  48.2653179
  98.6577059  28.2368653  55.1478422  99.3902231  27.6667870  55.3816251
  97.9016415  27.8490254  55.5884927  87.9321638  31.1985747  48.6395075
  87.8157896  30.5230651  49.3076159  88.0423898  30.7118121  47.8227228
  90.2753179  30.6595895  52.3441764  89.9111386  30.1326516  53.0554686
  91.1320295  30.2694364  52.1708249  96.1802479  21.9490227  59.6073030
  95.8485804  22.8185638  59.3834245  95.5848093  21.6326511  60.2867061
  89.9158666  25.6885794  47.3403113  90.0833068  26.5566031  47.7073584
  89.7255835  25.8513076  46.4164402  92.6733999  34.1502773  59.0068943
  92.3734722  35.0527812  58.8984750  92.3285058  33.8834956  59.8590096
  86.1246480  30.6016570  55.0405647  85.1996977  30.4692784  55.2483339
  86.3730894  31.3810789  55.5375590  96.0731143  26.6685313  56.6866380
  95.1648020  26.6000722  56.3925141  96.0218738  27.1457258  57.5148206
  89.8947887  28.1443452  48.3249779  89.7747512  28.5900503  49.1635260
  89.2000475  28.4928769  47.7663318  83.4855291  30.2449844  55.8749436
  83.6147673  30.4984322  56.7888848  82.8052743  30.8377552  55.5554091
  87.6554779  40.9147094  51.9739911  87.5778808  41.8654919  52.0528391
  87.0516422  40.5692966  52.6314837  90.1472008  28.0874959  64.6301278
  89.3705342  28.6468879  64.6204142  90.7862571  28.5731742  65.1516148
  97.9392789  24.8701752  58.4644254  97.2967169  25.1634285  57.8184049
  97.4347718  24.7554672  59.2697451  95.5932953  28.6164925  49.1530113
  96.5050809  28.8492312  48.9777811  95.0842600  29.2001969  48.5905192
  88.4018381  30.8960412  64.1919245  89.1433065  31.4345456  63.9154068
  87.6955366  31.5226701  64.3490796  93.8773720  33.0389553  62.7891406
  94.2857076  32.5971963  62.0446038  93.1550982  32.4642180  63.0425599
  90.2304790  27.9762160  60.1624963  91.0765986  28.4001573  60.3059612
  90.1703428  27.3195784  60.8563526  94.2002535  33.5990743  56.5443695
  93.5711397  33.7636458  55.8419763  93.8128197  34.0132353  57.3154659
  98.0791767  34.5345181  53.8988059  97.3942805  34.9144083  53.3485092
  98.1635616  35.1440508  54.6320006  93.3804236  25.6366528  61.8206137
  93.1365168  26.3908588  61.2840412  93.6564166  26.0151876  62.6553384
  95.3342698  32.1805140  60.4983402  95.5459594  32.8236900  59.8217783
  95.2872447  31.3467457  60.0305332  92.9368927  24.7922961  57.4019974
  92.0753406  25.0904214  57.6936712  92.9631362  25.0093360  56.4701007
  89.7530497  33.3365151  53.8093780  90.2168842  33.6152854  53.0198402
  89.4887295  32.4348596  53.6266871  86.6454578  32.8836633  56.7473543
  87.2155935  33.3123901  56.1091028  87.2362690  32.6019218  57.4457729
  88.6899383  29.4588304  50.6183345  89.3923426  29.9109348  51.0857271
  88.3580011  28.8172123  51.2463238  87.1379744  28.0500060  64.9934555
  86.5078405  28.7316341  65.2269951  87.0315832  27.9383142  64.0487693
  82.4324717  27.7171857  55.9200479  81.6423771  27.9729385  55.4440589
  82.9235964  28.5320194  56.0252519  96.4488526  35.0577096  58.6705760
  97.2705970  34.6557283  58.3888441  96.4450929  34.9545330  59.6221875
  84.3839462  28.0816436  52.8783955  83.5870626  28.1935130  53.3967451
  84.1565054  28.4203088  52.0124846  90.2145130  34.6061139  60.8266470
  90.2789562  35.0681546  61.6624642  89.5056054  33.9758504  60.9548780
  80.7162420  27.9702347  58.3515469  80.9670458  28.8549357  58.6173045
  81.2521968  27.7906948  57.5790561 104.5394519  31.4015844  55.0190731
 103.7858228  30.8323242  54.8634735 104.6742061  31.3678509  55.9661366
  89.9293148  36.2729246  50.6945450  89.7938822  37.1180782  51.1230298
  90.4702960  36.4748524  49.9311384  86.4160487  22.3520826  67.3559806
  86.0227433  21.7987025  68.0307450  87.2326627  22.6631405  67.7466323
  83.3822545  33.7904685  51.2673375  83.8947065  34.5847935  51.4178940
  84.0345258  33.0930975  51.2006977  85.1917430  36.9070441  53.3496129
  85.3684058  37.8288405  53.1617112  85.9874263  36.5928860  53.7790508
  89.3328448  23.7678705  64.9480062  90.0738162  24.3685859  64.8684525
  89.5646371  23.0256343  64.3898105  84.4769786  28.9535073  63.2258292
  84.3623301  28.0520330  63.5265391  83.6214304  29.1998769  62.8743108
  91.5561624  36.8952813  64.8245792  91.1125478  36.1089192  64.5066697
  92.2178837  37.0831963  64.1589683  86.3148745  38.4248615  59.3506471
  86.8656170  38.2965678  58.5783465  85.4760221  38.7243504  59.0001364
  93.6542862  37.1755613  62.8527194  93.6361337  37.9964494  62.3607463
  94.5762782  37.0509688  63.0777335  90.1115916  34.6899742  63.6950702
  90.6444253  33.9288031  63.4650010  89.5829997  34.3973394  64.4374857
  93.2785611  19.7959808  59.2244344  92.9349880  20.6861450  59.1483454
  93.6464574  19.6061466  58.3613929  81.3471462  32.1193339  52.0432946
  82.1846684  32.5290347  51.8266654  81.5249729  31.1792781  52.0133140
  93.2435894  29.7868419  47.7316779  92.7282517  30.5573024  47.9705166
  92.9713202  29.1133556  48.3549840  90.8283005  24.6318120  52.7902017
  89.9724601  24.2424971  52.6107656  91.2409957  24.7110081  51.9301803
  92.3582151  22.1664464  57.1893577  91.8546947  22.1294599  56.3761382
  92.6512758  23.0757206  57.2490234  88.6025037  22.2503193  56.1959759
  89.4678034  22.0546002  55.8365648  88.6702546  22.0213545  57.1229116
  98.2170168  32.5400774  49.6669952  97.4399611  32.2011934  49.2225114
  98.8961649  32.5453397  48.9924917  93.0322197  27.6595512  49.5576560
  92.7272333  27.9741661  50.4086703  93.9852639  27.7376931  49.6003893
  91.4768629  33.8185735  51.2069514  90.9489990  33.0838494  50.8942752
  90.9756132  34.5960411  50.9609482  96.4561475  32.0134755  56.3236560
  95.7985149  32.7034017  56.4116689  97.2601874  32.4031187  56.6670547
  86.2087356  24.4805401  53.5676126  86.7831108  24.2580583  52.8349319
  86.7958339  24.5494096  54.3204727  95.2666934  30.3679128  54.3740502
  95.7798815  31.0009120  54.8762212  95.9168158  29.7680324  54.0083862
  86.5356944  26.5109862  47.5872011  85.6994256  26.8484549  47.9081286
  86.3961713  26.3758842  46.6499148  88.5110024  21.3546650  52.2951195
  87.8574437  21.0395667  51.6707810  88.4690498  20.7322391  53.0211018
  89.6221229  31.6365945  44.2104487  88.7148291  31.4055199  44.4095636
  90.1192261  30.8403564  44.3978469  92.5289308  40.3463452  47.1301173
  91.8551007  40.6495149  47.7386131  92.9155130  41.1492533  46.7806630
  91.7447765  27.8428584  56.6198843  90.8270326  28.0643531  56.4620531
  92.1607908  27.9174894  55.7610550  92.5282812  29.2419999  51.7501523
  93.2754631  29.7541397  51.4408645  92.7974402  28.9204052  52.6105916
  90.8009462  31.7378540  48.7328477  89.8920682  31.4537573  48.8300947
  90.8304546  32.1577619  47.8731784  96.0328730  35.3485130  52.5019645
  95.5791057  34.5076039  52.5584835  95.4022697  35.9846528  52.8394425
  94.9761649  26.2777116  53.7320312  94.2384406  25.7654502  54.0630555
  95.2288423  25.8377497  52.9203589  94.4761669  37.1861626  53.4369463
  94.7684643  37.7466683  52.7181829  94.9860290  37.4790187  54.1922622
  95.0773277  19.0553368  54.3262081  95.3832154  18.1950731  54.0387997
  95.8025882  19.6470988  54.1261075  81.3697633  29.4584054  52.7143679
  81.1722033  28.8653415  51.9894746  80.8144297  29.1536264  53.4319618
  89.3494357  29.3507161  54.8338273  89.4042966  28.3980997  54.7580749
  88.5385559  29.5066600  55.3179571  90.4985550  33.2787284  46.0716556
  90.0604980  32.5623143  45.6122193  91.2395991  33.5063399  45.5101647
  87.2886716  27.9684220  52.5928651  86.4754582  28.2678391  52.9993844
  87.7845711  27.5739909  53.3103134  89.4395294  37.9641977  54.5262916
  89.3971473  38.1902824  53.5971448  90.3557993  37.7305352  54.6748717
  92.8860928  28.4326045  61.4243545  93.2410316  28.6597518  62.2838011
  93.5333059  28.7644422  60.8020801  98.6158665  31.5544481  52.1292874
  98.4776564  31.7446077  51.2014064  98.2594884  32.3163864  52.5860925
  86.7800791  25.5402576  58.2089886  87.4200171  25.3991335  57.5112850
  85.9478322  25.2537089  57.8328488  98.6428045  33.6221008  57.1404146
  99.0764551  33.5296297  57.9887200  99.3559625  33.5978508  56.5024162
  87.5561095  34.8405006  54.3224879  88.3501694  34.3455326  54.1207454
  86.8452787  34.3122869  53.9592584  92.3755940  37.2223102  58.6737246
  92.4292962  37.7914038  59.4414962  91.5070721  37.3924987  58.3091284
  83.8643859  28.9848088  50.3984632  82.9341447  28.9232544  50.6154594
  83.9601331  28.4624041  49.6021273  83.7829408  25.5102901  52.9862873
  84.0436225  26.4248234  52.8772034  84.6046580  25.0427343  53.1359486
  85.2554333  26.9240658  60.1561698  85.9277386  26.7158020  59.5074347
  84.4284119  26.7262744  59.7166930  99.5043594  33.6644708  59.6737031
  99.6979484  34.5690519  59.9196306  99.4044212  33.2052127  60.5075616
  91.1579905  23.5502599  62.1727359  90.5107820  24.2492549  62.0791835
  91.9280920  23.9838743  62.5403607  94.5658703  33.8151451  65.2477912
  94.4144209  33.5862003  64.3307996  94.5563382  34.7722053  65.2609257
  91.3344039  31.3883364  60.2324178  92.2636099  31.5394523  60.0593146
  90.9135069  31.4767385  59.3772825  90.1332371  35.4134028  58.0022716
  89.9943457  35.0452813  58.8748654  89.3446967  35.9281668  57.8306674
  90.7280523  40.5143125  49.3448252  90.9032279  40.0431168  50.1593875
  90.0413311  41.1408891  49.5729513  91.6837586  34.7915631  55.3911554
  91.3487419  34.7516401  56.2869204  91.1841532  34.1260347  54.9181964
  85.6581830  30.1983261  60.9164135  85.5201628  29.4663500  61.5175674
  86.5686754  30.1092161  60.6348323  94.6196778  32.1371665  45.6648613
  94.0025949  31.4118493  45.5681666  94.1513266  32.8981026  45.3215688
  88.2864131  29.9103220  60.4047815  88.9963749  29.2696413  60.3634433
  88.2433439  30.1616115  61.3273995  96.2750910  36.8470574  63.3254394
  96.2163456  36.1629794  62.6584977  96.6770428  37.5889564  62.8735020
  86.9993065  26.8968438  62.2243454  86.4630422  26.4459177  62.8765050
  86.4109773  27.0314347  61.4813918  85.2941608  43.6632488  56.1188113
  85.5338207  44.2951012  56.7967131  84.4510805  43.3120528  56.4053472
  86.4095324  26.3557090  44.7869918  85.5324790  26.2345890  44.4232164
  86.8853077  25.5643168  44.5348806  96.2768317  34.8110158  61.5568373
  95.3895096  34.4736079  61.6794772  96.8466868  34.0793189  61.7937139
  77.9297464  31.1434249  54.8811425  78.6168504  30.8295979  54.2932440
  77.7745593  32.0475614  54.6078676  82.7332186  26.0324446  59.3096448
  82.6490375  25.4250115  58.5746858  81.9114892  26.5233464  59.3105945
  89.8069470  39.4711610  58.5229617  89.7339642  40.2766581  59.0348921
  89.3646863  39.6703576  57.6977638  89.5959250  38.7083380  52.0332438
  88.8126772  39.2505060  52.1270663  90.2951995  39.2257360  52.4326679
  92.9055900  24.5178009  54.6766644  93.4024599  23.7647972  54.3567714
  92.1342881  24.5542326  54.1109853 100.7585657  30.2218375  56.3184935
 100.7475534  31.1043090  55.9478868  99.8903037  29.8689926  56.1239472
  92.2668154  39.3698444  60.6787775  92.9796126  40.0045909  60.6063677
  91.7758182  39.4662310  59.8627777  93.9885681  33.2749697  52.2505067
  93.0541959  33.3951159  52.0809771  94.1662349  32.3722163  51.9865077
  89.4890869  26.6595392  54.4038328  89.1188656  26.1066433  55.0919234
  89.9849961  26.0553526  53.8513328  97.3758232  29.1167016  52.7855101
  97.8418684  29.9495008  52.7115404  97.8265732  28.6511998  53.4900360
  87.3180067  37.1192887  61.4993346  88.0189527  37.7529370  61.6522740
  86.8475182  37.4607619  60.7388985  95.4434463  35.4610837  49.7841253
  95.7194307  35.3467432  50.6935127  94.5738962  35.0628322  49.7453426
  95.3474895  21.4847603  56.8246002  94.4337975  21.7151830  56.9928209
  95.7767996  21.5686047  57.6760035  95.1181353  29.6737495  59.3245896
  94.4652803  29.9213402  58.6698349  95.4961733  28.8601633  58.9908374
  92.0788527  39.7097188  53.4274067  92.2610922  38.8918844  53.8901819
  92.9021513  39.9264880  52.9898957  92.4130693  38.6365373  50.6889115
  92.9418459  38.1257828  50.0759277  92.6758912  38.3207903  51.5534648
  91.1668926  30.4157306  65.8111934  90.4909563  30.3151435  66.4814309
  91.9896560  30.2596520  66.2747931  82.9147785  36.6529242  58.4324449
  83.5001222  35.9072930  58.5652353  82.7172624  36.9633199  59.3161113
  85.7686441  39.6880490  53.4486891  85.0996816  40.1726618  52.9650931
  85.6299310  39.9349710  54.3630270  77.5065440  29.2234843  57.1528892
  77.5449540  28.6898433  57.9466010  77.0005733  28.6970048  56.5339869
  89.9091709  41.7224233  60.0469550  90.4610017  41.8855855  60.8118635
  90.2497903  42.3128671  59.3749574  84.8856202  24.0699383  60.6491434
  84.9497529  24.9314214  60.2368832  84.8223323  23.4573385  59.9163793
  84.3608475  26.1422516  64.2964468  84.9880514  25.7599593  64.9101993
  83.5036394  25.9236718  64.6620161  94.7602583  36.5485491  65.9018204
  95.3042487  37.1615449  65.4073159  94.1789428  37.1065069  66.4185217
  81.1374018  27.9498945  50.2282823  81.4327459  27.0409623  50.1749877
  80.2362053  27.9286684  49.9063826  93.0460096  39.6706209  57.0333232
  92.9211236  38.8695949  56.5244177  93.7039188  40.1652402  56.5447202
  84.6668265  26.0254941  56.2110372  83.9454850  26.6390909  56.0717845
  85.4561520  26.5612706  56.1327018  95.1095005  37.4715229  58.6612782
  94.1625340  37.3520580  58.5891108  95.4577778  36.5837727  58.7439043
  87.4694578  23.3609368  62.4851024  87.9928980  23.6071664  63.2477333
  87.2506911  24.1929403  62.0654161  82.8661859  25.6313043  50.3522148
  82.5374565  24.7510421  50.1697254  83.2201230  25.5760711  51.2398538
  92.1141438  37.2667945  54.8617134  91.9666401  36.3384653  55.0424704
  92.9394932  37.2888036  54.3774209  85.9803682  25.9186012  50.7197626
  86.3199755  26.4471934  49.9976234  86.4275803  26.2566418  51.4956193
  95.7175560  38.0896504  55.9482007  96.6422107  37.8839365  55.8106458
  95.5490863  37.8412905  56.8571348  88.6747123  24.3023063  60.1700694
  88.3343944  23.5030876  60.5721374  87.9686129  24.6024774  59.5977527
  89.3263595  21.3872375  58.6228017  90.1489664  20.9132854  58.5006908
  89.5701659  22.1662859  59.1226704  87.9671830  24.4160634  48.9190919
  88.6880192  24.7941887  48.4154636  87.3437134  25.1349511  49.0225897
  92.1102952  25.1205783  49.8549251  92.3266567  26.0030421  49.5538079
  91.6297020  24.7291996  49.1254893  86.8502174  28.0791496  56.4319996
  86.7046754  28.3931799  57.3244277  86.3727377  28.6976396  55.8790894
  88.7098557  25.0694044  56.4800885  88.6960125  24.1735137  56.1433183
  89.4270985  25.0764708  57.1139171  90.5624687  25.5031384  58.5254013
  90.3042465  26.4248455  58.5238343  90.0309728  25.1061819  59.2154477
  95.5070876  38.6082171  51.3044098  95.6807754  38.0428594  50.5517951
  95.9999767  39.4083066  51.1223588  81.3247836  30.6196841  59.3707657
  80.7801304  31.3956648  59.5027931  82.2027186  30.9667645  59.2126778
  88.1135453  23.9508424  51.7488456  88.2351364  23.0225071  51.9479343
  87.8237495  23.9647110  50.8366771  90.9826643  21.6363335  54.8855175
  91.0048340  21.7002668  53.9307155  91.3994702  20.7967843  55.0795682
 101.3610267  31.3718594  52.9234398 101.8041413  30.6225920  52.5253521
 100.4836778  31.3628731  52.5408130  96.4946049  37.9248936  48.4040996
  97.1896953  38.5455629  48.6228311  96.8369199  37.0744287  48.6793374
  82.1113858  29.7466737  62.2637814  81.3695594  29.8949372  62.8502444
  81.7906602  30.0075002  61.4004563  98.3937472  35.3748641  49.9328327
  98.9188796  35.7135914  49.2077647  98.3059824  34.4395657  49.7491462
  90.0557520  39.2882715  62.0618204  90.3644647  39.0431862  62.9340903
  90.8533002  39.4929353  61.5737074  90.0778132  41.4420625  54.2923580
  89.6383123  40.9497003  54.9856437  90.8286249  40.8993592  54.0515656
  82.5570471  37.6332165  54.2948209  83.3828491  37.3335937  53.9146852
  82.2064523  36.8639788  54.7437997  87.5252005  36.9858634  56.3645882
  86.9032014  36.3229339  56.0648110  88.1956872  37.0119766  55.6819530
  80.7579077  35.5518492  55.2537142  79.9210985  35.1240666  55.0721143
  80.7302722  35.7450935  56.1907933  87.5976532  25.4640422  65.9578388
  87.6464688  26.3402545  65.5756158  88.1399046  24.9217815  65.3850031
  98.0831378  36.0081545  65.2379525  97.2926922  35.9905684  64.6984025
  97.8464732  36.5469839  65.9928562  98.2029253  32.8574011  62.5512254
  98.2527258  32.6924019  63.4927777  98.0943176  31.9901270  62.1610135
  87.0865512  35.5362557  49.8404343  87.2353632  36.2198021  49.1871015
  87.8931955  35.5167647  50.3553798  95.4933015  28.8404939  63.8671560
  96.3942878  28.7011404  63.5755558  95.5680990  29.0059394  64.8069738
  89.8275821  26.2171794  62.7124747  88.9579130  26.5105360  62.4407335
  90.0635301  26.8012239  63.4332010  99.7047450  35.2770953  62.7954275
  99.4132258  35.6400933  63.6317736  99.0919581  34.5637961  62.6167607
 100.9043132  32.8423833  55.3156846 101.7390023  33.2813637  55.4794406
 101.0402261  32.3662486  54.4965091  97.9534638  30.4003568  61.2634333
  98.4288760  30.5931214  60.4553185  97.0300203  30.4562753  61.0177717
  84.8418145  31.5627735  50.8465412  84.5964186  30.6590065  51.0445622
  85.0114059  31.5644885  49.9044890  92.5314854  22.4351411  60.2290167
  93.0496798  23.1712438  59.9036656  92.1769987  22.7415404  61.0636926
  84.1113792  27.2956092  48.3451573  83.4183037  27.3700447  47.6891609
  83.8665544  26.5316436  48.8673090  92.7827449  18.8551694  55.7491064
  93.0629202  18.1874883  56.3751490  93.5678056  19.0480789  55.2365728
  90.5860917  38.0310688  47.3116090  90.0134884  38.6500875  46.8586562
  91.1593711  38.5810049  47.8456012  96.6536307  27.2769328  59.4962639
  97.6053730  27.3767425  59.5174863  96.4839757  26.4847596  60.0060723
  94.6750686  24.3624911  59.6822040  94.0800619  24.6429924  58.9868528
  94.3900383  24.8518812  60.4538781  93.8058177  38.3147838  48.4424672
  94.7388850  38.2493399  48.6457548  93.7181390  39.1504104  47.9839205
  96.4346194  37.6313708  45.4028620  96.3559825  37.2973572  46.2964378
  97.2555860  38.1235476  45.4020092  99.1324385  30.4975447  58.6104939
  99.1000705  29.5591448  58.7964622  99.7425008  30.5759484  57.8770763
  90.9707716  29.3671500  44.6532143  91.9166820  29.2377708  44.7220561
  90.5921961  28.6286162  45.1301571  99.2818873  27.2886491  58.6563222
  98.7657922  26.5044947  58.4693151 100.1658822  26.9605207  58.8209741
  96.9429600  21.0327506  54.6159034  96.7454421  20.7242594  55.5002366
  97.5529306  21.7589145  54.7456964 104.9500935  31.5591454  57.7510975
 105.6804323  31.2976742  58.3118679 104.3407880  30.8220176  57.7913043
 103.0316232  29.6999317  58.3485427 102.3049395  29.5655282  57.7401918
 102.6163519  30.0076145  59.1542145  90.8546408  33.4189246  66.1132800
  91.7749418  33.5967845  66.3072846  90.8195991  32.4745292  65.9612499
  89.1550633  27.2921477  44.5887028  88.2482088  26.9954589  44.6649741
  89.4326614  26.9951295  43.7221314  80.0728573  28.6127840  55.0386074
  79.7531357  27.7593148  54.7460448  79.5262001  28.8276418  55.7944042
  83.8508481  31.3290281  58.7555581  84.0694490  32.2607389  58.7743615
  84.2634254  30.9698255  59.5410385  90.7712698  21.8358366  50.7431269
  89.9613427  21.4905451  51.1186515  91.4597115  21.5265910  51.3318881
  92.7003247  20.9136413  52.3655566  93.2534285  21.3331867  53.0245589
  92.9373333  19.9872161  52.4078522  88.7236346  26.9023487  68.1458330
  88.6233073  27.8517844  68.0770421  88.5057888  26.5741726  67.2734400
  87.9249417  24.1508412  44.7299007  88.7868581  24.4763310  44.9894824
  88.1099762  23.3639908  44.2172073  79.9416833  32.2330752  57.0079196
  79.2480305  31.8184704  56.4949150  80.6889824  32.2751288  56.4112615
  96.0782054  23.0236938  51.8734230  95.4980723  23.6821742  51.4912282
  95.8117987  22.2014283  51.4621647  94.5285620  22.4241996  54.0755550
  95.0285399  22.5358531  53.2669869  95.1721228  22.1203049  54.7156359
  88.5867616  30.3320626  66.9623391  88.1034698  31.1320986  67.1687280
  88.6728555  30.3428571  66.0090835  81.8553576  32.1649005  54.8845211
  81.8324264  32.2636693  53.9327094  82.1654212  33.0114156  55.2062377
  84.5140954  34.2225160  58.9991825  85.4684207  34.1909103  58.9321757
  84.3153477  33.7615784  59.8142051  85.1040336  32.7926276  61.5662623
  85.9233225  33.2870355  61.5897460  85.3777143  31.8758245  61.5380190
  94.8606932  25.1837029  50.9290578  93.9732787  25.4686679  50.7110773
  95.2760921  25.0230792  50.0817855  98.2121468  25.2083550  54.6444917
  98.9881858  25.6980002  54.9169534  97.4869602  25.6341604  55.1016787
 100.6494027  25.9211169  55.7018858 101.2438517  25.6806905  54.9912166
 100.7220610  25.2018299  56.3292394  82.8691182  39.7644780  56.0162023
  82.7345650  39.0045181  55.4500021  82.4523245  40.4885680  55.5490812
  94.0050145  34.9481703  45.0238598  94.7085995  35.1531706  45.6396254
  93.2812794  35.5158465  45.2887682  94.8347956  30.6991565  51.1440868
  94.7783157  31.1560116  50.3048501  95.3876298  29.9382249  50.9663711
  98.6452762  26.4881297  51.9690988  98.3889696  26.0877932  52.7999196
  98.0205630  27.2025090  51.8441127 102.9565099  29.2277370  54.4762279
 102.3964657  29.2970559  55.2493841 102.3508603  29.0518354  53.7561776
  86.0260308  40.6614097  56.2280466  85.9092692  41.6059529  56.1259156
  85.2052754  40.3587658  56.6166265  95.9136843  35.3864233  47.0737058
  96.7482447  34.9545431  46.8914533  95.7521186  35.2146246  48.0013953
  95.5682735  31.8896346  48.4393398  95.5131539  31.7240617  47.4981842
  94.9428790  32.5972379  48.5955587  80.3575250  27.1264410  62.2654820
  81.0034113  26.6163364  62.7542045  80.1492401  27.8633092  62.8398245
  92.8828642  34.1945258  67.7646960  93.7519802  34.3685910  67.4033595
  92.4035394  35.0139675  67.6422690  88.8778860  21.3904455  48.0178716
  88.8657530  22.3346295  48.1746987  89.7702282  21.2074600  47.7238177
  87.0514822  41.3142359  59.4436394  87.9542069  41.3465969  59.7602889
  86.8252192  40.3842810  59.4582730  88.8068424  40.0673345  56.1046473
  87.8564055  40.0675207  55.9910845  89.1100910  39.3206080  55.5882507
  92.6930980  17.9847232  52.2724653  91.9263376  17.4305718  52.4181335
  93.1041685  18.0569100  53.1338804  84.6972741  24.2732027  66.3629834
  85.5604202  23.9168832  66.5733159  84.1238152  23.9345922  67.0505238
 104.5421118  45.9033884  57.1692235 105.1799528  45.7840631  56.4655575
 104.4241961  46.8514728  57.2280187 101.3510824  45.8561312  57.1053760
 101.0129336  45.7402377  56.2174295 102.2200592  45.4552477  57.0854766
  97.2097640  47.7096788  53.0950651  96.6462505  47.6186725  52.3266938
  97.0950035  46.8896693  53.5753143 101.8330607  47.0096164  63.0639965
 101.8219248  46.6148962  62.1920469 101.9951247  46.2762236  63.6573737
  94.7562072  49.2047980  55.9334871  95.5483364  48.8638804  55.5181170
  94.9958722  49.3142955  56.8537024 102.7897199  51.3767756  48.4065116
 102.1385178  51.9621836  48.0199129 103.5841561  51.9073951  48.4660153
  96.7152826  48.4656893  48.8052250  97.4883702  47.9185880  48.6665126
  97.0678225  49.3301142  49.0166711  98.5537868  49.7933275  62.0119149
  98.2627734  50.6978906  61.8965816  99.1894853  49.8349803  62.7263219
  99.4794075  47.1710124  58.6020509 100.0757647  46.9466146  57.8877472
  99.5369047  46.4294869  59.2045957  99.0519103  44.6249559  46.4370700
  99.3044624  44.1031080  45.6754163  98.1143663  44.4615705  46.5397383
 104.0962386  43.6285338  54.2445443 104.8825476  43.2104761  53.8935860
 104.3601091  44.5331430  54.4127091 104.2672464  49.0658188  48.9434100
 103.6318297  49.1392814  49.6555005 103.9369870  49.6551787  48.2653179
 109.4970813  43.5660571  55.1478422 110.2295985  42.9959788  55.3816251
 108.7410169  43.1782171  55.5884927  98.7715392  46.5277665  48.6395075
  98.6551650  45.8522569  49.3076159  98.8817652  46.0410039  47.8227228
 101.1146933  45.9887812  52.3441764 100.7505140  45.4618433  53.0554686
 101.9714049  45.5986281  52.1708249 107.0196234  37.2782145  59.6073030
 106.6879559  38.1477556  59.3834245 106.4241847  36.9618429  60.2867061
 100.7552420  41.0177712  47.3403113 100.9226822  41.8857948  47.7073584
 100.5649589  41.1804994  46.4164402 103.5127753  49.4794691  59.0068943
 103.2128476  50.3819730  58.8984750 103.1678813  49.2126874  59.8590096
  96.9640235  45.9308488  55.0405647  96.0390731  45.7984702  55.2483339
  97.2124648  46.7102707  55.5375590 106.9124897  41.9977231  56.6866380
 106.0041774  41.9292639  56.3925141 106.8612493  42.4749176  57.5148206
 100.7341641  43.4735369  48.3249779 100.6141266  43.9192420  49.1635260
 100.0394229  43.8220687  47.7663318  94.3249046  45.5741761  55.8749436
  94.4541427  45.8276240  56.7888848  93.6446497  46.1669469  55.5554091
  98.4948533  56.2439011  51.9739911  98.4172563  57.1946836  52.0528391
  97.8910177  55.8984884  52.6314837 100.9865763  43.4166877  64.6301278
 100.2099097  43.9760797  64.6204142 101.6256326  43.9023660  65.1516148
 108.7786544  40.1993669  58.4644254 108.1360924  40.4926203  57.8184049
 108.2741472  40.0846590  59.2697451 106.4326707  43.9456843  49.1530113
 107.3444563  44.1784229  48.9777811 105.9236354  44.5293887  48.5905192
  99.2412135  46.2252330  64.1919245  99.9826820  46.7637374  63.9154068
  98.5349121  46.8518619  64.3490796 104.7167475  48.3681470  62.7891406
 105.1250831  47.9263881  62.0446038 103.9944736  47.7934098  63.0425599
 101.0698545  43.3054077  60.1624963 101.9159740  43.7293491  60.3059612
 101.0097183  42.6487702  60.8563526 105.0396289  48.9282661  56.5443695
 104.4105152  49.0928375  55.8419763 104.6521952  49.3424271  57.3154659
 108.9185521  49.8637099  53.8988059 108.2336560  50.2436000  53.3485092
 109.0029371  50.4732426  54.6320006 104.2197990  40.9658446  61.8206137
 103.9758922  41.7200506  61.2840412 104.4957921  41.3443793  62.6553384
 106.1736453  47.5097058  60.4983402 106.3853348  48.1528818  59.8217783
 106.1266201  46.6759375  60.0305332 103.7762682  40.1214879  57.4019974
 102.9147161  40.4196132  57.6936712 103.8025117  40.3385277  56.4701007
 100.5924251  48.6657069  53.8093780 101.0562597  48.9444772  53.0198402
 100.3281049  47.7640514  53.6266871  97.4848332  48.2128551  56.7473543
  98.0549689  48.6415819  56.1091028  98.0756444  47.9311135  57.4457729
  99.5293137  44.7880222  50.6183345 100.2317181  45.2401265  51.0857271
  99.1973766  44.1464040  51.2463238  97.9773499  43.3791978  64.9934555
  97.3472160  44.0608259  65.2269951  97.8709587  43.2675060  64.0487693
  93.2718471  43.0463774  55.9200479  92.4817525  43.3021303  55.4440589
  93.7629719  43.8612112  56.0252519 107.2882281  50.3869013  58.6705760
 108.1099725  49.9849201  58.3888441 107.2844684  50.2837248  59.6221875
  95.2233217  43.4108353  52.8783955  94.4264380  43.5227048  53.3967451
  94.9958809  43.7495006  52.0124846 101.0538884  49.9353057  60.8266470
 101.1183317  50.3973464  61.6624642 100.3449808  49.3050422  60.9548780
  91.5556174  43.2994265  58.3515469  91.8064213  44.1841275  58.6173045
  92.0915723  43.1198866  57.5790561 115.3788274  46.7307762  55.0190731
 114.6251982  46.1615160  54.8634735 115.5135815  46.6970426  55.9661366
 100.7686902  51.6021164  50.6945450 100.6332577  52.4472700  51.1230298
 101.3096715  51.8040442  49.9311384  97.2554242  37.6812744  67.3559806
  96.8621187  37.1278943  68.0307450  98.0720382  37.9923322  67.7466323
  94.2216299  49.1196602  51.2673375  94.7340820  49.9139852  51.4178940
  94.8739012  48.4222893  51.2006977  96.0311184  52.2362358  53.3496129
  96.2077812  53.1580323  53.1617112  96.8268018  51.9220778  53.7790508
 100.1722203  39.0970623  64.9480062 100.9131916  39.6977776  64.8684525
 100.4040125  38.3548261  64.3898105  95.3163541  44.2826990  63.2258292
  95.2017056  43.3812248  63.5265391  94.4608058  44.5290687  62.8743108
 102.3955378  52.2244731  64.8245792 101.9519233  51.4381109  64.5066697
 103.0572592  52.4123881  64.1589683  97.1542500  53.7540532  59.3506471
  97.7049925  53.6257596  58.5783465  96.3153975  54.0535421  59.0001364
 104.4936616  52.5047531  62.8527194 104.4755092  53.3256412  62.3607463
 105.4156537  52.3801606  63.0777335 100.9509671  50.0191660  63.6950702
 101.4838007  49.2579948  63.4650010 100.4223752  49.7265312  64.4374857
 104.1179366  35.1251726  59.2244344 103.7743635  36.0153368  59.1483454
 104.4858328  34.9353384  58.3613929  92.1865216  47.4485256  52.0432946
  93.0240438  47.8582265  51.8266654  92.3643484  46.5084699  52.0133140
 104.0829648  45.1160337  47.7316779 103.5676272  45.8864942  47.9705166
 103.8106957  44.4425473  48.3549840 101.6676759  39.9610038  52.7902017
 100.8118356  39.5716888  52.6107656 102.0803711  40.0401999  51.9301803
 103.1975906  37.4956381  57.1893577 102.6940702  37.4586516  56.3761382
 103.4906513  38.4049124  57.2490234  99.4418792  37.5795111  56.1959759
 100.3071789  37.3837920  55.8365648  99.5096301  37.3505463  57.1229116
 109.0563922  47.8692692  49.6669952 108.2793365  47.5303851  49.2225114
 109.7355403  47.8745315  48.9924917 103.8715951  42.9887429  49.5576560
 103.5666087  43.3033578  50.4086703 104.8246394  43.0668849  49.6003893
 102.3162383  49.1477653  51.2069514 101.7883745  48.4130412  50.8942752
 101.8149886  49.9252329  50.9609482 107.2955229  47.3426673  56.3236560
 106.6378904  48.0325934  56.4116689 108.0995629  47.7323105  56.6670547
  97.0481111  39.8097319  53.5676126  97.6224863  39.5872500  52.8349319
  97.6352093  39.8786013  54.3204727 106.1060688  45.6971046  54.3740502
 106.6192570  46.3301038  54.8762212 106.7561912  45.0972241  54.0083862
  97.3750698  41.8401780  47.5872011  96.5388010  42.1776466  47.9081286
  97.2355468  41.7050760  46.6499148  99.3503779  36.6838568  52.2951195
  98.6968191  36.3687585  51.6707810  99.3084253  36.0614308  53.0211018
 100.4614984  46.9657863  44.2104487  99.5542045  46.7347116  44.4095636
 100.9586015  46.1695482  44.3978469 103.3683062  55.6755370  47.1301173
 102.6944761  55.9787067  47.7386131 103.7548884  56.4784450  46.7806630
 102.5841519  43.1720501  56.6198843 101.6664080  43.3935448  56.4620531
 103.0001663  43.2466812  55.7610550 103.3676567  44.5711917  51.7501523
 104.1148386  45.0833314  51.4408645 103.6368156  44.2495970  52.6105916
 101.6403217  47.0670458  48.7328477 100.7314436  46.7829491  48.8300947
 101.6698301  47.4869536  47.8731784 106.8722484  50.6777047  52.5019645
 106.4184811  49.8367957  52.5584835 106.2416451  51.3138446  52.8394425
 105.8155404  41.6069033  53.7320312 105.0778161  41.0946419  54.0630555
 106.0682177  41.1669415  52.9203589 105.3155424  52.5153544  53.4369463
 105.6078398  53.0758601  52.7181829 105.8254044  52.8082105  54.1922622
 105.9167031  34.3845285  54.3262081 106.2225908  33.5242649  54.0387997
 106.6419636  34.9762905  54.1261075  92.2091387  44.7875972  52.7143679
  92.0115787  44.1945333  51.9894746  91.6538051  44.4828182  53.4319618
 100.1888111  44.6799078  54.8338273 100.2436721  43.7272915  54.7580749
  99.3779313  44.8358517  55.3179571 101.3379305  48.6079201  46.0716556
 100.8998735  47.8915060  45.6122193 102.0789746  48.8355316  45.5101647
  98.1280471  43.2976138  52.5928651  97.3148336  43.5970309  52.9993844
  98.6239465  42.9031827  53.3103134 100.2789049  53.2933895  54.5262916
 100.2365228  53.5194741  53.5971448 101.1951748  53.0597270  54.6748717
 103.7254683  43.7617963  61.4243545 104.0804070  43.9889436  62.2838011
 104.3726814  44.0936339  60.8020801 109.4552420  46.8836398  52.1292874
 109.3170318  47.0737994  51.2014064 109.0988638  47.6455781  52.5860925
  97.6194546  40.8694494  58.2089886  98.2593925  40.7283253  57.5112850
  96.7872076  40.5829007  57.8328488 109.4821799  48.9512925  57.1404146
 109.9158306  48.8588214  57.9887200 110.1953380  48.9270426  56.5024162
  98.3954850  50.1696924  54.3224879  99.1895448  49.6747244  54.1207454
  97.6846542  49.6414787  53.9592584 103.2149694  52.5515020  58.6737246
 103.2686716  53.1205956  59.4414962 102.3464475  52.7216905  58.3091284
  94.7037613  44.3140006  50.3984632  93.7735201  44.2524461  50.6154594
  94.7995085  43.7915958  49.6021273  94.6223162  40.8394819  52.9862873
  94.8829979  41.7540152  52.8772034  95.4440334  40.3719261  53.1359486
  96.0948087  42.2532576  60.1561698  96.7671141  42.0449938  59.5074347
  95.2677874  42.0554662  59.7166930 110.3437349  48.9936626  59.6737031
 110.5373239  49.8982437  59.9196306 110.2437967  48.5344045  60.5075616
 101.9973659  38.8794517  62.1727359 101.3501574  39.5784466  62.0791835
 102.7674675  39.3130661  62.5403607 105.4052457  49.1443369  65.2477912
 105.2537964  48.9153920  64.3307996 105.3957137  50.1013970  65.2609257
 102.1737794  46.7175282  60.2324178 103.1029854  46.8686441  60.0593146
 101.7528824  46.8059302  59.3772825 100.9726126  50.7425946  58.0022716
 100.8337211  50.3744730  58.8748654 100.1840722  51.2573585  57.8306674
 101.5674278  55.8435042  49.3448252 101.7426033  55.3723086  50.1593875
 100.8807066  56.4700809  49.5729513 102.5231341  50.1207549  55.3911554
 102.1881173  50.0808319  56.2869204 102.0235286  49.4552265  54.9181964
  96.4975585  45.5275179  60.9164135  96.3595383  44.7955418  61.5175674
  97.4080508  45.4384079  60.6348323 105.4590532  47.4663583  45.6648613
 104.8419703  46.7410411  45.5681666 104.9907021  48.2272943  45.3215688
  99.1257885  45.2395138  60.4047815  99.8357504  44.5988330  60.3634433
  99.0827194  45.4908033  61.3273995 107.1144664  52.1762491  63.3254394
 107.0557210  51.4921711  62.6584977 107.5164182  52.9181481  62.8735020
  97.8386819  42.2260356  62.2243454  97.3024176  41.7751094  62.8765050
  97.2503528  42.3606265  61.4813918  96.1335363  58.9924405  56.1188113
  96.3731961  59.6242929  56.7967131  95.2904559  58.6412445  56.4053472
  97.2489078  41.6849007  44.7869918  96.3718545  41.5637808  44.4232164
  97.7246831  40.8935086  44.5348806 107.1162071  50.1402075  61.5568373
 106.2288850  49.8027997  61.6794772 107.6860622  49.4085107  61.7937139
  88.7691218  46.4726167  54.8811425  89.4562258  46.1587897  54.2932440
  88.6139347  47.3767532  54.6078676  93.5725941  41.3616364  59.3096448
  93.4884129  40.7542033  58.5746858  92.7508647  41.8525382  59.3105945
 100.6463225  54.8003528  58.5229617 100.5733396  55.6058499  59.0348921
 100.2040618  54.9995493  57.6977638 100.4353004  54.0375298  52.0332438
  99.6520526  54.5796978  52.1270663 101.1345749  54.5549277  52.4326679
 103.7449654  39.8469927  54.6766644 104.2418354  39.0939889  54.3567714
 102.9736636  39.8834244  54.1109853 111.5979412  45.5510293  56.3184935
 111.5869288  46.4335008  55.9478868 110.7296791  45.1981843  56.1239472
 103.1061908  54.6990362  60.6787775 103.8189880  55.3337826  60.6063677
 102.6151937  54.7954228  59.8627777 104.8279435  48.6041614  52.2505067
 103.8935714  48.7243077  52.0809771 105.0056104  47.7014081  51.9865077
 100.3284623  41.9887310  54.4038328  99.9582411  41.4358350  55.0919234
 100.8243716  41.3845444  53.8513328 108.2151986  44.4458934  52.7855101
 108.6812439  45.2786925  52.7115404 108.6659487  43.9803915  53.4900360
  98.1573822  52.4484805  61.4993346  98.8583281  53.0821288  61.6522740
  97.6868937  52.7899537  60.7388985 106.2828218  50.7902755  49.7841253
 106.5588061  50.6759350  50.6935127 105.4132716  50.3920240  49.7453426
 106.1868649  36.8139521  56.8246002 105.2731729  37.0443747  56.9928209
 106.6161751  36.8977965  57.6760035 105.9575108  45.0029413  59.3245896
 105.3046558  45.2505320  58.6698349 106.3355488  44.1893551  58.9908374
 102.9182282  55.0389106  53.4274067 103.1004676  54.2210762  53.8901819
 103.7415268  55.2556798  52.9898957 103.2524447  53.9657291  50.6889115
 103.7812214  53.4549745  50.0759277 103.5152667  53.6499821  51.5534648
 102.0062681  45.7449224  65.8111934 101.3303318  45.6443353  66.4814309
 102.8290315  45.5888437  66.2747931  88.3459195  44.5526760  57.1528892
  88.3843294  44.0190351  57.9466010  87.8399487  44.0261966  56.5339869
 100.7485464  57.0516151  60.0469550 101.3003772  57.2147773  60.8118635
 101.0891657  57.6420589  59.3749574  95.7249957  39.3991301  60.6491434
  95.7891283  40.2606132  60.2368832  95.6617077  38.7865303  59.9163793
  95.2002229  41.4714433  64.2964468  95.8274268  41.0891511  64.9101993
  94.3430148  41.2528635  64.6620161 105.5996338  51.8777409  65.9018204
 106.1436242  52.4907367  65.4073159 105.0183183  52.4356987  66.4185217
  91.9767772  43.2790863  50.2282823  92.2721213  42.3701541  50.1749877
  91.0755808  43.2578602  49.9063826 103.8853851  54.9998127  57.0333232
 103.7604990  54.1987866  56.5244177 104.5432942  55.4944320  56.5447202
  95.5062019  41.3546859  56.2110372  94.7848605  41.9682827  56.0717845
  96.2955275  41.8904624  56.1327018 105.9488759  52.8007147  58.6612782
 105.0019095  52.6812498  58.5891108 106.2971532  51.9129645  58.7439043
  98.3088333  38.6901286  62.4851024  98.8322734  38.9363582  63.2477333
  98.0900666  39.5221320  62.0654161  93.7055614  40.9604960  50.3522148
  93.3768320  40.0802339  50.1697254  94.0594984  40.9052629  51.2398538
 102.9535193  52.5959863  54.8617134 102.8060155  51.6676570  55.0424704
 103.7788686  52.6179954  54.3774209  96.8197437  41.2477930  50.7197626
  97.1593509  41.7763851  49.9976234  97.2669557  41.5858336  51.4956193
 106.5569314  53.4188422  55.9482007 107.4815862  53.2131283  55.8106458
 106.3884618  53.1704823  56.8571348  99.5140878  39.6314981  60.1700694
  99.1737698  38.8322794  60.5721374  98.8079884  39.9316692  59.5977527
 100.1657350  36.7164293  58.6228017 100.9883419  36.2424771  58.5006908
 100.4095413  37.4954777  59.1226704  98.8065584  39.7452552  48.9190919
  99.5273947  40.1233804  48.4154636  98.1830888  40.4641428  49.0225897
 102.9496707  40.4497701  49.8549251 103.1660321  41.3322338  49.5538079
 102.4690774  40.0583914  49.1254893  97.6895928  43.4083414  56.4319996
  97.5440509  43.7223717  57.3244277  97.2121132  44.0268314  55.8790894
  99.5492311  40.3985962  56.4800885  99.5353880  39.5027055  56.1433183
 100.2664739  40.4056626  57.1139171 101.4018442  40.8323302  58.5254013
 101.1436220  41.7540373  58.5238343 100.8703482  40.4353737  59.2154477
 106.3464631  53.9374089  51.3044098 106.5201508  53.3720512  50.5517951
 106.8393522  54.7374984  51.1223588  92.1641590  45.9488758  59.3707657
  91.6195059  46.7248566  59.5027931  93.0420940  46.2959563  59.2126778
  98.9529207  39.2800342  51.7488456  99.0745118  38.3516988  51.9479343
  98.6631249  39.2939028  50.8366771 101.8220397  36.9655252  54.8855175
 101.8442094  37.0294586  53.9307155 102.2388456  36.1259761  55.0795682
 112.2004022  46.7010512  52.9234398 112.6435168  45.9517837  52.5253521
 111.3230532  46.6920648  52.5408130 107.3339803  53.2540854  48.4040996
 108.0290708  53.8747546  48.6228311 107.6762953  52.4036205  48.6793374
 109.2331226  50.7040559  49.9328327 109.7582550  51.0427832  49.2077647
 109.1453579  49.7687574  49.7491462 100.8951275  54.6174633  62.0618204
 101.2038401  54.3723779  62.9340903 101.6926757  54.8221271  61.5737074
 100.9171887  56.7712542  54.2923580 100.4776877  56.2788921  54.9856437
 101.6680004  56.2285510  54.0515656  93.3964226  52.9624083  54.2948209
  94.2222246  52.6627855  53.9146852  93.0458278  52.1931706  54.7437997
  98.3645759  52.3150551  56.3645882  97.7425768  51.6521256  56.0648110
  99.0350626  52.3411683  55.6819530  91.5972831  50.8810410  55.2537142
  90.7604739  50.4532584  55.0721143  91.5696476  51.0742853  56.1907933
  98.4370287  40.7932339  65.9578388  98.4858442  41.6694462  65.5756158
  98.9792801  40.2509732  65.3850031 108.9225132  51.3373463  65.2379525
 108.1320676  51.3197602  64.6984025 108.6858487  51.8761756  65.9928562
 109.0423007  48.1865929  62.5512254 109.0921012  48.0215936  63.4927777
 108.9336931  47.3193188  62.1610135  97.9259266  50.8654475  49.8404343
  98.0747386  51.5489939  49.1871015  98.7325709  50.8459565  50.3553798
 106.3326770  44.1696857  63.8671560 107.2336632  44.0303322  63.5755558
 106.4074744  44.3351312  64.8069738 100.6669575  41.5463712  62.7124747
  99.7972884  41.8397278  62.4407335 100.9029055  42.1304157  63.4332010
 110.5441204  50.6062871  62.7954275 110.2526012  50.9692851  63.6317736
 109.9313335  49.8929879  62.6167607 111.7436886  48.1715750  55.3156846
 112.5783778  48.6105554  55.4794406 111.8796015  47.6954404  54.4965091
 108.7928392  45.7295485  61.2634333 109.2682514  45.9223132  60.4553185
 107.8693958  45.7854671  61.0177717  95.6811899  46.8919652  50.8465412
  95.4357941  45.9881982  51.0445622  95.8507814  46.8936803  49.9044890
 103.3708609  37.7643329  60.2290167 103.8890553  38.5004356  59.9036656
 103.0163742  38.0707322  61.0636926  94.9507547  42.6248010  48.3451573
  94.2576791  42.6992365  47.6891609  94.7059298  41.8608354  48.8673090
 103.6221203  34.1843611  55.7491064 103.9022957  33.5166800  56.3751490
 104.4071810  34.3772707  55.2365728 101.4254672  53.3602605  47.3116090
 100.8528639  53.9792792  46.8586562 101.9987465  53.9101967  47.8456012
 107.4930061  42.6061245  59.4962639 108.4447484  42.7059343  59.5174863
 107.3233512  41.8139514  60.0060723 105.5144441  39.6916828  59.6822040
 104.9194373  39.9721841  58.9868528 105.2294138  40.1810729  60.4538781
 104.6451931  53.6439755  48.4424672 105.5782605  53.5785317  48.6457548
 104.5575144  54.4796022  47.9839205 107.2739948  52.9605626  45.4028620
 107.1953580  52.6265489  46.2964378 108.0949615  53.4527394  45.4020092
 109.9718139  45.8267365  58.6104939 109.9394459  44.8883366  58.7964622
 110.5818763  45.9051402  57.8770763 101.8101470  44.6963418  44.6532143
 102.7560575  44.5669626  44.7220561 101.4315715  43.9578080  45.1301571
 110.1212628  42.6178408  58.6563222 109.6051676  41.8336865  58.4693151
 111.0052576  42.2897125  58.8209741 107.7823355  36.3619424  54.6159034
 107.5848176  36.0534512  55.5002366 108.3923060  37.0881063  54.7456964
 115.7894689  46.8883372  57.7510975 116.5198078  46.6268660  58.3118679
 115.1801635  46.1512094  57.7913043 113.8709986  45.0291234  58.3485427
 113.1443150  44.8947199  57.7401918 113.4557273  45.3368063  59.1542145
 101.6940163  48.7481164  66.1132800 102.6143172  48.9259763  66.3072846
 101.6589746  47.8037209  65.9612499  99.9944387  42.6213394  44.5887028
  99.0875843  42.3246507  44.6649741 100.2720368  42.3243212  43.7221314
  90.9122328  43.9419758  55.0386074  90.5925112  43.0885066  54.7460448
  90.3655756  44.1568336  55.7944042  94.6902235  46.6582199  58.7555581
  94.9088245  47.5899307  58.7743615  95.1028009  46.2990173  59.5410385
 101.6106453  37.1650284  50.7431269 100.8007181  36.8197369  51.1186515
 102.2990870  36.8557828  51.3318881 103.5397001  36.2428331  52.3655566
 104.0928040  36.6623784  53.0245589 103.7767088  35.3164079  52.4078522
  99.5630100  42.2315404  68.1458330  99.4626827  43.1809761  68.0770421
  99.3451643  41.9033643  67.2734400  98.7643172  39.4800330  44.7299007
  99.6262336  39.8055228  44.9894824  98.9493516  38.6931825  44.2172073
  90.7810588  47.5622669  57.0079196  90.0874059  47.1476622  56.4949150
  91.5283579  47.6043206  56.4112615 106.9175808  38.3528856  51.8734230
 106.3374477  39.0113660  51.4912282 106.6511741  37.5306201  51.4621647
 105.3679375  37.7533914  54.0755550 105.8679153  37.8650448  53.2669869
 106.0114983  37.4494967  54.7156359  99.4261371  45.6612543  66.9623391
  98.9428452  46.4612903  67.1687280  99.5122310  45.6720488  66.0090835
  92.6947330  47.4940923  54.8845211  92.6718018  47.5928610  53.9327094
  93.0047967  48.3406074  55.2062377  95.9434090  48.1218194  61.5662623
  96.7626979  48.6162273  61.5897460  96.2170898  47.2050162  61.5380190
 105.7000686  40.5128946  50.9290578 104.8126541  40.7978597  50.7110773
 106.1154675  40.3522710  50.0817855 109.0515222  40.5375467  54.6444917
 109.8275613  41.0271920  54.9169534 108.3263357  40.9633522  55.1016787
 111.4887781  41.2503087  55.7018858 112.0832272  41.0098823  54.9912166
 111.5614365  40.5310217  56.3292394  93.7084937  55.0936698  56.0162023
  93.5739405  54.3337098  55.4500021  93.2916999  55.8177597  55.5490812
 104.8443900  50.2773621  45.0238598 105.5479750  50.4823624  45.6396254
 104.1206549  50.8450383  45.2887682 105.6741710  46.0283482  51.1440868
 105.6176911  46.4852034  50.3048501 106.2270053  45.2674167  50.9663711
 109.4846516  41.8173214  51.9690988 109.2283450  41.4169850  52.7999196
 108.8599384  42.5317008  51.8441127 113.7958854  44.5569287  54.4762279
 113.2358412  44.6262477  55.2493841 113.1902357  44.3810272  53.7561776
  96.8654063  55.9906015  56.2280466  96.7486447  56.9351447  56.1259156
  96.0446509  55.6879576  56.6166265 106.7530597  50.7156150  47.0737058
 107.5876201  50.2837349  46.8914533 106.5914940  50.5438164  48.0013953
 106.4076489  47.2188264  48.4393398 106.3525293  47.0532535  47.4981842
 105.7822545  47.9264296  48.5955587 103.7222397  49.5237175  67.7646960
 104.5913556  49.6977828  67.4033595 103.2429148  50.3431592  67.6422690
  99.7172615  36.7196373  48.0178716  99.7051285  37.6638212  48.1746987
 100.6096037  36.5366518  47.7238177  97.8908577  56.6434276  59.4436394
  98.7935824  56.6757887  59.7602889  97.6645947  55.7134727  59.4582730
  99.6462179  55.3965263  56.1046473  98.6957810  55.3967125  55.9910845
  99.9494665  54.6497998  55.5882507 103.5324734  33.3139149  52.2724653
 102.7657130  32.7597636  52.4181335 103.9435439  33.3861018  53.1338804
  95.5366495  39.6023945  66.3629834  96.3997957  39.2460750  66.5733159
  94.9631906  39.2637840  67.0505238 112.1904579  61.1853229  57.1053760
 111.8523090  61.0694294  56.2174295 113.0594347  60.7844395  57.0854766
 112.6724362  62.3388081  63.0639965 112.6613002  61.9440879  62.1920469
 112.8345001  61.6054154  63.6573737 109.8912858  59.9541477  46.4370700
 110.1438379  59.4322998  45.6754163 108.9537417  59.7907622  46.5397383
 109.6109147  61.8569583  48.6395075 109.4945405  61.1814486  49.3076159
 109.7211407  61.3701957  47.8227228 111.9540688  61.3179730  52.3441764
 111.5898895  60.7910351  53.0554686 112.8107804  60.9278199  52.1708249
 117.8589988  52.6074063  59.6073030 117.5273313  53.4769473  59.3834245
 117.2635602  52.2910347  60.2867061 111.5946175  56.3469630  47.3403113
 111.7620577  57.2149866  47.7073584 111.4043344  56.5096911  46.4164402
 114.3521508  64.8086609  59.0068943 114.0522231  65.7111647  58.8984750
 114.0072567  64.5418792  59.8590096 111.5735395  58.8027287  48.3249779
 111.4535021  59.2484338  49.1635260 110.8787984  59.1512605  47.7663318
 111.8259517  58.7458794  64.6301278 111.0492851  59.3052714  64.6204142
 112.4650080  59.2315577  65.1516148 119.6180298  55.5285587  58.4644254
 118.9754678  55.8218120  57.8184049 119.1135227  55.4138507  59.2697451
 110.0805890  61.5544248  64.1919245 110.8220574  62.0929292  63.9154068
 109.3742875  62.1810536  64.3490796 115.5561229  63.6973388  62.7891406
 115.9644585  63.2555799  62.0446038 114.8338491  63.1226016  63.0425599
 111.9092299  58.6345995  60.1624963 112.7553495  59.0585408  60.3059612
 111.8490937  57.9779619  60.8563526 115.0591745  56.2950363  61.8206137
 114.8152677  57.0492424  61.2840412 115.3351675  56.6735711  62.6553384
 117.0130207  62.8388976  60.4983402 117.2247103  63.4820736  59.8217783
 116.9659956  62.0051292  60.0305332 114.6156436  55.4506796  57.4019974
 113.7540915  55.7488050  57.6936712 114.6418871  55.6677195  56.4701007
 110.3686892  60.1172139  50.6183345 111.0710935  60.5693183  51.0857271
 110.0367520  59.4755958  51.2463238 108.8167253  58.7083896  64.9934555
 108.1865914  59.3900177  65.2269951 108.7103341  58.5966977  64.0487693
 106.0626971  58.7400271  52.8783955 105.2658135  58.8518965  53.3967451
 105.8352563  59.0786923  52.0124846 126.2182028  62.0599680  55.0190731
 125.4645737  61.4907078  54.8634735 126.3529570  62.0262344  55.9661366
 108.0947996  53.0104662  67.3559806 107.7014942  52.4570860  68.0307450
 108.9114136  53.3215240  67.7466323 111.0115957  54.4262541  64.9480062
 111.7525671  55.0269694  64.8684525 111.2433880  53.6840179  64.3898105
 106.1557295  59.6118908  63.2258292 106.0410810  58.7104165  63.5265391
 105.3001813  59.8582605  62.8743108 114.9573120  50.4543644  59.2244344
 114.6137389  51.3445285  59.1483454 115.3252083  50.2645301  58.3613929
 112.5070514  55.2901956  52.7902017 111.6512110  54.9008806  52.6107656
 112.9197466  55.3693916  51.9301803 114.0369660  52.8248299  57.1893577
 113.5334456  52.7878434  56.3761382 114.3300267  53.7341042  57.2490234
 110.2812546  52.9087029  56.1959759 111.1465543  52.7129837  55.8365648
 110.3490055  52.6797380  57.1229116 107.8874865  55.1389237  53.5676126
 108.4618617  54.9164418  52.8349319 108.4745848  55.2077931  54.3204727
 108.2144453  57.1693698  47.5872011 107.3781765  57.5068384  47.9081286
 108.0749222  57.0342677  46.6499148 110.1897533  52.0130485  52.2951195
 109.5361945  51.6979503  51.6707810 110.1478007  51.3906226  53.0211018
 111.3008738  62.2949780  44.2104487 110.3935800  62.0639034  44.4095636
 111.7979770  61.4987400  44.3978469 113.4235274  58.5012419  56.6198843
 112.5057835  58.7227366  56.4620531 113.8395417  58.5758729  55.7610550
 116.6549158  56.9360951  53.7320312 115.9171915  56.4238337  54.0630555
 116.9075932  56.4961333  52.9203589 116.7560786  49.7137203  54.3262081
 117.0619663  48.8534566  54.0387997 117.4813391  50.3054823  54.1261075
 111.0281865  60.0090996  54.8338273 111.0830475  59.0564832  54.7580749
 110.2173068  60.1650435  55.3179571 108.9674225  58.6268056  52.5928651
 108.1542091  58.9262226  52.9993844 109.4633220  58.2323744  53.3103134
 114.5648437  59.0909880  61.4243545 114.9197825  59.3181353  62.2838011
 115.2120568  59.4228257  60.8020801 108.4588300  56.1986411  58.2089886
 109.0987679  56.0575170  57.5112850 107.6265831  55.9120925  57.8328488
 105.5431368  59.6431923  50.3984632 104.6128956  59.5816379  50.6154594
 105.6388840  59.1207876  49.6021273 105.4616917  56.1686736  52.9862873
 105.7223734  57.0832069  52.8772034 106.2834089  55.7011179  53.1359486
 106.9341842  57.5824493  60.1561698 107.6064895  57.3741856  59.5074347
 106.1071628  57.3846579  59.7166930 112.8367414  54.2086434  62.1727359
 112.1895329  54.9076384  62.0791835 113.6068429  54.6422578  62.5403607
 116.2446212  64.4735286  65.2477912 116.0931718  64.2445838  64.3307996
 116.2350891  65.4305888  65.2609257 113.0131548  62.0467199  60.2324178
 113.9423608  62.1978359  60.0593146 112.5922578  62.1351220  59.3772825
 107.3369339  60.8567096  60.9164135 107.1989137  60.1247335  61.5175674
 108.2474263  60.7675996  60.6348323 109.9651640  60.5687056  60.4047815
 110.6751258  59.9280248  60.3634433 109.9220948  60.8199951  61.3273995
 108.6780574  57.5552274  62.2243454 108.1417931  57.1043012  62.8765050
 108.0897282  57.6898182  61.4813918 108.0882833  57.0140925  44.7869918
 107.2112299  56.8929726  44.4232164 108.5640586  56.2227003  44.5348806
 104.4119695  56.6908281  59.3096448 104.3277884  56.0833951  58.5746858
 103.5902401  57.1817300  59.3105945 114.5843409  55.1761845  54.6766644
 115.0812108  54.4231807  54.3567714 113.8130390  55.2126161  54.1109853
 122.4373166  60.8802210  56.3184935 122.4263043  61.7626926  55.9478868
 121.5690546  60.5273761  56.1239472 111.1678378  57.3179228  54.4038328
 110.7976165  56.7650268  55.0919234 111.6637470  56.7137361  53.8513328
 117.0262404  52.1431438  56.8246002 116.1125483  52.3735665  56.9928209
 117.4555505  52.2269882  57.6760035 112.8456435  61.0741141  65.8111934
 112.1697072  60.9735271  66.4814309 113.6684069  60.9180355  66.2747931
 106.5643711  54.7283219  60.6491434 106.6285038  55.5898049  60.2368832
 106.5010832  54.1157220  59.9163793 106.0395984  56.8006351  64.2964468
 106.6668023  56.4183428  64.9101993 105.1823903  56.5820553  64.6620161
 116.4390092  67.2069326  65.9018204 116.9829996  67.8199285  65.4073159
 115.8576937  67.7648905  66.4185217 102.8161527  58.6082780  50.2282823
 103.1114968  57.6993459  50.1749877 101.9149562  58.5870520  49.9063826
 106.3455774  56.6838777  56.2110372 105.6242359  57.2974745  56.0717845
 107.1349029  57.2196542  56.1327018 109.1482087  54.0193203  62.4851024
 109.6716489  54.2655500  63.2477333 108.9294420  54.8513238  62.0654161
 104.5449368  56.2896878  50.3522148 104.2162074  55.4094257  50.1697254
 104.8988739  56.2344547  51.2398538 107.6591191  56.5769848  50.7197626
 107.9987264  57.1055769  49.9976234 108.1063312  56.9150254  51.4956193
 110.3534632  54.9606898  60.1700694 110.0131453  54.1614711  60.5721374
 109.6473638  55.2608609  59.5977527 111.0051104  52.0456211  58.6228017
 111.8277173  51.5716689  58.5006908 111.2489168  52.8246695  59.1226704
 109.6459338  55.0744469  48.9190919 110.3667701  55.4525722  48.4154636
 109.0224643  55.7933346  49.0225897 113.7890461  55.7789618  49.8549251
 114.0054076  56.6614256  49.5538079 113.3084529  55.3875832  49.1254893
 108.5289683  58.7375331  56.4319996 108.3834263  59.0515635  57.3244277
 108.0514886  59.3560232  55.8790894 110.3886066  55.7277879  56.4800885
 110.3747634  54.8318973  56.1433183 111.1058494  55.7348543  57.1139171
 112.2412196  56.1615220  58.5254013 111.9829974  57.0832290  58.5238343
 111.7097237  55.7645654  59.2154477 109.7922962  54.6092260  51.7488456
 109.9138873  53.6808906  51.9479343 109.5025004  54.6230946  50.8366771
 112.6614152  52.2947170  54.8855175 112.6835849  52.3586503  53.9307155
 113.0782211  51.4551679  55.0795682 109.2764041  56.1224257  65.9578388
 109.3252197  56.9986380  65.5756158 109.8186555  55.5801650  65.3850031
 119.8816762  63.5157847  62.5512254 119.9314767  63.3507854  63.4927777
 119.7730685  62.6485106  62.1610135 117.1720524  59.4988775  63.8671560
 118.0730387  59.3595240  63.5755558 117.2468499  59.6643230  64.8069738
 111.5063330  56.8755630  62.7124747 110.6366639  57.1689196  62.4407335
 111.7422810  57.4596075  63.4332010 119.6322147  61.0587403  61.2634333
 120.1076269  61.2515049  60.4553185 118.7087712  61.1146589  61.0177717
 106.5205654  62.2211570  50.8465412 106.2751695  61.3173900  51.0445622
 106.6901568  62.2228721  49.9044890 114.2102363  53.0935246  60.2290167
 114.7284307  53.8296273  59.9036656 113.8557496  53.3999240  61.0636926
 105.7901301  57.9539928  48.3451573 105.0970546  58.0284283  47.6891609
 105.5453053  57.1900271  48.8673090 114.4614958  49.5135529  55.7491064
 114.7416711  48.8458718  56.3751490 115.2465564  49.7064625  55.2365728
 112.2648426  68.6894523  47.3116090 111.6922393  69.3084710  46.8586562
 112.8381220  69.2393885  47.8456012 118.3323816  57.9353163  59.4962639
 119.2841239  58.0351261  59.5174863 118.1627266  57.1431432  60.0060723
 116.3538195  55.0208746  59.6822040 115.7588127  55.3013759  58.9868528
 116.0687892  55.5102647  60.4538781 120.8111894  61.1559283  58.6104939
 120.7788214  60.2175283  58.7964622 121.4212517  61.2343319  57.8770763
 120.9606382  57.9470326  58.6563222 120.4445431  57.1628783  58.4693151
 121.8446331  57.6189043  58.8209741 118.6217109  51.6911342  54.6159034
 118.4241930  51.3826430  55.5002366 119.2316815  52.4172981  54.7456964
 126.6288444  62.2175289  57.7510975 127.3591832  61.9560578  58.3118679
 126.0195389  61.4804011  57.7913043 124.7103741  60.3583152  58.3485427
 123.9836904  60.2239117  57.7401918 124.2951028  60.6659981  59.1542145
 112.5333917  64.0773082  66.1132800 113.4536927  64.2551681  66.3072846
 112.4983500  63.1329127  65.9612499 110.8338142  57.9505312  44.5887028
 109.9269597  57.6538425  44.6649741 111.1114123  57.6535130  43.7221314
 112.4500207  52.4942202  50.7431269 111.6400936  52.1489287  51.1186515
 113.1384624  52.1849745  51.3318881 114.3790756  51.5720249  52.3655566
 114.9321794  51.9915702  53.0245589 114.6160842  50.6455997  52.4078522
 110.4023855  57.5607322  68.1458330 110.3020582  58.5101679  68.0770421
 110.1845397  57.2325561  67.2734400 109.6036926  54.8092247  44.7299007
 110.4656090  55.1347146  44.9894824 109.7887270  54.0223743  44.2172073
 117.7569563  53.6820774  51.8734230 117.1768232  54.3405578  51.4912282
 117.4905495  52.8598118  51.4621647 116.2073129  53.0825831  54.0755550
 116.7072908  53.1942366  53.2669869 116.8508737  52.7786884  54.7156359
 110.2655125  60.9904461  66.9623391 109.7822207  61.7904821  67.1687280
 110.3516064  61.0012406  66.0090835 119.8908977  55.8667385  54.6444917
 120.6669367  56.3563837  54.9169534 119.1657111  56.2925439  55.1016787
 122.3281536  56.5795004  55.7018858 122.9226026  56.3390740  54.9912166
 122.4008119  55.8602135  56.3292394 124.6352608  59.8861205  54.4762279
 124.0752166  59.9554394  55.2493841 124.0296112  59.7102190  53.7561776
 102.0362759  57.7848246  62.2654820 102.6821622  57.2747200  62.7542045
 101.8279910  58.5216927  62.8398245 114.5616151  64.8529093  67.7646960
 115.4307311  65.0269745  67.4033595 114.0822903  65.6723510  67.6422690
 110.5566369  52.0488290  48.0178716 110.5445039  52.9930130  48.1746987
 111.4489791  51.8658436  47.7238177 114.3718489  48.6431067  52.2724653
 113.6050885  48.0889554  52.4181335 114.7829194  48.7152936  53.1338804
 106.3760250  54.9315863  66.3629834 107.2391711  54.5752668  66.5733159
 105.8025661  54.5929758  67.0505238 124.4684707  82.0351591  48.4065116
 123.8172687  82.6205672  48.0199129 125.2629070  82.5657786  48.4660153
 131.1758322  74.2244406  55.1478422 131.9083494  73.6543623  55.3816251
 130.4197678  73.8366007  55.5884927 128.6983743  67.9365980  59.6073030
 128.3667068  68.8061391  59.3834245 128.1029356  67.6202264  60.2867061
 120.1736042  86.9022847  51.9739911 120.0960072  87.8530672  52.0528391
 119.5697686  86.5568719  52.6314837 130.4574052  70.8577505  58.4644254
 129.8148433  71.1510038  57.8184049 129.9528981  70.7430425  59.2697451
 128.1114216  74.6040678  49.1530113 129.0232072  74.8368065  48.9777811
 127.6023863  75.1877722  48.5905192 126.7183798  79.5866496  56.5443695
 126.0892661  79.7512211  55.8419763 126.3309461  80.0008106  57.3154659
 130.5973030  80.5220934  53.8988059 129.9124069  80.9019836  53.3485092
 130.6816880  81.1316261  54.6320006 137.0575783  77.3891597  55.0190731
 136.3039491  76.8198995  54.8634735 137.1923324  77.3554262  55.9661366
 118.9341751  68.3396579  67.3559806 118.5408696  67.7862778  68.0307450
 119.7507891  68.6507158  67.7466323 125.7966875  65.7835561  59.2244344
 125.4531144  66.6737203  59.1483454 126.1645837  65.5937219  58.3613929
 125.7617157  75.7744172  47.7316779 125.2463781  76.5448777  47.9705166
 125.4894466  75.1009309  48.3549840 130.7351431  78.5276527  49.6669952
 129.9580874  78.1887687  49.2225114 131.4142912  78.5329150  48.9924917
 125.5503460  73.6471265  49.5576560 125.2453596  73.9617414  50.4086703
 126.5033903  73.7252684  49.6003893 128.9742738  78.0010508  56.3236560
 128.3166413  78.6909770  56.4116689 129.7783138  78.3906940  56.6670547
 122.1402492  77.6241698  44.2104487 121.2329554  77.3930952  44.4095636
 122.6373524  76.8279317  44.3978469 125.0470571  86.3339205  47.1301173
 124.3732270  86.6370902  47.7386131 125.4336393  87.1368286  46.7806630
 123.3190726  77.7254293  48.7328477 122.4101945  77.4413326  48.8300947
 123.3485810  78.1453372  47.8731784 128.5509993  81.3360883  52.5019645
 128.0972320  80.4951792  52.5584835 127.9203960  81.9722281  52.8394425
 126.9942933  83.1737379  53.4369463 127.2865907  83.7342436  52.7181829
 127.5041553  83.4665940  54.1922622 127.5954540  65.0429121  54.3262081
 127.9013417  64.1826484  54.0387997 128.3207145  65.6346741  54.1261075
 123.0166814  79.2663037  46.0716556 122.5786244  78.5498896  45.6122193
 123.7577255  79.4939152  45.5101647 131.1339929  77.5420234  52.1292874
 130.9957827  77.7321830  51.2014064 130.7776147  78.3039617  52.5860925
 131.1609308  79.6096761  57.1404146 131.5945815  79.5172050  57.9887200
 131.8740889  79.5854261  56.5024162 132.0224858  79.6520461  59.6737031
 132.2160748  80.5566272  59.9196306 131.9225476  79.1927880  60.5075616
 123.2461787  86.5018878  49.3448252 123.4213542  86.0306921  50.1593875
 122.5594575  87.1284644  49.5729513 127.1378041  78.1247418  45.6648613
 126.5207212  77.3994247  45.5681666 126.6694530  78.8856779  45.3215688
 117.8122872  89.6508241  56.1188113 118.0519470  90.2826765  56.7967131
 116.9692068  89.2996281  56.4053472 133.2766921  76.2094128  56.3184935
 133.2656797  77.0918843  55.9478868 132.4084300  75.8565679  56.1239472
 129.8939495  75.1042769  52.7855101 130.3599948  75.9370761  52.7115404
 130.3446996  74.6387751  53.4900360 127.9615727  81.4486590  49.7841253
 128.2375570  81.3343185  50.6935127 127.0920225  81.0504075  49.7453426
 127.8656158  67.4723356  56.8246002 126.9519238  67.7027583  56.9928209
 128.2949260  67.5561800  57.6760035 127.6362617  75.6613248  59.3245896
 126.9834067  75.9089155  58.6698349 128.0142997  74.8477386  58.9908374
 124.5969791  85.6972941  53.4274067 124.7792185  84.8794597  53.8901819
 125.4202777  85.9140633  52.9898957 124.9311956  84.6241126  50.6889115
 125.4599722  84.1133581  50.0759277 125.1940176  84.3083656  51.5534648
 128.2356823  84.0772257  55.9482007 129.1603371  83.8715118  55.8106458
 128.0672127  83.8288658  56.8571348 124.6284216  71.1081536  49.8549251
 124.8447830  71.9906174  49.5538079 124.1478283  70.7167749  49.1254893
 128.0252140  84.5957924  51.3044098 128.1989017  84.0304347  50.5517951
 128.5181031  85.3958819  51.1223588 133.8791531  77.3594347  52.9234398
 134.3222677  76.6101673  52.5253521 133.0018041  77.3504484  52.5408130
 129.0127312  83.9124689  48.4040996 129.7078217  84.5331382  48.6228311
 129.3550462  83.0620040  48.6793374 130.9118735  81.3624394  49.9328327
 131.4370059  81.7011667  49.2077647 130.8241088  80.4271410  49.7491462
 128.0114279  74.8280692  63.8671560 128.9124141  74.6887157  63.5755558
 128.0862253  74.9935147  64.8069738 132.2228713  81.2646706  62.7954275
 131.9313521  81.6276686  63.6317736 131.6100844  80.5513714  62.6167607
 133.4224395  78.8299586  55.3156846 134.2571287  79.2689390  55.4794406
 133.5583524  78.3538239  54.4965091 130.4715901  76.3879321  61.2634333
 130.9470023  76.5806967  60.4553185 129.5481467  76.4438506  61.0177717
 123.1042181  84.0186441  47.3116090 122.5316148  84.6376628  46.8586562
 123.6774974  84.5685802  47.8456012 129.1717570  73.2645081  59.4962639
 130.1234993  73.3643178  59.5174863 129.0021021  72.4723349  60.0060723
 127.1931950  70.3500664  59.6822040 126.5981882  70.6305677  58.9868528
 126.9081647  70.8394565  60.4538781 126.3239440  84.3023591  48.4424672
 127.2570113  84.2369152  48.6457548 126.2362653  85.1379858  47.9839205
 128.9527457  83.6189461  45.4028620 128.8741089  83.2849325  46.2964378
 129.7737124  84.1111229  45.4020092 131.6505648  76.4851200  58.6104939
 131.6181968  75.5467201  58.7964622 132.2606272  76.5635237  57.8770763
 123.4888979  75.3547253  44.6532143 124.4348084  75.2253461  44.7220561
 123.1103224  74.6161915  45.1301571 131.8000137  73.2762244  58.6563222
 131.2839185  72.4920700  58.4693151 132.6840085  72.9480960  58.8209741
 129.4610864  67.0203259  54.6159034 129.2635685  66.7118348  55.5002366
 130.0710569  67.7464898  54.7456964 135.5497495  75.6875070  58.3485427
 134.8230659  75.5531035  57.7401918 135.1344782  75.9951898  59.1542145
 121.6731896  73.2797230  44.5887028 120.7663352  72.9830342  44.6649741
 121.9507877  72.9827048  43.7221314 120.4430681  70.1384165  44.7299007
 121.3049845  70.4639063  44.9894824 120.6281025  69.3515661  44.2172073
 128.5963317  69.0112691  51.8734230 128.0161986  69.6697495  51.4912282
 128.3299250  68.1890036  51.4621647 127.3788195  71.1712782  50.9290578
 126.4914050  71.4562432  50.7110773 127.7942184  71.0106545  50.0817855
 130.7302731  71.1959303  54.6444917 131.5063122  71.6855755  54.9169534
 130.0050866  71.6217357  55.1016787 133.1675290  71.9086922  55.7018858
 133.7619781  71.6682658  54.9912166 133.2401874  71.1894053  56.3292394
 126.5231409  80.9357456  45.0238598 127.2267259  81.1407459  45.6396254
 125.7994058  81.5034218  45.2887682 127.3529219  76.6867318  51.1440868
 127.2964420  77.1435869  50.3048501 127.9057562  75.9258002  50.9663711
 131.1634025  72.4757050  51.9690988 130.9070959  72.0753685  52.7999196
 130.5386893  73.1900843  51.8441127 135.4746363  75.2153123  54.4762279
 134.9145921  75.2846312  55.2493841 134.8689866  75.0394107  53.7561776
 128.4318106  81.3739986  47.0737058 129.2663710  80.9421184  46.8914533
 128.2702449  81.2021999  48.0013953 128.0863998  77.8772099  48.4393398
 128.0312802  77.7116370  47.4981842 127.4610054  78.5848132  48.5955587
 125.2112243  63.9722985  52.2724653 124.4444639  63.4181471  52.4181335
 125.6222948  64.0444853  53.1338804 133.8692088  91.8437065  57.1053760
 133.5310599  91.7278130  56.2174295 134.7381856  91.4428230  57.0854766
 129.7278903  93.6972541  53.0950651 129.1643768  93.6062478  52.3266938
 129.6131298  92.8772446  53.5753143 134.3511871  92.9971917  63.0639965
 134.3400511  92.6024715  62.1920469 134.5132510  92.2637989  63.6573737
 127.2743335  95.1923733  55.9334871 128.0664627  94.8514557  55.5181170
 127.5139985  95.3018708  56.8537024 135.3078462  97.3643509  48.4065116
 134.6566442  97.9497589  48.0199129 136.1022825  97.8949704  48.4660153
 129.2334089  94.4532646  48.8052250 130.0064965  93.9061633  48.6665126
 129.5859488  95.3176895  49.0166711 131.0719132  95.7809028  62.0119149
 130.7808998  96.6854659  61.8965816 131.7076116  95.8225556  62.7263219
 131.9975339  93.1585877  58.6020509 132.5938911  92.9341899  57.8877472
 132.0550310  92.4170622  59.2045957 131.5700367  90.6125312  46.4370700
 131.8225888  90.0906833  45.6754163 130.6324926  90.4491458  46.5397383
 136.6143650  89.6161091  54.2445443 137.4006739  89.1980514  53.8935860
 136.8782354  90.5207183  54.4127091 136.7853727  95.0533941  48.9434100
 136.1499560  95.1268567  49.6555005 136.4551134  95.6427540  48.2653179
 131.2896656  92.5153418  48.6395075 131.1732914  91.8398322  49.3076159
 131.3998916  92.0285792  47.8227228 133.6328197  91.9763565  52.3441764
 133.2686404  91.4494186  53.0554686 134.4895313  91.5862034  52.1708249
 133.2733684  87.0053465  47.3403113 133.4408086  87.8733701  47.7073584
 133.0830853  87.1680747  46.4164402 136.0309017  95.4670444  59.0068943
 135.7309740  96.3695483  58.8984750 135.6860076  95.2002627  59.8590096
 129.4821498  91.9184241  55.0405647 128.5571995  91.7860455  55.2483339
 129.7305911  92.6978460  55.5375590 133.2522904  89.4611122  48.3249779
 133.1322530  89.9068173  49.1635260 132.5575493  89.8096440  47.7663318
 126.8430309  91.5617514  55.8749436 126.9722690  91.8151993  56.7888848
 126.1627761  92.1545222  55.5554091 131.0129797 102.2314764  51.9739911
 130.9353826 103.1822589  52.0528391 130.4091440 101.8860637  52.6314837
 133.5047026  89.4042630  64.6301278 132.7280360  89.9636550  64.6204142
 134.1437589  89.8899413  65.1516148 131.7593399  92.2128083  64.1919245
 132.5008083  92.7513127  63.9154068 131.0530384  92.8394372  64.3490796
 137.2348738  94.3557223  62.7891406 137.6432094  93.9139634  62.0446038
 136.5126000  93.7809851  63.0425599 133.5879808  89.2929830  60.1624963
 134.4341004  89.7169244  60.3059612 133.5278446  88.6363455  60.8563526
 137.5577553  94.9158414  56.5443695 136.9286415  95.0804128  55.8419763
 137.1703215  95.3300024  57.3154659 136.7379254  86.9534199  61.8206137
 136.4940186  87.7076259  61.2840412 137.0139184  87.3319546  62.6553384
 136.2943945  86.1090632  57.4019974 135.4328424  86.4071885  57.6936712
 136.3206380  86.3261031  56.4701007 133.1105515  94.6532822  53.8093780
 133.5743860  94.9320525  53.0198402 132.8462313  93.7516267  53.6266871
 130.0029596  94.2004304  56.7473543 130.5730953  94.6291572  56.1091028
 130.5937708  93.9186888  57.4457729 132.0474401  90.7755975  50.6183345
 132.7498444  91.2277018  51.0857271 131.7155029  90.1339793  51.2463238
 130.4954762  89.3667731  64.9934555 129.8653423  90.0484012  65.2269951
 130.3890850  89.2550813  64.0487693 125.7899735  89.0339527  55.9200479
 124.9998789  89.2897056  55.4440589 126.2810982  89.8487865  56.0252519
 127.7414480  89.3984106  52.8783955 126.9445643  89.5102801  53.3967451
 127.5140072  89.7370759  52.0124846 133.5720148  95.9228810  60.8266470
 133.6364580  96.3849217  61.6624642 132.8631072  95.2926175  60.9548780
 124.0737438  89.2870018  58.3515469 124.3245476  90.1717028  58.6173045
 124.6096986  89.1074619  57.5790561 133.2868165  97.5896917  50.6945450
 133.1513840  98.4348453  51.1230298 133.8277978  97.7916195  49.9311384
 129.7735505  83.6688497  67.3559806 129.3802451  83.1154696  68.0307450
 130.5901645  83.9799076  67.7466323 126.7397563  95.1072355  51.2673375
 127.2522083  95.9015605  51.4178940 127.3920276  94.4098646  51.2006977
 128.5492448  98.2238112  53.3496129 128.7259076  99.1456076  53.1617112
 129.3449281  97.9096531  53.7790508 132.6903466  85.0846376  64.9480062
 133.4313179  85.6853529  64.8684525 132.9221389  84.3424014  64.3898105
 127.8344804  90.2702743  63.2258292 127.7198319  89.3688001  63.5265391
 126.9789322  90.5166440  62.8743108 134.9136642  98.2120484  64.8245792
 134.4700496  97.4256862  64.5066697 135.5753855  98.3999634  64.1589683
 129.6723763  99.7416285  59.3506471 130.2231188  99.6133349  58.5783465
 128.8335239 100.0411174  59.0001364 133.4690934  96.0067413  63.6950702
 134.0019271  95.2455701  63.4650010 132.9405015  95.7141065  64.4374857
 136.6360629  81.1127479  59.2244344 136.2924898  82.0029121  59.1483454
 137.0039592  80.9229137  58.3613929 124.7046480  93.4361010  52.0432946
 125.5421702  93.8458018  51.8266654 124.8824747  92.4960452  52.0133140
 136.6010912  91.1036090  47.7316779 136.0857535  91.8740695  47.9705166
 136.3288220  90.4301226  48.3549840 134.1858023  85.9485791  52.7902017
 133.3299619  85.5592641  52.6107656 134.5984975  86.0277752  51.9301803
 135.7157169  83.4832134  57.1893577 135.2121965  83.4462269  56.3761382
 136.0087776  84.3924877  57.2490234 131.9600055  83.5670864  56.1959759
 132.8253052  83.3713673  55.8365648 132.0277564  83.3381216  57.1229116
 136.3897215  88.9763182  49.5576560 136.0847351  89.2909331  50.4086703
 137.3427657  89.0544602  49.6003893 134.8343647  95.1353406  51.2069514
 134.3065008  94.4006165  50.8942752 134.3331150  95.9128082  50.9609482
 129.5662374  85.7973072  53.5676126 130.1406126  85.5748253  52.8349319
 130.1533357  85.8661766  54.3204727 129.8931962  87.8277533  47.5872011
 129.0569274  88.1652219  47.9081286 129.7536731  87.6926513  46.6499148
 131.8685042  82.6714321  52.2951195 131.2149454  82.3563338  51.6707810
 131.8265516  82.0490061  53.0211018 132.9796247  92.9533616  44.2104487
 132.0723309  92.7222869  44.4095636 133.4767279  92.1571235  44.3978469
 135.8864326 101.6631123  47.1301173 135.2126025 101.9662820  47.7386131
 136.2730148 102.4660203  46.7806630 135.1022782  89.1596254  56.6198843
 134.1845344  89.3811201  56.4620531 135.5182926  89.2342565  55.7610550
 135.8857830  90.5587670  51.7501523 136.6329649  91.0709067  51.4408645
 136.1549420  90.2371723  52.6105916 134.1584480  93.0546211  48.7328477
 133.2495700  92.7705244  48.8300947 134.1879564  93.4745289  47.8731784
 124.7272651  90.7751725  52.7143679 124.5297051  90.1821086  51.9894746
 124.1719315  90.4703935  53.4319618 132.7069374  90.6674831  54.8338273
 132.7617984  89.7148668  54.7580749 131.8960576  90.8234270  55.3179571
 133.8560568  94.5954954  46.0716556 133.4179998  93.8790813  45.6122193
 134.5971009  94.8231069  45.5101647 130.6461734  89.2851891  52.5928651
 129.8329600  89.5846062  52.9993844 131.1420729  88.8907580  53.3103134
 132.7970312  99.2809648  54.5262916 132.7546491  99.5070494  53.5971448
 133.7133011  99.0473023  54.6748717 136.2435946  89.7493716  61.4243545
 136.5985334  89.9765189  62.2838011 136.8908077  90.0812092  60.8020801
 130.1375809  86.8570247  58.2089886 130.7775188  86.7159006  57.5112850
 129.3053340  86.5704760  57.8328488 130.9136113  96.1572677  54.3224879
 131.7076712  95.6622997  54.1207454 130.2027805  95.6290540  53.9592584
 135.7330958  98.5390773  58.6737246 135.7867980  99.1081709  59.4414962
 134.8645739  98.7092658  58.3091284 127.2218877  90.3015759  50.3984632
 126.2916465  90.2400214  50.6154594 127.3176348  89.7791712  49.6021273
 127.1404426  86.8270572  52.9862873 127.4011243  87.7415905  52.8772034
 127.9621598  86.3595014  53.1359486 128.6129351  88.2408329  60.1561698
 129.2852404  88.0325691  59.5074347 127.7859137  88.0430415  59.7166930
 134.5154923  84.8670270  62.1727359 133.8682838  85.5660219  62.0791835
 135.2855938  85.3006414  62.5403607 134.6919057  92.7051035  60.2324178
 135.6211117  92.8562194  60.0593146 134.2710087  92.7935055  59.3772825
 133.4907389  96.7301699  58.0022716 133.3518475  96.3620483  58.8748654
 132.7021985  97.2449338  57.8306674 134.0855541 101.8310795  49.3448252
 134.2607297 101.3598839  50.1593875 133.3988329 102.4576562  49.5729513
 135.0412604  96.1083302  55.3911554 134.7062437  96.0684072  56.2869204
 134.5416550  95.4428018  54.9181964 129.0156848  91.5150932  60.9164135
 128.8776646  90.7831171  61.5175674 129.9261772  91.4259832  60.6348323
 131.6439149  91.2270891  60.4047815 132.3538767  90.5864083  60.3634433
 131.6008457  91.4783786  61.3273995 128.6516626 104.9800158  56.1188113
 128.8913225 105.6118682  56.7967131 127.8085823 104.6288198  56.4053472
 129.7670342  87.6724760  44.7869918 128.8899808  87.5513561  44.4232164
 130.2428095  86.8810839  44.5348806 121.2872482  92.4601920  54.8811425
 121.9743522  92.1463650  54.2932440 121.1320611  93.3643285  54.6078676
 133.1644488 100.7879281  58.5229617 133.0914660 101.5934252  59.0348921
 132.7221881 100.9871246  57.6977638 132.9534268 100.0251051  52.0332438
 132.1701790 100.5672731  52.1270663 133.6527013 100.5425030  52.4326679
 136.2630918  85.8345680  54.6766644 136.7599617  85.0815642  54.3567714
 135.4917899  85.8709997  54.1109853 135.6243172 100.6866115  60.6787775
 136.3371144 101.3213580  60.6063677 135.1333200 100.7829981  59.8627777
 137.3460699  94.5917367  52.2505067 136.4116977  94.7118830  52.0809771
 137.5237367  93.6889834  51.9865077 132.8465887  87.9763063  54.4038328
 132.4763674  87.4234104  55.0919234 133.3424979  87.3721197  53.8513328
 130.6755085  98.4360558  61.4993346 131.3764545  99.0697041  61.6522740
 130.2050200  98.7775290  60.7388985 135.4363545 101.0264859  53.4274067
 135.6185940 100.2086515  53.8901819 136.2596531 101.2432551  52.9898957
 135.7705711  99.9533044  50.6889115 136.2993477  99.4425499  50.0759277
 136.0333930  99.6375574  51.5534648 134.5243944  91.7324977  65.8111934
 133.8484581  91.6319106  66.4814309 135.3471578  91.5764190  66.2747931
 126.2722803  97.9696913  58.4324449 126.8576240  97.2240601  58.5652353
 126.0747642  98.2800870  59.3161113 129.1261458 101.0048161  53.4486891
 128.4571834 101.4894288  52.9650931 128.9874328 101.2517381  54.3630270
 120.8640458  90.5402513  57.1528892 120.9024558  90.0066104  57.9466010
 120.3580751  90.0137719  56.5339869 133.2666727 103.0391904  60.0469550
 133.8185035 103.2023526  60.8118635 133.6072921 103.6296342  59.3749574
 124.4949036  89.2666616  50.2282823 124.7902477  88.3577294  50.1749877
 123.5937071  89.2454355  49.9063826 136.4035114 100.9873880  57.0333232
 136.2786254 100.1863619  56.5244177 137.0614205 101.4820073  56.5447202
 128.0243283  87.3422612  56.2110372 127.3029868  87.9558580  56.0717845
 128.8136538  87.8780377  56.1327018 126.2236877  86.9480713  50.3522148
 125.8949583  86.0678092  50.1697254 126.5776248  86.8928382  51.2398538
 135.4716456  98.5835616  54.8617134 135.3241418  97.6552323  55.0424704
 136.2969950  98.6055707  54.3774209 129.3378700  87.2353683  50.7197626
 129.6774773  87.7639604  49.9976234 129.7850821  87.5734089  51.4956193
 132.0322141  85.6190734  60.1700694 131.6918962  84.8198547  60.5721374
 131.3261147  85.9192445  59.5977527 132.6838613  82.7040046  58.6228017
 133.5064682  82.2300524  58.5006908 132.9276677  83.4830530  59.1226704
 131.3246847  85.7328305  48.9190919 132.0455210  86.1109557  48.4154636
 130.7012152  86.4517181  49.0225897 135.4677970  86.4373454  49.8549251
 135.6841585  87.3198091  49.5538079 134.9872038  86.0459667  49.1254893
 130.2077192  89.3959167  56.4319996 130.0621772  89.7099470  57.3244277
 129.7302395  90.0144067  55.8790894 132.0673575  86.3861715  56.4800885
 132.0535143  85.4902808  56.1433183 132.7846003  86.3932379  57.1139171
 133.9199705  86.8199055  58.5254013 133.6617483  87.7416126  58.5238343
 133.3884746  86.4229490  59.2154477 124.6822854  91.9364511  59.3707657
 124.1376322  92.7124319  59.5027931 125.5602204  92.2835316  59.2126778
 131.4710471  85.2676095  51.7488456 131.5926382  84.3392741  51.9479343
 131.1812513  85.2814781  50.8366771 134.3401661  82.9531006  54.8855175
 134.3623358  83.0170339  53.9307155 134.7569720  82.1135514  55.0795682
 125.4688876  91.0634407  62.2637814 124.7270612  91.2117043  62.8502444
 125.1481620  91.3242673  61.4004563 133.4132538 100.6050386  62.0618204
 133.7219665 100.3599532  62.9340903 134.2108020 100.8097024  61.5737074
 133.4353150 102.7588295  54.2923580 132.9958141 102.2664674  54.9856437
 134.1861267 102.2161263  54.0515656 125.9145489  98.9499836  54.2948209
 126.7403509  98.6503608  53.9146852 125.5639541  98.1807459  54.7437997
 130.8827023  98.3026304  56.3645882 130.2607032  97.6397009  56.0648110
 131.5531890  98.3287436  55.6819530 124.1154094  96.8686163  55.2537142
 123.2786003  96.4408337  55.0721143 124.0877740  97.0618606  56.1907933
 130.9551550  86.7808092  65.9578388 131.0039706  87.6570215  65.5756158
 131.4974064  86.2385486  65.3850031 130.4440530  96.8530228  49.8404343
 130.5928650  97.5365692  49.1871015 131.2506973  96.8335318  50.3553798
 133.1850839  87.5339465  62.7124747 132.3154148  87.8273031  62.4407335
 133.4210319  88.1179910  63.4332010 128.1993162  92.8795405  50.8465412
 127.9539204  91.9757735  51.0445622 128.3689077  92.8812556  49.9044890
 135.8889872  83.7519082  60.2290167 136.4071816  84.4880109  59.9036656
 135.5345005  84.0583075  61.0636926 127.4688810  88.6123763  48.3451573
 126.7758055  88.6868118  47.6891609 127.2240562  87.8484107  48.8673090
 136.1402467  80.1719364  55.7491064 136.4204220  79.5042553  56.3751490
 136.9253073  80.3648460  55.2365728 133.9435935  99.3478358  47.3116090
 133.3709902  99.9668545  46.8586562 134.5168729  99.8977720  47.8456012
 134.3282734  90.6839171  44.6532143 135.2741838  90.5545379  44.7220561
 133.9496978  89.9453833  45.1301571 134.2121426  94.7356917  66.1132800
 135.1324436  94.9135516  66.3072846 134.1771009  93.7912962  65.9612499
 132.5125651  88.6089147  44.5887028 131.6057106  88.3122260  44.6649741
 132.7901632  88.3118965  43.7221314 123.4303591  89.9295511  55.0386074
 123.1106375  89.0760819  54.7460448 122.8837019  90.1444089  55.7944042
 127.2083499  92.6457952  58.7555581 127.4269508  93.5775060  58.7743615
 127.6209272  92.2865926  59.5410385 134.1287716  83.1526037  50.7431269
 133.3188445  82.8073122  51.1186515 134.8172133  82.8433581  51.3318881
 136.0578265  82.2304084  52.3655566 136.6109303  82.6499537  53.0245589
 136.2948351  81.3039832  52.4078522 132.0811364  88.2191158  68.1458330
 131.9808091  89.1685514  68.0770421 131.8632906  87.8909396  67.2734400
 131.2824435  85.4676083  44.7299007 132.1443599  85.7930981  44.9894824
 131.4674779  84.6807578  44.2172073 123.2991851  93.5498422  57.0079196
 122.6055323  93.1352375  56.4949150 124.0464842  93.5918959  56.4112615
 131.9442634  91.6488296  66.9623391 131.4609716  92.4488656  67.1687280
 132.0303573  91.6596241  66.0090835 125.2128594  93.4816676  54.8845211
 125.1899282  93.5804363  53.9327094 125.5229230  94.3281827  55.2062377
 127.8715971  95.5392831  58.9991825 128.8259225  95.5076773  58.9321757
 127.6728495  95.0783455  59.8142051 128.4615354  94.1093947  61.5662623
 129.2808243  94.6038026  61.5897460 128.7352161  93.1925915  61.5380190
 126.2266200 101.0812451  56.0162023 126.0920668 100.3212851  55.4500021
 125.8098263 101.8053350  55.5490812 129.3835326 101.9781768  56.2280466
 129.2667710 102.9227200  56.1259156 128.5627772 101.6755329  56.6166265
 136.2403660  95.5112928  67.7646960 137.1094820  95.6853581  67.4033595
 135.7610412  96.3307345  67.6422690 132.2353878  82.7072126  48.0178716
 132.2232548  83.6513966  48.1746987 133.1277300  82.5242271  47.7238177
 130.4089840 102.6310029  59.4436394 131.3117087 102.6633640  59.7602889
 130.1827210 101.7010480  59.4582730 132.1643442 101.3841016  56.1046473
 131.2139073 101.3842878  55.9910845 132.4675928 100.6373751  55.5882507
 136.0505998  79.3014902  52.2724653 135.2838394  78.7473389  52.4181335
 136.4616703  79.3736771  53.1338804 136.6293489 104.3631445  55.9200479
 135.8392543 104.6188973  55.4440589 137.1204737 105.1779783  56.0252519
 134.9131192 104.6161935  58.3515469 135.1639231 105.5008945  58.6173045
 135.4490741 104.4366537  57.5790561 135.5440234 108.7652927  52.0432946
 136.3815456 109.1749936  51.8266654 135.7218502 107.8252369  52.0133140
 135.5666405 106.1043643  52.7143679 135.3690805 105.5113003  51.9894746
 135.0113069 105.7995853  53.4319618 132.1266236 107.7893838  54.8811425
 132.8137276 107.4755568  54.2932440 131.9714365 108.6935202  54.6078676
 136.9300959 102.6784034  59.3096448 136.8459147 102.0709704  58.5746858
 136.1083665 103.1693053  59.3105945 131.7034212 105.8694431  57.1528892
 131.7418312 105.3358022  57.9466010 131.1974505 105.3429637  56.5339869
 135.3342790 104.5958533  50.2282823 135.6296231 103.6869212  50.1749877
 134.4330826 104.5746273  49.9063826 137.0630632 102.2772631  50.3522148
 136.7343338 101.3970010  50.1697254 137.4170002 102.2220300  51.2398538
 135.5216608 107.2656429  59.3707657 134.9770076 108.0416237  59.5027931
 136.3995958 107.6127233  59.2126778 136.3082630 106.3926325  62.2637814
 135.5664366 106.5408961  62.8502444 135.9875375 106.6534591  61.4004563
 136.7539244 114.2791754  54.2948209 137.5797264 113.9795526  53.9146852
 136.4033296 113.5099376  54.7437997 134.9547849 112.1978080  55.2537142
 134.1179757 111.7700255  55.0721143 134.9271494 112.3910524  56.1907933
 134.2697346 105.2587428  55.0386074 133.9500130 104.4052737  54.7460448
 133.7230774 105.4736007  55.7944042 134.1385606 108.8790340  57.0079196
 133.4449077 108.4644293  56.4949150 134.8858597 108.9210876  56.4112615
 136.0522348 108.8108594  54.8845211 136.0293036 108.9096281  53.9327094
 136.3622985 109.6573745  55.2062377 137.0659955 116.4104368  56.0162023
 136.9314423 115.6504769  55.4500021 136.6492017 117.1345268  55.5490812
 134.5544022 103.7723999  62.2654820 135.2002886 103.2622953  62.7542045
 134.3461173 104.5092680  62.8398245  76.8161025   2.5917298  38.6985217
  76.7385055   3.5425124  38.7773698  76.2122669   2.2463171  39.3560144
  75.4754992   0.1018819  46.0751778  76.0262417  -0.0264117  45.3028772
  74.6366468   0.4013709  45.7246670  81.6895555   2.0233657  33.8546480
  81.0157253   2.3265354  34.4631438  82.0761377   2.8262738  33.5051937
  79.8886770   2.1913330  36.0693559  80.0638526   1.7201373  36.8839182
  79.2019558   2.8179096  36.2974820  74.4547855   5.3402692  42.8433419
  74.6944453   5.9721217  43.5212438  73.6117052   4.9890732  43.1298779
  78.9675717   1.1481815  45.2474923  78.8945888   1.9536786  45.7594228
  78.5253110   1.3473781  44.4222945  78.7565497   0.3853585  38.7577745
  77.9733018   0.9275265  38.8515969  79.4558242   0.9027565  39.1571986
  81.4274400   1.0468649  47.4033082  82.1402373   1.6816114  47.3308983
  80.9364429   1.1432515  46.5873084  72.0754032  -1.6700553  45.1569755
  72.6607469  -2.4156865  45.2897660  71.8778871  -1.3596596  46.0406419
  74.9292687   1.3650695  40.1732198  74.2603063   1.8496822  39.6896238
  74.7905557   1.6119915  41.0875576  79.0697956   3.3994438  46.7714856
  79.6216264   3.5626060  47.5363941  79.4104149   3.9898876  46.0994881
  79.2163767   0.9652920  48.7863511  79.5250894   0.7202067  49.6586210
  80.0139249   1.1699558  48.2982381  79.2384379   3.1190830  41.0168887
  78.7989370   2.6267208  41.7101744  79.9892496   2.5763797  40.7760962
  71.7176718  -0.6897630  41.0193515  72.5434738  -0.9893858  40.6392159
  71.3670770  -1.4590007  41.4683304  69.9185323  -2.7711303  41.9782449
  69.0817232  -3.1989129  41.7966450  69.8908969  -2.5778860  42.9153240
  72.0297429   1.4414985  42.7407330  71.8951897   0.6815386  42.1745328
  71.6129491   2.1655885  42.2736118  75.1866555   2.3384302  42.9525772
  75.0698939   3.2829734  42.8504462  74.3659001   2.0357863  43.3411571
  76.2121069   2.9912564  46.1681701  77.1148316   3.0236174  46.4848196
  75.9858439   2.0613015  46.1828036  77.9674671   1.7443550  42.8291779
  77.0170302   1.7445412  42.7156152  78.2707157   0.9976285  42.3127814
  93.7027365   7.5804089  43.8937542  94.3405775   7.4610836  43.1900882
  93.5848207   8.5284933  43.9525494  90.5117071   7.5331517  43.8299066
  90.1735582   7.4172581  42.9419601  91.3806839   7.1322682  43.8100072
  86.3703887   9.3866993  39.8195957  85.8068752   9.2956930  39.0512245
  86.2556282   8.5666898  40.2998450  90.9936854   8.6866368  49.7885272
  90.9825495   8.2919167  48.9165776  91.1557493   7.9532441  50.3819043
  83.9168318  10.8818185  42.6580178  84.7089610  10.5409009  42.2426477
  84.1564969  10.9913160  43.5782331  91.9503445  13.0537961  35.1310422
  91.2991425  13.6392041  34.7444436  92.7447808  13.5844156  35.1905460
  85.8759072  10.1427098  35.5297557  86.6489948   9.5956085  35.3910432
  86.2284471  11.0071347  35.7412018  87.7144115  11.4703480  48.7364456
  87.4233981  12.3749111  48.6211122  88.3501099  11.5120008  49.4508525
  88.6400322   8.8480329  45.3265816  89.2363894   8.6236351  44.6122778
  88.6975293   8.1065074  45.9291263  88.2125350   6.3019764  33.1616006
  88.4650871   5.7801285  32.3999469  87.2749909   6.1385910  33.2642690
  93.4278710  10.7428393  35.6679407  92.7924543  10.8163019  36.3800311
  93.0976117  11.3321992  34.9898486  87.9321639   8.2047870  35.3640381
  87.8157897   7.5292773  36.0321466  88.0423899   7.7180244  34.5472534
  90.2753180   7.6658017  39.0687071  89.9111387   7.1388638  39.7799992
  91.1320296   7.2756486  38.8953556  92.6734000  11.1564896  45.7314250
  92.3734723  12.0589935  45.6230057  92.3285060  10.8897079  46.5835402
  86.1246482   7.6078693  41.7650954  85.1996978   7.4754907  41.9728646
  86.3730895   8.3872912  42.2620896  89.8947888   5.1505574  35.0495086
  89.7747513   5.5962625  35.8880566  89.2000476   5.4990892  34.4908624
  83.4855293   7.2511966  42.5994743  83.6147674   7.5046445  43.5134155
  82.8052744   7.8439674  42.2799398  87.6554780  17.9209216  38.6985217
  87.5778810  18.8717041  38.7773698  87.0516423  17.5755089  39.3560144
  90.1472010   5.0937082  51.3546584  89.3705344   5.6531002  51.3449449
  90.7862573   5.5793865  51.8761454  88.4018382   7.9022535  50.9164551
  89.1433066   8.4407579  50.6399375  87.6955367   8.5288824  51.0736103
  93.8773722  10.0451675  49.5136713  94.2857078   9.6034086  48.7691345
  93.1550983   9.4704303  49.7670906  90.2304792   4.9824282  46.8870270
  91.0765987   5.4063696  47.0304919  90.1703429   4.3257906  47.5808833
  94.2002536  10.6052866  43.2689002  93.5711399  10.7698580  42.5665069
  93.8128198  11.0194476  44.0399966  98.0791768  11.5407304  40.6233365
  97.3942806  11.9206205  40.0730399  98.1635617  12.1502631  41.3565313
  95.3342700   9.1867263  47.2228709  95.5459595   9.8299023  46.5463090
  95.2872448   8.3529579  46.7550639  89.7530498  10.3427274  40.5339087
  90.2168844  10.6214977  39.7443709  89.4887296   9.4410719  40.3512177
  86.6454579   9.8898756  43.4718850  87.2155936  10.3186024  42.8336334
  87.2362691   9.6081340  44.1703036  88.6899384   6.4650426  37.3428652
  89.3923428   6.9171470  37.8102578  88.3580013   5.8234245  37.9708545
  87.1379746   5.0562183  51.7179861  86.5078406   5.7378464  51.9515258
  87.0315834   4.9445265  50.7732999  82.4324718   4.7233979  42.6445785
  81.6423772   4.9791508  42.1685896  82.9235966   5.5382317  42.7497826
  96.4488528  12.0639218  45.3951066  97.2705971  11.6619406  45.1133748
  96.4450931  11.9607452  46.3467182  84.3839464   5.0878558  39.6029262
  83.5870627   5.1997253  40.1212758  84.1565056   5.4265211  38.7370153
  90.2145131  11.6123262  47.5511777  90.2789564  12.0743669  48.3869948
  89.5056055  10.9820627  47.6794086  80.7162421   4.9764470  45.0760776
  80.9670460   5.8611479  45.3418352  81.2521970   4.7969071  44.3035868
  89.9293149  13.2791369  37.4190757  89.7938824  14.1242905  37.8475605
  90.4702961  13.4810647  36.6556691  83.3822546  10.7966807  37.9918682
  83.8947067  11.5910057  38.1424247  84.0345259  10.0993098  37.9252284
  85.1917431  13.9132563  40.0741435  85.3684059  14.8350528  39.8862419
  85.9874264  13.5990983  40.5035815  84.4769787   5.9597195  49.9503598
  84.3623303   5.0582453  50.2510697  83.6214305   6.2060892  49.5988415
  91.5561625  13.9014936  51.5491099  91.1125479  13.1151314  51.2312004
  92.2178839  14.0894086  50.8834990  86.3148746  15.4310737  46.0751778
  86.8656171  15.3027801  45.3028772  85.4760222  15.7305626  45.7246670
  93.6542863  14.1817736  49.5772500  93.6361339  15.0026617  49.0852770
  94.5762783  14.0571811  49.8022641  90.1115917  11.6961865  50.4196009
  90.6444254  10.9350153  50.1895317  89.5829998  11.4035517  51.1620163
  81.3471463   9.1255461  38.7678253  82.1846685   9.5352470  38.5511960
  81.5249731   8.1854904  38.7378446  93.2435895   6.7930542  34.4562086
  92.7282519   7.5635147  34.6950473  92.9713204   6.1195678  35.0795147
  98.2170169   9.5462897  36.3915259  97.4399612   9.2074056  35.9470421
  98.8961650   9.5515520  35.7170224  91.4768630  10.8247857  37.9314821
  90.9489992  10.0900617  37.6188058  90.9756133  11.6022534  37.6854789
  96.4561476   9.0196878  43.0481867  95.7985151   9.7096139  43.1361996
  97.2601875   9.4093310  43.3915853  95.2666935   7.3741251  41.0985809
  95.7798817   8.0071242  41.6007518  95.9168159   6.7742446  40.7329169
  86.5356945   3.5171985  34.3117317  85.6994257   3.8546671  34.6326592
  86.3961714   3.3820965  33.3744454  89.6221230   8.6428068  30.9349794
  88.7148292   8.4117321  31.1340943  90.1192262   7.8465687  31.1223775
  92.5289309  17.3525575  33.8546480  91.8551008  17.6557272  34.4631438
  92.9155131  18.1554655  33.5051937  91.7447766   4.8490706  43.3444149
  90.8270327   5.0705653  43.1865837  92.1607909   4.9237017  42.4855857
  92.5282814   6.2482122  38.4746830  93.2754632   6.7603519  38.1653952
  92.7974403   5.9266175  39.3351223  90.8009464   8.7440663  35.4573784
  89.8920683   8.4599695  35.5546254  90.8304548   9.1639741  34.5977091
  96.0328731  12.3547252  39.2264951  95.5791058  11.5138162  39.2830142
  95.4022698  12.9908650  39.5639732  94.4761670  14.1923749  40.1614770
  94.7684645  14.7528806  39.4427135  94.9860291  14.4852310  40.9167929
  81.3697634   6.4646177  39.4388986  81.1722034   5.8715537  38.7140053
  80.8144298   6.1598387  40.1564925  89.3494358   6.3569283  41.5583579
  89.4042968   5.4043120  41.4826056  88.5385560   6.5128722  42.0424878
  90.4985552  10.2849406  32.7961862  90.0604981   9.5685265  32.3367500
  91.2395992  10.5125521  32.2346954  87.2886718   4.9746343  39.3173958
  86.4754583   5.2740514  39.7239150  87.7845712   4.5802032  40.0348440
  89.4395296  14.9704100  41.2508223  89.3971474  15.1964946  40.3216755
  90.3557994  14.7367474  41.3994024  92.8860929   5.4388167  48.1488852
  93.2410317   5.6659641  49.0083318  93.5333061   5.7706544  47.5266107
  98.6158666   8.5606603  38.8538181  98.4776565   8.7508199  37.9259370
  98.2594885   9.3225986  39.3106232  98.6428046  10.6283130  43.8649452
  99.0764553  10.5358419  44.7132507  99.3559627  10.6040631  43.2269468
  87.5561096  11.8467129  41.0470185  88.3501695  11.3517449  40.8452760
  86.8452789  11.3184992  40.6837891  92.3755941  14.2285224  45.3982553
  92.4292963  14.7976161  46.1660269  91.5070722  14.3987109  45.0336590
  83.8643860   5.9910211  37.1229938  82.9341448   5.9294666  37.3399900
  83.9601332   5.4686163  36.3266579  83.7829409   2.5165023  39.7108180
  84.0436226   3.4310357  39.6017340  84.6046581   2.0489466  39.8604793
  85.2554334   3.9302781  46.8807004  85.9277388   3.7220143  46.2319653
  84.4284121   3.7324867  46.4412237  99.5043595  10.6706831  46.3982338
  99.6979486  11.5752641  46.6441613  99.4044214  10.2114250  47.2320923
  94.5658704  10.8213574  51.9723218  94.4144211  10.5924125  51.0553302
  94.5563384  11.7784175  51.9854564  91.3344041   8.3945486  46.9569485
  92.2636101   8.5456646  46.7838452  90.9135071   8.4829507  46.1018131
  90.1332372  12.4196151  44.7268023  89.9943458  12.0514935  45.5993961
  89.3446969  12.9343790  44.5551980  90.7280524  17.5205247  36.0693559
  90.9032280  17.0493291  36.8839182  90.0413312  18.1471014  36.2974820
  91.6837587  11.7977754  42.1156860  91.3487420  11.7578524  43.0114510
  91.1841533  11.1322469  41.6427271  85.6581831   7.2045384  47.6409442
  85.5201629   6.4725622  48.2420981  86.5686755   7.1154284  47.3593629
  94.6196779   9.1433788  32.3893920  94.0025950   8.4180616  32.2926973
  94.1513268   9.9043148  32.0460994  88.2864132   6.9165343  47.1293121
  88.9963751   6.2758535  47.0879740  88.2433440   7.1678238  48.0519302
  96.2750911  13.8532696  50.0499700  96.2163457  13.1691916  49.3830283
  96.6770429  14.5951686  49.5980326  86.9993066   3.9030561  48.9488761
  86.4630423   3.4521299  49.6010357  86.4109775   4.0376470  48.2059225
  85.2941610  20.6694610  42.8433419  85.5338208  21.3013134  43.5212438
  84.4510806  20.3182650  43.1298779  86.4095325   3.3619212  31.5115224
  85.5324791   3.2408013  31.1477471  86.8853078   2.5705291  31.2594113
  96.2768318  11.8172280  48.2813680  95.3895097  11.4798202  48.4040079
  96.8466869  11.0855311  48.5182445  77.9297465   8.1496372  41.6056731
  78.6168505   7.8358102  41.0177747  77.7745594   9.0537737  41.3323983
  82.7332187   3.0386569  46.0341755  82.6490376   2.4312238  45.2992165
  81.9114894   3.5295587  46.0351251  89.8069471  16.4773733  45.2474923
  89.7339643  17.2828704  45.7594228  89.3646865  16.6765698  44.4222945
  89.5959251  15.7145503  38.7577745  88.8126773  16.2567183  38.8515969
  90.2951996  16.2319482  39.1571986  92.2668155  16.3760567  47.4033082
  92.9796127  17.0108031  47.3308983  91.7758184  16.4724433  46.5873084
  93.9885682  10.2811819  38.9750374  93.0541961  10.4013282  38.8055078
  94.1662350   9.3784286  38.7110383  87.3180069  14.1255010  48.2238653
  88.0189528  14.7591493  48.3768047  86.8475184  14.4669742  47.4634292
  95.4434464  12.4672960  36.5086560  95.7194308  12.3529554  37.4180434
  94.5738963  12.0690445  36.4698733  95.1181354   6.6799618  46.0491203
  94.4652805   6.9275525  45.3943656  95.4961734   5.8663756  45.7153680
  92.0788528  16.7159311  40.1519373  92.2610923  15.8980967  40.6147126
  92.9021514  16.9327003  39.7144263  92.4130694  15.6427496  37.4134422
  92.9418460  15.1319950  36.8004584  92.6758913  15.3270026  38.2779955
  91.1668928   7.4219429  52.5357240  90.4909565   7.3213558  53.2059615
  91.9896561   7.2658642  52.9993237  82.9147787  13.6591365  45.1569755
  83.5001223  12.9135053  45.2897660  82.7172625  13.9695322  46.0406419
  85.7686442  16.6942612  40.1732198  85.0996817  17.1788740  39.6896238
  85.6299311  16.9411833  41.0875576  77.5065441   6.2296965  43.8774199
  77.5449541   5.6960556  44.6711317  77.0005734   5.7032171  43.2585176
  89.9091710  18.7286356  46.7714856  90.4610018  18.8917978  47.5363941
  90.2497904  19.3190794  46.0994881  84.3608476   3.1484638  51.0209775
  84.9880515   2.7661716  51.6347299  83.5036395   2.9298840  51.3865468
  94.7602585  13.5547614  52.6263511  95.3042489  14.1677572  52.1318465
  94.1789430  14.1127192  53.1430524  81.1374019   4.9561067  36.9528130
  81.4327460   4.0471746  36.8995184  80.2362055   4.9348807  36.6309132
  93.0460098  16.6768332  43.7578538  92.9211237  15.8758071  43.2489484
  93.7039189  17.1714525  43.2692508  84.6668266   3.0317064  42.9355679
  83.9454852   3.6453032  42.7963152  85.4561522   3.5674829  42.8572324
  95.1095006  14.4777352  45.3858088  94.1625342  14.3582703  45.3136415
  95.4577779  13.5899850  45.4684350  82.8661860   2.6375165  37.0767455
  82.5374567   1.7572544  36.8942561  83.2201231   2.5822834  37.9643844
  92.1141439  14.2730068  41.5862441  91.9666402  13.3446775  41.7670011
  92.9394933  14.2950159  41.1019516  85.9803684   2.9248135  37.4442933
  86.3199756   3.4534056  36.7221541  86.4275804   3.2628541  38.2201499
  95.7175561  15.0958627  42.6727313  96.6422109  14.8901488  42.5351765
  95.5490865  14.8475028  43.5816655  86.8502175   5.0853619  43.1565302
  86.7046756   5.3993922  44.0489584  86.3727379   5.7038519  42.6036201
  95.5070877  15.6144294  38.0289405  95.6807755  15.0490717  37.2763257
  95.9999769  16.4145189  37.8468895  81.3247837   7.6258963  46.0952964
  80.7801305   8.4018771  46.2273238  82.2027187   7.9729768  45.9372085
  96.4946050  14.9311058  35.1286303  97.1896955  15.5517751  35.3473618
  96.8369200  14.0806410  35.4038681  82.1113859   6.7528859  48.9883121
  81.3695595   6.9011495  49.5747751  81.7906603   7.0137125  48.1249870
  98.3937473  12.3810764  36.6573634  98.9188797  12.7198037  35.9322954
  98.3059826  11.4457779  36.4736769  90.0557522  16.2944838  48.7863511
  90.3644648  16.0493984  49.6586210  90.8533004  16.4991476  48.2982381
  90.0778134  18.4482747  41.0168887  89.6383124  17.9559126  41.7101744
  90.8286251  17.9055715  40.7760962  82.5570473  14.6394288  41.0193515
  83.3828493  14.3398060  40.6392159  82.2064525  13.8701911  41.4683304
  87.5252006  13.9920756  43.0891189  86.9032015  13.3291461  42.7893417
  88.1956873  14.0181888  42.4064837  80.7579078  12.5580615  41.9782449
  79.9210986  12.1302789  41.7966450  80.7302723  12.7513058  42.9153240
  98.0831379  13.0143668  51.9624832  97.2926923  12.9967806  51.4229331
  97.8464734  13.5531961  52.7173868  98.2029254   9.8636134  49.2757560
  98.2527259   9.6986141  50.2173083  98.0943177   8.9963393  48.8855441
  87.0865513  12.5424680  36.5649649  87.2353633  13.2260144  35.9116322
  87.8931956  12.5229770  37.0799105  99.7047451  12.2833075  49.5199582
  99.4132259  12.6463056  50.3563043  99.0919582  11.5700084  49.3412914
 100.9043133   9.8485955  42.0402152 101.7390025  10.2875759  42.2039713
 101.0402262   9.3724608  41.2210398  97.9534639   7.4065690  47.9879640
  98.4288761   7.5993336  47.1798491  97.0300205   7.4624876  47.7423024
  84.8418146   8.5689857  37.5710718  84.5964188   7.6652187  37.7690928
  85.0114060   8.5707008  36.6290196  84.1113793   4.3018215  35.0696880
  83.4183038   4.3762570  34.4136916  83.8665545   3.5378559  35.5918397
  90.5860918  15.0372810  34.0361397  90.0134885  15.6562997  33.5831869
  91.1593712  15.5872172  34.5701319  93.8058178  15.3209960  35.1669979
  94.7388851  15.2555522  35.3702854  93.7181391  16.1566227  34.7084512
  96.4346195  14.6375831  32.1273927  96.3559826  14.3035694  33.0209684
  97.2555862  15.1297598  32.1265399  90.9707717   6.3733623  31.3777449
  91.9166822   6.2439831  31.4465867  90.5921962   5.6348285  31.8546877
  90.8546409  10.4251369  52.8378106  91.7749419  10.6029968  53.0318153
  90.8195992   9.4807414  52.6857805  89.1550634   4.2983599  31.3132334
  88.2482089   4.0016712  31.3895048  89.4326615   4.0013417  30.4466621
  80.0728574   5.6189963  41.7631381  79.7531359   4.7655271  41.4705755
  79.5262003   5.8338541  42.5189348  83.8508482   8.3352404  45.4800887
  84.0694492   9.2669511  45.4988921  84.2634256   7.9760378  46.2655691
  88.7236347   3.9085609  54.8703636  88.6233074   4.8579966  54.8015727
  88.5057889   3.5803848  53.9979706  79.9416834   9.2392874  43.7324502
  79.2480306   8.8246827  43.2194457  80.6889825   9.2813411  43.1357921
  88.5867617   7.3382748  53.6868698  88.1034699   8.1383108  53.8932587
  88.6728556   7.3490693  52.7336142  81.8553577   9.1711128  41.6090517
  81.8324265   9.2698815  40.6572400  82.1654213  10.0176279  41.9307683
  84.5140955  11.2287283  45.7237132  85.4684208  11.1971225  45.6567063
  84.3153478  10.7677907  46.5387358  85.1040337   9.7988399  48.2907929
  85.9233226  10.2932478  48.3142767  85.3777145   8.8820367  48.2625497
  82.8691184  16.7706902  42.7407330  82.7345651  16.0107303  42.1745328
  82.4523246  17.4947802  42.2736118  94.0050147  11.9543826  31.7483905
  94.7085997  12.1593828  32.3641560  93.2812795  12.5220588  32.0132988
  94.8347957   7.7053687  37.8686175  94.7783158   8.1622239  37.0293807
  95.3876299   6.9444372  37.6909018  86.0260309  17.6676219  42.9525772
  85.9092694  18.6121652  42.8504462  85.2052756  17.3649781  43.3411571
  95.9136844  12.3926355  33.7982365  96.7482448  11.9607554  33.6159840
  95.7521187  12.2208369  34.7259259  95.5682736   8.8958468  35.1638704
  95.5131540   8.7302740  34.2227148  94.9428791   9.6034501  35.3200894
  80.3575251   4.1326533  48.9900126  81.0034115   3.6225487  49.4787352
  80.1492402   4.8695215  49.5643552  92.8828643  11.2007380  54.4892267
  93.7519803  11.3748033  54.1278902  92.4035395  12.0201797  54.3667996
  87.0514824  18.3204481  46.1681701  87.9542070  18.3528092  46.4848196
  86.8252194  17.3904932  46.1828036  88.8068426  17.0735468  42.8291779
  87.8564057  17.0737330  42.7156152  89.1100912  16.3268202  42.3127814
 104.5421119  22.9096006  43.8937542 105.1799529  22.7902754  43.1900882
 104.4241962  23.8576850  43.9525494 101.3510825  22.8623434  43.8299066
 101.0129337  22.7464499  42.9419601 102.2200594  22.4614599  43.8100072
  97.2097641  24.7158911  39.8195957  96.6462506  24.6248848  39.0512245
  97.0950036  23.8958815  40.2998450 101.8330608  24.0158286  49.7885272
 101.8219249  23.6211084  48.9165776 101.9951248  23.2824359  50.3819043
  94.7562073  26.2110102  42.6580178  95.5483365  25.8700927  42.2426477
  94.9958723  26.3205077  43.5782331 102.7897200  28.3829879  35.1310422
 102.1385180  28.9683959  34.7444436 103.5841563  28.9136073  35.1905460
  96.7152827  25.4719016  35.5297557  97.4883703  24.9248003  35.3910432
  97.0678226  26.3363265  35.7412018  98.5537869  26.7995398  48.7364456
  98.2627735  27.7041029  48.6211122  99.1894854  26.8411926  49.4508525
  99.4794076  24.1772246  45.3265816 100.0757649  23.9528269  44.6122778
  99.5369048  23.4356992  45.9291263  99.0519105  21.6311682  33.1616006
  99.3044625  21.1093203  32.3999469  98.1143664  21.4677827  33.2642690
 104.0962388  20.6347460  40.9690750 104.8825477  20.2166883  40.6181167
 104.3601092  21.5393552  41.1372398 104.2672465  26.0720310  35.6679407
 103.6318298  26.1454937  36.3800311 103.9369871  26.6613909  34.9898486
 109.4970815  20.5722693  41.8723728 110.2295987  20.0021910  42.1061558
 108.7410170  20.1844294  42.3130234  98.7715393  23.5339788  35.3640381
  98.6551652  22.8584691  36.0321466  98.8817653  23.0472162  34.5472534
 101.1146934  22.9949935  39.0687071 100.7505142  22.4680556  39.7799992
 101.9714050  22.6048404  38.8953556 107.0196235  14.2844267  46.3318337
 106.6879560  15.1539678  46.1079552 106.4241848  13.9680551  47.0112367
 100.7552421  18.0239835  34.0648419 100.9226824  18.8920071  34.4318890
 100.5649590  18.1867116  33.1409708 103.5127755  26.4856813  45.7314250
 103.2128478  27.3881852  45.6230057 103.1678814  26.2188997  46.5835402
  96.9640236  22.9370610  41.7650954  96.0390733  22.8046824  41.9728646
  97.2124649  23.7164830  42.2620896 106.9124898  19.0039354  43.4111687
 106.0041776  18.9354762  43.1170448 106.8612494  19.4811299  44.2393512
 100.7341642  20.4797492  35.0495086 100.6141267  20.9254543  35.8880566
 100.0394231  20.8282810  34.4908624  94.3249047  22.5803884  42.5994743
  94.4541428  22.8338363  43.5134155  93.6446498  23.1731592  42.2799398
  98.4948534  33.2501134  38.6985217  98.4172564  34.2008959  38.7773698
  97.8910178  32.9047006  39.3560144 100.9865764  20.4228999  51.3546584
 100.2099098  20.9822919  51.3449449 101.6256327  20.9085782  51.8761454
 108.7786545  17.2055792  45.1889561 108.1360925  17.4988325  44.5429355
 108.2741473  17.0908712  45.9942757 106.4326708  20.9518965  35.8775420
 107.3444565  21.1846352  35.7023118 105.9236355  21.5356009  35.3150499
  99.2412136  23.2314453  50.9164551  99.9826821  23.7699497  50.6399375
  98.5349122  23.8580741  51.0736103 104.7167476  25.3743593  49.5136713
 105.1250832  24.9326004  48.7691345 103.9944738  24.7996221  49.7670906
 101.0698546  20.3116200  46.8870270 101.9159741  20.7355613  47.0304919
 101.0097184  19.6549824  47.5808833 105.0396291  25.9344784  43.2689002
 104.4105153  26.0990498  42.5665069 104.6521953  26.3486393  44.0399966
 108.9185523  26.8699222  40.6233365 108.2336561  27.2498123  40.0730399
 109.0029372  27.4794548  41.3565313 104.2197991  17.9720568  48.5451443
 103.9758923  18.7262629  48.0085719 104.4957922  18.3505916  49.3798690
 106.1736454  24.5159181  47.2228709 106.3853349  25.1590940  46.5463090
 106.1266202  23.6821497  46.7550639 103.7762683  17.1277001  44.1265281
 102.9147162  17.4258255  44.4182019 103.8025118  17.3447400  43.1946314
 100.5924253  25.6719192  40.5339087 101.0562598  25.9506895  39.7443709
 100.3281051  24.7702636  40.3512177  97.4848334  25.2190673  43.4718850
  98.0549691  25.6477942  42.8336334  98.0756446  24.9373258  44.1703036
  99.5293139  21.7942344  37.3428652 100.2317182  22.2463388  37.8102578
  99.1973767  21.1526163  37.9708545  97.9773500  20.3854101  51.7179861
  97.3472161  21.0670382  51.9515258  97.8709588  20.2737182  50.7732999
  93.2718473  20.0525897  42.6445785  92.4817527  20.3083425  42.1685896
  93.7629720  20.8674235  42.7497826 107.2882282  27.3931136  45.3951066
 108.1099726  26.9911323  45.1133748 107.2844685  27.2899370  46.3467182
  95.2233218  20.4170476  39.6029262  94.4264381  20.5289170  40.1212758
  94.9958810  20.7557128  38.7370153 101.0538886  26.9415179  47.5511777
 101.1183318  27.4035586  48.3869948 100.3449810  26.3112544  47.6794086
  91.5556176  20.3056387  45.0760776  91.8064214  21.1903397  45.3418352
  92.0915724  20.1260989  44.3035868 115.3788275  23.7369884  41.7436038
 114.6251984  23.1677283  41.5880042 115.5135816  23.7032549  42.6906672
 100.7686903  28.6083287  37.4190757 100.6332578  29.4534822  37.8475605
 101.3096716  28.8102564  36.6556691  97.2554243  14.6874867  54.0805112
  96.8621188  14.1341065  54.7552756  98.0720383  14.9985445  54.4711630
  94.2216301  26.1258725  37.9918682  94.7340821  26.9201975  38.1424247
  94.8739014  25.4285015  37.9252284  96.0311185  29.2424481  40.0741435
  96.2077814  30.1642446  39.8862419  96.8268019  28.9282900  40.5035815
 100.1722204  16.1032746  51.6725369 100.9131917  16.7039899  51.5929831
 100.4040127  15.3610383  51.1143411  95.3163542  21.2889113  49.9503598
  95.2017057  20.3874370  50.2510697  94.4608060  21.5352810  49.5988415
 102.3955380  29.2306853  51.5491099 101.9519234  28.4443232  51.2312004
 103.0572593  29.4186004  50.8834990  97.1542501  30.7602655  46.0751778
  97.7049926  30.6319718  45.3028772  96.3153977  31.0597544  45.7246670
 104.4936618  29.5109653  49.5772500 104.4755093  30.3318534  49.0852770
 105.4156538  29.3863728  49.8022641 100.9509672  27.0253783  50.4196009
 101.4838009  26.2642071  50.1895317 100.4223753  26.7327434  51.1620163
 104.1179367  12.1313849  45.9489650 103.7743636  13.0215490  45.8728761
 104.4858329  11.9415506  45.0859235  92.1865217  24.4547379  38.7678253
  93.0240439  24.8644387  38.5511960  92.3643485  23.5146821  38.7378446
 104.0829650  22.1222460  34.4562086 103.5676273  22.8927064  34.6950473
 103.8106958  21.4487596  35.0795147 101.6676761  16.9672161  39.5147324
 100.8118357  16.5779011  39.3352963 102.0803712  17.0464121  38.6547109
 103.1975907  14.5018504  43.9138884 102.6940703  14.4648639  43.1006689
 103.4906514  15.4111247  43.9735540  99.4418793  14.5857234  42.9205065
 100.3071790  14.3900042  42.5610955  99.5096302  14.3567585  43.8474422
 109.0563924  24.8754814  36.3915259 108.2793366  24.5365974  35.9470421
 109.7355405  24.8807438  35.7170224 103.8715953  19.9949552  36.2821867
 103.5666088  20.3095701  37.1332010 104.8246395  20.0730972  36.3249200
 102.3162385  26.1539775  37.9314821 101.7883746  25.4192535  37.6188058
 101.8149887  26.9314451  37.6854789 107.2955231  24.3488796  43.0481867
 106.6378905  25.0388057  43.1361996 108.0995630  24.7385228  43.3915853
  97.0481112  16.8159441  40.2921432  97.6224864  16.5934623  39.5594625
  97.6352095  16.8848136  41.0450034 106.1060689  22.7033168  41.0985809
 106.6192571  23.3363160  41.6007518 106.7561913  22.1034364  40.7329169
  97.3750699  18.8463902  34.3117317  96.5388012  19.1838589  34.6326592
  97.2355469  18.7112882  33.3744454  99.3503780  13.6900690  39.0196502
  98.6968192  13.3749708  38.3953116  99.3084254  13.0676431  39.7456325
 100.4614985  23.9719985  30.9349794  99.5542047  23.7409239  31.1340943
 100.9586017  23.1757605  31.1223775 103.3683064  32.6817493  33.8546480
 102.6944762  32.9849189  34.4631438 103.7548886  33.4846573  33.5051937
 102.5841520  20.1782624  43.3444149 101.6664082  20.3997571  43.1865837
 103.0001664  20.2528934  42.4855857 103.3676568  21.5774040  38.4746830
 104.1148387  22.0895437  38.1653952 103.6368158  21.2558092  39.3351223
 101.6403218  24.0732580  35.4573784 100.7314437  23.7891613  35.5546254
 101.6698302  24.4931659  34.5977091 106.8722486  27.6839170  39.2264951
 106.4184813  26.8430080  39.2830142 106.2416452  28.3200568  39.5639732
 105.8155405  18.6131156  40.4565619 105.0778162  18.1008542  40.7875861
 106.0682179  18.1731537  39.6448896 105.3155425  29.5215666  40.1614770
 105.6078399  30.0820724  39.4427135 105.8254045  29.8144227  40.9167929
 105.9167033  11.3907408  41.0507388 106.2225909  10.5304771  40.7633303
 106.6419637  11.9825028  40.8506382  92.2091389  21.7938094  39.4388986
  92.0115788  21.2007455  38.7140053  91.6538053  21.4890305  40.1564925
 100.1888112  21.6861201  41.5583579 100.2436722  20.7335037  41.4826056
  99.3779314  21.8420640  42.0424878 101.3379306  25.6141324  32.7961862
 100.8998736  24.8977183  32.3367500 102.0789747  25.8417439  32.2346954
  98.1280472  20.3038261  39.3173958  97.3148338  20.6032431  39.7239150
  98.6239466  19.9093949  40.0348440 100.2789050  30.2996018  41.2508223
 100.2365229  30.5256864  40.3216755 101.1951749  30.0659392  41.3994024
 103.7254684  20.7680085  48.1488852 104.0804072  20.9951558  49.0083318
 104.3726815  21.0998462  47.5266107 109.4552421  23.8898521  38.8538181
 109.3170319  24.0800117  37.9259370 109.0988640  24.6517904  39.3106232
  97.6194547  17.8756616  44.9335193  98.2593926  17.7345375  44.2358156
  96.7872077  17.5891130  44.5573795 109.4821800  25.9575048  43.8649452
 109.9158307  25.8650337  44.7132507 110.1953381  25.9332548  43.2269468
  98.3954851  27.1759047  41.0470185  99.1895449  26.6809367  40.8452760
  97.6846543  26.6476910  40.6837891 103.2149695  29.5577142  45.3982553
 103.2686718  30.1268078  46.1660269 102.3464477  29.7279027  45.0336590
  94.7037614  21.3202128  37.1229938  93.7735202  21.2586584  37.3399900
  94.7995086  20.7978081  36.3266579  94.6223163  17.8456941  39.7108180
  94.8829981  18.7602274  39.6017340  95.4440336  17.3781384  39.8604793
  96.0948089  19.2594698  46.8807004  96.7671142  19.0512060  46.2319653
  95.2677875  19.0616784  46.4412237 110.3437350  25.9998749  46.3982338
 110.5373240  26.9044559  46.6441613 110.2437968  25.5406168  47.2320923
 101.9973661  15.8856639  48.8972665 101.3501576  16.5846589  48.8037142
 102.7674676  16.3192783  49.2648913 105.4052459  26.1505491  51.9723218
 105.2537965  25.9216043  51.0553302 105.3957138  27.1076093  51.9854564
 102.1737795  23.7237404  46.9569485 103.1029855  23.8748564  46.7838452
 101.7528825  23.8121425  46.1018131 100.9726127  27.7488069  44.7268023
 100.8337213  27.3806853  45.5993961 100.1840723  28.2635708  44.5551980
 101.5674279  32.8497165  36.0693559 101.7426034  32.3785208  36.8839182
 100.8807067  33.4762931  36.2974820 102.5231342  27.1269671  42.1156860
 102.1881175  27.0870441  43.0114510 102.0235288  26.4614387  41.6427271
  96.4975586  22.5337301  47.6409442  96.3595384  21.8017540  48.2420981
  97.4080509  22.4446201  47.3593629 105.4590534  24.4725706  32.3893920
 104.8419704  23.7472534  32.2926973 104.9907022  25.2335066  32.0460994
  99.1257887  22.2457261  47.1293121  99.8357505  21.6050453  47.0879740
  99.0827195  22.4970155  48.0519302 107.1144665  29.1824614  50.0499700
 107.0557211  28.4983834  49.3830283 107.5164184  29.9243604  49.5980326
  97.8386821  19.2322478  48.9488761  97.3024178  18.7813217  49.6010357
  97.2503529  19.3668387  48.2059225  96.1335364  35.9986528  42.8433419
  96.3731962  36.6305052  43.5212438  95.2904561  35.6474568  43.1298779
  97.2489080  18.6911130  31.5115224  96.3718546  18.5699931  31.1477471
  97.7246833  17.8997208  31.2594113 107.1162073  27.1464198  48.2813680
 106.2288851  26.8090120  48.4040079 107.6860624  26.4147229  48.5182445
  88.7691220  23.4788290  41.6056731  89.4562260  23.1650020  41.0177747
  88.6139348  24.3829654  41.3323983  93.5725942  18.3678486  46.0341755
  93.4884131  17.7604156  45.2992165  92.7508648  18.8587505  46.0351251
 100.6463226  31.8065650  45.2474923 100.5733397  32.6120622  45.7594228
 100.2040619  32.0057616  44.4222945 100.4353006  31.0437420  38.7577745
  99.6520527  31.5859100  38.8515969 101.1345751  31.5611400  39.1571986
 103.7449656  16.8532050  41.4011950 104.2418355  16.1002012  41.0813020
 102.9736637  16.8896366  40.8355159 111.5979413  22.5572415  43.0430242
 111.5869289  23.4397131  42.6724175 110.7296793  22.2043966  42.8484779
 103.1061909  31.7052484  47.4033082 103.8189882  32.3399949  47.3308983
 102.6151938  31.8016350  46.5873084 104.8279436  25.6103737  38.9750374
 103.8935715  25.7305199  38.8055078 105.0056105  24.7076204  38.7110383
 100.3284624  18.9949433  41.1283635  99.9582412  18.4420473  41.8164540
 100.8243717  18.3907566  40.5758635 108.2151988  21.4521056  39.5100408
 108.6812440  22.2849048  39.4360710 108.6659488  20.9866038  40.2145666
  98.1573823  29.4546928  48.2238653  98.8583282  30.0883411  48.3768047
  97.6868938  29.7961659  47.4634292 106.2828219  27.7964878  36.5086560
 106.5588063  27.6821472  37.4180434 105.4132718  27.3982362  36.4698733
 106.1868650  13.8201643  43.5491309 105.2731730  14.0505870  43.7173516
 106.6161752  13.9040087  44.4005341 105.9575109  22.0091535  46.0491203
 105.3046559  22.2567443  45.3943656 106.3355489  21.1955673  45.7153680
 102.9182283  32.0451228  40.1519373 103.1004677  31.2272884  40.6147126
 103.7415269  32.2618921  39.7144263 103.2524448  30.9719413  37.4134422
 103.7812215  30.4611868  36.8004584 103.5152668  30.6561944  38.2779955
 102.0062682  22.7511346  52.5357240 101.3303319  22.6505476  53.2059615
 102.8290316  22.5950560  52.9993237  93.7541541  28.9883283  45.1569755
  94.3394978  28.2426971  45.2897660  93.5566380  29.2987239  46.0406419
  96.6080196  32.0234530  40.1732198  95.9390572  32.5080658  39.6896238
  96.4693066  32.2703751  41.0875576  88.3459196  21.5588883  43.8774199
  88.3843295  21.0252474  44.6711317  87.8399489  21.0324089  43.2585176
 100.7485465  34.0578274  46.7714856 101.3003773  34.2209895  47.5363941
 101.0891658  34.6482712  46.0994881  95.7249958  16.4053423  47.3736741
  95.7891285  17.2668254  46.9614139  95.6617078  15.7927425  46.6409099
  95.2002231  18.4776556  51.0209775  95.8274269  18.0953633  51.6347299
  94.3430149  18.2590758  51.3865468 105.5996339  28.8839531  52.6263511
 106.1436243  29.4969489  52.1318465 105.0183184  29.4419110  53.1430524
  91.9767773  20.2852985  36.9528130  92.2721214  19.3763664  36.8995184
  91.0755809  20.2640725  36.6309132 103.8853852  32.0060249  43.7578538
 103.7604992  31.2049989  43.2489484 104.5432943  32.5006443  43.2692508
  95.5062020  18.3608982  42.9355679  94.7848606  18.9744949  42.7963152
  96.2955276  18.8966747  42.8572324 105.9488761  29.8069269  45.3858088
 105.0019096  29.6874620  45.3136415 106.2971534  28.9191767  45.4684350
  98.3088334  15.6963408  49.2096330  98.8322736  15.9425705  49.9722640
  98.0900667  16.5283443  48.7899468  93.7055615  17.9667083  37.0767455
  93.3768321  17.0864462  36.8942561  94.0594986  17.9114751  37.9643844
 102.9535194  29.6021986  41.5862441 102.8060156  28.6738693  41.7670011
 103.7788687  29.6242076  41.1019516  96.8197438  18.2540053  37.4442933
  97.1593511  18.7825974  36.7221541  97.2669559  18.5920459  38.2201499
 106.5569316  30.4250544  42.6727313 107.4815863  30.2193406  42.5351765
 106.3884619  30.1766945  43.5816655  99.5140879  16.6377103  46.8946001
  99.1737699  15.8384916  47.2966681  98.8079885  16.9378814  46.3222834
 100.1657351  13.7226416  45.3473324 100.9883420  13.2486894  45.2252214
 100.4095414  14.5016900  45.8472010  98.8065585  16.7514674  35.6436226
  99.5273948  17.1295927  35.1399942  98.1830889  17.4703551  35.7471203
 102.9496708  17.4559823  36.5794558 103.1660323  18.3384461  36.2783386
 102.4690775  17.0646037  35.8500200  97.6895930  20.4145536  43.1565302
  97.5440510  20.7285839  44.0489584  97.2121133  21.0330437  42.6036201
  99.5492312  17.4048084  43.2046192  99.5353881  16.5089178  42.8678490
 100.2664741  17.4118748  43.8384478 101.4018443  17.8385425  45.2499319
 101.1436221  18.7602495  45.2483650 100.8703484  17.4415859  45.9399784
 106.3464632  30.9436212  38.0289405 106.5201509  30.3782634  37.2763257
 106.8393523  31.7437107  37.8468895  92.1641592  22.9550881  46.0952964
  91.6195060  23.7310689  46.2273238  93.0420942  23.3021685  45.9372085
  98.9529208  16.2862465  38.4733762  99.0745120  15.3579111  38.6724650
  98.6631251  16.3001151  37.5612078 101.8220399  13.9717375  41.6100482
 101.8442096  14.0356708  40.6552462 102.2388458  13.1321884  41.8040988
 112.2004023  23.7072635  39.6479705 112.6435169  22.9579960  39.2498828
 111.3230533  23.6982771  39.2653437 107.3339804  30.2602976  35.1286303
 108.0290709  30.8809669  35.3473618 107.6762955  29.4098327  35.4038681
  92.9507614  22.0820777  48.9883121  92.2089350  22.2303412  49.5747751
  92.6300358  22.3429043  48.1249870 109.2331227  27.7102682  36.6573634
 109.7582552  28.0489954  35.9322954 109.1453580  26.7749697  36.4736769
 100.8951276  31.6236755  48.7863511 101.2038403  31.3785902  49.6586210
 101.6926758  31.8283394  48.2982381 100.9171888  33.7774665  41.0168887
 100.4776879  33.2851044  41.7101744 101.6680005  33.2347633  40.7760962
  93.3964227  29.9686206  41.0193515  94.2222247  29.6689978  40.6392159
  93.0458279  29.1993828  41.4683304  98.3645760  29.3212674  43.0891189
  97.7425770  28.6583379  42.7893417  99.0350627  29.3473806  42.4064837
  91.5972832  27.8872532  41.9782449  90.7604741  27.4594707  41.7966450
  91.5696478  28.0804976  42.9153240  98.4370288  17.7994462  52.6823695
  98.4858443  18.6756585  52.3001464  98.9792802  17.2571855  52.1095338
 108.9225134  28.3435585  51.9624832 108.1320677  28.3259724  51.4229331
 108.6858488  28.8823879  52.7173868 109.0423009  25.1928052  49.2757560
 109.0921014  25.0278059  50.2173083 108.9336932  24.3255311  48.8855441
  97.9259267  27.8716597  36.5649649  98.0747388  28.5552062  35.9116322
  98.7325711  27.8521687  37.0799105 106.3326771  21.1758980  50.5916867
 107.2336634  21.0365445  50.3000865 106.4074746  21.3413435  51.5315045
 100.6669576  18.5525834  49.4370053  99.7972886  18.8459400  49.1652642
 100.9029057  19.1366279  50.1577317 110.5441205  27.6124993  49.5199582
 110.2526014  27.9754974  50.3563043 109.9313337  26.8992001  49.3412914
 111.7436888  25.1777873  42.0402152 112.5783779  25.6167677  42.2039713
 111.8796017  24.7016526  41.2210398 108.7928394  22.7357608  47.9879640
 109.2682515  22.9285254  47.1798491 107.8693959  22.7916794  47.7423024
  95.6811900  23.8981775  37.5710718  95.4357942  22.9944105  37.7690928
  95.8507815  23.8998925  36.6290196 103.3708610  14.7705451  46.9535474
 103.8890554  15.5066478  46.6281962 103.0163743  15.0769445  47.7882233
  94.9507548  19.6310133  35.0696880  94.2576793  19.7054488  34.4136916
  94.7059300  18.8670476  35.5918397 103.6221204  11.1905734  42.4736370
 103.9022958  10.5228923  43.0996797 104.4071811  11.3834829  41.9611034
 101.4254673  30.3664728  34.0361397 100.8528640  30.9854915  33.5831869
 101.9987467  30.9164089  34.5701319 107.4930063  19.6123368  46.2207946
 108.4447486  19.7121466  46.2420170 107.3233513  18.8201636  46.7306030
 105.5144442  16.6978951  46.4067346 104.9194374  16.9783964  45.7113835
 105.2294139  17.1872852  47.1784088 104.6451933  30.6501878  35.1669979
 105.5782606  30.5847440  35.3702854 104.5575145  31.4858145  34.7084512
 107.2739949  29.9667748  32.1273927 107.1953581  29.6327612  33.0209684
 108.0949616  30.4589516  32.1265399 109.9718140  22.8329488  45.3350245
 109.9394461  21.8945488  45.5209929 110.5818764  22.9113524  44.6016070
 101.8101471  21.7025541  31.3777449 102.7560576  21.5731749  31.4465867
 101.4315716  20.9640202  31.8546877 110.1212629  19.6240531  45.3808528
 109.6051678  18.8398988  45.1938457 111.0052577  19.2959248  45.5455048
 107.7823356  13.3681547  41.3404341 107.5848177  13.0596635  42.2247673
 108.3923061  14.0943185  41.4702271 115.7894690  23.8945494  44.4756282
 116.5198079  23.6330783  45.0363985 115.1801636  23.1574216  44.5158350
 113.8709987  22.0353357  45.0730733 113.1443151  21.9009322  44.4647225
 113.4557274  22.3430186  45.8787451 101.6940164  25.7543287  52.8378106
 102.6143173  25.9321886  53.0318153 101.6589747  24.8099332  52.6857805
  99.9944388  19.6275517  31.3132334  99.0875844  19.3308630  31.3895048
 100.2720369  19.3305335  30.4466621  90.9122329  20.9481880  41.7631381
  90.5925113  20.0947189  41.4705755  90.3655757  21.1630458  42.5189348
  94.6902236  23.6644321  45.4800887  94.9088246  24.5961429  45.4988921
  95.1028010  23.3052296  46.2655691 101.6106454  14.1712407  37.4676576
 100.8007183  13.8259492  37.8431822 102.2990871  13.8619950  38.0564187
 103.5397002  13.2490453  39.0900872 104.0928041  13.6685907  39.7490895
 103.7767089  12.3226202  39.1323828  99.5630102  19.2377527  54.8703636
  99.4626829  20.1871884  54.8015727  99.3451644  18.9095766  53.9979706
  98.7643173  16.4862452  31.4544314  99.6262337  16.8117350  31.7140131
  98.9493517  15.6993948  30.9417379  90.7810589  24.5684792  43.7324502
  90.0874060  24.1538745  43.2194457  91.5283580  24.6105328  43.1357921
 106.9175810  15.3590979  38.5979537 106.3374479  16.0175783  38.2157589
 106.6511742  14.5368323  38.1866954 105.3679376  14.7596036  40.8000857
 105.8679154  14.8712571  39.9915176 106.0114984  14.4557089  41.4401665
  99.4261372  22.6674666  53.6868698  98.9428453  23.4675026  53.8932587
  99.5122311  22.6782611  52.7336142  92.6947331  24.5003046  41.6090517
  92.6718019  24.5990733  40.6572400  93.0047968  25.3468196  41.9307683
  95.3534709  26.5579201  45.7237132  96.3077963  26.5263143  45.6567063
  95.1547233  26.0969824  46.5387358  95.9434091  25.1280317  48.2907929
  96.7626980  25.6224395  48.3142767  96.2170899  24.2112285  48.2625497
 105.7000688  17.5191069  37.6535885 104.8126543  17.8040720  37.4356080
 106.1154677  17.3584832  36.8063162 109.0515224  17.5437590  41.3690224
 109.8275614  18.0334042  41.6414841 108.3263358  17.9695644  41.8262094
 111.4887782  18.2565209  42.4264165 112.0832273  18.0160945  41.7157473
 111.5614366  17.5372340  43.0537701  93.7084938  32.0998820  42.7407330
  93.5739406  31.3399221  42.1745328  93.2917000  32.8239720  42.2736118
 104.8443901  27.2835744  31.7483905 105.5479751  27.4885746  32.3641560
 104.1206550  27.8512506  32.0132988 105.6741711  23.0345605  37.8686175
 105.6176913  23.4914156  37.0293807 106.2270054  22.2736290  37.6909018
 109.4846517  18.8235337  38.6936295 109.2283451  18.4231972  39.5244502
 108.8599385  19.5379131  38.5686434 113.7958855  21.5631410  41.2007586
 113.2358413  21.6324599  41.9739148 113.1902358  21.3872395  40.4807082
  96.8654064  32.9968137  42.9525772  96.7486448  33.9413570  42.8504462
  96.0446510  32.6941699  43.3411571 106.7530598  27.7218273  33.7982365
 107.5876202  27.2899471  33.6159840 106.5914941  27.5500287  34.7259259
 106.4076491  24.2250386  35.1638704 106.3525294  24.0594658  34.2227148
 105.7822546  24.9326419  35.3200894  91.1969006  19.4618451  48.9900126
  91.8427869  18.9517405  49.4787352  90.9886157  20.1987132  49.5643552
 103.7222398  26.5299298  54.4892267 104.5913557  26.7039950  54.1278902
 103.2429149  27.3493715  54.3667996  99.7172616  13.7258495  34.7424023
  99.7051286  14.6700335  34.8992293 100.6096038  13.5428641  34.4483484
  97.8908578  33.6496399  46.1681701  98.7935825  33.6820009  46.4848196
  97.6645948  32.7196850  46.1828036  99.6462180  32.4027386  42.8291779
  98.6957811  32.4029247  42.7156152  99.9494666  31.6560120  42.3127814
 103.5324736  10.3201272  38.9969959 102.7657131   9.7659759  39.1426642
 103.9435441  10.3923141  39.8584111  95.5366497  16.6086068  53.0875141
  96.3997958  16.2522872  53.2978465  94.9631907  16.2699962  53.7750545
 115.3814874  38.2387924  43.8937542 116.0193284  38.1194671  43.1900882
 115.2635716  39.1868768  43.9525494 112.1904580  38.1915352  43.8299066
 111.8523091  38.0756417  42.9419601 113.0594348  37.7906517  43.8100072
 108.0491396  40.0450828  39.8195957 107.4856261  39.9540765  39.0512245
 107.9343791  39.2250733  40.2998450 112.6724363  39.3450204  49.7885272
 112.6613004  38.9503002  48.9165776 112.8345002  38.6116276  50.3819043
 105.5955827  41.5402020  42.6580178 106.3877119  41.1992845  42.2426477
 105.8352478  41.6496995  43.5782331 113.6290954  43.7121796  35.1310422
 112.9778934  44.2975877  34.7444436 114.4235317  44.2427991  35.1905460
 107.5546581  40.8010933  35.5297557 108.3277457  40.2539920  35.3910432
 107.9071980  41.6655183  35.7412018 109.3931624  42.1287316  48.7364456
 109.1021490  43.0332946  48.6211122 110.0288608  42.1703843  49.4508525
 110.3187831  39.5064164  45.3265816 110.9151403  39.2820187  44.6122778
 110.3762802  38.7648910  45.9291263 109.8912859  36.9603599  33.1616006
 110.1438380  36.4385121  32.3999469 108.9537418  36.7969745  33.2642690
 114.9356142  35.9639378  40.9690750 115.7219231  35.5458801  40.6181167
 115.1994846  36.8685470  41.1372398 115.1066219  41.4012228  35.6679407
 114.4712052  41.4746855  36.3800311 114.7763626  41.9905827  34.9898486
 120.3364569  35.9014611  41.8723728 121.0689741  35.3313828  42.1061558
 119.5803925  35.5136211  42.3130234 109.6109148  38.8631705  35.3640381
 109.4945406  38.1876609  36.0321466 109.7211408  38.3764079  34.5472534
 111.9540689  38.3241853  39.0687071 111.5898896  37.7972473  39.7799992
 112.8107805  37.9340322  38.8953556 117.8589990  29.6136185  46.3318337
 117.5273314  30.4831596  46.1079552 117.2635603  29.2972469  47.0112367
 111.5946176  33.3531752  34.0648419 111.7620578  34.2211989  34.4318890
 111.4043345  33.5159034  33.1409708 114.3521509  41.8148731  45.7314250
 114.0522232  42.7173770  45.6230057 114.0072569  41.5480914  46.5835402
 107.8033991  38.2662528  41.7650954 106.8784487  38.1338742  41.9728646
 108.0518404  39.0456747  42.2620896 117.7518653  34.3331271  43.4111687
 116.8435530  34.2646680  43.1170448 117.7006249  34.8103216  44.2393512
 111.5735397  35.8089410  35.0495086 111.4535022  36.2546460  35.8880566
 110.8787985  36.1574727  34.4908624 105.1642802  37.9095802  42.5994743
 105.2935183  38.1630280  43.5134155 104.4840253  38.5023510  42.2799398
 109.3342289  48.5793051  38.6985217 109.2566319  49.5300877  38.7773698
 108.7303932  48.2338924  39.3560144 111.8259519  35.7520917  51.3546584
 111.0492853  36.3114837  51.3449449 112.4650082  36.2377700  51.8761454
 119.6180299  32.5347710  45.1889561 118.9754679  32.8280243  44.5429355
 119.1135228  32.4200630  45.9942757 117.2720463  36.2810883  35.8775420
 118.1838319  36.5138270  35.7023118 116.7630110  36.8647927  35.3150499
 110.0805891  38.5606370  50.9164551 110.8220575  39.0991414  50.6399375
 109.3742876  39.1872659  51.0736103 115.5561231  40.7035511  49.5136713
 115.9644587  40.2617921  48.7691345 114.8338492  40.1288138  49.7670906
 111.9092301  35.6408117  46.8870270 112.7553496  36.0647531  47.0304919
 111.8490938  34.9841742  47.5808833 115.8790045  41.2636701  43.2689002
 115.2498908  41.4282415  42.5665069 115.4915707  41.6778311  44.0399966
 119.7579277  42.1991139  40.6233365 119.0730315  42.5790041  40.0730399
 119.8423126  42.8086466  41.3565313 115.0591746  33.3012486  48.5451443
 114.8152678  34.0554546  48.0085719 115.3351676  33.6797833  49.3798690
 117.0130209  39.8451098  47.2228709 117.2247104  40.4882858  46.5463090
 116.9659957  39.0113415  46.7550639 114.6156438  32.4568919  44.1265281
 113.7540917  32.7550172  44.4182019 114.6418872  32.6739318  43.1946314
 111.4318007  41.0011109  40.5339087 111.8956353  41.2798812  39.7443709
 111.1674805  40.0994554  40.3512177 108.3242088  40.5482591  43.4718850
 108.8943445  40.9769859  42.8336334 108.9150200  40.2665176  44.1703036
 110.3686893  37.1234262  37.3428652 111.0710936  37.5755305  37.8102578
 110.0367522  36.4818081  37.9708545 108.8167255  35.7146018  51.7179861
 108.1865915  36.3962299  51.9515258 108.7103343  35.6029100  50.7732999
 104.1112227  35.3817814  42.6445785 103.3211281  35.6375343  42.1685896
 104.6023474  36.1966152  42.7497826 118.1276037  42.7223054  45.3951066
 118.9493480  42.3203241  45.1133748 118.1238440  42.6191288  46.3467182
 106.0626972  35.7462394  39.6029262 105.2658136  35.8581088  40.1212758
 105.8352565  36.0849046  38.7370153 111.8932640  42.2707097  47.5511777
 111.9577073  42.7327504  48.3869948 111.1843564  41.6404462  47.6794086
 102.3949930  35.6348305  45.0760776 102.6457969  36.5195315  45.3418352
 102.9309478  35.4552906  44.3035868 126.2182030  39.0661802  41.7436038
 125.4645738  38.4969200  41.5880042 126.3529571  39.0324467  42.6906672
 111.6080658  43.9375204  37.4190757 111.4726333  44.7826740  37.8475605
 112.1490470  44.1394482  36.6556691 108.0947997  30.0166784  54.0805112
 107.7014943  29.4632983  54.7552756 108.9114138  30.3277363  54.4711630
 105.0610055  41.4550642  37.9918682 105.5734576  42.2493893  38.1424247
 105.7132768  40.7576933  37.9252284 106.8704940  44.5716399  40.0741435
 107.0471568  45.4934363  39.8862419 107.6661773  44.2574818  40.5035815
 111.0115958  31.4324663  51.6725369 111.7525672  32.0331817  51.5929831
 111.2433881  30.6902301  51.1143411 106.1557296  36.6181031  49.9503598
 106.0410812  35.7166288  50.2510697 105.3001814  36.8644727  49.5988415
 113.2349134  44.5598771  51.5491099 112.7912988  43.7735149  51.2312004
 113.8966348  44.7477921  50.8834990 107.9936255  46.0894573  46.0751778
 108.5443680  45.9611636  45.3028772 107.1547731  46.3889462  45.7246670
 115.3330372  44.8401571  49.5772500 115.3148848  45.6610452  49.0852770
 116.2550292  44.7155646  49.8022641 111.7903426  42.3545700  50.4196009
 112.3231763  41.5933989  50.1895317 111.2617507  42.0619352  51.1620163
 114.9573121  27.4605766  45.9489650 114.6137391  28.3507408  45.8728761
 115.3252084  27.2707424  45.0859235 103.0258972  39.7839297  38.7678253
 103.8634194  40.1936305  38.5511960 103.2037240  38.8438739  38.7378446
 114.9223404  37.4514377  34.4562086 114.4070027  38.2218982  34.6950473
 114.6500713  36.7779514  35.0795147 112.5070515  32.2964078  39.5147324
 111.6512111  31.9070929  39.3352963 112.9197467  32.3756039  38.6547109
 114.0369662  29.8310421  43.9138884 113.5334457  29.7940557  43.1006689
 114.3300269  30.7403164  43.9735540 110.2812548  29.9149151  42.9205065
 111.1465544  29.7191960  42.5610955 110.3490057  29.6859503  43.8474422
 119.8957678  40.2046732  36.3915259 119.1187121  39.8657892  35.9470421
 120.5749159  40.2099355  35.7170224 114.7109707  35.3241470  36.2821867
 114.4059843  35.6387619  37.1332010 115.6640149  35.4022889  36.3249200
 113.1556139  41.4831693  37.9314821 112.6277501  40.7484452  37.6188058
 112.6543642  42.2606369  37.6854789 118.1348985  39.6780713  43.0481867
 117.4772660  40.3679975  43.1361996 118.9389384  40.0677145  43.3915853
 107.8874867  32.1451359  40.2921432 108.4618619  31.9226541  39.5594625
 108.4745849  32.2140054  41.0450034 116.9454444  38.0325086  41.0985809
 117.4586326  38.6655078  41.6007518 117.5955668  37.4326282  40.7329169
 108.2144454  34.1755820  34.3117317 107.3781766  34.5130507  34.6326592
 108.0749223  34.0404800  33.3744454 110.1897534  29.0192608  39.0196502
 109.5361947  28.7041625  38.3953116 110.1478009  28.3968348  39.7456325
 111.3008739  39.3011903  30.9349794 110.3935801  39.0701157  31.1340943
 111.7979771  38.5049522  31.1223775 114.2076818  48.0109410  33.8546480
 113.5338517  48.3141107  34.4631438 114.5942640  48.8138491  33.5051937
 113.4235275  35.5074542  43.3444149 112.5057836  35.7289489  43.1865837
 113.8395418  35.5820852  42.4855857 114.2070323  36.9065957  38.4746830
 114.9542141  37.4187354  38.1653952 114.4761912  36.5850010  39.3351223
 112.4796973  39.4024498  35.4573784 111.5708192  39.1183531  35.5546254
 112.5092057  39.8223577  34.5977091 117.7116240  43.0131087  39.2264951
 117.2578567  42.1721997  39.2830142 117.0810207  43.6492486  39.5639732
 116.6549160  33.9423073  40.4565619 115.9171916  33.4300460  40.7875861
 116.9075933  33.5023455  39.6448896 116.1549179  44.8507584  40.1614770
 116.4472154  45.4112641  39.4427135 116.6647800  45.1436145  40.9167929
 116.7560787  26.7199325  41.0507388 117.0619664  25.8596689  40.7633303
 117.4813392  27.3116946  40.8506382 103.0485143  37.1230012  39.4388986
 102.8509543  36.5299373  38.7140053 102.4931807  36.8182222  40.1564925
 111.0281867  37.0153119  41.5583579 111.0830477  36.0626955  41.4826056
 110.2173069  37.1712558  42.0424878 112.1773061  40.9433242  32.7961862
 111.7392490  40.2269101  32.3367500 112.9183501  41.1709356  32.2346954
 108.9674227  35.6330178  39.3173958 108.1542092  35.9324349  39.7239150
 109.4633221  35.2385867  40.0348440 111.1182805  45.6287935  41.2508223
 111.0758983  45.8548782  40.3216755 112.0345503  45.3951310  41.3994024
 114.5648438  36.0972003  48.1488852 114.9197826  36.3243476  49.0083318
 115.2120570  36.4290380  47.5266107 120.2946175  39.2190439  38.8538181
 120.1564074  39.4092035  37.9259370 119.9382394  39.9809821  39.3106232
 108.4588301  33.2048534  44.9335193 109.0987681  33.0637293  44.2358156
 107.6265832  32.9183047  44.5573795 120.3215555  41.2866966  43.8649452
 120.7552062  41.1942255  44.7132507 121.0347136  41.2624466  43.2269468
 109.2348605  42.5050964  41.0470185 110.0289204  42.0101284  40.8452760
 108.5240298  41.9768827  40.6837891 114.0543450  44.8869060  45.3982553
 114.1080472  45.4559996  46.1660269 113.1858231  45.0570945  45.0336590
 105.5431369  36.6494046  37.1229938 104.6128957  36.5878501  37.3399900
 105.6388841  36.1269999  36.3266579 105.4616918  33.1748859  39.7108180
 105.7223735  34.0894192  39.6017340 106.2834090  32.7073301  39.8604793
 106.9341843  34.5886616  46.8807004 107.6064897  34.3803978  46.2319653
 106.1071630  34.3908702  46.4412237 121.1831104  41.3290666  46.3982338
 121.3766995  42.2336477  46.6441613 121.0831723  40.8698085  47.2320923
 112.8367415  31.2148557  48.8972665 112.1895330  31.9138507  48.8037142
 113.6068431  31.6484701  49.2648913 116.2446213  41.4797409  51.9723218
 116.0931720  41.2507961  51.0553302 116.2350893  42.4368010  51.9854564
 113.0131550  39.0529322  46.9569485 113.9423610  39.2040481  46.7838452
 112.5922580  39.1413343  46.1018131 111.8119881  43.0779986  44.7268023
 111.6730967  42.7098771  45.5993961 111.0234478  43.5927626  44.5551980
 112.4068033  48.1789083  36.0693559 112.5819789  47.7077126  36.8839182
 111.7200821  48.8054849  36.2974820 113.3625096  42.4561589  42.1156860
 113.0274929  42.4162359  43.0114510 112.8629042  41.7906305  41.6427271
 107.3369340  37.8629219  47.6409442 107.1989138  37.1309458  48.2420981
 108.2474264  37.7738119  47.3593629 116.2984288  39.8017623  32.3893920
 115.6813459  39.0764451  32.2926973 115.8300777  40.5626984  32.0460994
 109.9651641  37.5749178  47.1293121 110.6751260  36.9342370  47.0879740
 109.9220949  37.8262073  48.0519302 117.9538420  44.5116532  50.0499700
 117.8950966  43.8275752  49.3830283 118.3557938  45.2535522  49.5980326
 108.6780575  34.5614396  48.9488761 108.1417932  34.1105135  49.6010357
 108.0897284  34.6960305  48.2059225 106.9729119  51.3278445  42.8433419
 107.2125717  51.9596970  43.5212438 106.1298315  50.9766485  43.1298779
 108.0882834  34.0203048  31.5115224 107.2112300  33.8991848  31.1477471
 108.5640587  33.2289126  31.2594113 117.9555827  42.4756116  48.2813680
 117.0682606  42.1382037  48.4040079 118.5254378  41.7439147  48.5182445
  99.6084974  38.8080207  41.6056731 100.2956014  38.4941937  41.0177747
  99.4533103  39.7121572  41.3323983 104.4119696  33.6970404  46.0341755
 104.3277885  33.0896073  45.2992165 103.5902403  34.1879422  46.0351251
 111.4856980  47.1357568  45.2474923 111.4127152  47.9412539  45.7594228
 111.0434374  47.3349534  44.4222945 111.2746760  46.3729338  38.7577745
 110.4914282  46.9151018  38.8515969 111.9739505  46.8903318  39.1571986
 114.5843410  32.1823967  41.4011950 115.0812110  31.4293930  41.0813020
 113.8130392  32.2188284  40.8355159 122.4373168  37.8864333  43.0430242
 122.4263044  38.7689048  42.6724175 121.5690547  37.5335884  42.8484779
 113.9455664  47.0344402  47.4033082 114.6583636  47.6691867  47.3308983
 113.4545693  47.1308268  46.5873084 115.6673191  40.9395655  38.9750374
 114.7329470  41.0597117  38.8055078 115.8449859  40.0368121  38.7110383
 111.1678379  34.3241350  41.1283635 110.7976166  33.7712391  41.8164540
 111.6637471  33.7199484  40.5758635 119.0545742  36.7812974  39.5100408
 119.5206194  37.6140965  39.4360710 119.5053243  36.3157955  40.2145666
 108.9967577  44.7838845  48.2238653 109.6977037  45.4175328  48.3768047
 108.5262692  45.1253577  47.4634292 117.1221973  43.1256795  36.5086560
 117.3981817  43.0113390  37.4180434 116.2526472  42.7274280  36.4698733
 117.0262405  29.1493561  43.5491309 116.1125485  29.3797788  43.7173516
 117.4555506  29.2332005  44.4005341 116.7968863  37.3383453  46.0491203
 116.1440314  37.5859360  45.3943656 117.1749243  36.5247591  45.7153680
 113.7576037  47.3743146  40.1519373 113.9398432  46.5564802  40.6147126
 114.5809023  47.5910838  39.7144263 114.0918203  46.3011331  37.4134422
 114.6205969  45.7903786  36.8004584 114.3546422  45.9853861  38.2779955
 112.8456436  38.0803264  52.5357240 112.1697074  37.9797393  53.2059615
 113.6684070  37.9242478  52.9993237 104.5935296  44.3175200  45.1569755
 105.1788732  43.5718888  45.2897660 104.3960134  44.6279157  46.0406419
 107.4473951  47.3526448  40.1732198 106.7784326  47.8372575  39.6896238
 107.3086820  47.5995668  41.0875576  99.1852950  36.8880801  43.8774199
  99.2237050  36.3544391  44.6711317  98.6793243  36.3616006  43.2585176
 111.5879219  49.3870191  46.7714856 112.1397527  49.5501813  47.5363941
 111.9285413  49.9774629  46.0994881 106.5643713  31.7345341  47.3736741
 106.6285039  32.5960172  46.9614139 106.5010833  31.1219343  46.6409099
 106.0395985  33.8068474  51.0209775 106.6668024  33.4245551  51.6347299
 105.1823904  33.5882676  51.3865468 116.4390094  44.2131449  52.6263511
 116.9829998  44.8261407  52.1318465 115.8576939  44.7711027  53.1430524
 102.8161528  35.6144903  36.9528130 103.1114969  34.7055581  36.8995184
 101.9149564  35.5932642  36.6309132 114.7247607  47.3352167  43.7578538
 114.5998746  46.5341907  43.2489484 115.3826698  47.8298360  43.2692508
 106.3455775  33.6900899  42.9355679 105.6242361  34.3036867  42.7963152
 107.1349031  34.2258664  42.8572324 116.7882515  45.1361187  45.3858088
 115.8412851  45.0166538  45.3136415 117.1365288  44.2483685  45.4684350
 109.1482088  31.0255326  49.2096330 109.6716490  31.2717622  49.9722640
 108.9294422  31.8575361  48.7899468 104.5449369  33.2959000  37.0767455
 104.2162076  32.4156379  36.8942561 104.8988740  33.2406669  37.9643844
 113.7928948  44.9313903  41.5862441 113.6453911  44.0030611  41.7670011
 114.6182442  44.9533994  41.1019516 107.6591193  33.5831970  37.4442933
 107.9987265  34.1117892  36.7221541 108.1063313  33.9212376  38.2201499
 117.3963070  45.7542462  42.6727313 118.3209618  45.5485323  42.5351765
 117.2278374  45.5058863  43.5816655 110.3534633  31.9669021  46.8946001
 110.0131454  31.1676834  47.2966681 109.6473640  32.2670732  46.3222834
 111.0051105  29.0518333  45.3473324 111.8277175  28.5778812  45.2252214
 111.2489169  29.8308817  45.8472010 109.6459340  32.0806592  35.6436226
 110.3667702  32.4587845  35.1399942 109.0224644  32.7995469  35.7471203
 113.7890463  32.7851741  36.5794558 114.0054077  33.6676379  36.2783386
 113.3084530  32.3937954  35.8500200 108.5289684  35.7437454  43.1565302
 108.3834265  36.0577757  44.0489584 108.0514888  36.3622354  42.6036201
 110.3886067  32.7340002  43.2046192 110.3747636  31.8381095  42.8678490
 111.1058495  32.7410666  43.8384478 112.2412198  33.1677342  45.2499319
 111.9829975  34.0894413  45.2483650 111.7097238  32.7707777  45.9399784
 117.1858386  46.2728129  38.0289405 117.3595264  45.7074552  37.2763257
 117.6787278  47.0729024  37.8468895 103.0035346  38.2842798  46.0952964
 102.4588814  39.0602606  46.2273238 103.8814696  38.6313603  45.9372085
 109.7922963  31.6154382  38.4733762 109.9138874  30.6871029  38.6724650
 109.5025005  31.6293068  37.5612078 112.6614153  29.3009293  41.6100482
 112.6835850  29.3648626  40.6552462 113.0782212  28.4613801  41.8040988
 123.0397778  39.0364552  39.6479705 123.4828924  38.2871878  39.2498828
 122.1624288  39.0274689  39.2653437 118.1733559  45.5894894  35.1286303
 118.8684463  46.2101586  35.3473618 118.5156709  44.7390245  35.4038681
 103.7901368  37.4112695  48.9883121 103.0483104  37.5595330  49.5747751
 103.4694112  37.6720960  48.1249870 120.0724982  43.0394599  36.6573634
 120.5976306  43.3781872  35.9322954 119.9847335  42.1041615  36.4736769
 111.7345031  46.9528673  48.7863511 112.0432157  46.7077820  49.6586210
 112.5320513  47.1575311  48.2982381 111.7565643  49.1066583  41.0168887
 111.3170633  48.6142961  41.7101744 112.5073760  48.5639550  40.7760962
 104.2357982  45.2978123  41.0193515 105.0616002  44.9981895  40.6392159
 103.8852034  44.5285746  41.4683304 109.2039515  44.6504592  43.0891189
 108.5819524  43.9875297  42.7893417 109.8744382  44.6765724  42.4064837
 102.4366587  43.2164450  41.9782449 101.5998495  42.7886624  41.7966450
 102.4090232  43.4096893  42.9153240 109.2764042  33.1286380  52.6823695
 109.3252198  34.0048503  52.3001464 109.8186557  32.5863773  52.1095338
 119.7618888  43.6727503  51.9624832 118.9714432  43.6551642  51.4229331
 119.5252243  44.2115797  52.7173868 119.8816763  40.5219969  49.2757560
 119.9314768  40.3569977  50.2173083 119.7730686  39.6547228  48.8855441
 108.7653022  43.2008515  36.5649649 108.9141142  43.8843979  35.9116322
 109.5719465  43.1813605  37.0799105 117.1720525  36.5050897  50.5916867
 118.0730388  36.3657362  50.3000865 117.2468500  36.6705352  51.5315045
 111.5063331  33.8817752  49.4370053 110.6366640  34.1751318  49.1652642
 111.7422811  34.4658197  50.1577317 121.3834960  42.9416911  49.5199582
 121.0919768  43.3046891  50.3563043 120.7707091  42.2283919  49.3412914
 122.5830642  40.5069791  42.0402152 123.4177534  40.9459595  42.2039713
 122.7189771  40.0308444  41.2210398 119.6322148  38.0649525  47.9879640
 120.1076270  38.2577172  47.1798491 118.7087714  38.1208711  47.7423024
 106.5205655  39.2273693  37.5710718 106.2751697  38.3236023  37.7690928
 106.6901569  39.2290843  36.6290196 114.2102365  30.0997369  46.9535474
 114.7284309  30.8358396  46.6281962 113.8557497  30.4061362  47.7882233
 105.7901302  34.9602050  35.0696880 105.0970547  35.0346405  34.4136916
 105.5453054  34.1962394  35.5918397 114.4614959  26.5197652  42.4736370
 114.7416713  25.8520841  43.0996797 115.2465566  26.7126747  41.9611034
 112.2648427  45.6956645  34.0361397 111.6922394  46.3146833  33.5831869
 112.8381221  46.2456007  34.5701319 118.3323817  34.9415286  46.2207946
 119.2841240  35.0413383  46.2420170 118.1627268  34.1493554  46.7306030
 116.3538197  32.0270869  46.4067346 115.7588129  32.3075881  45.7113835
 116.0687893  32.5164770  47.1784088 115.4845687  45.9793796  35.1669979
 116.4176360  45.9139357  35.3702854 115.3968900  46.8150062  34.7084512
 118.1133704  45.2959666  32.1273927 118.0347335  44.9619530  33.0209684
 118.9343371  45.7881434  32.1265399 120.8111895  38.1621405  45.3350245
 120.7788215  37.2237406  45.5209929 121.4212519  38.2405442  44.6016070
 112.6495226  37.0317458  31.3777449 113.5954331  36.9023666  31.4465867
 112.2709471  36.2932120  31.8546877 120.9606383  34.9532449  45.3808528
 120.4445432  34.1690905  45.1938457 121.8446332  34.6251165  45.5455048
 118.6217110  28.6973464  41.3404341 118.4241931  28.3888552  42.2247673
 119.2316816  29.4235103  41.4702271 126.6288445  39.2237412  44.4756282
 127.3591833  38.9622700  45.0363985 126.0195390  38.4866134  44.5158350
 124.7103742  37.3645275  45.0730733 123.9836906  37.2301240  44.4647225
 124.2951029  37.6722103  45.8787451 112.5333918  41.0835204  52.8378106
 113.4536928  41.2613803  53.0318153 112.4983501  40.1391250  52.6857805
 110.8338143  34.9567435  31.3132334 109.9269598  34.6600547  31.3895048
 111.1114124  34.6597253  30.4466621 101.7516083  36.2773798  41.7631381
 101.4318868  35.4239106  41.4705755 101.2049512  36.4922376  42.5189348
 105.5295991  38.9936239  45.4800887 105.7482001  39.9253347  45.4988921
 105.9421765  38.6344213  46.2655691 112.4500209  29.5004324  37.4676576
 111.6400937  29.1551409  37.8431822 113.1384626  29.1911868  38.0564187
 114.3790757  28.5782371  39.0900872 114.9321796  28.9977825  39.7490895
 114.6160843  27.6518119  39.1323828 110.4023856  34.5669445  54.8703636
 110.3020583  35.5163802  54.8015727 110.1845398  34.2387684  53.9979706
 109.6036928  31.8154370  31.4544314 110.4656092  32.1409268  31.7140131
 109.7887272  31.0285866  30.9417379 101.6204343  39.8976709  43.7324502
 100.9267815  39.4830662  43.2194457 102.3677334  39.9397246  43.1357921
 117.7569564  30.6882896  38.5979537 117.1768233  31.3467700  38.2157589
 117.4905497  29.8660241  38.1866954 116.2073130  30.0887954  40.8000857
 116.7072909  30.2004489  39.9915176 116.8508738  29.7849007  41.4401665
 110.2655126  37.9966584  53.6868698 109.7822208  38.7966944  53.8932587
 110.3516065  38.0074528  52.7336142 103.5341086  39.8294963  41.6090517
 103.5111774  39.9282651  40.6572400 103.8441722  40.6760114  41.9307683
 106.1928464  41.8871118  45.7237132 107.1471717  41.8555061  45.6567063
 105.9940987  41.4261742  46.5387358 106.7827846  40.4572234  48.2907929
 107.6020735  40.9516313  48.3142767 107.0564654  39.5404202  48.2625497
 116.5394442  32.8482987  37.6535885 115.6520297  33.1332637  37.4356080
 116.9548431  32.6876750  36.8063162 119.8908978  32.8729508  41.3690224
 120.6669368  33.3625960  41.6414841 119.1657112  33.2987562  41.8262094
 122.3281537  33.5857127  42.4264165 122.9226028  33.3452863  41.7157473
 122.4008121  32.8664257  43.0537701 104.5478693  47.4290738  42.7407330
 104.4133160  46.6691139  42.1745328 104.1310755  48.1531638  42.2736118
 115.6837656  42.6127661  31.7483905 116.3873506  42.8177664  32.3641560
 114.9600304  43.1804423  32.0132988 116.5135466  38.3637523  37.8686175
 116.4570667  38.8206074  37.0293807 117.0663808  37.6028207  37.6909018
 120.3240272  34.1527254  38.6936295 120.0677206  33.7523890  39.5244502
 119.6993140  34.8671048  38.5686434 124.6352610  36.8923328  41.2007586
 124.0752168  36.9616517  41.9739148 124.0296113  36.7164312  40.4807082
 107.7047818  48.3260055  42.9525772 107.5880203  49.2705487  42.8504462
 106.8840265  48.0233616  43.3411571 117.5924353  43.0510191  33.7982365
 118.4269957  42.6191389  33.6159840 117.4308696  42.8792204  34.7259259
 117.2470245  39.5542304  35.1638704 117.1919049  39.3886575  34.2227148
 116.6216300  40.2618337  35.3200894 102.0362760  34.7910368  48.9900126
 102.6821624  34.2809322  49.4787352 101.8279911  35.5279050  49.5643552
 114.5616152  41.8591216  54.4892267 115.4307312  42.0331868  54.1278902
 114.0822904  42.6785633  54.3667996 110.5566371  29.0550413  34.7424023
 110.5445040  29.9992253  34.8992293 111.4489792  28.8720558  34.4483484
 108.7302333  48.9788317  46.1681701 109.6329579  49.0111927  46.4848196
 108.5039703  48.0488768  46.1828036 110.4855935  47.7319303  42.8291779
 109.5351566  47.7321165  42.7156152 110.7888421  46.9852038  42.3127814
 114.3718490  25.6493189  38.9969959 113.6050886  25.0951676  39.1426642
 114.7829195  25.7215058  39.8584111 106.3760251  31.9377985  53.0875141
 107.2391713  31.5814790  53.2978465 105.8025662  31.5991880  53.7750545
 126.2208628  53.5679842  43.8937542 126.8587038  53.4486589  43.1900882
 126.1029471  54.5160686  43.9525494 123.0298334  53.5207270  43.8299066
 122.6916846  53.4048334  42.9419601 123.8988103  53.1198435  43.8100072
 118.8885150  55.3742746  39.8195957 118.3250015  55.2832683  39.0512245
 118.7737545  54.5542651  40.2998450 123.5118117  54.6742121  49.7885272
 123.5006758  54.2794920  48.9165776 123.6738757  53.9408194  50.3819043
 124.4684709  59.0413714  35.1310422 123.8172689  59.6267794  34.7444436
 125.2629072  59.5719909  35.1905460 118.3940336  56.1302851  35.5297557
 119.1671212  55.5831838  35.3910432 118.7465735  56.9947100  35.7412018
 121.1581585  54.8356082  45.3265816 121.7545158  54.6112104  44.6122778
 121.2156557  54.0940827  45.9291263 120.7306614  52.2895517  33.1616006
 120.9832134  51.7677038  32.3999469 119.7931173  52.1261663  33.2642690
 125.7749897  51.2931295  40.9690750 126.5612986  50.8750719  40.6181167
 126.0388601  52.1977388  41.1372398 125.9459974  56.7304146  35.6679407
 125.3105807  56.8038772  36.3800311 125.6157380  57.3197745  34.9898486
 131.1758324  51.2306529  41.8723728 131.9083496  50.6605746  42.1061558
 130.4197679  50.8428129  42.3130234 120.4502902  54.1923623  35.3640381
 120.3339161  53.5168526  36.0321466 120.5605162  53.7055997  34.5472534
 122.7934443  53.6533770  39.0687071 122.4292651  53.1264391  39.7799992
 123.6501559  53.2632239  38.8953556 128.6983744  44.9428103  46.3318337
 128.3667069  45.8123514  46.1079552 128.1029357  44.6264387  47.0112367
 122.4339930  48.6823670  34.0648419 122.6014333  49.5503906  34.4318890
 122.2437099  48.8450952  33.1409708 125.1915264  57.1440649  45.7314250
 124.8915987  58.0465688  45.6230057 124.8466323  56.8772832  46.5835402
 118.6427745  53.5954446  41.7650954 117.7178242  53.4630660  41.9728646
 118.8912158  54.3748665  42.2620896 128.5912407  49.6623189  43.4111687
 127.6829285  49.5938597  43.1170448 128.5400003  50.1395134  44.2393512
 122.4129151  51.1381327  35.0495086 122.2928776  51.5838378  35.8880566
 121.7181740  51.4866645  34.4908624 116.0036556  53.2387719  42.5994743
 116.1328937  53.4922198  43.5134155 115.3234007  53.8315427  42.2799398
 120.1736043  63.9084969  38.6985217 120.0960073  64.8592794  38.7773698
 119.5697687  63.5630842  39.3560144 122.6653273  51.0812835  51.3546584
 121.8886607  51.6406755  51.3449449 123.3043836  51.5669618  51.8761454
 130.4574054  47.8639627  45.1889561 129.8148434  48.1572161  44.5429355
 129.9528982  47.7492548  45.9942757 128.1114217  51.6102801  35.8775420
 129.0232074  51.8430187  35.7023118 127.6023864  52.1939845  35.3150499
 120.9199645  53.8898288  50.9164551 121.6614330  54.4283332  50.6399375
 120.2136631  54.5164577  51.0736103 126.3954985  56.0327428  49.5136713
 126.8038341  55.5909839  48.7691345 125.6732247  55.4580056  49.7670906
 122.7486055  50.9700035  46.8870270 123.5947250  51.3939449  47.0304919
 122.6884693  50.3133659  47.5808833 126.7183800  56.5928619  43.2689002
 126.0892662  56.7574333  42.5665069 126.3309462  57.0070229  44.0399966
 130.5973032  57.5283057  40.6233365 129.9124070  57.9081958  40.0730399
 130.6816881  58.1378384  41.3565313 125.8985500  48.6304404  48.5451443
 125.6546432  49.3846464  48.0085719 126.1745431  49.0089751  49.3798690
 127.8523963  55.1743016  47.2228709 128.0640858  55.8174776  46.5463090
 127.8053711  54.3405332  46.7550639 125.4550192  47.7860837  44.1265281
 124.5934671  48.0842090  44.4182019 125.4812627  48.0031235  43.1946314
 122.2711762  56.3303027  40.5339087 122.7350107  56.6090730  39.7443709
 122.0068560  55.4286472  40.3512177 121.2080648  52.4526179  37.3428652
 121.9104691  52.9047223  37.8102578 120.8761276  51.8109998  37.9708545
 119.6561009  51.0437936  51.7179861 119.0259670  51.7254217  51.9515258
 119.5497097  50.9321018  50.7732999 114.9505982  50.7109732  42.6445785
 114.1605036  50.9667261  42.1685896 115.4417229  51.5258070  42.7497826
 128.9669791  58.0514971  45.3951066 129.7887235  57.6495159  45.1133748
 128.9632194  57.9483205  46.3467182 116.9020727  51.0754311  39.6029262
 116.1051890  51.1873006  40.1212758 116.6746319  51.4140964  38.7370153
 113.2343685  50.9640223  45.0760776 113.4851723  51.8487233  45.3418352
 113.7703233  50.7844824  44.3035868 137.0575784  54.3953720  41.7436038
 136.3039493  53.8261118  41.5880042 137.1923325  54.3616384  42.6906672
 122.4474412  59.2667122  37.4190757 122.3120087  60.1118658  37.8475605
 122.9884225  59.4686400  36.6556691 118.9341752  45.3458702  54.0805112
 118.5408697  44.7924901  54.7552756 119.7507892  45.6569280  54.4711630
 115.9003810  56.7842560  37.9918682 116.4128330  57.5785810  38.1424247
 116.5526522  56.0868851  37.9252284 117.7098694  59.9008316  40.0741435
 117.8865323  60.8226281  39.8862419 118.5055528  59.5866736  40.5035815
 121.8509713  46.7616581  51.6725369 122.5919426  47.3623734  51.5929831
 122.0827636  46.0194219  51.1143411 116.9951051  51.9472948  49.9503598
 116.8804566  51.0458206  50.2510697 116.1395569  52.1936645  49.5988415
 124.0742889  59.8890689  51.5491099 123.6306743  59.1027067  51.2312004
 124.7360102  60.0769839  50.8834990 126.1724127  60.1693489  49.5772500
 126.1542602  60.9902370  49.0852770 127.0944047  60.0447564  49.8022641
 125.7966876  42.7897684  45.9489650 125.4531145  43.6799326  45.8728761
 126.1645838  42.5999342  45.0859235 113.8652726  55.1131214  38.7678253
 114.7027948  55.5228223  38.5511960 114.0430994  54.1730657  38.7378446
 125.7617159  52.7806295  34.4562086 125.2463782  53.5510900  34.6950473
 125.4894467  52.1071431  35.0795147 123.3464270  47.6255996  39.5147324
 122.4905866  47.2362846  39.3352963 123.7591221  47.7047957  38.6547109
 124.8763416  45.1602339  43.9138884 124.3728212  45.1232474  43.1006689
 125.1694023  46.0695082  43.9735540 121.1206302  45.2441069  42.9205065
 121.9859299  45.0483878  42.5610955 121.1883811  45.0151421  43.8474422
 130.7351433  55.5338650  36.3915259 129.9580875  55.1949809  35.9470421
 131.4142914  55.5391273  35.7170224 125.5503462  50.6533387  36.2821867
 125.2453597  50.9679536  37.1332010 126.5033904  50.7314807  36.3249200
 123.9949894  56.8123611  37.9314821 123.4671255  56.0776370  37.6188058
 123.4937396  57.5898287  37.6854789 128.9742740  55.0072631  43.0481867
 128.3166414  55.6971892  43.1361996 129.7783139  55.3969063  43.3915853
 118.7268621  47.4743277  40.2921432 119.3012373  47.2518458  39.5594625
 119.3139604  47.5431971  41.0450034 127.7848198  53.3617004  41.0985809
 128.2980080  53.9946996  41.6007518 128.4349422  52.7618199  40.7329169
 119.0538208  49.5047738  34.3117317 118.2175521  49.8422424  34.6326592
 118.9142978  49.3696718  33.3744454 121.0291289  44.3484526  39.0196502
 120.3755701  44.0333543  38.3953116 120.9871763  43.7260266  39.7456325
 122.1402494  54.6303821  30.9349794 121.2329555  54.3993074  31.1340943
 122.6373526  53.8341440  31.1223775 125.0470573  63.3401328  33.8546480
 124.3732271  63.6433025  34.4631438 125.4336395  64.1430408  33.5051937
 124.2629029  50.8366459  43.3444149 123.3451591  51.0581406  43.1865837
 124.6789173  50.9112770  42.4855857 125.0464077  52.2357875  38.4746830
 125.7935896  52.7479272  38.1653952 125.3155667  51.9141928  39.3351223
 123.3190727  54.7316416  35.4573784 122.4101946  54.4475448  35.5546254
 123.3485811  55.1515494  34.5977091 128.5509995  58.3423005  39.2264951
 128.0972322  57.5013915  39.2830142 127.9203961  58.9784404  39.5639732
 127.4942914  49.2714991  40.4565619 126.7565671  48.7592377  40.7875861
 127.7469688  48.8315373  39.6448896 126.9942934  60.1799502  40.1614770
 127.2865908  60.7404559  39.4427135 127.5041554  60.4728063  40.9167929
 127.5954541  42.0491243  41.0507388 127.9013418  41.1888607  40.7633303
 128.3207146  42.6408863  40.8506382 113.8878898  52.4521930  39.4388986
 113.6903297  51.8591290  38.7140053 113.3325562  52.1474140  40.1564925
 121.8675621  52.3445036  41.5583579 121.9224231  51.3918873  41.4826056
 121.0566823  52.5004475  42.0424878 123.0166815  56.2725159  32.7961862
 122.5786245  55.5561018  32.3367500 123.7577256  56.5001274  32.2346954
 119.8067981  50.9622096  39.3173958 118.9935847  51.2616267  39.7239150
 120.3026975  50.5677785  40.0348440 121.9576559  60.9579853  41.2508223
 121.9152738  61.1840699  40.3216755 122.8739258  60.7243228  41.3994024
 125.4042193  51.4263920  48.1488852 125.7591581  51.6535394  49.0083318
 126.0514324  51.7582297  47.5266107 131.1339930  54.5482356  38.8538181
 130.9957828  54.7383952  37.9259370 130.7776149  55.3101739  39.3106232
 119.2982056  48.5340452  44.9335193 119.9381435  48.3929211  44.2358156
 118.4659586  48.2474965  44.5573795 131.1609309  56.6158883  43.8649452
 131.5945816  56.5234172  44.7132507 131.8740890  56.5916384  43.2269468
 120.0742360  57.8342882  41.0470185 120.8682958  57.3393202  40.8452760
 119.3634052  57.3060745  40.6837891 116.3825123  51.9785964  37.1229938
 115.4522711  51.9170419  37.3399900 116.4782595  51.4561916  36.3266579
 116.3010672  48.5040776  39.7108180 116.5617490  49.4186110  39.6017340
 117.1227845  48.0365219  39.8604793 117.7735598  49.9178534  46.8807004
 118.4458651  49.7095896  46.2319653 116.9465384  49.7200620  46.4412237
 132.0224859  56.6582584  46.3982338 132.2160749  57.5628395  46.6441613
 131.9225477  56.1990003  47.2320923 123.6761170  46.5440475  48.8972665
 123.0289085  47.2430424  48.8037142 124.4462185  46.9776619  49.2648913
 127.0839968  56.8089327  51.9723218 126.9325474  56.5799878  51.0553302
 127.0744647  57.7659928  51.9854564 123.8525304  54.3821239  46.9569485
 124.7817364  54.5332399  46.7838452 123.4316334  54.4705260  46.1018131
 123.2461788  63.5081000  36.0693559 123.4213543  63.0369044  36.8839182
 122.5594576  64.1346767  36.2974820 124.2018851  57.7853507  42.1156860
 123.8668684  57.7454277  43.0114510 123.7022797  57.1198223  41.6427271
 118.1763095  53.1921137  47.6409442 118.0382893  52.4601375  48.2420981
 119.0868018  53.1030037  47.3593629 127.1378043  55.1309541  32.3893920
 126.5207213  54.4056369  32.2926973 126.6694531  55.8918901  32.0460994
 120.8045396  52.9041096  47.1293121 121.5145014  52.2634288  47.0879740
 120.7614704  53.1553991  48.0519302 128.7932174  59.8408449  50.0499700
 128.7344720  59.1567669  49.3830283 129.1951693  60.5827439  49.5980326
 119.5174330  49.8906314  48.9488761 118.9811687  49.4397052  49.6010357
 118.9291038  50.0252223  48.2059225 117.8122873  66.6570363  42.8433419
 118.0519471  67.2888887  43.5212438 116.9692070  66.3058403  43.1298779
 118.9276589  49.3494965  31.5115224 118.0506055  49.2283766  31.1477471
 119.4034342  48.5581044  31.2594113 128.7949582  57.8048033  48.2813680
 127.9076360  57.4673955  48.4040079 129.3648133  57.0731064  48.5182445
 110.4478729  54.1372125  41.6056731 111.1349768  53.8233855  41.0177747
 110.2926857  55.0413490  41.3323983 115.2513451  49.0262322  46.0341755
 115.1671640  48.4187991  45.2992165 114.4296157  49.5171340  46.0351251
 122.1140515  61.7021256  38.7577745 121.3308036  62.2442936  38.8515969
 122.8133260  62.2195235  39.1571986 125.4237165  47.5115885  41.4011950
 125.9205864  46.7585847  41.0813020 124.6524146  47.5480202  40.8355159
 133.2766922  53.2156251  43.0430242 133.2656798  54.0980966  42.6724175
 132.4084302  52.8627801  42.8484779 126.5066945  56.2687572  38.9750374
 125.5723224  56.3889035  38.8055078 126.6843614  55.3660039  38.7110383
 122.0072133  49.6533268  41.1283635 121.6369921  49.1004308  41.8164540
 122.5031226  49.0491402  40.5758635 129.8939497  52.1104892  39.5100408
 130.3599949  52.9432883  39.4360710 130.3446997  51.6449873  40.2145666
 127.9615728  58.4548713  36.5086560 128.2375572  58.3405307  37.4180434
 127.0920227  58.0566198  36.4698733 127.8656159  44.4785479  43.5491309
 126.9519239  44.7089705  43.7173516 128.2949261  44.5623923  44.4005341
 127.6362618  52.6675371  46.0491203 126.9834068  52.9151278  45.3943656
 128.0142998  51.8539509  45.7153680 124.5969792  62.7035064  40.1519373
 124.7792186  61.8856720  40.6147126 125.4202778  62.9202756  39.7144263
 124.9311957  61.6303249  37.4134422 125.4599724  61.1195703  36.8004584
 125.1940177  61.3145779  38.2779955 123.6850191  53.4095182  52.5357240
 123.0090828  53.3089311  53.2059615 124.5077825  53.2534395  52.9993237
 118.2867705  62.6818366  40.1732198 117.6178081  63.1664493  39.6896238
 118.1480575  62.9287586  41.0875576 110.0246705  52.2172718  43.8774199
 110.0630804  51.6836309  44.6711317 109.5186998  51.6907924  43.2585176
 117.4037467  47.0637259  47.3736741 117.4678794  47.9252090  46.9614139
 117.3404587  46.4511260  46.6409099 116.8789740  49.1360391  51.0209775
 117.5061778  48.7537469  51.6347299 116.0217658  48.9174593  51.3865468
 127.2783848  59.5423367  52.6263511 127.8223752  60.1553325  52.1318465
 126.6970693  60.1002945  53.1430524 113.6555282  50.9436820  36.9528130
 113.9508723  50.0347499  36.8995184 112.7543318  50.9224560  36.6309132
 125.5641361  62.6644085  43.7578538 125.4392501  61.8633824  43.2489484
 126.2220452  63.1590278  43.2692508 117.1849529  49.0192817  42.9355679
 116.4636115  49.6328785  42.7963152 117.9742785  49.5550582  42.8572324
 127.6276270  60.4653105  45.3858088 126.6806605  60.3458456  45.3136415
 127.9759043  59.5775603  45.4684350 119.9875843  46.3547244  49.2096330
 120.5110245  46.6009540  49.9722640 119.7688176  47.1867278  48.7899468
 115.3843124  48.6250918  37.0767455 115.0555830  47.7448297  36.8942561
 115.7382495  48.5698587  37.9643844 124.6322703  60.2605821  41.5862441
 124.4847665  59.3322528  41.7670011 125.4576196  60.2825912  41.1019516
 118.4984947  48.9123888  37.4442933 118.8381020  49.4409809  36.7221541
 118.9457068  49.2504294  38.2201499 128.2356825  61.0834380  42.6727313
 129.1603372  60.8777241  42.5351765 128.0672128  60.8350781  43.5816655
 121.1928388  47.2960939  46.8946001 120.8525208  46.4968752  47.2966681
 120.4867394  47.5962650  46.3222834 121.8444860  44.3810251  45.3473324
 122.6670929  43.9070729  45.2252214 122.0882923  45.1600735  45.8472010
 120.4853094  47.4098510  35.6436226 121.2061457  47.7879762  35.1399942
 119.8618398  48.1287386  35.7471203 124.6284217  48.1143659  36.5794558
 124.8447832  48.9968296  36.2783386 124.1478284  47.7229872  35.8500200
 119.3683439  51.0729372  43.1565302 119.2228019  51.3869675  44.0489584
 118.8908642  51.6914272  42.6036201 121.2279821  48.0631920  43.2046192
 121.2141390  47.1673013  42.8678490 121.9452250  48.0702583  43.8384478
 123.0805952  48.4969260  45.2499319 122.8223730  49.4186331  45.2483650
 122.5490992  48.0999694  45.9399784 128.0252141  61.6020047  38.0289405
 128.1989018  61.0366470  37.2763257 128.5181032  62.4020942  37.8468895
 113.8429101  53.6134716  46.0952964 113.2982569  54.3894524  46.2273238
 114.7208451  53.9605521  45.9372085 120.6316717  46.9446300  38.4733762
 120.7532629  46.0162946  38.6724650 120.3418760  46.9584986  37.5612078
 123.5007908  44.6301210  41.6100482 123.5229605  44.6940544  40.6552462
 123.9175967  43.7905719  41.8040988 133.8791532  54.3656470  39.6479705
 134.3222678  53.6163795  39.2498828 133.0018042  54.3566606  39.2653437
 129.0127313  60.9186811  35.1286303 129.7078218  61.5393504  35.3473618
 129.3550463  60.0682163  35.4038681 114.6295123  52.7404612  48.9883121
 113.8876859  52.8887248  49.5747751 114.3087867  53.0012878  48.1249870
 130.9118736  58.3686517  36.6573634 131.4370061  58.7073790  35.9322954
 130.8241089  57.4333532  36.4736769 122.5959397  64.4358500  41.0168887
 122.1564388  63.9434879  41.7101744 123.3467514  63.8931468  40.7760962
 113.2760341  58.5456368  41.9782449 112.4392250  58.1178542  41.7966450
 113.2483987  58.7388811  42.9153240 120.1157797  48.4578297  52.6823695
 120.1645952  49.3340420  52.3001464 120.6580311  47.9155690  52.1095338
 130.6012643  59.0019421  51.9624832 129.8108186  58.9843559  51.4229331
 130.3645997  59.5407714  52.7173868 130.7210518  55.8511887  49.2757560
 130.7708523  55.6861894  50.2173083 130.6124441  54.9839146  48.8855441
 119.6046776  58.5300433  36.5649649 119.7534897  59.2135897  35.9116322
 120.4113220  58.5105523  37.0799105 128.0114280  51.8342815  50.5916867
 128.9124143  51.6949280  50.3000865 128.0862254  51.9997270  51.5315045
 122.3457085  49.2109670  49.4370053 121.4760395  49.5043236  49.1652642
 122.5816566  49.7950115  50.1577317 132.2228714  58.2708829  49.5199582
 131.9313523  58.6338809  50.3563043 131.6100846  57.5575837  49.3412914
 133.4224397  55.8361708  42.0402152 134.2571288  56.2751512  42.2039713
 133.5583526  55.3600362  41.2210398 130.4715903  53.3941443  47.9879640
 130.9470024  53.5869089  47.1798491 129.5481468  53.4500629  47.7423024
 117.3599409  54.5565610  37.5710718 117.1145451  53.6527940  37.7690928
 117.5295324  54.5582761  36.6290196 125.0496119  45.4289287  46.9535474
 125.5678063  46.1650314  46.6281962 124.6951252  45.7353280  47.7882233
 116.6295057  50.2893968  35.0696880 115.9364302  50.3638323  34.4136916
 116.3846809  49.5254312  35.5918397 125.3008713  41.8489569  42.4736370
 125.5810467  41.1812758  43.0996797 126.0859320  42.0418665  41.9611034
 123.1042182  61.0248563  34.0361397 122.5316149  61.6438750  33.5831869
 123.6774975  61.5747925  34.5701319 129.1717572  50.2707203  46.2207946
 130.1234995  50.3705301  46.2420170 129.0021022  49.4785472  46.7306030
 127.1931951  47.3562786  46.4067346 126.5981883  47.6367799  45.7113835
 126.9081648  47.8456687  47.1784088 126.3239442  61.3085713  35.1669979
 127.2570115  61.2431275  35.3702854 126.2362654  62.1441980  34.7084512
 128.9527458  60.6251584  32.1273927 128.8741090  60.2911447  33.0209684
 129.7737125  61.1173352  32.1265399 131.6505649  53.4913323  45.3350245
 131.6181970  52.5529324  45.5209929 132.2606273  53.5697360  44.6016070
 123.4888980  52.3609376  31.3777449 124.4348085  52.2315584  31.4465867
 123.1103225  51.6224038  31.8546877 131.8000138  50.2824366  45.3808528
 131.2839187  49.4982823  45.1938457 132.6840086  49.9543083  45.5455048
 129.4610865  44.0265382  41.3404341 129.2635686  43.7180470  42.2247673
 130.0710570  44.7527021  41.4702271 135.5497496  52.6937192  45.0730733
 134.8230660  52.5593157  44.4647225 135.1344783  53.0014021  45.8787451
 123.3727673  56.4127122  52.8378106 124.2930682  56.5905721  53.0318153
 123.3377256  55.4683167  52.6857805 121.6731897  50.2859352  31.3132334
 120.7663353  49.9892465  31.3895048 121.9507878  49.9889170  30.4466621
 112.5909838  51.6065716  41.7631381 112.2712622  50.7531024  41.4705755
 112.0443266  51.8214294  42.5189348 116.3689745  54.3228157  45.4800887
 116.5875755  55.2545264  45.4988921 116.7815519  53.9636131  46.2655691
 123.2893963  44.8296242  37.4676576 122.4794692  44.4843327  37.8431822
 123.9778380  44.5203786  38.0564187 125.2184511  43.9074289  39.0900872
 125.7715550  44.3269742  39.7490895 125.4554598  42.9810037  39.1323828
 121.2417611  49.8961362  54.8703636 121.1414338  50.8455719  54.8015727
 121.0239153  49.5679601  53.9979706 120.4430682  47.1446288  31.4544314
 121.3049846  47.4701186  31.7140131 120.6281026  46.3577783  30.9417379
 112.4598098  55.2268627  43.7324502 111.7661569  54.8122580  43.2194457
 113.2071089  55.2689164  43.1357921 128.5963319  46.0174814  38.5979537
 128.0161988  46.6759618  38.2157589 128.3299251  45.1952159  38.1866954
 127.0466885  45.4179872  40.8000857 127.5466663  45.5296406  39.9915176
 127.6902493  45.1140925  41.4401665 121.1048881  53.3258501  53.6868698
 120.6215962  54.1258861  53.8932587 121.1909820  53.3366446  52.7336142
 114.3734840  55.1586881  41.6090517 114.3505528  55.2574568  40.6572400
 114.6835477  56.0052032  41.9307683 127.3788197  48.1774904  37.6535885
 126.4914052  48.4624555  37.4356080 127.7942186  48.0168668  36.8063162
 130.7302733  48.2021425  41.3690224 131.5063123  48.6917878  41.6414841
 130.0050867  48.6279480  41.8262094 133.1675291  48.9149045  42.4264165
 133.7619782  48.6744781  41.7157473 133.2401875  48.1956175  43.0537701
 126.5231410  57.9419579  31.7483905 127.2267260  58.1469582  32.3641560
 125.7994059  58.5096341  32.0132988 127.3529220  53.6929440  37.8686175
 127.2964422  54.1497992  37.0293807 127.9057563  52.9320125  37.6909018
 131.1634026  49.4819172  38.6936295 130.9070960  49.0815808  39.5244502
 130.5386894  50.1962966  38.5686434 135.4746364  52.2215245  41.2007586
 134.9145922  52.2908435  41.9739148 134.8689867  52.0456230  40.4807082
 128.4318107  58.3802108  33.7982365 129.2663711  57.9483307  33.6159840
 128.2702450  58.2084122  34.7259259 128.0864000  54.8834222  35.1638704
 128.0312803  54.7178493  34.2227148 127.4610055  55.5910254  35.3200894
 112.8756515  50.1202286  48.9900126 113.5215378  49.6101240  49.4787352
 112.6673666  50.8570968  49.5643552 125.4009907  57.1883133  54.4892267
 126.2701066  57.3623786  54.1278902 124.9216658  58.0077550  54.3667996
 121.3960125  44.3842331  34.7424023 121.3838795  45.3284170  34.8992293
 122.2883547  44.2012476  34.4483484 121.3249689  63.0611221  42.8291779
 120.3745320  63.0613083  42.7156152 121.6282175  62.3143956  42.3127814
 125.2112245  40.9785107  38.9969959 124.4444640  40.4243594  39.1426642
 125.6222950  41.0506976  39.8584111 117.2154006  47.2669903  53.0875141
 118.0785467  46.9106708  53.2978465 116.6419416  46.9283798  53.7750545
 133.8692089  68.8499187  43.8299066 133.5310600  68.7340252  42.9419601
 134.7381857  68.4490353  43.8100072 129.7278905  70.7034664  39.8195957
 129.1643770  70.6124601  39.0512245 129.6131300  69.8834568  40.2998450
 134.3511872  70.0034039  49.7885272 134.3400513  69.6086837  48.9165776
 134.5132511  69.2700112  50.3819043 127.2743336  72.1985855  42.6580178
 128.0664628  71.8576680  42.2426477 127.5139987  72.3080830  43.5782331
 135.3078463  74.3705632  35.1310422 134.6566443  74.9559712  34.7444436
 136.1022826  74.9011826  35.1905460 129.2334090  71.4594769  35.5297557
 130.0064966  70.9123756  35.3910432 129.5859489  72.3239018  35.7412018
 131.0719133  72.7871151  48.7364456 130.7808999  73.6916782  48.6211122
 131.7076117  72.8287679  49.4508525 131.9975340  70.1647999  45.3265816
 132.5938912  69.9404022  44.6122778 132.0550311  69.4232745  45.9291263
 131.5700368  67.6187435  33.1616006 131.8225889  67.0968956  32.3999469
 130.6324927  67.4553580  33.2642690 136.6143651  66.6223213  40.9690750
 137.4006740  66.2042636  40.6181167 136.8782355  67.5269305  41.1372398
 136.7853728  72.0596063  35.6679407 136.1499561  72.1330690  36.3800311
 136.4551135  72.6489662  34.9898486 131.2896657  69.5215541  35.3640381
 131.1732915  68.8460444  36.0321466 131.3998917  69.0347915  34.5472534
 133.6328198  68.9825688  39.0687071 133.2686405  68.4556309  39.7799992
 134.4895314  68.5924157  38.8953556 133.2733685  64.0115588  34.0648419
 133.4408087  64.8795824  34.4318890 133.0830854  64.1742869  33.1409708
 136.0309018  72.4732566  45.7314250 135.7309741  73.3757605  45.6230057
 135.6860078  72.2064750  46.5835402 129.4821500  68.9246363  41.7650954
 128.5571996  68.7922577  41.9728646 129.7305913  69.7040583  42.2620896
 133.2522906  66.4673245  35.0495086 133.1322531  66.9130296  35.8880566
 132.5575494  66.8158563  34.4908624 126.8430311  68.5679637  42.5994743
 126.9722692  68.8214116  43.5134155 126.1627762  69.1607345  42.2799398
 131.0129798  79.2376887  38.6985217 130.9353828  80.1884712  38.7773698
 130.4091441  78.8922759  39.3560144 133.5047028  66.4104752  51.3546584
 132.7280362  66.9698672  51.3449449 134.1437591  66.8961535  51.8761454
 131.7593400  69.2190206  50.9164551 132.5008084  69.7575250  50.6399375
 131.0530385  69.8456494  51.0736103 137.2348740  71.3619346  49.5136713
 137.6432096  70.9201757  48.7691345 136.5126001  70.7871974  49.7670906
 133.5879810  66.2991953  46.8870270 134.4341005  66.7231366  47.0304919
 133.5278447  65.6425577  47.5808833 137.5577554  71.9220537  43.2689002
 136.9286417  72.0866251  42.5665069 137.1703216  72.3362146  44.0399966
 136.7379255  63.9596321  48.5451443 136.4940187  64.7138382  48.0085719
 137.0139185  64.3381669  49.3798690 136.2943947  63.1152754  44.1265281
 135.4328426  63.4134008  44.4182019 136.3206381  63.3323153  43.1946314
 133.1105516  71.6594945  40.5339087 133.5743862  71.9382648  39.7443709
 132.8462314  70.7578389  40.3512177 130.0029597  71.2066426  43.4718850
 130.5730954  71.6353695  42.8336334 130.5937709  70.9249011  44.1703036
 132.0474402  67.7818097  37.3428652 132.7498445  68.2339141  37.8102578
 131.7155031  67.1401916  37.9708545 130.4954764  66.3729854  51.7179861
 129.8653424  67.0546135  51.9515258 130.3890852  66.2612935  50.7732999
 125.7899736  66.0401650  42.6445785 124.9998790  66.2959178  42.1685896
 126.2810983  66.8549988  42.7497826 127.7414481  66.4046229  39.6029262
 126.9445645  66.5164923  40.1212758 127.5140074  66.7432881  38.7370153
 133.5720149  72.9290932  47.5511777 133.6364582  73.3911340  48.3869948
 132.8631073  72.2988297  47.6794086 133.2868167  74.5959040  37.4190757
 133.1513842  75.4410576  37.8475605 133.8277979  74.7978317  36.6556691
 129.7735506  60.6750620  54.0805112 129.3802452  60.1216818  54.7552756
 130.5901647  60.9861198  54.4711630 126.7397564  72.1134478  37.9918682
 127.2522085  72.9077728  38.1424247 127.3920277  71.4160768  37.9252284
 128.5492449  75.2300234  40.0741435 128.7259077  76.1518199  39.8862419
 129.3449282  74.9158653  40.5035815 132.6903467  62.0908499  51.6725369
 133.4313181  62.6915652  51.5929831 132.9221390  61.3486137  51.1143411
 127.8344805  67.2764866  49.9503598 127.7198321  66.3750123  50.2510697
 126.9789323  67.5228563  49.5988415 134.9136643  75.2182606  51.5491099
 134.4700497  74.4318985  51.2312004 135.5753857  75.4061757  50.8834990
 129.6723764  76.7478408  46.0751778 130.2231189  76.6195471  45.3028772
 128.8335240  77.0473297  45.7246670 133.4690935  73.0129536  50.4196009
 134.0019272  72.2517824  50.1895317 132.9405016  72.7203188  51.1620163
 136.6360630  58.1189602  45.9489650 136.2924900  59.0091243  45.8728761
 137.0039593  57.9291259  45.0859235 124.7046481  70.4423132  38.7678253
 125.5421703  70.8520140  38.5511960 124.8824749  69.5022574  38.7378446
 136.6010913  68.1098213  34.4562086 136.0857536  68.8802817  34.6950473
 136.3288221  67.4363349  35.0795147 134.1858024  62.9547914  39.5147324
 133.3299620  62.5654764  39.3352963 134.5984976  63.0339874  38.6547109
 135.7157171  60.4894257  43.9138884 135.2121966  60.4524392  43.1006689
 136.0087778  61.3987000  43.9735540 131.9600057  60.5732987  42.9205065
 132.8253053  60.3775795  42.5610955 132.0277566  60.3443338  43.8474422
 136.3897216  65.9825305  36.2821867 136.0847352  66.2971454  37.1332010
 137.3427658  66.0606725  36.3249200 134.8343648  72.1415528  37.9314821
 134.3065010  71.4068288  37.6188058 134.3331151  72.9190205  37.6854789
 129.5662376  62.8035194  40.2921432 130.1406128  62.5810376  39.5594625
 130.1533358  62.8723889  41.0450034 129.8931963  64.8339655  34.3117317
 129.0569275  65.1714342  34.6326592 129.7536732  64.6988635  33.3744454
 131.8685043  59.6776443  39.0196502 131.2149456  59.3625461  38.3953116
 131.8265518  59.0552184  39.7456325 132.9796248  69.9595738  30.9349794
 132.0723310  69.7284992  31.1340943 133.4767280  69.1633358  31.1223775
 135.8864327  78.6693246  33.8546480 135.2126026  78.9724942  34.4631438
 136.2730149  79.4722326  33.5051937 135.1022784  66.1658377  43.3444149
 134.1845345  66.3873324  43.1865837 135.5182927  66.2404687  42.4855857
 135.8857832  67.5649793  38.4746830 136.6329650  68.0771190  38.1653952
 136.1549421  67.2433845  39.3351223 134.1584482  70.0608333  35.4573784
 133.2495701  69.7767366  35.5546254 134.1879565  70.4807412  34.5977091
 124.7272652  67.7813847  39.4388986 124.5297052  67.1883208  38.7140053
 124.1719316  67.4766058  40.1564925 132.7069376  67.6736954  41.5583579
 132.7617985  66.7210790  41.4826056 131.8960578  67.8296393  42.0424878
 133.8560569  71.6017077  32.7961862 133.4179999  70.8852936  32.3367500
 134.5971010  71.8293192  32.2346954 130.6461736  66.2914014  39.3173958
 129.8329601  66.5908184  39.7239150 131.1420730  65.8969702  40.0348440
 132.7970314  76.2871771  41.2508223 132.7546492  76.5132617  40.3216755
 133.7133012  76.0535145  41.3994024 136.2435947  66.7555838  48.1488852
 136.5985335  66.9827311  49.0083318 136.8908079  67.0874215  47.5266107
 130.1375810  63.8632369  44.9335193 130.7775190  63.7221128  44.2358156
 129.3053341  63.5766883  44.5573795 130.9136114  73.1634800  41.0470185
 131.7076713  72.6685120  40.8452760 130.2027807  72.6352663  40.6837891
 135.7330959  75.5452895  45.3982553 135.7867981  76.1143831  46.1660269
 134.8645740  75.7154780  45.0336590 127.2218878  67.3077881  37.1229938
 126.2916466  67.2462337  37.3399900 127.3176350  66.7853834  36.3266579
 127.1404427  63.8332694  39.7108180 127.4011244  64.7478027  39.6017340
 127.9621599  63.3657137  39.8604793 128.6129352  65.2470451  46.8807004
 129.2852406  65.0387813  46.2319653 127.7859139  65.0492537  46.4412237
 134.5154924  61.8732392  48.8972665 133.8682839  62.5722342  48.8037142
 135.2855940  62.3068536  49.2648913 134.6919059  69.7113157  46.9569485
 135.6211119  69.8624317  46.7838452 134.2710089  69.7997178  46.1018131
 133.4907390  73.7363822  44.7268023 133.3518476  73.3682606  45.5993961
 132.7021987  74.2511461  44.5551980 134.0855542  78.8372918  36.0693559
 134.2607298  78.3660961  36.8839182 133.3988330  79.4638684  36.2974820
 135.0412605  73.1145424  42.1156860 134.7062438  73.0746194  43.0114510
 134.5416551  72.4490140  41.6427271 129.0156849  68.5213054  47.6409442
 128.8776647  67.7893293  48.2420981 129.9261773  68.4321954  47.3593629
 131.6439150  68.2333014  47.1293121 132.3538769  67.5926206  47.0879740
 131.6008458  68.4845908  48.0519302 130.3568084  65.2198232  48.9488761
 129.8205441  64.7688970  49.6010357 129.7684793  65.3544140  48.2059225
 128.6516628  81.9862281  42.8433419 128.8913226  82.6180805  43.5212438
 127.8085824  81.6350321  43.1298779 129.7670343  64.6786883  31.5115224
 128.8899809  64.5575684  31.1477471 130.2428096  63.8872961  31.2594113
 121.2872483  69.4664043  41.6056731 121.9743523  69.1525773  41.0177747
 121.1320612  70.3705407  41.3323983 126.0907205  64.3554239  46.0341755
 126.0065394  63.7479909  45.2992165 125.2689912  64.8463258  46.0351251
 133.1644489  77.7941403  45.2474923 133.0914661  78.5996375  45.7594228
 132.7221883  77.9933369  44.4222945 132.9534269  77.0313173  38.7577745
 132.1701791  77.5734853  38.8515969 133.6527014  77.5487153  39.1571986
 136.2630919  62.8407803  41.4011950 136.7599619  62.0877765  41.0813020
 135.4917901  62.8772119  40.8355159 135.6243173  77.6928237  47.4033082
 136.3371145  78.3275702  47.3308983 135.1333202  77.7892103  46.5873084
 137.3460700  71.5979490  38.9750374 136.4116979  71.7180952  38.8055078
 137.5237368  70.6951957  38.7110383 132.8465888  64.9825186  41.1283635
 132.4763675  64.4296226  41.8164540 133.3424980  64.3783319  40.5758635
 130.6755086  75.4422681  48.2238653 131.3764546  76.0759164  48.3768047
 130.2050201  75.7837412  47.4634292 135.4363546  78.0326981  40.1519373
 135.6185941  77.2148637  40.6147126 136.2596532  78.2494674  39.7144263
 135.7705712  76.9595167  37.4134422 136.2993478  76.4487621  36.8004584
 136.0333931  76.6437697  38.2779955 134.5243945  68.7387099  52.5357240
 133.8484582  68.6381229  53.2059615 135.3471579  68.5826313  52.9993237
 126.2722805  74.9759036  45.1569755 126.8576241  74.2302724  45.2897660
 126.0747643  75.2862993  46.0406419 129.1261460  78.0110283  40.1732198
 128.4571835  78.4956411  39.6896238 128.9874329  78.2579504  41.0875576
 133.2666728  80.0454027  46.7714856 133.8185036  80.2085648  47.5363941
 133.6072922  80.6358465  46.0994881 128.2431222  62.3929177  47.3736741
 128.3072548  63.2544007  46.9614139 128.1798342  61.7803178  46.6409099
 127.7183494  64.4652309  51.0209775 128.3455533  64.0829386  51.6347299
 126.8611413  64.2466511  51.3865468 124.4949037  66.2728738  36.9528130
 124.7902478  65.3639417  36.8995184 123.5937073  66.2516478  36.6309132
 136.4035116  77.9936002  43.7578538 136.2786255  77.1925742  43.2489484
 137.0614207  78.4882196  43.2692508 128.0243284  64.3484735  42.9355679
 127.3029870  64.9620702  42.7963152 128.8136540  64.8842500  42.8572324
 130.8269597  61.6839161  49.2096330 131.3503999  61.9301458  49.9722640
 130.6081931  62.5159196  48.7899468 126.2236878  63.9542836  37.0767455
 125.8949585  63.0740215  36.8942561 126.5776249  63.8990505  37.9643844
 135.4716457  75.5897739  41.5862441 135.3241420  74.6614446  41.7670011
 136.2969951  75.6117829  41.1019516 129.3378702  64.2415806  37.4442933
 129.6774774  64.7701727  36.7221541 129.7850822  64.5796212  38.2201499
 132.0322142  62.6252856  46.8946001 131.6918963  61.8260669  47.2966681
 131.3261149  62.9254567  46.3222834 132.6838614  59.7102169  45.3473324
 133.5064684  59.2362647  45.2252214 132.9276678  60.4892653  45.8472010
 131.3246849  62.7390427  35.6436226 132.0455211  63.1171680  35.1399942
 130.7012153  63.4579304  35.7471203 135.4677972  63.4435576  36.5794558
 135.6841586  64.3260214  36.2783386 134.9872039  63.0521790  35.8500200
 130.2077193  66.4021289  43.1565302 130.0621774  66.7161592  44.0489584
 129.7302397  67.0206190  42.6036201 132.0673576  63.3923837  43.2046192
 132.0535145  62.4964931  42.8678490 132.7846004  63.3994501  43.8384478
 133.9199707  63.8261178  45.2499319 133.6617484  64.7478248  45.2483650
 133.3884747  63.4291612  45.9399784 124.6822855  68.9426634  46.0952964
 124.1376323  69.7186442  46.2273238 125.5602205  69.2897438  45.9372085
 131.4710472  62.2738218  38.4733762 131.5926383  61.3454864  38.6724650
 131.1812514  62.2876904  37.5612078 134.3401662  59.9593128  41.6100482
 134.3623359  60.0232461  40.6552462 134.7569721  59.1197637  41.8040988
 125.4688877  68.0696530  48.9883121 124.7270613  68.2179165  49.5747751
 125.1481621  68.3304796  48.1249870 133.4132540  77.6112508  48.7863511
 133.7219666  77.3661655  49.6586210 134.2108022  77.8159147  48.2982381
 133.4353152  79.7650418  41.0168887 132.9958142  79.2726797  41.7101744
 134.1861269  79.2223386  40.7760962 125.9145491  75.9561959  41.0193515
 126.7403511  75.6565731  40.6392159 125.5639543  75.1869581  41.4683304
 130.8827024  75.3088427  43.0891189 130.2607033  74.6459132  42.7893417
 131.5531891  75.3349559  42.4064837 124.1154096  73.8748285  41.9782449
 123.2786004  73.4470460  41.7966450 124.0877741  74.0680729  42.9153240
 130.9551551  63.7870215  52.6823695 131.0039707  64.6632338  52.3001464
 131.4974066  63.2447608  52.1095338 130.4440531  73.8592350  36.5649649
 130.5928651  74.5427815  35.9116322 131.2506974  73.8397440  37.0799105
 133.1850840  64.5401587  49.4370053 132.3154149  64.8335154  49.1652642
 133.4210320  65.1242032  50.1577317 128.1993164  69.8857528  37.5710718
 127.9539206  68.9819858  37.7690928 128.3689078  69.8874678  36.6290196
 135.8889874  60.7581204  46.9535474 136.4071818  61.4942231  46.6281962
 135.5345006  61.0645198  47.7882233 127.4688811  65.6185886  35.0696880
 126.7758056  65.6930241  34.4136916 127.2240563  64.8546229  35.5918397
 136.1402468  57.1781487  42.4736370 136.4204222  56.5104676  43.0996797
 136.9253075  57.3710583  41.9611034 133.9435936  76.3540481  34.0361397
 133.3709903  76.9730668  33.5831869 134.5168730  76.9039843  34.5701319
 134.3282735  67.6901294  31.3777449 135.2741840  67.5607502  31.4465867
 133.9496980  66.9515955  31.8546877 134.2121427  71.7419040  52.8378106
 135.1324437  71.9197639  53.0318153 134.1771010  70.7975085  52.6857805
 132.5125652  65.6151270  31.3132334 131.6057107  65.3184383  31.3895048
 132.7901633  65.3181088  30.4466621 123.4303592  66.9357633  41.7631381
 123.1106377  66.0822942  41.4705755 122.8837021  67.1506212  42.5189348
 127.2083500  69.6520074  45.4800887 127.4269510  70.5837182  45.4988921
 127.6209274  69.2928049  46.2655691 134.1287718  60.1588160  37.4676576
 133.3188446  59.8135245  37.8431822 134.8172135  59.8495703  38.0564187
 136.0578266  59.2366206  39.0900872 136.6109305  59.6561660  39.7490895
 136.2948352  58.3101955  39.1323828 132.0811365  65.2253280  54.8703636
 131.9808092  66.1747637  54.8015727 131.8632907  64.8971519  53.9979706
 131.2824437  62.4738205  31.4544314 132.1443601  62.7993103  31.7140131
 131.4674781  61.6869701  30.9417379 123.2991852  70.5560545  43.7324502
 122.6055324  70.1414498  43.2194457 124.0464843  70.5981081  43.1357921
 131.9442635  68.6550419  53.6868698 131.4609717  69.4550779  53.8932587
 132.0303574  68.6658364  52.7336142 125.2128595  70.4878799  41.6090517
 125.1899283  70.5866486  40.6572400 125.5229231  71.3343949  41.9307683
 127.8715973  72.5454954  45.7237132 128.8259226  72.5138896  45.6567063
 127.6728496  72.0845577  46.5387358 128.4615355  71.1156070  48.2907929
 129.2808244  71.6100148  48.3142767 128.7352163  70.1988038  48.2625497
 126.2266202  78.0874573  42.7407330 126.0920669  77.3274974  42.1745328
 125.8098264  78.8115473  42.2736118 129.3835327  78.9843890  42.9525772
 129.2667712  79.9289323  42.8504462 128.5627774  78.6817452  43.3411571
 136.2403661  72.5175051  54.4892267 137.1094821  72.6915703  54.1278902
 135.7610413  73.3369468  54.3667996 132.2353880  59.7134248  34.7424023
 132.2232549  60.6576088  34.8992293 133.1277301  59.5304394  34.4483484
 130.4089842  79.6372152  46.1681701 131.3117088  79.6695762  46.4848196
 130.1827212  78.7072603  46.1828036 132.1643444  78.3903139  42.8291779
 131.2139075  78.3905000  42.7156152 132.4675930  77.6435873  42.3127814
 136.0505999  56.3077025  38.9969959 135.2838395  55.7535512  39.1426642
 136.4616704  56.3798894  39.8584111 128.0547760  62.5961821  53.0875141
 128.9179222  62.2398626  53.2978465 127.4813171  62.2575715  53.7750545
 136.6293491  81.3693567  42.6445785 135.8392545  81.6251096  42.1685896
 137.1204738  82.1841905  42.7497826 134.9131194  81.6224058  45.0760776
 135.1639232  82.5071068  45.3418352 135.4490742  81.4428659  44.3035868
 135.5440235  85.7715050  38.7678253 136.3815457  86.1812058  38.5511960
 135.7218503  84.8314492  38.7378446 135.5666407  83.1105765  39.4388986
 135.3690806  82.5175126  38.7140053 135.0113071  82.8057975  40.1564925
 132.1266238  84.7955960  41.6056731 132.8137277  84.4817690  41.0177747
 131.9714366  85.6997325  41.3323983 136.9300960  79.6846157  46.0341755
 136.8459149  79.0771826  45.2992165 136.1083666  80.1755175  46.0351251
 131.7034214  82.8756554  43.8774199 131.7418313  82.3420144  44.6711317
 131.1974507  82.3491759  43.2585176 135.3342791  81.6020656  36.9528130
 135.6296232  80.6931334  36.8995184 134.4330827  81.5808395  36.6309132
 137.0630633  79.2834754  37.0767455 136.7343339  78.4032132  36.8942561
 137.4170004  79.2282422  37.9643844 135.5216610  84.2718551  46.0952964
 134.9770078  85.0478359  46.2273238 136.3995960  84.6189356  45.9372085
 136.3082632  83.3988448  48.9883121 135.5664368  83.5471083  49.5747751
 135.9875376  83.6596713  48.1249870 136.7539245  91.2853876  41.0193515
 137.5797265  90.9857648  40.6392159 136.4033297  90.5161499  41.4683304
 134.9547850  89.2040203  41.9782449 134.1179759  88.7762377  41.7966450
 134.9271496  89.3972646  42.9153240 134.2697347  82.2649551  41.7631381
 133.9500131  81.4114859  41.4705755 133.7230775  82.4798129  42.5189348
 134.1385607  85.8852463  43.7324502 133.4449078  85.4706415  43.2194457
 134.8858598  85.9272999  43.1357921 136.0522349  85.8170716  41.6090517
 136.0293037  85.9158404  40.6572400 136.3622986  86.6635867  41.9307683
 137.0659956  93.4166491  42.7407330 136.9314424  92.6566892  42.1745328
 136.6492018  94.1407391  42.2736118 134.5544024  80.7786121  48.9900126
 135.2002887  80.2685075  49.4787352 134.3461175  81.5154803  49.5643552
  98.4948536  10.2563256  25.4230524  98.4172565  11.2071081  25.5019004
  97.8910179   9.9109129  26.0805450  97.1542502   7.7664777  32.7997084
  97.7049927   7.6381841  32.0274078  96.3153978   8.0659666  32.4491977
 103.3683065   9.6879615  20.5791787 102.6944764   9.9911312  21.1876744
 103.7548887  10.4908696  20.2297244 101.5674280   9.8559288  22.7938866
 101.7426036   9.3847331  23.6084488 100.8807068  10.4825054  23.0220126
  96.1335365  13.0048650  29.5678726  96.3731964  13.6367175  30.2457744
  95.2904562  12.6536690  29.8544085 100.6463227   8.8127773  31.9720230
 100.5733399   9.6182744  32.4839534 100.2040620   9.0119739  31.1468251
 100.4353007   8.0499543  25.4823051  99.6520529   8.5921223  25.5761276
 101.1345752   8.5673523  25.8817293 103.1061911   8.7114607  34.1278389
 103.8189883   9.3462072  34.0554290 102.6151939   8.8078473  33.3118390
  93.7541542   5.9945405  31.8815062  94.3394979   5.2489093  32.0142966
  93.5566381   6.3049362  32.7651726  96.6080198   9.0296653  26.8977504
  95.9390573   9.5142780  26.4141544  96.4693067   9.2765873  27.8120883
 100.7485466  11.0640396  33.4960163 101.3003774  11.2272018  34.2609248
 101.0891660  11.6544834  32.8240188 100.8951277   8.6298878  35.5108817
 101.2038404   8.3848025  36.3831517 101.6926759   8.8345516  35.0227687
 100.9171889  10.7836788  27.7414194 100.4776880  10.2913166  28.4347050
 101.6680006  10.2409755  27.5006269  93.3964228   6.9748328  27.7438822
  94.2222248   6.6752100  27.3637465  93.0458280   6.2055951  28.1928610
  91.5972834   4.8934655  28.7027755  90.7604742   4.4656829  28.5211757
  91.5696479   5.0867098  29.6398547  93.7084939   9.1060943  29.4652636
  93.5739407   8.3461344  28.8990634  93.2917002   9.8301843  28.9981425
  96.8654065  10.0030260  29.6771079  96.7486449  10.9475692  29.5749769
  96.0446511   9.7003821  30.0656878  97.8908579  10.6558522  32.8927007
  98.7935826  10.6882132  33.2093502  97.6645949   9.7258973  32.9073343
  99.6462181   9.4089508  29.5537086  98.6957812   9.4091370  29.4401458
  99.9494667   8.6622243  29.0373121 115.3814875  15.2450047  30.6182848
 116.0193285  15.1256794  29.9146188 115.2635718  16.1930891  30.6770800
 112.1904581  15.1977475  30.5544373 111.8523093  15.0818539  29.6664908
 113.0594349  14.7968640  30.5345379 108.0491397  17.0512951  26.5441264
 107.4856262  16.9602888  25.7757552 107.9343792  16.2312856  27.0243756
 112.6724364  16.3512326  36.5130579 112.6613005  15.9565125  35.6411082
 112.8345004  15.6178399  37.1064350 105.5955829  18.5464143  29.3825484
 106.3877121  18.2054967  28.9671784 105.8352479  18.6559118  30.3027638
 113.6290956  20.7183919  21.8555729 112.9778935  21.3037999  21.4689743
 114.4235318  21.2490114  21.9150766 107.5546583  17.8073056  22.2542863
 108.3277459  17.2602043  22.1155739 107.9071982  18.6717305  22.4657325
 109.3931625  19.1349438  35.4609762 109.1021491  20.0395069  35.3456429
 110.0288610  19.1765966  36.1753832 110.3187832  16.5126287  32.0511122
 110.9151404  16.2882309  31.3368085 110.3762804  15.7711032  32.6536570
 109.6109149  15.8693828  22.0885688 109.4945407  15.1938731  22.7566772
 109.7211409  15.3826202  21.2717841 111.9540690  15.3303975  25.7932377
 111.5898897  14.8034596  26.5045299 112.8107806  14.9402444  25.6198863
 114.3521510  18.8210854  32.4559556 114.0522233  19.7235893  32.3475363
 114.0072570  18.5543037  33.3080709 107.8033992  15.2724651  28.4896261
 106.8784488  15.1400865  28.6973952 108.0518405  16.0518870  28.9866203
 105.1642803  14.9157924  29.3240050 105.2935184  15.1692403  30.2379461
 104.4840254  15.5085632  29.0044705 109.3342290  25.5855174  25.4230524
 109.2566320  26.5362999  25.5019004 108.7303934  25.2401047  26.0805450
 111.8259520  12.7583039  38.0791891 111.0492854  13.3176960  38.0694755
 112.4650083  13.2439822  38.6006761 110.0805892  15.5668493  37.6409858
 110.8220577  16.1053537  37.3644681 109.3742878  16.1934782  37.7981410
 115.5561232  17.7097633  36.2382019 115.9644588  17.2680044  35.4936652
 114.8338493  17.1350261  36.4916212 111.9092302  12.6470240  33.6115576
 112.7553497  13.0709654  33.7550225 111.8490940  11.9903864  34.3054139
 115.8790046  18.2698824  29.9934308 115.2498909  18.4344538  29.2910376
 115.4915709  18.6840433  30.7645272 119.7579278  19.2053262  27.3478672
 119.0730317  19.5852163  26.7975705 119.8423128  19.8148588  28.0810620
 117.0130210  16.8513221  33.9474015 117.2247105  17.4944981  33.2708397
 116.9659958  16.0175537  33.4795946 111.4318008  18.0073232  27.2584393
 111.8956354  18.2860935  26.4689016 111.1674806  17.1056677  27.0757484
 108.3242089  17.5544714  30.1964157 108.8943446  17.9831982  29.5581641
 108.9150201  17.2727298  30.8948342 110.3686894  14.1296384  24.0673958
 111.0710938  14.5817428  24.5347885 110.0367523  13.4880203  24.6953852
 108.8167256  12.7208141  38.4425168 108.1865917  13.4024422  38.6760565
 108.7103344  12.6091223  37.4978306 104.1112228  12.3879937  29.3691092
 103.3211282  12.6437466  28.8931203 104.6023476  13.2028275  29.4743132
 118.1276038  19.7285176  32.1196373 118.9493482  19.3265364  31.8379054
 118.1238441  19.6253410  33.0712489 106.0626974  12.7524516  26.3274569
 105.2658137  12.8643211  26.8458064 105.8352566  13.0911169  25.4615459
 111.8932641  19.2769220  34.2757083 111.9577074  19.7389627  35.1115255
 111.1843565  18.6466584  34.4039393 102.3949931  12.6410428  31.8006083
 102.6457970  13.5257437  32.0663659 102.9309480  12.4615029  31.0281175
 111.6080659  20.9437327  24.1436064 111.4726334  21.7888863  24.5720911
 112.1490472  21.1456605  23.3801997 105.0610056  18.4612765  24.7163989
 105.5734577  19.2556015  24.8669553 105.7132769  17.7639056  24.6497590
 106.8704941  21.5778521  26.7986742 107.0471569  22.4996486  26.6107726
 107.6661775  21.2636941  27.2281122 106.1557298  13.6243153  36.6748905
 106.0410813  12.7228410  36.9756004 105.3001815  13.8706850  36.3233722
 113.2349135  21.5660894  38.2736406 112.7912990  20.7797272  37.9557310
 113.8966349  21.7540044  37.6080296 107.9936257  23.0956695  32.7997084
 108.5443682  22.9673758  32.0274078 107.1547732  23.3951584  32.4491977
 115.3330373  21.8463693  36.3017807 115.3148849  22.6672575  35.8098076
 116.2550294  21.7217769  36.5267948 111.7903428  19.3607823  37.1441315
 112.3231764  18.5996111  36.9140623 111.2617509  19.0681475  37.8865470
 103.0258973  16.7901419  25.4923559 103.8634195  17.1998428  25.2757267
 103.2037241  15.8500862  25.4623753 113.1556140  18.4893815  24.6560127
 112.6277502  17.7546575  24.3433365 112.6543643  19.2668492  24.4100096
 118.1348986  16.6842836  29.7727174 117.4772661  17.3742097  29.8607302
 118.9389386  17.0739268  30.1161160 114.2076819  25.0171533  20.5791787
 113.5338518  25.3203230  21.1876744 114.5942641  25.8200613  20.2297244
 113.4235276  12.5136664  30.0689456 112.5057837  12.7351611  29.9111144
 113.8395420  12.5882975  29.2101163 117.7116241  20.0193210  25.9510258
 117.2578568  19.1784120  26.0075449 117.0810208  20.6554608  26.2885038
 116.1549181  21.8569707  26.8860076 116.4472155  22.4174764  26.1672442
 116.6647801  22.1498268  27.6413235 103.0485144  14.1292135  26.1634293
 102.8509544  13.5361495  25.4385359 102.4931808  13.8244345  26.8810231
 111.0281868  14.0215241  28.2828886 111.0830478  13.0689078  28.2071362
 110.2173070  14.1774680  28.7670184 108.9674228  12.6392301  26.0419265
 108.1542093  12.9386471  26.4484457 109.4633222  12.2447990  26.7593747
 111.1182806  22.6350058  27.9753529 111.0758985  22.8610904  27.0462061
 112.0345505  22.4013432  28.1239331 114.5648440  13.1034125  34.8734159
 114.9197827  13.3305599  35.7328624 115.2120571  13.4352502  34.2511414
 120.3215556  18.2929088  30.5894759 120.7552063  18.2004377  31.4377813
 121.0347137  18.2686589  29.9514775 109.2348607  19.5113087  27.7715492
 110.0289205  19.0163407  27.5698067 108.5240299  18.9830950  27.4083198
 114.0543451  21.8931182  32.1227860 114.1080473  22.4622119  32.8905576
 113.1858232  22.0633067  31.7581897 105.5431370  13.6556169  23.8475245
 104.6128958  13.5940624  24.0645207 105.6388842  13.1332121  23.0511886
 105.4616919  10.1810981  26.4353486 105.7223736  11.0956315  26.3262647
 106.2834091   9.7135424  26.5850099 106.9341844  11.5948739  33.6052311
 107.6064898  11.3866101  32.9564960 106.1071631  11.3970825  33.1657543
 121.1831106  18.3352789  33.1227645 121.3766996  19.2398599  33.3686919
 121.0831724  17.8760208  33.9566230 116.2446214  18.4859532  38.6968525
 116.0931721  18.2570083  37.7798609 116.2350894  19.4430133  38.7099870
 113.0131551  16.0591444  33.6814792 113.9423611  16.2102604  33.5083759
 112.5922581  16.1475465  32.8263438 111.8119883  20.0842109  31.4513329
 111.6730968  19.7160893  32.3239267 111.0234479  20.5989748  31.2797287
 112.4068035  25.1851205  22.7938866 112.5819790  24.7139248  23.6084488
 111.7200823  25.8116971  23.0220126 113.3625098  19.4623712  28.8402167
 113.0274930  19.4224481  29.7359817 112.8629043  18.7968427  28.3672577
 107.3369342  14.8691342  34.3654748 107.1989140  14.1371580  34.9666287
 108.2474265  14.7800242  34.0838936 109.9651642  14.5811301  33.8538428
 110.6751261  13.9404493  33.8125046 109.9220951  14.8324196  34.7764609
 117.9538421  21.5178654  36.7745007 117.8950967  20.8337874  36.1075590
 118.3557939  22.2597644  36.3225633 108.6780576  11.5676519  35.6734067
 108.1417933  11.1167257  36.3255664 108.0897285  11.7022428  34.9304532
 106.9729120  28.3340568  29.5678726 107.2125718  28.9659092  30.2457744
 106.1298316  27.9828608  29.8544085 117.9555828  19.4818238  35.0058987
 117.0682607  19.1444160  35.1285386 118.5254379  18.7501269  35.2427752
  99.6084975  15.8142330  28.3302038 100.2956015  15.5004060  27.7423053
  99.4533104  16.7183695  28.0569289 104.4119698  10.7032526  32.7587062
 104.3277886  10.0958196  32.0237472 103.5902404  11.1941545  32.7596558
 111.4856982  24.1419691  31.9720230 111.4127153  24.9474662  32.4839534
 111.0434375  24.3411656  31.1468251 111.2746761  23.3791461  25.4823051
 110.4914283  23.9213141  25.5761276 111.9739506  23.8965440  25.8817293
 113.9455665  24.0406525  34.1278389 114.6583637  24.6753989  34.0554290
 113.4545694  24.1370391  33.3118390 115.6673192  17.9457777  25.6995680
 114.7329471  18.0659240  25.5300385 115.8449861  17.0430244  25.4355690
 108.9967579  21.7900968  34.9483959 109.6977038  22.4237451  35.1013354
 108.5262694  22.1315700  34.1879599 116.7968865  14.3445575  32.7736510
 116.1440315  14.5921483  32.1188962 117.1749245  13.5309714  32.4398987
 113.7576039  24.3805269  26.8764680 113.9398433  23.5626925  27.3392432
 114.5809025  24.5972961  26.4389570 114.0918204  23.3073454  24.1379728
 114.6205971  22.7965908  23.5249891 114.3546424  22.9915984  25.0025262
 112.8456438  15.0865387  39.2602547 112.1697075  14.9859516  39.9304922
 113.6684072  14.9304600  39.7238544 104.5935297  21.3237323  31.8815062
 105.1788734  20.5781011  32.0142966 104.3960135  21.6341280  32.7651726
 107.4473952  24.3588570  26.8977504 106.7784327  24.8434698  26.4141544
 107.3086822  24.6057791  27.8120883  99.1852952  13.8942923  30.6019505
  99.2237051  13.3606514  31.3956623  98.6793244  13.3678129  29.9830482
 111.5879221  26.3932314  33.4960163 112.1397529  26.5563935  34.2609248
 111.9285414  26.9836752  32.8240188 106.0395986  10.8130596  37.7455082
 106.6668025  10.4307674  38.3592606 105.1823905  10.5944798  38.1110774
 116.4390095  21.2193571  39.3508817 116.9829999  21.8323530  38.8563772
 115.8576940  21.7773150  39.8675830 102.8161529  12.6207025  23.6773437
 103.1114970  11.7117704  23.6240490 101.9149565  12.5994765  23.3554439
 114.7247608  24.3414289  30.4823845 114.5998747  23.5404029  29.9734790
 115.3826699  24.8360483  29.9937815 106.3455776  10.6963022  29.6600985
 105.6242362  11.3098990  29.5208458 107.1349032  11.2320787  29.5817631
 116.7882516  22.1423310  32.1103395 115.8412852  22.0228661  32.0381722
 117.1365289  21.2545808  32.1929656 104.5449371  10.3021123  23.8012762
 104.2162077   9.4218502  23.6187868 104.8988741  10.2468792  24.6889151
 113.7928950  21.9376026  28.3107747 113.6453912  21.0092733  28.4915317
 114.6182443  21.9596116  27.8264822 107.6591194  10.5894093  24.1688239
 107.9987266  11.1180014  23.4466848 108.1063314  10.9274499  24.9446806
 117.3963071  22.7604585  29.3972620 118.3209619  22.5547446  29.2597071
 117.2278375  22.5120986  30.3061962 108.5289685  12.7499577  29.8810609
 108.3834266  13.0639880  30.7734891 108.0514889  13.3684477  29.3281508
 117.1858388  23.2790252  24.7534711 117.3595265  22.7136674  24.0008564
 117.6787279  24.0791147  24.5714201 103.0035347  15.2904921  32.8198270
 102.4588816  16.0664729  32.9518545 103.8814697  15.6375726  32.6617392
 103.7901369  14.4174817  35.7128427 103.0483105  14.5657453  36.2993058
 103.4694114  14.6783083  34.8495177 111.7345032  23.9590796  35.5108817
 112.0432158  23.7139942  36.3831517 112.5320514  24.1637434  35.0227687
 111.7565644  26.1128705  27.7414194 111.3170634  25.6205084  28.4347050
 112.5073761  25.5701673  27.5006269 104.2357983  22.3040246  27.7438822
 105.0616003  22.0044018  27.3637465 103.8852035  21.5347868  28.1928610
 109.2039516  21.6566714  29.8136495 108.5819525  20.9937419  29.5138723
 109.8744383  21.6827846  29.1310143 102.4366588  20.2226572  28.7027755
 101.5998496  19.7948747  28.5211757 102.4090233  20.4159016  29.6398547
 119.7618889  20.6789626  38.6870138 118.9714433  20.6613764  38.1474638
 119.5252244  21.2177919  39.4419175 119.8816764  17.5282092  36.0002867
 119.9314769  17.3632099  36.9418390 119.7730688  16.6609351  35.6100748
 108.7653023  20.2070638  23.2894956 108.9141143  20.8906102  22.6361629
 109.5719467  20.1875728  23.8044412 121.3834961  19.9479033  36.2444889
 121.0919769  20.3109014  37.0808350 120.7707092  19.2346042  36.0658221
 119.6322149  15.0711648  34.7124947 120.1076271  15.2639294  33.9043798
 118.7087715  15.1270834  34.4668330 106.5205656  16.2335815  24.2956025
 106.2751698  15.3298145  24.4936235 106.6901571  16.2352966  23.3535503
 105.7901304  11.9664173  21.7942186 105.0970549  12.0408528  21.1382222
 105.5453055  11.2024516  22.3163703 112.2648429  22.7018768  20.7606703
 111.6922396  23.3208955  20.3077175 112.8381222  23.2518130  21.2946625
 112.5333920  18.0897327  39.5623413 113.4536929  18.2675926  39.7563459
 112.4983503  17.1453372  39.4103112 101.7516085  13.2835921  28.4876687
 101.4318869  12.4301229  28.1951061 101.2049513  13.4984499  29.2434655
 105.5295992  15.9998362  32.2046194 105.7482002  16.9315469  32.2234228
 105.9421766  15.6406336  32.9900998 110.4023857  11.5731567  41.5948943
 110.3020584  12.5225924  41.5261034 110.1845400  11.2449806  40.7225013
 101.6204345  16.9038832  30.4569809 100.9267816  16.4892785  29.9439763
 102.3677336  16.9459369  29.8603228 110.2655128  15.0028706  40.4114005
 109.7822209  15.8029066  40.6177894 110.3516067  15.0136651  39.4581449
 103.5341087  16.8357086  28.3335824 103.5111775  16.9344773  27.3817707
 103.8441724  17.6822237  28.6552990 106.1928465  18.8933241  32.4482438
 107.1471719  18.8617183  32.3812370 105.9940989  18.4323865  33.2632664
 106.7827847  17.4634357  35.0153236 107.6020736  17.9578436  35.0388073
 107.0564655  16.5466325  34.9870804 104.5478694  24.4352860  29.4652636
 104.4133162  23.6753261  28.8990634 104.1310756  25.1593760  28.9981425
 107.7047820  25.3322177  29.6771079 107.5880204  26.2767610  29.5749769
 106.8840266  25.0295739  30.0656878 102.0362761  11.7972491  35.7145433
 102.6821625  11.2871445  36.2032658 101.8279913  12.5341172  36.2888858
 114.5616154  18.8653338  41.2137574 115.4307313  19.0393991  40.8524209
 114.0822905  19.6847755  41.0913303 108.7302334  25.9850439  32.8927007
 109.6329581  26.0174050  33.2093502 108.5039704  25.0550890  32.9073343
 110.4855936  24.7381426  29.5537086 109.5351567  24.7383287  29.4401458
 110.7888422  23.9914160  29.0373121 126.2208629  30.5741964  30.6182848
 126.8587039  30.4548712  29.9146188 126.1029472  31.5222808  30.6770800
 123.0298336  30.5269392  30.5544373 122.6916847  30.4110457  29.6664908
 123.8988104  30.1260557  30.5345379 118.8885151  32.3804869  26.5441264
 118.3250016  32.2894806  25.7757552 118.7737546  31.5604773  27.0243756
 123.5118119  31.6804244  36.5130579 123.5006759  31.2857042  35.6411082
 123.6738758  30.9470317  37.1064350 116.4349583  33.8756060  29.3825484
 117.2270875  33.5346885  28.9671784 116.6746233  33.9851035  30.3027638
 124.4684710  36.0475836  21.8555729 123.8172690  36.6329917  21.4689743
 125.2629073  36.5782031  21.9150766 118.3940337  33.1364974  22.2542863
 119.1671213  32.5893961  22.1155739 118.7465736  34.0009223  22.4657325
 120.2325380  34.4641356  35.4609762 119.9415246  35.3686987  35.3456429
 120.8682364  34.5057883  36.1753832 121.1581587  31.8418204  32.0511122
 121.7545159  31.6174227  31.3368085 121.2156558  31.1002950  32.6536570
 120.4502904  31.1985746  22.0885688 120.3339162  30.5230649  22.7566772
 120.5605164  30.7118120  21.2717841 122.7934445  30.6595893  25.7932377
 122.4292652  30.1326514  26.5045299 123.6501561  30.2694362  25.6198863
 128.6983745  21.9490225  33.0563643 128.3667070  22.8185636  32.8324858
 128.1029359  21.6326509  33.7357674 125.1915265  34.1502771  32.4559556
 124.8915988  35.0527810  32.3475363 124.8466324  33.8834955  33.3080709
 118.6427746  30.6016568  28.4896261 117.7178243  30.4692782  28.6973952
 118.8912159  31.3810787  28.9866203 128.5912409  26.6685312  30.1356994
 127.6829286  26.6000720  29.8415754 128.5400004  27.1457257  30.9638819
 116.0036557  30.2449842  29.3240050 116.1328938  30.4984321  30.2379461
 115.3234009  30.8377550  29.0044705 120.1736045  40.9147092  25.4230524
 120.0960074  41.8654917  25.5019004 119.5697688  40.5692964  26.0805450
 122.6653274  28.0874957  38.0791891 121.8886608  28.6468877  38.0694755
 123.3043837  28.5731740  38.6006761 120.9199647  30.8960411  37.6409858
 121.6614331  31.4345454  37.3644681 120.2136632  31.5226699  37.7981410
 126.3954986  33.0389551  36.2382019 126.8038342  32.5971962  35.4936652
 125.6732248  32.4642179  36.4916212 122.7486056  27.9762158  33.6115576
 123.5947252  28.4001571  33.7550225 122.6884694  27.3195782  34.3054139
 126.7183801  33.5990742  29.9934308 126.0892663  33.7636456  29.2910376
 126.3309463  34.0132351  30.7645272 130.5973033  34.5345179  27.3478672
 129.9124071  34.9144081  26.7975705 130.6816882  35.1440506  28.0810620
 125.8985502  25.6366526  35.2696750 125.6546434  26.3908587  34.7331026
 126.1745432  26.0151874  36.1043997 127.8523964  32.1805138  33.9474015
 128.0640860  32.8236898  33.2708397 127.8053713  31.3467455  33.4795946
 125.4550193  24.7922959  30.8510588 124.5934672  25.0904213  31.1427325
 125.4812628  25.0093358  29.9191620 122.2711763  33.3365150  27.2584393
 122.7350108  33.6152853  26.4689016 122.0068561  32.4348594  27.0757484
 119.1635844  32.8836631  30.1964157 119.7337201  33.3123900  29.5581641
 119.7543956  32.6019216  30.8948342 121.2080649  29.4588302  24.0673958
 121.9104692  29.9109346  24.5347885 120.8761277  28.8172121  24.6953852
 119.6561010  28.0500059  38.4425168 119.0259671  28.7316340  38.6760565
 119.5497098  27.9383140  37.4978306 114.9505983  27.7171855  29.3691092
 114.1605037  27.9729383  28.8931203 115.4417230  28.5320193  29.4743132
 128.9669792  35.0577094  32.1196373 129.7887236  34.6557281  31.8379054
 128.9632195  34.9545328  33.0712489 116.9020728  28.0816434  26.3274569
 116.1051892  28.1935128  26.8458064 116.6746320  28.4203086  25.4615459
 122.7326396  34.6061137  34.2757083 122.7970828  35.0681544  35.1115255
 122.0237320  33.9758502  34.4039393 113.2343686  27.9702345  31.8006083
 113.4851724  28.8549355  32.0663659 113.7703234  27.7906947  31.0281175
 122.4474414  36.2729245  24.1436064 122.3120088  37.1180780  24.5720911
 122.9884226  36.4748522  23.3801997 118.9341753  22.3520825  40.8050419
 118.5408699  21.7987023  41.4798063 119.7507893  22.6631403  41.1956936
 115.9003811  33.7904683  24.7163989 116.4128331  34.5847933  24.8669553
 116.5526524  33.0930973  24.6497590 117.7098696  36.9070439  26.7986742
 117.8865324  37.8288404  26.6107726 118.5055529  36.5928858  27.2281122
 121.8509714  23.7678704  38.3970675 122.5919428  24.3685857  38.3175138
 122.0827637  23.0256341  37.8388718 116.9951052  28.9535071  36.6748905
 116.8804567  28.0520328  36.9756004 116.1395570  29.1998768  36.3233722
 124.0742890  36.8952811  38.2736406 123.6306744  36.1089190  37.9557310
 124.7360103  37.0831962  37.6080296 118.8330011  38.4248613  32.7997084
 119.3837436  38.2965676  32.0274078 117.9941487  38.7243502  32.4491977
 126.1724128  37.1755611  36.3017807 126.1542603  37.9964492  35.8098076
 127.0944048  37.0509686  36.5267948 122.6297182  34.6899741  37.1441315
 123.1625519  33.9288029  36.9140623 122.1011263  34.3973392  37.8865470
 113.8652728  32.1193337  25.4923559 114.7027950  32.5290345  25.2757267
 114.0430995  31.1792779  25.4623753 124.8763417  22.1664462  30.6384190
 124.3728213  22.1294597  29.8251996 125.1694024  23.0757204  30.6980847
 121.1206303  22.2503191  29.6450372 121.9859300  22.0546000  29.2856262
 121.1883812  22.0213543  30.5719729 123.9949895  33.8185733  24.6560127
 123.4671256  33.0838493  24.3433365 123.4937398  34.5960409  24.4100096
 128.9742741  32.0134754  29.7727174 128.3166415  32.7034015  29.8607302
 129.7783140  32.4031186  30.1161160 118.7268622  24.4805399  27.0166739
 119.3012374  24.2580581  26.2839932 119.3139605  24.5494094  27.7695340
 125.0470574  40.3463451  20.5791787 124.3732273  40.6495147  21.1876744
 125.4336396  41.1492531  20.2297244 124.2629031  27.8428582  30.0689456
 123.3451592  28.0643529  29.9111144 124.6789174  27.9174892  29.2101163
 128.5509996  35.3485128  25.9510258 128.0972323  34.5076038  26.0075449
 127.9203963  35.9846526  26.2885038 126.9942935  37.1861624  26.8860076
 127.2865909  37.7466682  26.1672442 127.5041556  37.4790185  27.6413235
 113.8878899  29.4584052  26.1634293 113.6903299  28.8653413  25.4385359
 113.3325563  29.1536263  26.8810231 121.8675622  29.3507159  28.2828886
 121.9224232  28.3980995  28.2071362 121.0566825  29.5066598  28.7670184
 119.8067982  27.9684219  26.0419265 118.9935848  28.2678389  26.4484457
 120.3026977  27.5739907  26.7593747 121.9576560  37.9641976  27.9753529
 121.9152739  38.1902822  27.0462061 122.8739259  37.7305350  28.1239331
 125.4042194  28.4326043  34.8734159 125.7591582  28.6597516  35.7328624
 126.0514325  28.7644420  34.2511414 119.2982057  25.5402574  31.6580500
 119.9381436  25.3991333  30.9603463 118.4659588  25.2537087  31.2819102
 131.1609311  33.6221006  30.5894759 131.5945817  33.5296295  31.4377813
 131.8740891  33.5978506  29.9514775 120.0742361  34.8405005  27.7715492
 120.8682960  34.3455325  27.5698067 119.3634053  34.3122868  27.4083198
 124.8937206  37.2223100  32.1227860 124.9474228  37.7914036  32.8905576
 124.0251987  37.3924985  31.7581897 116.3825125  28.9848086  23.8475245
 115.4522713  28.9232542  24.0645207 116.4782597  28.4624039  23.0511886
 116.3010674  25.5102899  26.4353486 116.5617491  26.4248232  26.3262647
 117.1227846  25.0427342  26.5850099 117.7735599  26.9240656  33.6052311
 118.4458652  26.7158018  32.9564960 116.9465385  26.7262742  33.1657543
 132.0224860  33.6644707  33.1227645 132.2160750  34.5690517  33.3686919
 131.9225478  33.2052126  33.9566230 123.6761171  23.5502597  35.6217972
 123.0289086  24.2492547  35.5282448 124.4462186  23.9838741  35.9894220
 127.0839969  33.8151449  38.6968525 126.9325475  33.5862001  37.7798609
 127.0744648  34.7722051  38.7099870 123.8525305  31.3883362  33.6814792
 124.7817365  31.5394522  33.5083759 123.4316335  31.4767383  32.8263438
 122.6513637  35.4134027  31.4513329 122.5124723  35.0452811  32.3239267
 121.8628233  35.9281666  31.2797287 123.2461789  40.5143123  22.7938866
 123.4213545  40.0431166  23.6084488 122.5594577  41.1408889  23.0220126
 124.2018852  34.7915629  28.8402167 123.8668685  34.7516399  29.7359817
 123.7022798  34.1260345  28.3672577 118.1763096  30.1983259  34.3654748
 118.0382894  29.4663498  34.9666287 119.0868020  30.1092159  34.0838936
 120.8045397  29.9103219  33.8538428 121.5145015  29.2696411  33.8125046
 120.7614705  30.1616113  34.7764609 128.7932176  36.8470572  36.7745007
 128.7344722  36.1629792  36.1075590 129.1951694  37.5889562  36.3225633
 119.5174331  26.8968436  35.6734067 118.9811688  26.4459175  36.3255664
 118.9291039  27.0314345  34.9304532 117.8122874  43.6632486  29.5678726
 118.0519473  44.2951010  30.2457744 116.9692071  43.3120526  29.8544085
 128.7949583  34.8110156  35.0058987 127.9076362  34.4736078  35.1285386
 129.3648134  34.0793187  35.2427752 110.4478730  31.1434248  28.3302038
 111.1349770  30.8295978  27.7423053 110.2926859  32.0475612  28.0569289
 115.2513452  26.0324444  32.7587062 115.1671641  25.4250114  32.0237472
 114.4296158  26.5233462  32.7596558 122.3250736  39.4711608  31.9720230
 122.2520908  40.2766580  32.4839534 121.8828129  39.6703574  31.1468251
 122.1140516  38.7083378  25.4823051 121.3308038  39.2505058  25.5761276
 122.8133261  39.2257358  25.8817293 124.7849420  39.3698442  34.1278389
 125.4977392  40.0045907  34.0554290 124.2939448  39.4662308  33.3118390
 126.5066947  33.2749695  25.6995680 125.5723225  33.3951157  25.5300385
 126.6843615  32.3722162  25.4355690 122.0072135  26.6595391  27.8528941
 121.6369922  26.1066431  28.5409847 122.5031227  26.0553524  27.3003941
 119.8361333  37.1192886  34.9483959 120.5370793  37.7529369  35.1013354
 119.3656448  37.4607617  34.1879599 127.6362619  29.6737493  32.7736510
 126.9834069  29.9213401  32.1188962 128.0142999  28.8601631  32.4398987
 124.5969793  39.7097186  26.8764680 124.7792188  38.8918842  27.3392432
 125.4202779  39.9264879  26.4389570 124.9311959  38.6365371  24.1379728
 125.4599725  38.1257826  23.5249891 125.1940178  38.3207902  25.0025262
 123.6850192  30.4157304  39.2602547 123.0090829  30.3151434  39.9304922
 124.5077826  30.2596518  39.7238544 115.4329051  36.6529241  31.8815062
 116.0182488  35.9072929  32.0142966 115.2353890  36.9633197  32.7651726
 118.2867707  39.6880488  26.8977504 117.6178082  40.1726616  26.4141544
 118.1480576  39.9349709  27.8120883 110.0246706  29.2234841  30.6019505
 110.0630806  28.6898432  31.3956623 109.5186999  28.6970046  29.9830482
 122.4272975  41.7224232  33.4960163 122.9791283  41.8855853  34.2609248
 122.7679169  42.3128669  32.8240188 117.4037468  24.0699381  34.0982047
 117.4678795  24.9314212  33.6859445 117.3404589  23.4573383  33.3654406
 116.8789741  26.1422514  37.7455082 117.5061780  25.7599591  38.3592606
 116.0217660  25.9236716  38.1110774 127.2783849  36.5485489  39.3508817
 127.8223753  37.1615447  38.8563772 126.6970694  37.1065068  39.8675830
 113.6555284  27.9498943  23.6773437 113.9508725  27.0409622  23.6240490
 112.7543319  27.9286683  23.3554439 125.5641362  39.6706207  30.4823845
 125.4392502  38.8695947  29.9734790 126.2220453  40.1652401  29.9937815
 117.1849531  26.0254940  29.6600985 116.4636116  26.6390907  29.5208458
 117.9742786  26.5612704  29.5817631 127.6276271  37.4715227  32.1103395
 126.6806606  37.3520578  32.0381722 127.9759044  36.5837725  32.1929656
 119.9875844  23.3609366  35.9341637 120.5110246  23.6071663  36.6967946
 119.7688177  24.1929401  35.5144774 115.3843125  25.6313041  23.8012762
 115.0555831  24.7510420  23.6187868 115.7382496  25.5760709  24.6889151
 124.6322704  37.2667943  28.3107747 124.4847666  36.3384651  28.4915317
 125.4576198  37.2888034  27.8264822 118.4984948  25.9186011  24.1688239
 118.8381021  26.4471932  23.4466848 118.9457069  26.2566417  24.9446806
 128.2356826  38.0896502  29.3972620 129.1603373  37.8839364  29.2597071
 128.0672129  37.8412903  30.3061962 121.1928389  24.3023061  33.6191307
 120.8525210  23.5030874  34.0211987 120.4867395  24.6024772  33.0468141
 121.8444861  21.3872374  32.0718630 122.6670930  20.9132852  31.9497521
 122.0882925  22.1662857  32.5717317 119.3683440  28.0791494  29.8810609
 119.2228020  28.3931797  30.7734891 118.8908643  28.6976395  29.3281508
 121.2279823  25.0694042  29.9291499 121.2141391  24.1735136  29.5923797
 121.9452251  25.0764706  30.5629785 123.0805953  25.5031383  31.9744626
 122.8223731  26.4248453  31.9728957 122.5490994  25.1061817  32.6645090
 128.0252142  38.6082170  24.7534711 128.1989020  38.0428592  24.0008564
 128.5181033  39.4083065  24.5714201 113.8429102  30.6196839  32.8198270
 113.2982570  31.3956647  32.9518545 114.7208452  30.9667643  32.6617392
 114.6295124  29.7466735  35.7128427 113.8876860  29.8949370  36.2993058
 114.3087868  30.0075001  34.8495177 122.5738786  39.2882713  35.5108817
 122.8825913  39.0431860  36.3831517 123.3714268  39.4929352  35.0227687
 122.5959398  41.4420623  27.7414194 122.1564389  40.9497002  28.4347050
 123.3467515  40.8993591  27.5006269 115.0751737  37.6332164  27.7438822
 115.9009757  37.3335936  27.3637465 114.7245789  36.8639786  28.1928610
 120.0433271  36.9858632  29.8136495 119.4213280  36.3229337  29.5138723
 120.7138138  37.0119764  29.1310143 113.2760343  35.5518490  28.7027755
 112.4392251  35.1240665  28.5211757 113.2483988  35.7450934  29.6398547
 120.1157798  25.4640420  39.4069001 120.1645954  26.3402543  39.0246771
 120.6580312  24.9217813  38.8340645 130.6012644  36.0081543  38.6870138
 129.8108188  35.9905682  38.1474638 130.3645998  36.5469837  39.4419175
 130.7210519  32.8574010  36.0002867 130.7708524  32.6924017  36.9418390
 130.6124442  31.9901269  35.6100748 119.6046778  35.5362555  23.2894956
 119.7534898  36.2198020  22.6361629 120.4113221  35.5167645  23.8044412
 128.0114281  28.8404938  37.3162174 128.9124144  28.7011402  37.0246172
 128.0862256  29.0059392  38.2560351 122.3457087  26.2171792  36.1615360
 121.4760396  26.5105358  35.8897949 122.5816567  26.8012237  36.8822624
 132.2228716  35.2770951  36.2444889 131.9313524  35.6400932  37.0808350
 131.6100847  34.5637959  36.0658221 130.4715904  30.4003566  34.7124947
 130.9470026  30.5931212  33.9043798 129.5481469  30.4562752  34.4668330
 117.3599411  31.5627733  24.2956025 117.1145452  30.6590063  24.4936235
 117.5295325  31.5644883  23.3535503 125.0496120  22.4351409  33.6780780
 125.5678064  23.1712436  33.3527269 124.6951253  22.7415403  34.5127540
 116.6295058  27.2956091  21.7942186 115.9364303  27.3700445  21.1382222
 116.3846810  26.5316434  22.3163703 123.1042183  38.0310686  20.7606703
 122.5316150  38.6500873  20.3077175 123.6774977  38.5810047  21.2946625
 129.1717573  27.2769326  32.9453252 130.1234996  27.3767423  32.9665476
 129.0021023  26.4847594  33.4551337 127.1931952  24.3624909  33.1312653
 126.5981884  24.6429922  32.4359142 126.9081649  24.8518810  33.9029394
 131.6505651  30.4975446  32.0595552 131.6181971  29.5591446  32.2455236
 132.2606274  30.5759482  31.3261377 123.3727674  33.4189245  39.5623413
 124.2930684  33.5967844  39.7563459 123.3377257  32.4745290  39.4103112
 112.5909839  28.6127838  28.4876687 112.2712623  27.7593146  28.1951061
 112.0443267  28.8276416  29.2434655 116.3689747  31.3290279  32.2046194
 116.5875756  32.2607387  32.2234228 116.7815520  30.9698254  32.9900998
 121.2417612  26.9023485  41.5948943 121.1414339  27.8517842  41.5261034
 121.0239154  26.5741724  40.7225013 112.4598099  32.2330750  30.4569809
 111.7661571  31.8184703  29.9439763 113.2071090  32.2751286  29.8603228
 121.1048882  30.3320624  40.4114005 120.6215964  31.1320984  40.6177894
 121.1909821  30.3428569  39.4581449 114.3734842  32.1649004  28.3335824
 114.3505530  32.2636691  27.3817707 114.6835478  33.0114154  28.6552990
 117.0322220  34.2225159  32.4482438 117.9865473  34.1909101  32.3812370
 116.8334743  33.7615782  33.2632664 117.6221602  32.7926275  35.0153236
 118.4414491  33.2870353  35.0388073 117.8958409  31.8758243  34.9870804
 115.3872448  39.7644778  29.4652636 115.2526916  39.0045179  28.8990634
 114.9704511  40.4885678  28.9981425 118.5441574  40.6614095  29.6771079
 118.4273958  41.6059528  29.5749769 117.7234020  40.3587657  30.0656878
 112.8756516  27.1264409  35.7145433 113.5215379  26.6163362  36.2032658
 112.6673667  27.8633090  36.2888858 125.4009908  34.1945256  41.2137574
 126.2701068  34.3685908  40.8524209 124.9216660  35.0139673  41.0913303
 119.5696088  41.3142357  32.8927007 120.4723335  41.3465967  33.2093502
 119.3433458  40.3842808  32.9073343 121.3249690  40.0673344  29.5537086
 120.3745321  40.0675205  29.4401458 121.6282176  39.3206078  29.0373121
 117.2154007  24.2732026  39.8120447 118.0785468  23.9168830  40.0223772
 116.6419418  23.9345920  40.4995852 133.8692090  45.8561310  30.5544373
 133.5310602  45.7402375  29.6664908 134.7381858  45.4552475  30.5345379
 129.7278906  47.7096786  26.5441264 129.1643771  47.6186723  25.7757552
 129.6131301  46.8896691  27.0243756 134.3511873  47.0096162  36.5130579
 134.3400514  46.6148960  35.6411082 134.5132513  46.2762234  37.1064350
 127.2743338  49.2047978  29.3825484 128.0664630  48.8638803  28.9671784
 127.5139988  49.3142953  30.3027638 135.3078465  51.3767754  21.8555729
 134.6566444  51.9621835  21.4689743 136.1022827  51.9073949  21.9150766
 129.2334092  48.4656891  22.2542863 130.0064968  47.9185878  22.1155739
 129.5859491  49.3301141  22.4657325 131.0719134  49.7933274  35.4609762
 130.7809000  50.6978904  35.3456429 131.7076119  49.8349801  36.1753832
 131.9975341  47.1710122  32.0511122 132.5938913  46.9466144  31.3368085
 132.0550313  46.4294868  32.6536570 131.2896658  46.5277663  22.0885688
 131.1732916  45.8522567  22.7566772 131.3998918  46.0410037  21.2717841
 133.6328199  45.9887810  25.7932377 133.2686406  45.4618431  26.5045299
 134.4895315  45.5986280  25.6198863 136.0309019  49.4794689  32.4559556
 135.7309742  50.3819728  32.3475363 135.6860079  49.2126872  33.3080709
 129.4821501  45.9308486  28.4896261 128.5571997  45.7984700  28.6973952
 129.7305914  46.7102705  28.9866203 126.8430312  45.5741759  29.3240050
 126.9722693  45.8276238  30.2379461 126.1627763  46.1669467  29.0044705
 131.0129799  56.2439009  25.4230524 130.9353829  57.1946835  25.5019004
 130.4091443  55.8984882  26.0805450 133.5047029  43.4166875  38.0791891
 132.7280363  43.9760795  38.0694755 134.1437592  43.9023658  38.6006761
 131.7593401  46.2252328  37.6409858 132.5008086  46.7637372  37.3644681
 131.0530387  46.8518617  37.7981410 137.2348741  48.3681469  36.2382019
 137.6432097  47.9263879  35.4936652 136.5126002  47.7934096  36.4916212
 133.5879811  43.3054075  33.6115576 134.4341006  43.7293489  33.7550225
 133.5278449  42.6487700  34.3054139 137.5577555  48.9282659  29.9934308
 136.9286418  49.0928373  29.2910376 137.1703218  49.3424269  30.7645272
 136.7379256  40.9658444  35.2696750 136.4940188  41.7200504  34.7331026
 137.0139187  41.3443791  36.1043997 136.2943948  40.1214877  30.8510588
 135.4328427  40.4196130  31.1427325 136.3206383  40.3385276  29.9191620
 133.1105517  48.6657067  27.2584393 133.5743863  48.9444770  26.4689016
 132.8462315  47.7640512  27.0757484 130.0029598  48.2128549  30.1964157
 130.5730955  48.6415817  29.5581641 130.5937710  47.9311134  30.8948342
 132.0474403  44.7880220  24.0673958 132.7498447  45.2401263  24.5347885
 131.7155032  44.1464039  24.6953852 130.4954765  43.3791976  38.4425168
 129.8653425  44.0608257  38.6760565 130.3890853  43.2675058  37.4978306
 125.7899737  43.0463772  29.3691092 124.9998791  43.3021301  28.8931203
 126.2810985  43.8612110  29.4743132 127.7414483  43.4108352  26.3274569
 126.9445646  43.5227046  26.8458064 127.5140075  43.7495004  25.4615459
 133.5720150  49.9353055  34.2757083 133.6364583  50.3973462  35.1115255
 132.8631074  49.3050420  34.4039393 124.0737440  43.2994263  31.8006083
 124.3245479  44.1841273  32.0663659 124.6096989  43.1198864  31.0281175
 133.2868168  51.6021162  24.1436064 133.1513843  52.4472698  24.5720911
 133.8277981  51.8040440  23.3801997 129.7735508  37.6812742  40.8050419
 129.3802453  37.1278941  41.4798063 130.5901648  37.9923321  41.1956936
 126.7397565  49.1196600  24.7163989 127.2522086  49.9139851  24.8669553
 127.3920278  48.4222891  24.6497590 128.5492450  52.2362357  26.7986742
 128.7259078  53.1580321  26.6107726 129.3449284  51.9220776  27.2281122
 132.6903469  39.0970621  38.3970675 133.4313182  39.6977774  38.3175138
 132.9221391  38.3548259  37.8388718 127.8344807  44.2826989  36.6748905
 127.7198322  43.3812246  36.9756004 126.9789324  44.5290685  36.3233722
 134.9136644  52.2244729  38.2736406 134.4700499  51.4381107  37.9557310
 135.5753858  52.4123879  37.6080296 129.6723766  53.7540530  32.7997084
 130.2231191  53.6257594  32.0274078 128.8335241  54.0535419  32.4491977
 133.4690937  50.0191658  37.1441315 134.0019273  49.2579946  36.9140623
 132.9405018  49.7265310  37.8865470 124.7046482  47.4485255  25.4923559
 125.5421704  47.8582263  25.2757267 124.8824750  46.5084697  25.4623753
 135.7157172  37.4956379  30.6384190 135.2121968  37.4586515  29.8251996
 136.0087779  38.4049122  30.6980847 131.9600058  37.5795109  29.6450372
 132.8253055  37.3837918  29.2856262 132.0277567  37.3505461  30.5719729
 134.8343649  49.1477651  24.6560127 134.3065011  48.4130410  24.3433365
 134.3331152  49.9252327  24.4100096 129.5662377  39.8097317  27.0166739
 130.1406129  39.5872499  26.2839932 130.1533359  39.8786012  27.7695340
 135.8864328  55.6755368  20.5791787 135.2126027  55.9787065  21.1876744
 136.2730150  56.4784449  20.2297244 135.1022785  43.1720500  30.0689456
 134.1845346  43.3935447  29.9111144 135.5182929  43.2466810  29.2101163
 124.7272653  44.7875970  26.1634293 124.5297053  44.1945331  25.4385359
 124.1719317  44.4828180  26.8810231 132.7069377  44.6799077  28.2828886
 132.7617987  43.7272913  28.2071362 131.8960579  44.8358516  28.7670184
 130.6461737  43.2976136  26.0419265 129.8329602  43.5970307  26.4484457
 131.1420731  42.9031825  26.7593747 132.7970315  53.2933893  27.9753529
 132.7546494  53.5194739  27.0462061 133.7133014  53.0597268  28.1239331
 136.2435949  43.7617961  34.8734159 136.5985336  43.9889434  35.7328624
 136.8908080  44.0936338  34.2511414 130.1375812  40.8694492  31.6580500
 130.7775191  40.7283251  30.9603463 129.3053342  40.5829005  31.2819102
 130.9136116  50.1696922  27.7715492 131.7076714  49.6747242  27.5698067
 130.2027808  49.6414785  27.4083198 135.7330960  52.5515018  32.1227860
 135.7867982  53.1205954  32.8905576 134.8645741  52.7216903  31.7581897
 127.2218879  44.3140004  23.8475245 126.2916467  44.2524459  24.0645207
 127.3176351  43.7915957  23.0511886 127.1404428  40.8394817  26.4353486
 127.4011245  41.7540150  26.3262647 127.9621600  40.3719259  26.5850099
 128.6129353  42.2532574  33.6052311 129.2852407  42.0449936  32.9564960
 127.7859140  42.0554660  33.1657543 134.5154925  38.8794515  35.6217972
 133.8682840  39.5784465  35.5282448 135.2855941  39.3130659  35.9894220
 134.6919060  46.7175280  33.6814792 135.6211120  46.8686439  33.5083759
 134.2710090  46.8059301  32.8263438 133.4907392  50.7425944  31.4513329
 133.3518477  50.3744729  32.3239267 132.7021988  51.2573584  31.2797287
 134.0855544  55.8435041  22.7938866 134.2607299  55.3723084  23.6084488
 133.3988332  56.4700807  23.0220126 135.0412607  50.1207547  28.8402167
 134.7062439  50.0808317  29.7359817 134.5416552  49.4552263  28.3672577
 129.0156851  45.5275177  34.3654748 128.8776649  44.7955416  34.9666287
 129.9261774  45.4384077  34.0838936 131.6439151  45.2395136  33.8538428
 132.3538770  44.5988328  33.8125046 131.6008459  45.4908031  34.7764609
 130.3568085  42.2260354  35.6734067 129.8205442  41.7751093  36.3255664
 129.7684794  42.3606263  34.9304532 128.6516629  58.9924403  29.5678726
 128.8913227  59.6242928  30.2457744 127.8085825  58.6412443  29.8544085
 121.2872484  46.4726165  28.3302038 121.9743524  46.1587895  27.7423053
 121.1320613  47.3767530  28.0569289 126.0907207  41.3616362  32.7587062
 126.0065395  40.7542031  32.0237472 125.2689913  41.8525380  32.7596558
 133.1644491  54.8003526  31.9720230 133.0914662  55.6058497  32.4839534
 132.7221884  54.9995492  31.1468251 132.9534270  54.0375296  25.4823051
 132.1701792  54.5796976  25.5761276 133.6527015  54.5549276  25.8817293
 135.6243174  54.6990360  34.1278389 136.3371146  55.3337825  34.0554290
 135.1333203  54.7954226  33.3118390 137.3460701  48.6041613  25.6995680
 136.4116980  48.7243075  25.5300385 137.5237370  47.7014079  25.4355690
 132.8465889  41.9887308  27.8528941 132.4763677  41.4358349  28.5409847
 133.3424982  41.3845442  27.3003941 130.6755088  52.4484803  34.9483959
 131.3764547  53.0821286  35.1013354 130.2050203  52.7899535  34.1879599
 135.4363548  55.0389104  26.8764680 135.6185942  54.2210760  27.3392432
 136.2596534  55.2556796  26.4389570 135.7705713  53.9657289  24.1379728
 136.2993479  53.4549744  23.5249891 136.0333933  53.6499819  25.0025262
 134.5243947  45.7449222  39.2602547 133.8484584  45.6443351  39.9304922
 135.3471581  45.5888436  39.7238544 126.2722806  51.9821158  31.8815062
 126.8576243  51.2364846  32.0142966 126.0747644  52.2925115  32.7651726
 129.1261461  55.0172406  26.8977504 128.4571836  55.5018533  26.4141544
 128.9874331  55.2641626  27.8120883 120.8640461  44.5526759  30.6019505
 120.9024560  44.0190349  31.3956623 120.3580753  44.0261964  29.9830482
 133.2666730  57.0516149  33.4960163 133.8185038  57.2147771  34.2609248
 133.6072923  57.6420587  32.8240188 128.2431223  39.3991299  34.0982047
 128.3072549  40.2606130  33.6859445 128.1798343  38.7865301  33.3654406
 127.7183495  41.4714432  37.7455082 128.3455534  41.0891509  38.3592606
 126.8611414  41.2528634  38.1110774 124.4949038  43.2790861  23.6773437
 124.7902479  42.3701539  23.6240490 123.5937074  43.2578600  23.3554439
 136.4035117  54.9998125  30.4823845 136.2786256  54.1987865  29.9734790
 137.0614208  55.4944318  29.9937815 128.0243285  41.3546857  29.6600985
 127.3029871  41.9682825  29.5208458 128.8136541  41.8904622  29.5817631
 130.8269599  38.6901284  35.9341637 131.3504000  38.9363580  36.6967946
 130.6081932  39.5221319  35.5144774 126.2236880  40.9604958  23.8012762
 125.8949586  40.0802337  23.6187868 126.5776250  40.9052627  24.6889151
 135.4716459  52.5959861  28.3107747 135.3241421  51.6676569  28.4915317
 136.2969952  52.6179952  27.8264822 129.3378703  41.2477928  24.1688239
 129.6774775  41.7763849  23.4466848 129.7850823  41.5858334  24.9446806
 132.0322144  39.6314979  33.6191307 131.6918964  38.8322792  34.0211987
 131.3261150  39.9316690  33.0468141 132.6838615  36.7164291  32.0718630
 133.5064685  36.2424770  31.9497521 132.9276679  37.4954775  32.5717317
 130.2077194  43.4083412  29.8810609 130.0621775  43.7223715  30.7734891
 129.7302398  44.0268312  29.3281508 132.0673577  40.3985960  29.9291499
 132.0535146  39.5027053  29.5923797 132.7846005  40.4056624  30.5629785
 133.9199708  40.8323300  31.9744626 133.6617486  41.7540371  31.9728957
 133.3884748  40.4353735  32.6645090 124.6822856  45.9488756  32.8198270
 124.1376324  46.7248564  32.9518545 125.5602206  46.2959561  32.6617392
 125.4688878  45.0758653  35.7128427 124.7270614  45.2241288  36.2993058
 125.1481623  45.3366918  34.8495177 133.4132541  54.6174631  35.5108817
 133.7219667  54.3723778  36.3831517 134.2108023  54.8221269  35.0227687
 133.4353153  56.7712541  27.7414194 132.9958143  56.2788919  28.4347050
 134.1861270  56.2285508  27.5006269 125.9145492  52.9624081  27.7438822
 126.7403512  52.6627853  27.3637465 125.5639544  52.1931704  28.1928610
 130.8827025  52.3150550  29.8136495 130.2607034  51.6521255  29.5138723
 131.5531892  52.3411682  29.1310143 124.1154097  50.8810408  28.7027755
 123.2786005  50.4532582  28.5211757 124.0877742  51.0742851  29.6398547
 130.9551553  40.7932338  39.4069001 131.0039708  41.6694460  39.0246771
 131.4974067  40.2509731  38.8340645 130.4440532  50.8654473  23.2894956
 130.5928652  51.5489937  22.6361629 131.2506975  50.8459563  23.8044412
 133.1850841  41.5463710  36.1615360 132.3154150  41.8397276  35.8897949
 133.4210321  42.1304155  36.8822624 128.1993165  46.8919651  24.2956025
 127.9539207  45.9881981  24.4936235 128.3689080  46.8936801  23.3535503
 135.8889875  37.7643327  33.6780780 136.4071819  38.5004354  33.3527269
 135.5345008  38.0707320  34.5127540 127.4688813  42.6248008  21.7942186
 126.7758057  42.6992363  21.1382222 127.2240564  41.8608352  22.3163703
 133.9435938  53.3602603  20.7606703 133.3709905  53.9792791  20.3077175
 134.5168731  53.9101965  21.2946625 134.2121429  48.7481162  39.5623413
 135.1324438  48.9259761  39.7563459 134.1771012  47.8037208  39.4103112
 123.4303594  43.9419756  28.4876687 123.1106378  43.0885064  28.1951061
 122.8837022  44.1568334  29.2434655 127.2083501  46.6582197  32.2046194
 127.4269511  47.5899305  32.2234228 127.6209275  46.2990171  32.9900998
 132.0811366  42.2315403  41.5948943 131.9808093  43.1809760  41.5261034
 131.8632908  41.9033642  40.7225013 123.2991854  47.5622667  30.4569809
 122.6055325  47.1476620  29.9439763 124.0464845  47.6043204  29.8603228
 131.9442637  45.6612542  40.4114005 131.4609718  46.4612902  40.6177894
 132.0303576  45.6720486  39.4581449 125.2128596  47.4940921  28.3335824
 125.1899284  47.5928609  27.3817707 125.5229233  48.3406072  28.6552990
 127.8715974  49.5517076  32.4482438 128.8259228  49.5201019  32.3812370
 127.6728498  49.0907700  33.2632664 128.4615356  48.1218192  35.0153236
 129.2808245  48.6162271  35.0388073 128.7352164  47.2050160  34.9870804
 126.2266203  55.0936696  29.4652636 126.0920671  54.3337097  28.8990634
 125.8098265  55.8177596  28.9981425 129.3835329  55.9906013  29.6771079
 129.2667713  56.9351445  29.5749769 128.5627775  55.6879574  30.0656878
 123.7150270  42.4556326  35.7145433 124.3609134  41.9455280  36.2032658
 123.5067421  43.1925008  36.2888858 136.2403663  49.5237174  41.2137574
 137.1094822  49.6977826  40.8524209 135.7610414  50.3431590  41.0913303
 130.4089843  56.6434275  32.8927007 131.3117089  56.6757885  33.2093502
 130.1827213  55.7134726  32.9073343 132.1643445  55.3965261  29.5537086
 131.2139076  55.3967123  29.4401458 132.4675931  54.6497996  29.0373121
 128.0547761  39.6023943  39.8120447 128.9179223  39.2460748  40.0223772
 127.4813172  39.2637838  40.4995852 136.6293492  58.3755690  29.3691092
 135.8392546  58.6313219  28.8931203 137.1204739  59.1904028  29.4743132
 134.9131195  58.6286181  31.8006083 135.1639233  59.5133190  32.0663659
 135.4490743  58.4490782  31.0281175 135.5440237  62.7777172  25.4923559
 136.3815459  63.1874181  25.2757267 135.7218504  61.8376615  25.4623753
 135.5666408  60.1167888  26.1634293 135.3690808  59.5237248  25.4385359
 135.0113072  59.8120098  26.8810231 132.1266239  61.8018083  28.3302038
 132.8137279  61.4879813  27.7423053 131.9714368  62.7059448  28.0569289
 136.9300961  56.6908279  32.7587062 136.8459150  56.0833949  32.0237472
 136.1083667  57.1817298  32.7596558 131.7034215  59.8818676  30.6019505
 131.7418315  59.3482267  31.3956623 131.1974508  59.3553882  29.9830482
 135.3342793  58.6082778  23.6773437 135.6296234  57.6993457  23.6240490
 134.4330828  58.5870518  23.3554439 137.0630634  56.2896876  23.8012762
 136.7343340  55.4094255  23.6187868 137.4170005  56.2344545  24.6889151
 135.5216611  61.2780674  32.8198270 134.9770079  62.0540482  32.9518545
 136.3995961  61.6251479  32.6617392 136.3082633  60.4050570  35.7128427
 135.5664369  60.5533206  36.2993058 135.9875377  60.6658836  34.8495177
 136.7539246  68.2915999  27.7438822 137.5797266  67.9919771  27.3637465
 136.4033298  67.5223622  28.1928610 134.9547851  66.2102326  28.7027755
 134.1179760  65.7824500  28.5211757 134.9271497  66.4034769  29.6398547
 134.2697348  59.2711674  28.4876687 133.9500132  58.4176982  28.1951061
 133.7230776  59.4860252  29.2434655 134.1385608  62.8914585  30.4569809
 133.4449080  62.4768538  29.9439763 134.8858599  62.9335122  29.8603228
 136.0522351  62.8232839  28.3335824 136.0293039  62.9220526  27.3817707
 136.3622987  63.6697990  28.6552990 137.0659957  70.4228613  29.4652636
 136.9314425  69.6629014  28.8990634 136.6492020  71.1469513  28.9981425
 134.5544025  57.7848244  35.7145433 135.2002888  57.2747198  36.2032658
 134.3461176  58.5216925  36.2888858   0.8393675  58.3686522 116.3101791
   1.3644999  58.7073795 115.5851111   0.7516028  57.4333538 116.1264926
   6.9877321  68.8971765 123.5465699   7.6255731  68.7778512 122.8429039
   6.8698164  69.8452609 123.6053651   3.7967027  68.8499193 123.4827223
   3.4585539  68.7340257 122.5947758   4.6656796  68.4490358 123.4628230
   5.2353402  74.3705637 114.7838579   4.5841382  74.9559717 114.3972593
   6.0297765  74.9011832 114.8433617   1.9250278  70.1648005 124.9793973
   2.5213851  69.9404027 124.2650936   1.9825250  69.4232750 125.5819420
   1.4975307  67.6187440 112.8144164   1.7500827  67.0968961 112.0527627
   0.5599866  67.4553586 112.9170847   6.5418590  66.6223219 120.6218907
   7.3281679  66.2042642 120.2709324   6.8057294  67.5269311 120.7900555
   6.7128667  72.0596069 115.3207564   6.0774500  72.1330695 116.0328468
   6.3826073  72.6489668 114.6426643  11.9427017  66.5598452 121.5251885
  12.6752189  65.9897669 121.7589715  11.1866372  66.1720052 121.9658391
   1.2171596  69.5215546 115.0168539   1.1007854  68.8460449 115.6849623
   1.3273855  69.0347920 114.2000692   3.5603136  68.9825693 118.7215228
   3.1961344  68.4556314 119.4328149   4.4170252  68.5924162 118.5481713
   3.2008623  64.0115593 113.7176576   3.3683026  64.8795829 114.0847047
   3.0105793  64.1742875 112.7937866   5.9583957  72.4732572 125.3842407
   5.6584680  73.3757611 125.2758214   5.6135016  72.2064755 126.2363560
   9.3581100  64.9915112 123.0639844   8.4497978  64.9230520 122.7698605
   9.3068696  65.4687057 123.8921669   3.1797844  66.4673250 114.7023243
   3.0597470  66.9130301 115.5408723   2.4850433  66.8158568 114.1436781
  11.2242747  63.1931550 124.8417718  10.5817127  63.4864084 124.1957512
  10.7197675  63.0784471 125.6470915   8.8782910  66.9394724 115.5303577
   9.7900767  67.1722110 115.3551275   8.3692558  67.5231768 114.9678656
   7.4852493  71.9220542 122.9217159   6.8561355  72.0866256 122.2193226
   7.0978155  72.3362152 123.6928123  11.3641725  72.8574980 120.2761522
  10.6792763  73.2373881 119.7258556  11.4485574  73.4670307 121.0093470
   8.6192656  70.5034939 126.8756866   8.8309552  71.1466699 126.1991247
   8.5722405  69.6697255 126.4078796   3.0380455  71.6594950 120.1867244
   3.5018800  71.9382653 119.3971866   2.7737253  70.7578395 120.0040334
   1.9749341  67.7818102 116.9956809   2.6773384  68.2339146 117.4630735
   1.6429969  67.1401921 117.6236702   9.7338484  73.3806894 125.0479223
  10.5555928  72.9787082 124.7661905   9.7300887  73.2775128 125.9995339
  17.8244477  69.7245643 121.3964195  17.0708186  69.1553041 121.2408199
  17.9592018  69.6908307 122.3434829   3.2143105  74.5959045 117.0718914
   3.0788780  75.4410581 117.5003762   3.7552918  74.7978323 116.3084848
   6.5285852  68.1098218 114.1090243   6.0132475  68.8802823 114.3478630
   6.2563160  67.4363354 114.7323304   4.1132963  62.9547919 119.1675481
   3.2574559  62.5654769 118.9881120   4.5259914  63.0339880 118.3075267
  11.5020126  70.8630573 116.0443416  10.7249569  70.5241732 115.5998578
  12.1811607  70.8683196 115.3698381   6.3172155  65.9825310 115.9350024
   6.0122290  66.2971459 116.7860167   7.2702597  66.0606730 115.9777357
   4.7618587  72.1415534 117.5842978   4.2339948  71.4068293 117.2716215
   4.2606089  72.9190210 117.3382946   9.7411433  70.3364554 122.7010024
   9.0835107  71.0263815 122.7890153  10.5451832  70.7260986 123.0444010
   8.5516891  68.6908927 120.7513966   9.0648773  69.3238919 121.2535676
   9.2018115  68.0910122 120.3857326   1.7959982  59.6776449 118.6724659
   1.1424394  59.3625466 118.0481274   1.7540456  59.0552189 119.3984482
   2.9071187  69.9595744 110.5877951   1.9998249  69.7284997 110.7869100
   3.4042219  69.1633363 110.7751932   5.8139266  78.6693251 113.5074637
   5.1400964  78.9724948 114.1159595   6.2005088  79.4722331 113.1580094
   5.0297722  66.1658382 122.9972306   4.1120284  66.3873329 122.8393994
   5.4457866  66.2404693 122.1384014   5.8132770  67.5649798 118.1274987
   6.5604589  68.0771195 117.8182109   6.0824360  67.2433851 118.9879380
   4.0859420  70.0608339 115.1101941   3.1770640  69.7767371 115.2074411
   4.1154504  70.4807417 114.2505248   9.3178688  73.6714928 118.8793109
   8.8641015  72.8305838 118.9358299   8.6872654  74.3076327 119.2167889
   8.2611607  64.6006914 120.1093776   7.5234364  64.0884300 120.4404019
   8.5138381  64.1607296 119.2977053   7.7611627  75.5091425 119.8142927
   8.0534601  76.0696482 119.0955292   8.2710247  75.8019986 120.5696086
   8.3623235  57.3783166 120.7035545   8.6682111  56.5180530 120.4161460
   9.0875839  57.9700786 120.5034539   2.6344314  67.6736959 121.2111736
   2.6892924  66.7210796 121.1354213   1.8235516  67.8296398 121.6953035
   3.7835508  71.6017082 112.4490020   3.3454938  70.8852941 111.9895657
   4.5245949  71.8293197 111.8875111   2.7245252  76.2871776 120.9036380
   2.6821431  76.5132622 119.9744912   3.6407951  76.0535151 121.0522181
  11.9008623  69.8774279 118.5066338  11.7626521  70.0675875 117.5787527
  11.5444842  70.6393662 118.9634389  11.9278002  71.9450806 123.5177610
  12.3614509  71.8526095 124.3660664  12.6409583  71.9208307 122.8797626
  12.7893552  71.9874507 126.0510495  12.9829442  72.8920318 126.2969770
  12.6894170  71.5281926 126.8849080   4.6193997  69.7113163 126.6097642
   5.5486057  69.8624322 126.4366609   4.1985027  69.7997183 125.7546289
   4.0130481  78.8372923 115.7221716   4.1882237  78.3660967 116.5367339
   3.3263269  79.4638690 115.9502977   4.9687544  73.1145430 121.7685017
   4.6337377  73.0746200 122.6642667   4.4691490  72.4490146 121.2955428
   7.9046736  70.4601464 112.0422077   7.2875906  69.7348292 111.9455130
   7.4363224  71.2210824 111.6989151   9.5618275  73.1339956 127.9341837
   8.6745053  72.7965878 128.0568236  10.1316826  72.4022987 128.1710603
   2.8809208  77.0313179 118.4105902   2.0976730  77.5734859 118.5044126
   3.5801953  77.5487158 118.8100143   6.1905858  62.8407808 121.0540107
   6.6874557  62.0877770 120.7341178   5.4192839  62.8772125 120.4883317
  14.0435615  68.5448174 122.6958399  14.0325491  69.4272889 122.3252332
  13.1752995  68.1919724 122.5012936   7.2735638  71.5979495 118.6278531
   6.3391917  71.7180958 118.4583235   7.4512307  70.6951962 118.3638541
   2.7740826  64.9825191 120.7811792   2.4038614  64.4296231 121.4692697
   3.2699919  64.3783325 120.2286792  10.6608190  67.4396815 119.1628565
  11.1268642  68.2724806 119.0888867  11.1115690  66.9741796 119.8673823
   8.7284421  73.7840636 116.1614717   9.0044265  73.6697230 117.0708591
   7.8588920  73.3858121 116.1226890   8.4031311  67.9967294 125.7019360
   7.7502761  68.2443201 125.0471813   8.7811691  67.1831432 125.3681837
   5.3638485  78.0326987 119.8047530   5.5460879  77.2148643 120.2675283
   6.1871471  78.2494679 119.3672420   5.6980650  76.9595172 117.0662579
   6.2268417  76.4487626 116.4532741   5.9608870  76.6437702 117.9308112
   6.3310054  77.9936008 123.4106695   6.2061194  77.1925747 122.9017641
   6.9889145  78.4882201 122.9220665   8.3944963  75.7945028 125.0386245
   7.4475298  75.6750379 124.9664572   8.7427736  74.9067526 125.1212507
   5.3991396  75.5897744 121.2390598   5.2516358  74.6614451 121.4198168
   6.2244889  75.6117835 120.7547673   9.0025518  76.4126303 122.3255470
   9.9272065  76.2069164 122.1879922   8.8340821  76.1642704 123.2344812
   1.2521787  62.7390433 115.2964383   1.9730150  63.1171685 114.7928099
   0.6287091  63.4579309 115.3999361   5.3952910  63.4435582 116.2322715
   5.6116525  64.3260219 115.9311543   4.9146977  63.0521795 115.5028357
   8.7920834  76.9311970 117.6817562   8.9657711  76.3658393 116.9291414
   9.2849725  77.7312865 117.4997052   1.3985410  62.2738223 118.1261919
   1.5201322  61.3454869 118.3252807   1.1087453  62.2876909 117.2140235
  14.6460225  69.6948393 119.3007862  15.0891371  68.9455718 118.9026985
  13.7686735  69.6858529 118.9181594   9.7796006  76.2478734 114.7814460
  10.4746911  76.8685427 115.0001775  10.1219157  75.3974086 115.0566838
  11.6787430  73.6978440 116.3101791  12.2038754  74.0365713 115.5851111
  11.5909782  72.7625455 116.1264926  11.4879211  71.1803810 128.9285717
  11.5377216  71.0153817 129.8701240  11.3793134  70.3131069 128.5383598
  12.9897407  73.6000752 129.1727739  12.6982216  73.9630732 130.0091200
  12.3769539  72.8867760 128.9941071  14.1893090  71.1653631 121.6930309
  15.0239981  71.6043435 121.8567870  14.3252219  70.6892285 120.8738555
  11.2384596  68.7233366 127.6407797  11.7138717  68.9161012 126.8326648
  10.3150161  68.7792552 127.3951181   3.8710875  76.3540486 113.6889554
   3.2984842  76.9730673 113.2360026   4.4443669  76.9039848 114.2229476
   9.9386265  65.5999126 125.8736103  10.8903688  65.6997224 125.8948327
   9.7689715  64.8077395 126.3834187   7.0908135  76.6377636 114.8198136
   8.0238808  76.5723198 115.0231012   7.0031347  77.4733903 114.3612669
   9.7196151  75.9543507 111.7802084   9.6409783  75.6203370 112.6737842
  10.5405818  76.4465275 111.7793556  12.4174343  68.8205246 124.9878402
  12.3850663  67.8821247 125.1738086  13.0274966  68.8989283 124.2544227
   4.2557673  67.6901299 111.0305606   5.2016778  67.5607507 111.0994024
   3.8771918  66.9515961 111.5075034  12.5668831  65.6116289 125.0336685
  12.0507880  64.8274746 124.8466614  13.4508780  65.2835006 125.1983205
  10.2279558  59.3557305 120.9932498  10.0304379  59.0472393 121.8775830
  10.8379263  60.0818944 121.1230428  18.2350892  69.8821253 124.1284439
  18.9654281  69.6206541 124.6892142  17.6257838  69.1449975 124.1686507
  16.3166189  68.0229115 124.7258890  15.5899353  67.8885080 124.1175382
  15.9013476  68.3305944 125.5315608   2.4400591  65.6151275 110.9660492
   1.5332046  65.3184388 111.0423205   2.7176572  65.3181093 110.0994778
   4.0562656  60.1588165 117.1204733   3.2463385  59.8135250 117.4959979
   4.7447073  59.8495709 117.7092344   5.9853205  59.2366212 118.7429029
   6.5384243  59.6561665 119.4019053   6.2223291  58.3101960 118.7851985
   1.2099375  62.4738211 111.1072471   2.0718539  62.7993109 111.3668288
   1.3949719  61.6869706 110.5945537   9.3632012  61.3466737 118.2507694
   8.7830681  62.0051541 117.8685746   9.0967944  60.5244082 117.8395111
   7.8135578  60.7471795 120.4529014   8.3135356  60.8588329 119.6443333
   8.4571186  60.4432848 121.0929822   8.1456890  63.5066827 117.3064042
   7.2582745  63.7916478 117.0884237   8.5610879  63.3460591 116.4591319
  11.4971426  63.5313348 121.0218381  12.2731816  64.0209801 121.2942998
  10.7719560  63.9571403 121.4790251  13.9343984  64.2440968 122.0792322
  14.5288475  64.0036704 121.3685630  14.0070568  63.5248098 122.7065858
   7.2900103  73.2711502 111.4012062   7.9935953  73.4761505 112.0169718
   6.5662752  73.8388264 111.6661145   8.1197913  69.0221363 117.5214332
   8.0633115  69.4789915 116.6821965   8.6726256  68.2612048 117.3437175
  11.9302719  64.8111095 118.3464452  11.6739654  64.4107731 119.1772659
  11.3055587  65.5254889 118.2214591  16.2415057  67.5507168 120.8535743
  15.6814615  67.6200358 121.6267305  15.6358561  67.3748153 120.1335239
   9.1986801  73.7094031 113.4510522  10.0332404  73.2775230 113.2687997
   9.0371143  73.5376045 114.3787416   8.8532693  70.2126145 114.8166861
   8.7981496  70.0470416 113.8755305   8.2278748  70.9202177 114.9729051
   2.1628818  59.7134254 114.3952180   2.1507488  60.6576093 114.5520451
   3.0552240  59.5304399 114.1011641   5.9780938  56.3077030 118.6498117
   5.2113333  55.7535517 118.7954799   6.3891643  56.3798899 119.5112268
  17.8271076  84.2263682 123.5465699  18.4649486  84.1070430 122.8429039
  17.7091919  85.1744526 123.6053651  14.6360782  84.1791110 123.4827223
  14.2979293  84.0632175 122.5947758  15.5050550  83.7782276 123.4628230
  10.4947598  86.0326587 119.4724114   9.9312463  85.9416524 118.7040402
  10.3799993  85.2126491 119.9526607  16.0747156  89.6997555 114.7838579
  15.4235136  90.2851635 114.3972593  16.8691519  90.2303749 114.8433617
  10.0002783  86.7886692 115.1825714  10.7733659  86.2415679 115.0438589
  10.3528182  87.6530941 115.3940175  12.7644033  85.4939922 124.9793973
  13.3607605  85.2695945 124.2650936  12.8219004  84.7524668 125.5819420
  12.3369061  82.9479358 112.8144164  12.5894582  82.4260879 112.0527627
  11.3993620  82.7845503 112.9170847  17.3812344  81.9515136 120.6218907
  18.1675433  81.5334559 120.2709324  17.6451048  82.8561228 120.7900555
  17.5522421  87.3887986 115.3207564  16.9168254  87.4622613 116.0328468
  17.2219828  87.9781585 114.6426643  22.7820771  81.8890369 121.5251885
  23.5145943  81.3189586 121.7589715  22.0260127  81.5011970 121.9658391
  12.0565350  84.8507464 115.0168539  11.9401608  84.1752367 115.6849623
  12.1667610  84.3639838 114.2000692  14.3996891  84.3117611 118.7215228
  14.0355098  83.7848232 119.4328149  15.2564007  83.9216080 118.5481713
  20.3046192  75.6011943 125.9846494  19.9729516  76.4707354 125.7607709
  19.7091805  75.2848227 126.6640524  14.0402378  79.3407511 113.7176576
  14.2076780  80.2087747 114.0847047  13.8499547  79.5034792 112.7937866
  16.7977711  87.8024489 125.3842407  16.4978434  88.7049528 125.2758214
  16.4528771  87.5356673 126.2363560  10.2490193  84.2538286 121.4179111
   9.3240689  84.1214500 121.6256803  10.4974606  85.0332506 121.9149053
  20.1974855  80.3207030 123.0639844  19.2891732  80.2522438 122.7698605
  20.1462451  80.7978975 123.8921669  14.0191599  81.7965168 114.7023243
  13.8991224  82.2422219 115.5408723  13.3244187  82.1450486 114.1436781
  11.7798491  94.5668810 118.3513374  11.7022521  95.5176635 118.4301855
  11.1760134  94.2214682 119.0088301  22.0636501  78.5223468 124.8417718
  21.4210882  78.8156001 124.1957512  21.5591430  78.4076388 125.6470915
  19.7176665  82.2686641 115.5303577  20.6294521  82.5014028 115.3551275
  19.2086312  82.8523685 114.9678656  14.3548503  81.6283876 126.5398427
  15.2009698  82.0523289 126.6833076  14.2947140  80.9717500 127.2336990
  18.3246247  87.2512460 122.9217159  17.6955110  87.4158174 122.2193226
  17.9371909  87.6654069 123.6928123  22.2035479  88.1866898 120.2761522
  21.5186517  88.5665799 119.7258556  22.2879328  88.7962224 121.0093470
  17.5047948  79.2888244 128.1979600  17.2608880  80.0430305 127.6613876
  17.7807879  79.6673592 129.0326847  19.4586411  85.8326857 126.8756866
  19.6703306  86.4758616 126.1991247  19.4116159  84.9989173 126.4078796
  17.0612640  78.4444677 123.7793438  16.1997119  78.7425931 124.0710176
  17.0875074  78.6615076 122.8474471  13.8774209  86.9886868 120.1867244
  14.3412555  87.2674571 119.3971866  13.6131007  86.0870312 120.0040334
  10.7698290  86.5358349 123.1247007  11.3399647  86.9645618 122.4864491
  11.3606402  86.2540934 123.8231193  12.8143095  83.1110020 116.9956809
  13.5167139  83.5631064 117.4630735  12.4823724  82.4693839 117.6236702
   6.5568429  81.3693573 122.2973942   5.7667483  81.6251101 121.8214053
   7.0479677  82.1841911 122.4025983  20.5732239  88.7098812 125.0479223
  21.3949682  88.3078999 124.7661905  20.5694642  88.6067046 125.9995339
   8.5083175  81.7338152 119.2557419   7.7114338  81.8456846 119.7740915
   8.2808767  82.0724804 118.3898310  28.6638232  85.0537560 121.3964195
  27.9101940  84.4844959 121.2408199  28.7985773  85.0200225 122.3434829
  14.0536860  89.9250963 117.0718914  13.9182535  90.7702499 117.5003762
  14.5946672  90.1270240 116.3084848   7.5066257  87.4426401 117.6446839
   8.0190778  88.2369651 117.7952404   8.1588970  86.7452691 117.5780441
  17.4029323  73.4481525 125.6017808  17.0593593  74.3383166 125.5256918
  17.7708286  73.2583182 124.7387393   5.4715174  85.7715055 118.4206410
   6.3090396  86.1812063 118.2040117   5.6493442  84.8314497 118.3906604
  17.3679606  83.4390136 114.1090243  16.8526230  84.2094740 114.3478630
  17.0956915  82.7655272 114.7323304  14.9526717  78.2839837 119.1675481
  14.0968313  77.8946687 118.9881120  15.3653669  78.3631797 118.3075267
  16.4825864  75.8186180 123.5667041  15.9790659  75.7816315 122.7534846
  16.7756471  76.7278923 123.6263697  12.7268750  75.9024910 122.5733223
  13.5921746  75.7067718 122.2139112  12.7946259  75.6735261 123.5002579
  22.3413880  86.1922490 116.0443416  21.5643323  85.8533650 115.5998578
  23.0205361  86.1975114 115.3698381  17.1565909  81.3117228 115.9350024
  16.8516045  81.6263377 116.7860167  18.1096351  81.3898648 115.9777357
  15.6012341  87.4707451 117.5842978  15.0733703  86.7360211 117.2716215
  15.0999844  88.2482128 117.3382946  20.5805187  85.6656472 122.7010024
  19.9228862  86.3555733 122.7890153  21.3845586  86.0552904 123.0444010
  10.3331069  78.1327117 119.9449589  10.9074821  77.9102299 119.2122782
  10.9202051  78.2015812 120.6978191  19.3910646  84.0200844 120.7513966
  19.9042528  84.6530836 121.2535676  20.0411870  83.4202040 120.3857326
  10.6600656  80.1631579 113.9645475   9.8237968  80.5006265 114.2854749
  10.5205425  80.0280558 113.0272612  12.6353736  75.0068366 118.6724659
  11.9818149  74.6917384 118.0481274  12.5934211  74.3844107 119.3984482
  13.7464941  85.2887661 110.5877951  12.8392003  85.0576915 110.7869100
  14.2435973  84.4925281 110.7751932  16.6533020  93.9985169 113.5074637
  15.9794719  94.3016865 114.1159595  17.0398842  94.8014249 113.1580094
  15.8691477  81.4950300 122.9972306  14.9514038  81.7165247 122.8393994
  16.2851620  81.5696610 122.1384014  16.6526525  82.8941716 118.1274987
  17.3998344  83.4063113 117.8182109  16.9218114  82.5725768 118.9879380
  14.9253175  85.3900256 115.1101941  14.0164394  85.1059289 115.2074411
  14.9548259  85.8099335 114.2505248  20.1572442  89.0006846 118.8793109
  19.7034769  88.1597756 118.9358299  19.5266409  89.6368244 119.2167889
  19.1005362  79.9298832 120.1093776  18.3628119  79.4176218 120.4404019
  19.3532135  79.4899213 119.2977053  18.6005381  90.8383343 119.8142927
  18.8928356  91.3988400 119.0955292  19.1104002  91.1311904 120.5696086
  19.2016989  72.7075084 120.7035545  19.5075866  71.8472447 120.4161460
  19.9269594  73.2992704 120.5034539   5.4941345  83.1105770 119.0917143
   5.2965745  82.5175131 118.3668210   4.9388009  82.8057981 119.8093082
  13.4738069  83.0028877 121.2111736  13.5286679  82.0502713 121.1354213
  12.6629271  83.1588316 121.6953035  14.6229263  86.9309000 112.4490020
  14.1848692  86.2144859 111.9895657  15.3639703  87.1585115 111.8875111
  11.4130429  81.6205937 118.9702115  10.5998294  81.9200107 119.3767307
  11.9089423  81.2261625 119.6876597  13.5639007  91.6163694 120.9036380
  13.5215185  91.8424540 119.9744912  14.4801705  91.3827068 121.0522181
  17.0104640  82.0847761 127.8017009  17.3654028  82.3119234 128.6611475
  17.6576772  82.4166138 127.1794264  22.7402377  85.2066197 118.5066338
  22.6020276  85.3967793 117.5787527  22.3838596  85.9685580 118.9634389
  10.9044503  79.1924292 124.5863350  11.5443883  79.0513051 123.8886313
  10.0722034  78.9058806 124.2101952  22.7671757  87.2742724 123.5177610
  23.2008264  87.1818013 124.3660664  23.4803338  87.2500225 122.8797626
  11.6804807  88.4926723 120.6998343  12.4745406  87.9977043 120.4980918
  10.9696500  87.9644586 120.3366048   7.9887571  82.6369804 116.7758095
   7.0585159  82.5754260 116.9928057   8.0845043  82.1145757 115.9794737
   7.9073120  79.1624617 119.3636337   8.1679937  80.0769950 119.2545497
   8.7290292  78.6949060 119.5132950  23.6287307  87.3166425 126.0510495
  23.8223197  88.2212235 126.2969770  23.5287925  86.8573844 126.8849080
  15.2823617  77.2024315 128.5500822  14.6351532  77.9014265 128.4565299
  16.0524633  77.6360459 128.9177071  15.4587752  85.0405080 126.6097642
  16.3879812  85.1916240 126.4366609  15.0378782  85.1289101 125.7546289
  14.8524235  94.1664841 115.7221716  15.0275991  93.6952884 116.5367339
  14.1657023  94.7930607 115.9502977  15.8081299  88.4437347 121.7685017
  15.4731131  88.4038117 122.6642667  15.3085244  87.7782063 121.2955428
  18.7440490  85.7893382 112.0422077  18.1269661  85.0640210 111.9455130
  18.2756979  86.5502742 111.6989151  10.5339036  80.0078806 111.1643381
   9.6568502  79.8867607 110.8005628  11.0096789  79.2164884 110.9122270
  20.4012029  88.4631874 127.9341837  19.5138808  88.1257796 128.0568236
  20.9710580  87.7314905 128.1710603  13.7202962  92.3605096 118.4105902
  12.9370484  92.9026776 118.5044126  14.4195707  92.8779076 118.8100143
  17.0299612  78.1699726 121.0540107  17.5268312  77.4169688 120.7341178
  16.2586594  78.2064042 120.4883317  24.8829370  83.8740091 122.6958399
  24.8719246  84.7564807 122.3252332  24.0146749  83.5211642 122.5012936
  18.1129393  86.9271413 118.6278531  17.1785672  87.0472875 118.4583235
  18.2906061  86.0243880 118.3638541  13.6134581  80.3117109 120.7811792
  13.2432368  79.7588149 121.4692697  14.1093673  79.7075242 120.2286792
  21.5001944  82.7688732 119.1628565  21.9662396  83.6016724 119.0888867
  21.9509445  82.3033714 119.8673823  19.5678175  89.1132554 116.1614717
  19.8438019  88.9989148 117.0708591  18.6982674  88.7150038 116.1226890
  19.4718607  75.1369319 123.2019466  18.5581687  75.3673546 123.3701673
  19.9011708  75.2207763 124.0533499  19.2425066  83.3259211 125.7019360
  18.5896516  83.5735119 125.0471813  19.6205445  82.5123349 125.3681837
  16.2032239  93.3618904 119.8047530  16.3854634  92.5440560 120.2675283
  17.0265225  93.5786597 119.3672420  16.5374405  92.2887090 117.0662579
  17.0662171  91.7779544 116.4532741  16.8002624  91.9729620 117.9308112
   9.0099915  77.7221100 127.0264898   9.0741241  78.5835930 126.6142296
   8.9467035  77.1095101 126.2937256   5.2617730  81.6020661 116.6056287
   5.5571171  80.6931340 116.5523341   4.3605766  81.5808401 116.2837289
  17.1703809  93.3227925 123.4106695  17.0454948  92.5217665 122.9017641
  17.8282900  93.8174119 122.9220665   8.7911977  79.6776658 122.5883836
   8.0698563  80.2912625 122.4491309   9.5805233  80.2134423 122.5100482
  19.2338717  91.1236945 125.0386245  18.2869053  91.0042297 124.9664572
  19.5821490  90.2359443 125.1212507  11.5938290  77.0131084 128.8624487
  12.1172692  77.2593381 129.6250797  11.3750624  77.8451119 128.4427625
   6.9905572  79.2834759 116.7295612   6.6618278  78.4032138 116.5470718
   7.3444942  79.2282428 117.6172001  16.2385150  90.9189662 121.2390598
  16.0910113  89.9906369 121.4198168  17.0638644  90.9409752 120.7547673
  10.1047395  79.5707729 117.0971090  10.4443467  80.0993650 116.3749698
  10.5519515  79.9088135 117.8729656  19.8419272  91.7418220 122.3255470
  20.7665820  91.5361082 122.1879922  19.6734576  91.4934621 123.2344812
  12.7990835  77.9544779 126.5474158  12.4587656  77.1552592 126.9494838
  12.0929842  78.2546490 125.9750991  13.4507307  75.0394092 125.0001481
  14.2733377  74.5654570 124.8780371  13.6945371  75.8184576 125.5000167
  12.0915542  78.0682350 115.2964383  12.8123904  78.4463603 114.7928099
  11.4680846  78.7871227 115.3999361  16.2346665  78.7727499 116.2322715
  16.4510279  79.6552137 115.9311543  15.7540732  78.3813713 115.5028357
  10.9745886  81.7313212 122.8093460  10.8290467  82.0453515 123.7017741
  10.4971090  82.3498113 122.2564358  12.8342269  78.7215760 122.8574349
  12.8203838  77.8256854 122.5206647  13.5514697  78.7286424 123.4912635
  14.6868400  79.1553101 124.9027477  14.4286177  80.0770171 124.9011807
  14.1553440  78.7583535 125.5927941  19.6314588  92.2603888 117.6817562
  19.8051466  91.6950310 116.9291414  20.1243480  93.0604783 117.4997052
  12.2379165  77.6030141 118.1261919  12.3595076  76.6746787 118.3252807
  11.9481207  77.6168827 117.2140235  15.1070355  75.2885051 121.2628639
  15.1292052  75.3524384 120.3080619  15.5238414  74.4489560 121.4569145
  25.4853980  85.0240311 119.3007862  25.9285126  84.2747636 118.9026985
  24.6080490  85.0150447 118.9181594  20.6189761  91.5770652 114.7814460
  21.3140666  92.1977345 115.0001775  20.9612911  90.7266003 115.0566838
  22.5181184  89.0270358 116.3101791  23.0432508  89.3657630 115.5851111
  22.4303537  88.0917373 116.1264926  22.3272965  86.5095728 128.9285717
  22.3770970  86.3445735 129.8701240  22.2186888  85.6422987 128.5383598
  11.2109224  89.1884273 116.2177806  11.3597344  89.8719738 115.5644479
  12.0175667  89.1689363 116.7327262  19.6176728  82.4926656 130.2445024
  20.5186590  82.3533121 129.9529022  19.6924702  82.6581111 131.1843202
  23.8291162  88.9292669 129.1727739  23.5375970  89.2922650 130.0091200
  23.2163293  88.2159677 128.9941071  25.0286844  86.4945549 121.6930309
  25.8633736  86.9335353 121.8567870  25.1645973  86.0184202 120.8738555
  22.0778350  84.0525284 127.6407797  22.5532472  84.2452930 126.8326648
  21.1543916  84.1084470 127.3951181   8.9661857  85.2149451 117.2238875
   8.7207899  84.3111781 117.4219085   9.1357771  85.2166601 116.2818353
  16.6558567  76.0873127 126.6063631  17.1740511  76.8234154 126.2810119
  16.3013699  76.3937121 127.4410390   8.2357504  80.9477809 114.7225037
   7.5426749  81.0222164 114.0665073   7.9909256  80.1838152 115.2446554
  16.9071161  72.5073410 122.1264527  17.1872915  71.8396599 122.7524954
  17.6921768  72.7002506 121.6139191  14.7104629  91.6832404 113.6889554
  14.1378596  92.3022591 113.2360026  15.2837423  92.2331766 114.2229476
  20.7780019  80.9291044 125.8736103  21.7297442  81.0289142 125.8948327
  20.6083470  80.1369312 126.3834187  18.7994399  78.0146627 126.0595504
  18.2044331  78.2951640 125.3641992  18.5144095  78.5040528 126.8312245
  17.9301889  91.9669554 114.8198136  18.8632562  91.9015116 115.0231012
  17.8425102  92.8025821 114.3612669  20.5589906  91.2835424 111.7802084
  20.4803537  90.9495288 112.6737842  21.3799573  91.7757192 111.7793556
  23.2568097  84.1497164 124.9878402  23.2244417  83.2113164 125.1738086
  23.8668721  84.2281200 124.2544227  15.0951428  83.0193217 111.0305606
  16.0410533  82.8899425 111.0994024  14.7165673  82.2807878 111.5075034
  23.4062585  80.9408207 125.0336685  22.8901634  80.1566664 124.8466614
  24.2902534  80.6126924 125.1983205  21.0673312  74.6849223 120.9932498
  20.8698134  74.3764311 121.8775830  21.6773018  75.4110862 121.1230428
  29.0744647  85.2113170 124.1284439  29.8048035  84.9498459 124.6892142
  28.4651592  84.4741892 124.1686507  27.1559944  83.3521033 124.7258890
  26.4293108  83.2176998 124.1175382  26.7407231  83.6597862 125.5315608
  13.2794345  80.9443193 110.9660492  12.3725800  80.6476306 111.0423205
  13.5570326  80.6473011 110.0994778  14.8956411  75.4880083 117.1204733
  14.0857139  75.1427168 117.4959979  15.5840828  75.1787626 117.7092344
  16.8246959  74.5658129 118.7429029  17.3777998  74.9853583 119.4019053
  17.0617045  73.6393878 118.7851985  12.0493130  77.8030128 111.1072471
  12.9112294  78.1285027 111.3668288  12.2343474  77.0161624 110.5945537
  20.2025766  76.6758655 118.2507694  19.6224435  77.3343459 117.8685746
  19.9361699  75.8535999 117.8395111  18.6529332  76.0763712 120.4529014
  19.1529111  76.1880247 119.6443333  19.2964940  75.7724765 121.0929822
  18.9850644  78.8358745 117.3064042  18.0976499  79.1208396 117.0884237
  19.4004633  78.6752508 116.4591319  22.3365180  78.8605266 121.0218381
  23.1125570  79.3501718 121.2942998  21.6113314  79.2863320 121.4790251
  24.7737739  79.5732885 122.0792322  25.3682230  79.3328621 121.3685630
  24.8464323  78.8540016 122.7065858  18.1293858  88.6003420 111.4012062
  18.8329708  88.8053422 112.0169718  17.4056506  89.1680182 111.6661145
  18.9591668  84.3513281 117.5214332  18.9026869  84.8081832 116.6821965
  19.5120010  83.5903966 117.3437175  22.7696474  80.1403013 118.3464452
  22.5133408  79.7399649 119.1772659  22.1449342  80.8546807 118.2214591
  27.0808812  82.8799086 120.8535743  26.5208370  82.9492275 121.6267305
  26.4752315  82.7040071 120.1335239  20.0380555  89.0385949 113.4510522
  20.8726159  88.6067147 113.2687997  19.8764898  88.8667963 114.3787416
  19.6926447  85.5418062 114.8166861  19.6375251  85.3762334 113.8755305
  19.0672502  86.2494095 114.9729051  13.0022573  75.0426171 114.3952180
  12.9901242  75.9868011 114.5520451  13.8945995  74.8596317 114.1011641
  16.8174692  71.6368948 118.6498117  16.0507088  71.0827435 118.7954799
  17.2285397  71.7090817 119.5112268  28.6664830  99.5555600 123.5465699
  29.3043240  99.4362347 122.8429039  28.5485673 100.5036444 123.6053651
  25.4754536  99.5083028 123.4827223  25.1373048  99.3924093 122.5947758
  26.3444305  99.1074193 123.4628230  21.3341352 101.3618505 119.4724114
  20.7706217 101.2708441 118.7040402  21.2193747 100.5418409 119.9526607
  26.9140911 105.0289472 114.7838579  26.2628891 105.6143553 114.3972593
  27.7085274 105.5595667 114.8433617  20.8396538 102.1178609 115.1825714
  21.6127414 101.5707596 115.0438589  21.1921937 102.9822859 115.3940175
  23.6037787 100.8231840 124.9793973  24.2001360 100.5987863 124.2650936
  23.6612759 100.0816586 125.5819420  23.1762816  98.2771276 112.8144164
  23.4288336  97.7552797 112.0527627  22.2387375  98.1137421 112.9170847
  28.2206099  97.2807054 120.6218907  29.0069188  96.8626477 120.2709324
  28.4844803  98.1853146 120.7900555  28.3916176 102.7179904 115.3207564
  27.7562009 102.7914531 116.0328468  28.0613582 103.3073503 114.6426643
  33.6214526  97.2182287 121.5251885  34.3539698  96.6481504 121.7589715
  32.8653881  96.8303888 121.9658391  22.8959105 100.1799381 115.0168539
  22.7795363  99.5044285 115.6849623  23.0061364  99.6931755 114.2000692
  25.2390645  99.6409529 118.7215228  24.8748853  99.1140150 119.4328149
  26.0957761  99.2507998 118.5481713  31.1439946  90.9303861 125.9846494
  30.8123271  91.7999272 125.7607709  30.5485559  90.6140145 126.6640524
  24.8796132  94.6699428 113.7176576  25.0470535  95.5379665 114.0847047
  24.6893301  94.8326710 112.7937866  27.6371466 103.1316407 125.3842407
  27.3372189 104.0341446 125.2758214  27.2922525 102.8648590 126.2363560
  21.0883947  99.5830204 121.4179111  20.1634444  99.4506418 121.6256803
  21.3368360 100.3624423 121.9149053  31.0368609  95.6498947 123.0639844
  30.1285487  95.5814356 122.7698605  30.9856205  96.1270892 123.8921669
  24.8585353  97.1257086 114.7023243  24.7384978  97.5714137 115.5408723
  24.1637942  97.4742403 114.1436781  22.6192245 109.8960728 118.3513374
  22.5416275 110.8468553 118.4301855  22.0153889 109.5506600 119.0088301
  32.9030256  93.8515386 124.8417718  32.2604636  94.1447919 124.1957512
  32.3985184  93.7368306 125.6470915  30.5570419  97.5978559 115.5303577
  31.4688276  97.8305946 115.3551275  30.0480067  98.1815603 114.9678656
  25.1942257  96.9575794 126.5398427  26.0403452  97.3815207 126.6833076
  25.1340895  96.3009418 127.2336990  29.1640002 102.5804377 122.9217159
  28.5348864 102.7450092 122.2193226  28.7765664 102.9945987 123.6928123
  33.0429234 103.5158815 120.2761522  32.3580272 103.8957717 119.7258556
  33.1273083 104.1254142 121.0093470  28.3441702  94.6180162 128.1979600
  28.1002634  95.3722222 127.6613876  28.6201633  94.9965509 129.0326847
  30.2980165 101.1618774 126.8756866  30.5097061 101.8050534 126.1991247
  30.2509914 100.3281091 126.4078796  27.9006394  93.7736595 123.7793438
  27.0390873  94.0717848 124.0710176  27.9268829  93.9906994 122.8474471
  24.7167964 102.3178785 120.1867244  25.1806309 102.5966488 119.3971866
  24.4524762 101.4162230 120.0040334  21.6092045 101.8650267 123.1247007
  22.1793402 102.2937535 122.4864491  22.2000157 101.5832852 123.8231193
  23.6536850  98.4401938 116.9956809  24.3560893  98.8922982 117.4630735
  23.3217478  97.7985757 117.6236702  17.3962184  96.6985491 122.2973942
  16.6061238  96.9543019 121.8214053  17.8873431  97.5133828 122.4025983
  31.4125993 104.0390730 125.0479223  32.2343437 103.6370917 124.7661905
  31.4088396 103.9358964 125.9995339  19.3476929  97.0630070 119.2557419
  18.5508092  97.1748764 119.7740915  19.1202521  97.4016722 118.3898310
  39.5031986 100.3829478 121.3964195  38.7495695  99.8136876 121.2408199
  39.6379527 100.3492143 122.3434829  24.8930614 105.2542880 117.0718914
  24.7576289 106.0994416 117.5003762  25.4340427 105.4562158 116.3084848
  18.3460012 102.7718319 117.6446839  18.8584532 103.5661569 117.7952404
  18.9982725 102.0744609 117.5780441  28.2423078  88.7773442 125.6017808
  27.8987347  89.6675084 125.5256918  28.6102040  88.5875100 124.7387393
  16.3108928 101.1006973 118.4206410  17.1484150 101.5103981 118.2040117
  16.4887196 100.1606415 118.3906604  28.2073361  98.7682053 114.1090243
  27.6919984  99.5386658 114.3478630  27.9350669  98.0947190 114.7323304
  25.7920472  93.6131754 119.1675481  24.9362068  93.2238605 118.9881120
  26.2047423  93.6923715 118.3075267  27.3219618  91.1478098 123.5667041
  26.8184414  91.1108233 122.7534846  27.6150225  92.0570840 123.6263697
  23.5662504  91.2316827 122.5733223  24.4315501  91.0359636 122.2139112
  23.6340013  91.0027179 123.5002579  33.1807635 101.5214408 116.0443416
  32.4037077 101.1825568 115.5998578  33.8599116 101.5267031 115.3698381
  27.9959664  96.6409146 115.9350024  27.6909799  96.9555295 116.7860167
  28.9490106  96.7190565 115.9777357  26.4406096 102.7999369 117.5842978
  25.9127457 102.0652128 117.2716215  25.9393598 103.5774045 117.3382946
  31.4198942 100.9948389 122.7010024  30.7622616 101.6847651 122.7890153
  32.2239341 101.3844821 123.0444010  21.1724823  93.4619035 119.9449589
  21.7468575  93.2394217 119.2122782  21.7595806  93.5307730 120.6978191
  30.2304400  99.3492762 120.7513966  30.7436282  99.9822754 121.2535676
  30.8805624  98.7493958 120.3857326  21.4994410  95.4923496 113.9645475
  20.6631723  95.8298183 114.2854749  21.3599180  95.3572476 113.0272612
  23.4747491  90.3360284 118.6724659  22.8211903  90.0209301 118.0481274
  23.4327965  89.7136025 119.3984482  24.5858696 100.6179579 110.5877951
  23.6785758 100.3868833 110.7869100  25.0829728  99.8217198 110.7751932
  27.4926775 109.3277086 113.5074637  26.8188473 109.6308783 114.1159595
  27.8792597 110.1306167 113.1580094  26.7085231  96.8242218 122.9972306
  25.7907793  97.0457165 122.8393994  27.1245375  96.8988528 122.1384014
  27.4920279  98.2233633 118.1274987  28.2392098  98.7355030 117.8182109
  27.7611869  97.9017686 118.9879380  25.7646929 100.7192174 115.1101941
  24.8558148 100.4351207 115.2074411  25.7942013 101.1391253 114.2505248
  30.9966197 104.3298764 118.8793109  30.5428524 103.4889673 118.9358299
  30.3660163 104.9660162 119.2167889  29.9399116  95.2590750 120.1093776
  29.2021873  94.7468136 120.4404019  30.1925890  94.8191131 119.2977053
  29.4399136 106.1675260 119.8142927  29.7322110 106.7280317 119.0955292
  29.9497756 106.4603821 120.5696086  30.0410744  88.0367002 120.7035545
  30.3469620  87.1764365 120.4161460  30.7663348  88.6284622 120.5034539
  16.3335100  98.4397688 119.0917143  16.1359499  97.8467049 118.3668210
  15.7781764  98.1349898 119.8093082  24.3131823  98.3320795 121.2111736
  24.3680433  97.3794631 121.1354213  23.5023025  98.4880234 121.6953035
  25.4623017 102.2600918 112.4490020  25.0242447 101.5436777 111.9895657
  26.2033458 102.4877032 111.8875111  22.2524183  96.9497854 118.9702115
  21.4392049  97.2492025 119.3767307  22.7483177  96.5553543 119.6876597
  24.4032761 106.9455611 120.9036380  24.3608940 107.1716458 119.9744912
  25.3195460 106.7118986 121.0522181  27.8498395  97.4139679 127.8017009
  28.2047783  97.6411152 128.6611475  28.4970526  97.7458056 127.1794264
  33.5796132 100.5358115 118.5066338  33.4414030 100.7259711 117.5787527
  33.2232351 101.2977498 118.9634389  21.7438258  94.5216210 124.5863350
  22.3837637  94.3804969 123.8886313  20.9115789  94.2350723 124.2101952
  33.6065511 102.6034642 123.5177610  34.0402018 102.5109931 124.3660664
  34.3197092 102.5792142 122.8797626  22.5198562 103.8218640 120.6998343
  23.3139160 103.3268960 120.4980918  21.8090254 103.2936503 120.3366048
  18.8281325  97.9661722 116.7758095  17.8978913  97.9046178 116.9928057
  18.9238797  97.4437675 115.9794737  18.7466874  94.4916535 119.3636337
  19.0073692  95.4061868 119.2545497  19.5684047  94.0240977 119.5132950
  34.4681061 102.6458342 126.0510495  34.6616951 103.5504153 126.2969770
  34.3681679 102.1865761 126.8849080  26.1217372  92.5316233 128.5500822
  25.4745287  93.2306183 128.4565299  26.8918387  92.9652377 128.9177071
  26.2981506 100.3696998 126.6097642  27.2273566 100.5208157 126.4366609
  25.8772536 100.4581019 125.7546289  25.6917990 109.4956759 115.7221716
  25.8669746 109.0244802 116.5367339  25.0050778 110.1222525 115.9502977
  26.6475053 103.7729265 121.7685017  26.3124886 103.7330035 122.6642667
  26.1478999 103.1073981 121.2955428  29.5834245 101.1185299 112.0422077
  28.9663415 100.3932127 111.9455130  29.1150733 101.8794660 111.6989151
  21.3732791  95.3370724 111.1643381  20.4962257  95.2159524 110.8005628
  21.8490544  94.5456802 110.9122270  31.2405784 103.7923792 127.9341837
  30.3532562 103.4549713 128.0568236  31.8104335 103.0606823 128.1710603
  24.5596717 107.6897014 118.4105902  23.7764238 108.2318694 118.5044126
  25.2589462 108.2070994 118.8100143  27.8693367  93.4991643 121.0540107
  28.3662066  92.7461606 120.7341178  27.0980348  93.5355960 120.4883317
  35.7223124  99.2032009 122.6958399  35.7113000 100.0856724 122.3252332
  34.8540504  98.8503560 122.5012936  28.9523147 102.2563331 118.6278531
  28.0179426 102.3764793 118.4583235  29.1299816 101.3535797 118.3638541
  24.4528335  95.6409026 120.7811792  24.0826123  95.0880067 121.4692697
  24.9487428  95.0367160 120.2286792  32.3395699  98.0980650 119.1628565
  32.8056151  98.9308642 119.0888867  32.7903199  97.6325632 119.8673823
  30.4071930 104.4424471 116.1614717  30.6831774 104.3281066 117.0708591
  29.5376429 104.0441956 116.1226890  30.3112361  90.4661237 123.2019466
  29.3975441  90.6965464 123.3701673  30.7405463  90.5499681 124.0533499
  30.0818820  98.6551129 125.7019360  29.4290270  98.9027036 125.0471813
  30.4599200  97.8415267 125.3681837  27.0425994 108.6910822 119.8047530
  27.2248388 107.8732478 120.2675283  27.8658980 108.9078514 119.3672420
  27.3768159 107.6179007 117.0662579  27.9055926 107.1071462 116.4532741
  27.6396379 107.3021537 117.9308112  19.8493669  93.0513017 127.0264898
  19.9134996  93.9127848 126.6142296  19.7860789  92.4387019 126.2937256
  16.1011484  96.9312579 116.6056287  16.3964925  96.0223257 116.5523341
  15.1999520  96.9100318 116.2837289  28.0097563 108.6519843 123.4106695
  27.8848703 107.8509583 122.9017641  28.6676654 109.1466036 122.9220665
  19.6305731  95.0068575 122.5883836  18.9092317  95.6204543 122.4491309
  20.4198987  95.5426340 122.5100482  30.0732472 106.4528863 125.0386245
  29.1262807 106.3334214 124.9664572  30.4215245 105.5651361 125.1212507
  22.4332045  92.3423002 128.8624487  22.9566447  92.5885298 129.6250797
  22.2144378  93.1743037 128.4427625  17.8299326  94.6126677 116.7295612
  17.5012032  93.7324055 116.5470718  18.1838697  94.5574345 117.6172001
  27.0778905 106.2481579 121.2390598  26.9303867 105.3198287 121.4198168
  27.9032398 106.2701670 120.7547673  20.9441149  94.8999646 117.0971090
  21.2837222  95.4285568 116.3749698  21.3913270  95.2380052 117.8729656
  30.6813027 107.0710138 122.3255470  31.6059574 106.8652999 122.1879922
  30.5128330 106.8226539 123.2344812  23.6384590  93.2836697 126.5474158
  23.2981410  92.4844510 126.9494838  22.9323596  93.5838408 125.9750991
  24.2901062  90.3686009 125.0001481  25.1127131  89.8946488 124.8780371
  24.5339125  91.1476493 125.5000167  22.9309296  93.3974268 115.2964383
  23.6517659  93.7755521 114.7928099  22.3074600  94.1163145 115.3999361
  27.0740419  94.1019417 116.2322715  27.2904034  94.9844055 115.9311543
  26.5934486  93.7105630 115.5028357  21.8139641  97.0605130 122.8093460
  21.6684221  97.3745433 123.7017741  21.3364844  97.6790030 122.2564358
  23.6736023  94.0507678 122.8574349  23.6597592  93.1548771 122.5206647
  24.3908452  94.0578342 123.4912635  25.5262154  94.4845018 124.9027477
  25.2679932  95.4062089 124.9011807  24.9947195  94.0875453 125.5927941
  30.4708343 107.5895805 117.6817562  30.6445220 107.0242228 116.9291414
  30.9637234 108.3896700 117.4997052  23.0772919  92.9322058 118.1261919
  23.1988831  92.0038705 118.3252807  22.7874962  92.9460744 117.2140235
  25.9464110  90.6176969 121.2628639  25.9685807  90.6816302 120.3080619
  26.3632169  89.7781477 121.4569145  36.3247734 100.3532228 119.3007862
  36.7678880  99.6039554 118.9026985  35.4474244 100.3442365 118.9181594
  31.4583515 106.9062570 114.7814460  32.1534420 107.5269262 115.0001775
  31.8006666 106.0557921 115.0566838  33.3574939 104.3562275 116.3101791
  33.8826263 104.6949548 115.5851111  33.2697291 103.4209291 116.1264926
  33.1666720 101.8387645 128.9285717  33.2164725 101.6737653 129.8701240
  33.0580643 100.9714904 128.5383598  22.0502978 104.5176191 116.2177806
  22.1991099 105.2011655 115.5644479  22.8569422 104.4981281 116.7327262
  30.4570482  97.8218573 130.2445024  31.3580345  97.6825038 129.9529022
  30.5318457  97.9873028 131.1843202  34.6684916 104.2584587 129.1727739
  34.3769725 104.6214567 130.0091200  34.0557048 103.5451595 128.9941071
  35.8680599 101.8237467 121.6930309  36.7027490 102.2627271 121.8567870
  36.0039728 101.3476120 120.8738555  32.9172105  99.3817202 127.6407797
  33.3926226  99.5744848 126.8326648  31.9937670  99.4376387 127.3951181
  19.8055611 100.5441369 117.2238875  19.5601653  99.6403699 117.4219085
  19.9751526 100.5458519 116.2818353  27.4952321  91.4165045 126.6063631
  28.0134265  92.1526072 126.2810119  27.1407454  91.7229038 127.4410390
  19.0751259  96.2769726 114.7225037  18.3820504  96.3514081 114.0665073
  18.8303011  95.5130070 115.2446554  27.7464915  87.8365328 122.1264527
  28.0266669  87.1688517 122.7524954  28.5315522  88.0294423 121.6139191
  25.5498384 107.0124321 113.6889554  24.9772351 107.6314509 113.2360026
  26.1231178 107.5623683 114.2229476  31.6173774  96.2582962 125.8736103
  32.5691197  96.3581059 125.8948327  31.4477224  95.4661230 126.3834187
  29.6388153  93.3438545 126.0595504  29.0438085  93.6243558 125.3641992
  29.3537850  93.8332446 126.8312245  28.7695644 107.2961472 114.8198136
  29.7026317 107.2307033 115.0231012  28.6818856 108.1317738 114.3612669
  31.3983660 106.6127342 111.7802084  31.3197292 106.2787206 112.6737842
  32.2193327 107.1049110 111.7793556  34.0961851  99.4789081 124.9878402
  34.0638172  98.5405082 125.1738086  34.7062475  99.5573118 124.2544227
  25.9345182  98.3485134 111.0305606  26.8804287  98.2191342 111.0994024
  25.5559427  97.6099796 111.5075034  34.2456340  96.2700125 125.0336685
  33.7295389  95.4858581 124.8466614  35.1296288  95.9418841 125.1983205
  31.9067067  90.0141140 120.9932498  31.7091888  89.7056228 121.8775830
  32.5166772  90.7402779 121.1230428  39.9138401 100.5405088 124.1284439
  40.6441790 100.2790376 124.6892142  39.3045347  99.8033810 124.1686507
  37.9953698  98.6812951 124.7258890  37.2686862  98.5468916 124.1175382
  37.5800985  98.9889779 125.5315608  24.1188100  96.2735111 110.9660492
  23.2119555  95.9768223 111.0423205  24.3964081  95.9764929 110.0994778
  25.7350165  90.8172000 117.1204733  24.9250894  90.4719085 117.4959979
  26.4234582  90.5079544 117.7092344  27.6640714  89.8950047 118.7429029
  28.2171752  90.3145501 119.4019053  27.9010800  88.9685795 118.7851985
  22.8886884  93.1322046 111.1072471  23.7506048  93.4576944 111.3668288
  23.0737228  92.3453542 110.5945537  31.0419521  92.0050572 118.2507694
  30.4618190  92.6635376 117.8685746  30.7755453  91.1827917 117.8395111
  29.4923087  91.4055630 120.4529014  29.9922865  91.5172165 119.6443333
  30.1358695  91.1016683 121.0929822  29.8244399  94.1650663 117.3064042
  28.9370254  94.4500313 117.0884237  30.2398388  94.0044426 116.4591319
  33.1758935  94.1897184 121.0218381  33.9519325  94.6793636 121.2942998
  32.4507069  94.6155238 121.4790251  35.6131493  94.9024803 122.0792322
  36.2075984  94.6620539 121.3685630  35.6858077  94.1831933 122.7065858
  28.9687612 103.9295337 111.4012062  29.6723462 104.1345340 112.0169718
  28.2450261 104.4972099 111.6661145  29.7985422  99.6805199 117.5214332
  29.7420624 100.1373750 116.6821965  30.3513765  98.9195883 117.3437175
  33.6090228  95.4694931 118.3464452  33.3527163  95.0691566 119.1772659
  32.9843096  96.1838724 118.2214591  37.9202566  98.2091004 120.8535743
  37.3602124  98.2784193 121.6267305  37.3146070  98.0331988 120.1335239
  30.8774309 104.3677867 113.4510522  31.7119913 103.9359065 113.2687997
  30.7158652 104.1959880 114.3787416  30.5320202 100.8709980 114.8166861
  30.4769005 100.7054251 113.8755305  29.9066257 101.5786013 114.9729051
  23.8416327  90.3718089 114.3952180  23.8294997  91.3159929 114.5520451
  24.7339749  90.1888234 114.1011641  27.6568447  86.9660866 118.6498117
  26.8900842  86.4119352 118.7954799  28.0679152  87.0382734 119.5112268
  39.5058585 114.8847518 123.5465699  40.1436995 114.7654265 122.8429039
  39.3879427 115.8328362 123.6053651  36.3148291 114.8374946 123.4827223
  35.9766802 114.7216010 122.5947758  37.1838059 114.4366111 123.4628230
  32.1735107 116.6910422 119.4724114  31.6099972 116.6000359 118.7040402
  32.0587502 115.8710327 119.9526607  37.7534665 120.3581390 114.7838579
  37.1022645 120.9435470 114.3972593  38.5479028 120.8887585 114.8433617
  31.6790292 117.4470527 115.1825714  32.4521168 116.8999514 115.0438589
  32.0315691 118.3114776 115.3940175  34.4431542 116.1523758 124.9793973
  35.0395114 115.9279780 124.2650936  34.5006513 115.4108503 125.5819420
  34.0156570 113.6063193 112.8144164  34.2682091 113.0844714 112.0527627
  33.0781129 113.4429339 112.9170847  39.0599853 112.6098972 120.6218907
  39.8462942 112.1918395 120.2709324  39.3238557 113.5145064 120.7900555
  39.2309930 118.0471822 115.3207564  38.5955763 118.1206448 116.0328468
  38.9007337 118.6365421 114.6426643  44.4608280 112.5474205 121.5251885
  45.1933452 111.9773422 121.7589715  43.7047636 112.1595805 121.9658391
  33.7352859 115.5091299 115.0168539  33.6189117 114.8336203 115.6849623
  33.8455119 115.0223673 114.2000692  36.0784400 114.9701446 118.7215228
  35.7142607 114.4432067 119.4328149  36.9351516 114.5799915 118.5481713
  41.9833701 106.2595779 125.9846494  41.6517025 107.1291190 125.7607709
  41.3879314 105.9432063 126.6640524  35.7189887 109.9991346 113.7176576
  35.8864289 110.8671582 114.0847047  35.5287056 110.1618628 112.7937866
  38.4765220 118.4608325 125.3842407  38.1765943 119.3633364 125.2758214
  38.1316280 118.1940508 126.2363560  31.9277702 114.9122122 121.4179111
  31.0028198 114.7798336 121.6256803  32.1762115 115.6916341 121.9149053
  41.8762364 110.9790865 123.0639844  40.9679241 110.9106273 122.7698605
  41.8249960 111.4562810 123.8921669  35.6979108 112.4549003 114.7023243
  35.5778733 112.9006054 115.5408723  35.0031696 112.8034321 114.1436781
  33.4586000 125.2252645 118.3513374  33.3810030 126.1760470 118.4301855
  32.8547643 124.8798518 119.0088301  43.7424010 109.1807303 124.8417718
  43.0998391 109.4739837 124.1957512  43.2378939 109.0660224 125.6470915
  41.3964174 112.9270477 115.5303577  42.3082030 113.1597863 115.3551275
  40.8873821 113.5107521 114.9678656  36.0336012 112.2867711 126.5398427
  36.8797207 112.7107125 126.6833076  35.9734649 111.6301336 127.2336990
  40.0033756 117.9096295 122.9217159  39.3742619 118.0742009 122.2193226
  39.6159418 118.3237905 123.6928123  43.8822988 118.8450733 120.2761522
  43.1974026 119.2249634 119.7258556  43.9666837 119.4546060 121.0093470
  39.1835457 109.9472080 128.1979600  38.9396389 110.7014140 127.6613876
  39.4595387 110.3257427 129.0326847  41.1373920 116.4910692 126.8756866
  41.3490815 117.1342452 126.1991247  41.0903668 115.6573008 126.4078796
  38.7400149 109.1028513 123.7793438  37.8784628 109.4009766 124.0710176
  38.7662583 109.3198911 122.8474471  35.5561718 117.6470703 120.1867244
  36.0200064 117.9258406 119.3971866  35.2918516 116.7454148 120.0040334
  32.4485799 117.1942185 123.1247007  33.0187156 117.6229453 122.4864491
  33.0393911 116.9124769 123.8231193  34.4930604 113.7693856 116.9956809
  35.1954648 114.2214899 117.4630735  34.1611233 113.1277674 117.6236702
  28.2355938 112.0277408 122.2973942  27.4454992 112.2834937 121.8214053
  28.7267186 112.8425746 122.4025983  42.2519748 119.3682647 125.0479223
  43.0737191 118.9662835 124.7661905  42.2482151 119.2650882 125.9995339
  30.1870684 112.3921987 119.2557419  29.3901847 112.5040682 119.7740915
  29.9596276 112.7308640 118.3898310  50.3425741 115.7121396 121.3964195
  49.5889449 115.1428794 121.2408199  50.4773282 115.6784060 122.3434829
  35.7324369 120.5834798 117.0718914  35.5970044 121.4286334 117.5003762
  36.2734181 120.7854076 116.3084848  29.1853766 118.1010236 117.6446839
  29.6978287 118.8953486 117.7952404  29.8376479 117.4036527 117.5780441
  39.0816832 104.1065360 125.6017808  38.7381102 104.9967002 125.5256918
  39.4495795 103.9167018 124.7387393  27.1502683 116.4298890 118.4206410
  27.9877905 116.8395899 118.2040117  27.3280951 115.4898333 118.3906604
  39.0467115 114.0973971 114.1090243  38.5313739 114.8678576 114.3478630
  38.7744424 113.4239107 114.7323304  36.6314226 108.9423672 119.1675481
  35.7755822 108.5530522 118.9881120  37.0441178 109.0215633 118.3075267
  38.1613373 106.4770015 123.5667041  37.6578168 106.4400150 122.7534846
  38.4543980 107.3862758 123.6263697  34.4056259 106.5608745 122.5733223
  35.2709255 106.3651554 122.2139112  34.4733768 106.3319097 123.5002579
  44.0201389 116.8506326 116.0443416  43.2430832 116.5117485 115.5998578
  44.6992870 116.8558949 115.3698381  38.8353418 111.9701063 115.9350024
  38.5303554 112.2847212 116.7860167  39.7883860 112.0482483 115.9777357
  37.2799850 118.1291287 117.5842978  36.7521212 117.3944046 117.2716215
  36.7787353 118.9065963 117.3382946  42.2592696 116.3240307 122.7010024
  41.6016371 117.0139568 122.7890153  43.0633095 116.7136739 123.0444010
  32.0118578 108.7910953 119.9449589  32.5862330 108.5686134 119.2122782
  32.5989560 108.8599647 120.6978191  41.0698155 114.6784680 120.7513966
  41.5830037 115.3114672 121.2535676  41.7199379 114.0785875 120.3857326
  32.3388165 110.8215414 113.9645475  31.5025477 111.1590100 114.2854749
  32.1992934 110.6864394 113.0272612  34.3141245 105.6652202 118.6724659
  33.6605658 105.3501219 118.0481274  34.2721720 105.0427942 119.3984482
  35.4252450 115.9471497 110.5877951  34.5179512 115.7160750 110.7869100
  35.9223482 115.1509116 110.7751932  38.3320529 124.6569004 113.5074637
  37.6582228 124.9600701 114.1159595  38.7186351 125.4598084 113.1580094
  37.5478986 112.1534135 122.9972306  36.6301547 112.3749082 122.8393994
  37.9639129 112.2280446 122.1384014  38.3314034 113.5525551 118.1274987
  39.0785852 114.0646948 117.8182109  38.6005623 113.2309604 118.9879380
  36.6040684 116.0484092 115.1101941  35.6951903 115.7643124 115.2074411
  36.6335768 116.4683170 114.2505248  41.8359951 119.6590681 118.8793109
  41.3822278 118.8181591 118.9358299  41.2053918 120.2952080 119.2167889
  40.7792871 110.5882667 120.1093776  40.0415627 110.0760053 120.4404019
  41.0319644 110.1483049 119.2977053  40.2792890 121.4967178 119.8142927
  40.5715865 122.0572235 119.0955292  40.7891511 121.7895739 120.5696086
  40.8804498 103.3658919 120.7035545  41.1863375 102.5056283 120.4161460
  41.6057103 103.9576539 120.5034539  27.1728854 113.7689606 119.0917143
  26.9753254 113.1758967 118.3668210  26.6175518 113.4641816 119.8093082
  35.1525578 113.6612712 121.2111736  35.2074188 112.7086549 121.1354213
  34.3416780 113.8172151 121.6953035  36.3016772 117.5892835 112.4490020
  35.8636201 116.8728694 111.9895657  37.0427212 117.8168950 111.8875111
  33.0917938 112.2789772 118.9702115  32.2785803 112.5783943 119.3767307
  33.5876932 111.8845461 119.6876597  35.2426516 122.2747529 120.9036380
  35.2002694 122.5008375 119.9744912  36.1589214 122.0410904 121.0522181
  38.6892149 112.7431596 127.8017009  39.0441537 112.9703070 128.6611475
  39.3364281 113.0749973 127.1794264  44.4189886 115.8650032 118.5066338
  44.2807785 116.0551628 117.5787527  44.0626105 116.6269415 118.9634389
  32.5832012 109.8508128 124.5863350  33.2231392 109.7096887 123.8886313
  31.7509543 109.5642641 124.2101952  44.4459266 117.9326559 123.5177610
  44.8795773 117.8401848 124.3660664  45.1590847 117.9084060 122.8797626
  33.3592316 119.1510558 120.6998343  34.1532915 118.6560878 120.4980918
  32.6484009 118.6228421 120.3366048  29.6675080 113.2953640 116.7758095
  28.7372668 113.2338095 116.9928057  29.7632552 112.7729592 115.9794737
  29.5860629 109.8208453 119.3636337  29.8467446 110.7353786 119.2545497
  30.4077801 109.3532895 119.5132950  45.3074815 117.9750260 126.0510495
  45.5010706 118.8796071 126.2969770  45.2075434 117.5157679 126.8849080
  36.9611126 107.8608151 128.5500822  36.3139041 108.5598100 128.4565299
  37.7312142 108.2944295 128.9177071  37.1375261 115.6988916 126.6097642
  38.0667321 115.8500075 126.4366609  36.7166291 115.7872936 125.7546289
  36.5311744 124.8248676 115.7221716  36.7063500 124.3536720 116.5367339
  35.8444532 125.4514443 115.9502977  37.4868807 119.1021183 121.7685017
  37.1518640 119.0621953 122.6642667  36.9872753 118.4365899 121.2955428
  40.4227999 116.4477217 112.0422077  39.8057170 115.7224045 111.9455130
  39.9544488 117.2086577 111.6989151  32.2126545 110.6662641 111.1643381
  31.3356011 110.5451442 110.8005628  32.6884298 109.8748720 110.9122270
  42.0799538 119.1215709 127.9341837  41.1926317 118.7841631 128.0568236
  42.6498089 118.3898741 128.1710603  35.3990471 123.0188932 118.4105902
  34.6157993 123.5610612 118.5044126  36.0983216 123.5362911 118.8100143
  38.7087121 108.8283561 121.0540107  39.2055821 108.0753523 120.7341178
  37.9374103 108.8647878 120.4883317  46.5616879 114.5323927 122.6958399
  46.5506755 115.4148642 122.3252332  45.6934258 114.1795477 122.5012936
  39.7916902 117.5855248 118.6278531  38.8573181 117.7056711 118.4583235
  39.9693570 116.6827715 118.3638541  35.2922090 110.9700944 120.7811792
  34.9219877 110.4171984 121.4692697  35.7881182 110.3659078 120.2286792
  43.1789453 113.4272568 119.1628565  43.6449905 114.2600559 119.0888867
  43.6296954 112.9617549 119.8673823  41.2465684 119.7716389 116.1614717
  41.5225528 119.6572983 117.0708591  40.3770183 119.3733874 116.1226890
  41.1506116 105.7953155 123.2019466  40.2369196 106.0257381 123.3701673
  41.5799217 105.8791599 124.0533499  40.9212574 113.9843047 125.7019360
  40.2684025 114.2318954 125.0471813  41.2992954 113.1707185 125.3681837
  37.8819748 124.0202740 119.8047530  38.0642143 123.2024396 120.2675283
  38.7052734 124.2370432 119.3672420  38.2161914 122.9470925 117.0662579
  38.7449680 122.4363379 116.4532741  38.4790133 122.6313455 117.9308112
  30.6887424 108.3804935 127.0264898  30.7528750 109.2419766 126.6142296
  30.6254544 107.7678937 126.2937256  26.9405239 112.2604497 116.6056287
  27.2358680 111.3515175 116.5523341  26.0393275 112.2392236 116.2837289
  38.8491318 123.9811761 123.4106695  38.7242457 123.1801500 122.9017641
  39.5070409 124.4757954 122.9220665  30.4699486 110.3360493 122.5883836
  29.7486072 110.9496461 122.4491309  31.2592742 110.8718258 122.5100482
  40.9126226 121.7820781 125.0386245  39.9656562 121.6626132 124.9664572
  41.2608999 120.8943279 125.1212507  33.2725799 107.6714920 128.8624487
  33.7960201 107.9177216 129.6250797  33.0538133 108.5034954 128.4427625
  28.6693080 109.9418594 116.7295612  28.3405787 109.0615973 116.5470718
  29.0232451 109.8866263 117.6172001  37.9172659 121.5773497 121.2390598
  37.7697622 120.6490204 121.4198168  38.7426153 121.5993588 120.7547673
  31.7834904 110.2291564 117.0971090  32.1230976 110.7577485 116.3749698
  32.2307024 110.5671970 117.8729656  41.5206781 122.4002056 122.3255470
  42.4453329 122.1944917 122.1879922  41.3522085 122.1518457 123.2344812
  34.4778344 108.6128615 126.5474158  34.1375165 107.8136428 126.9494838
  33.7717351 108.9130326 125.9750991  35.1294816 105.6977927 125.0001481
  35.9520886 105.2238405 124.8780371  35.3732880 106.4768411 125.5000167
  33.7703051 108.7266186 115.2964383  34.4911413 109.1047438 114.7928099
  33.1468355 109.4455062 115.3999361  37.9134174 109.4311335 116.2322715
  38.1297788 110.3135972 115.9311543  37.4328241 109.0397548 115.5028357
  32.6533395 112.3897048 122.8093460  32.5077976 112.7037351 123.7017741
  32.1758599 113.0081948 122.2564358  34.5129778 109.3799596 122.8574349
  34.4991347 108.4840689 122.5206647  35.2302206 109.3870260 123.4912635
  36.3655909 109.8136936 124.9027477  36.1073686 110.7354007 124.9011807
  35.8340949 109.4167371 125.5927941  41.3102097 122.9187723 117.6817562
  41.4838975 122.3534146 116.9291414  41.8030989 123.7188618 117.4997052
  33.9166674 108.2613976 118.1261919  34.0382585 107.3330622 118.3252807
  33.6268716 108.2752662 117.2140235  36.7857864 105.9468886 121.2628639
  36.8079561 106.0108220 120.3080619  37.2025923 105.1073395 121.4569145
  47.1641489 115.6824146 119.3007862  47.6072635 114.9331471 118.9026985
  46.2867999 115.6734282 118.9181594  42.2977270 122.2354488 114.7814460
  42.9928175 122.8561180 115.0001775  42.6400420 121.3849839 115.0566838
  44.1968693 119.6854193 116.3101791  44.7220017 120.0241466 115.5851111
  44.1091046 118.7501208 116.1264926  44.0060474 117.1679563 128.9285717
  44.0558479 117.0029570 129.8701240  43.8974397 116.3006822 128.5383598
  32.8896733 119.8468109 116.2177806  33.0384853 120.5303573 115.5644479
  33.6963176 119.8273199 116.7327262  41.2964237 113.1510491 130.2445024
  42.1974099 113.0116956 129.9529022  41.3712211 113.3164946 131.1843202
  45.5078671 119.5876505 129.1727739  45.2163479 119.9506485 130.0091200
  44.8950802 118.8743513 128.9941071  46.7074353 117.1529384 121.6930309
  47.5421245 117.5919188 121.8567870  46.8433482 116.6768038 120.8738555
  43.7565859 114.7109119 127.6407797  44.2319981 114.9036765 126.8326648
  42.8331425 114.7668305 127.3951181  30.6449366 115.8733286 117.2238875
  30.3995408 114.9695616 117.4219085  30.8145280 115.8750437 116.2818353
  38.3346076 106.7456963 126.6063631  38.8528020 107.4817990 126.2810119
  37.9801208 107.0520956 127.4410390  29.9145013 111.6061644 114.7225037
  29.2214258 111.6805999 114.0665073  29.6696765 110.8421988 115.2446554
  38.5858670 103.1657245 122.1264527  38.8660424 102.4980434 122.7524954
  39.3709277 103.3586341 121.6139191  36.3892138 122.3416239 113.6889554
  35.8166105 122.9606426 113.2360026  36.9624932 122.8915601 114.2229476
  42.4567528 111.5874879 125.8736103  43.4084951 111.6872977 125.8948327
  42.2870979 110.7953148 126.3834187  40.4781908 108.6730462 126.0595504
  39.8831840 108.9535475 125.3641992  40.1931604 109.1624363 126.8312245
  39.6089398 122.6253389 114.8198136  40.5420071 122.5598951 115.0231012
  39.5212611 123.4609656 114.3612669  42.2377415 121.9419260 111.7802084
  42.1591046 121.6079123 112.6737842  43.0587082 122.4341028 111.7793556
  44.9355606 114.8080999 124.9878402  44.9031926 113.8697000 125.1738086
  45.5456230 114.8865036 124.2544227  36.7738937 113.6777052 111.0305606
  37.7198042 113.5483260 111.0994024  36.3953182 112.9391714 111.5075034
  45.0850094 111.5992042 125.0336685  44.5689143 110.8150499 124.8466614
  45.9690043 111.2710759 125.1983205  42.7460821 105.3433058 120.9932498
  42.5485643 105.0348146 121.8775830  43.3560527 106.0694697 121.1230428
  50.7532156 115.8697006 124.1284439  51.4835544 115.6082294 124.6892142
  50.1439101 115.1325728 124.1686507  48.8347453 114.0104868 124.7258890
  48.1080617 113.8760833 124.1175382  48.4194740 114.3181697 125.5315608
  34.9581854 111.6027028 110.9660492  34.0513309 111.3060141 111.0423205
  35.2357835 111.3056846 110.0994778  36.5743920 106.1463918 117.1204733
  35.7644648 105.8011003 117.4959979  37.2628337 105.8371462 117.7092344
  38.5034468 105.2241965 118.7429029  39.0565507 105.6437418 119.4019053
  38.7404554 104.2977713 118.7851985  33.7280639 108.4613964 111.1072471
  34.5899803 108.7868862 111.3668288  33.9130983 107.6745459 110.5945537
  41.8813275 107.3342490 118.2507694  41.3011944 107.9927294 117.8685746
  41.6149208 106.5119835 117.8395111  40.3316841 106.7347548 120.4529014
  40.8316620 106.8464082 119.6443333  40.9752449 106.4308601 121.0929822
  40.6638153 109.4942580 117.3064042  39.7764008 109.7792231 117.0884237
  41.0792142 109.3336344 116.4591319  44.0152689 109.5189101 121.0218381
  44.7913079 110.0085554 121.2942998  43.2900823 109.9447156 121.4790251
  46.4525248 110.2316721 122.0792322  47.0469739 109.9912457 121.3685630
  46.5251832 109.5123851 122.7065858  39.8081367 119.2587255 111.4012062
  40.5117217 119.4637258 112.0169718  39.0844015 119.8264017 111.6661145
  40.6379177 115.0097116 117.5214332  40.5814378 115.4665668 116.6821965
  41.1907519 114.2487801 117.3437175  44.4483983 110.7986848 118.3464452
  44.1920917 110.3983484 119.1772659  43.8236851 111.5130642 118.2214591
  48.7596321 113.5382921 120.8535743  48.1995879 113.6076111 121.6267305
  48.1539824 113.3623906 120.1335239  41.7168064 119.6969784 113.4510522
  42.5513668 119.2650983 113.2687997  41.5552407 119.5251798 114.3787416
  41.3713956 116.2001898 114.8166861  41.3162760 116.0346169 113.8755305
  40.7460011 116.9077930 114.9729051  34.6810082 105.7010007 114.3952180
  34.6688751 106.6451846 114.5520451  35.5733503 105.5180152 114.1011641
  38.4962201 102.2952783 118.6498117  37.7294597 101.7411270 118.7954799
  38.9072906 102.3674652 119.5112268  50.3452339 130.2139435 123.5465699
  50.9830749 130.0946183 122.8429039  50.2273182 131.1620279 123.6053651
  47.1542045 130.1666863 123.4827223  46.8160557 130.0507928 122.5947758
  48.0231814 129.7658029 123.4628230  43.0128861 132.0202340 119.4724114
  42.4493726 131.9292277 118.7040402  42.8981256 131.2002244 119.9526607
  45.2825296 131.4815676 124.9793973  45.8788869 131.2571698 124.2650936
  45.3400268 130.7400421 125.5819420  44.8550325 128.9355111 112.8144164
  45.1075845 128.4136632 112.0527627  43.9174884 128.7721256 112.9170847
  49.8993608 127.9390889 120.6218907  50.6856697 127.5210312 120.2709324
  50.1632312 128.8436981 120.7900555  50.0703685 133.3763740 115.3207564
  49.4349518 133.4498366 116.0328468  49.7401091 133.9657338 114.6426643
  55.3002035 127.8766122 121.5251885  56.0327207 127.3065339 121.7589715
  54.5441390 127.4887723 121.9658391  44.5746613 130.8383217 115.0168539
  44.4582872 130.1628120 115.6849623  44.6848873 130.3515591 114.2000692
  46.9178154 130.2993364 118.7215228  46.5536362 129.7723985 119.4328149
  47.7745270 129.9091833 118.5481713  52.8227455 121.5887697 125.9846494
  52.4910780 122.4583107 125.7607709  52.2273068 121.2723981 126.6640524
  46.5583641 125.3283264 113.7176576  46.7258044 126.1963500 114.0847047
  46.3680810 125.4910545 112.7937866  42.7671456 130.2414039 121.4179111
  41.8421953 130.1090253 121.6256803  43.0155869 131.0208259 121.9149053
  52.7156118 126.3082783 123.0639844  51.8072996 126.2398191 122.7698605
  52.6643714 126.7854728 123.8921669  46.5372862 127.7840921 114.7023243
  46.4172487 128.2297972 115.5408723  45.8425451 128.1326239 114.1436781
  54.5817765 124.5099221 124.8417718  53.9392145 124.8031754 124.1957512
  54.0772693 124.3952141 125.6470915  52.2357928 128.2562394 115.5303577
  53.1475785 128.4889781 115.3551275  51.7267575 128.8399438 114.9678656
  46.8729766 127.6159629 126.5398427  47.7190961 128.0399042 126.6833076
  46.8128404 126.9593253 127.2336990  49.5793903 124.4320430 123.7793438
  48.7178382 124.7301684 124.0710176  49.6056338 124.6490829 122.8474471
  46.3955473 132.9762621 120.1867244  46.8593818 133.2550324 119.3971866
  46.1312271 132.0746065 120.0040334  45.3324359 129.0985773 116.9956809
  46.0348402 129.5506817 117.4630735  45.0004987 128.4569592 117.6236702
  39.0749693 127.3569326 122.2973942  38.2848747 127.6126854 121.8214053
  39.5660940 128.1717664 122.4025983  41.0264438 127.7213905 119.2557419
  40.2295601 127.8332599 119.7740915  40.7990030 128.0600557 118.3898310
  49.9210587 119.4357278 125.6017808  49.5774856 120.3258919 125.5256918
  50.2889549 119.2458935 124.7387393  49.8860870 129.4265889 114.1090243
  49.3707493 130.1970493 114.3478630  49.6138178 128.7531025 114.7323304
  47.4707981 124.2715590 119.1675481  46.6149577 123.8822440 118.9881120
  47.8834932 124.3507550 118.3075267  49.0007127 121.8061933 123.5667041
  48.4971923 121.7692068 122.7534846  49.2937734 122.7154676 123.6263697
  45.2450013 121.8900663 122.5733223  46.1103010 121.6943471 122.2139112
  45.3127522 121.6611014 123.5002579  54.8595144 132.1798243 116.0443416
  54.0824586 131.8409403 115.5998578  55.5386625 132.1850867 115.3698381
  49.6747173 127.2992981 115.9350024  49.3697308 127.6139130 116.7860167
  50.6277615 127.3774401 115.9777357  42.8512332 124.1202871 119.9449589
  43.4256084 123.8978052 119.2122782  43.4383315 124.1891565 120.6978191
  51.9091909 130.0076597 120.7513966  52.4223791 130.6406589 121.2535676
  52.5593133 129.4077793 120.3857326  43.1781919 126.1507332 113.9645475
  42.3419232 126.4882018 114.2854749  43.0386689 126.0156311 113.0272612
  45.1535000 120.9944119 118.6724659  44.4999412 120.6793137 118.0481274
  45.1115474 120.3719860 119.3984482  46.2646205 131.2763414 110.5877951
  45.3573267 131.0452668 110.7869100  46.7617237 130.4801034 110.7751932
  48.3872740 127.4826053 122.9972306  47.4695302 127.7041000 122.8393994
  48.8032884 127.5572363 122.1384014  49.1707788 128.8817469 118.1274987
  49.9179607 129.3938866 117.8182109  49.4399378 128.5601521 118.9879380
  47.4434438 131.3776009 115.1101941  46.5345657 131.0935042 115.2074411
  47.4729522 131.7975088 114.2505248  52.6753706 134.9882599 118.8793109
  52.2216033 134.1473509 118.9358299  52.0447672 135.6243997 119.2167889
  51.6186625 125.9174585 120.1093776  50.8809382 125.4051971 120.4404019
  51.8713399 125.4774966 119.2977053  51.7198253 118.6950837 120.7035545
  52.0257129 117.8348200 120.4161460  52.4450857 119.2868457 120.5034539
  38.0122609 129.0981523 119.0917143  37.8147008 128.5050884 118.3668210
  37.4569273 128.7933734 119.8093082  45.9919332 128.9904630 121.2111736
  46.0467942 128.0378466 121.1354213  45.1810534 129.1464069 121.6953035
  47.1410526 132.9184753 112.4490020  46.7029956 132.2020612 111.9895657
  47.8820967 133.1460868 111.8875111  43.9311692 127.6081690 118.9702115
  43.1179558 127.9075860 119.3767307  44.4270686 127.2137378 119.6876597
  55.2583641 131.1941950 118.5066338  55.1201539 131.3843546 117.5787527
  54.9019860 131.9561333 118.9634389  43.4225767 125.1800045 124.5863350
  44.0625146 125.0388804 123.8886313  42.5903297 124.8934559 124.2101952
  40.5068834 128.6245557 116.7758095  39.5766422 128.5630013 116.9928057
  40.6026306 128.1021510 115.9794737  40.4254383 125.1500370 119.3636337
  40.6861201 126.0645703 119.2545497  41.2471556 124.6824813 119.5132950
  47.8004881 123.1900068 128.5500822  47.1532796 123.8890018 128.4565299
  48.5705896 123.6236212 128.9177071  51.2621754 131.7769135 112.0422077
  50.6450924 131.0515963 111.9455130  50.7938242 132.5378495 111.6989151
  43.0520300 125.9954559 111.1643381  42.1749766 125.8743360 110.8005628
  43.5278053 125.2040637 110.9122270  49.5480876 124.1575479 121.0540107
  50.0449575 123.4045441 120.7341178  48.7767857 124.1939795 120.4883317
  50.6310656 132.9147166 118.6278531  49.6966935 133.0348628 118.4583235
  50.8087325 132.0119633 118.3638541  46.1315844 126.2992862 120.7811792
  45.7613632 125.7463902 121.4692697  46.6274937 125.6950995 120.2286792
  54.0183208 128.7564485 119.1628565  54.4843660 129.5892477 119.0888867
  54.4690708 128.2909467 119.8673823  52.0859439 135.1008307 116.1614717
  52.3619283 134.9864901 117.0708591  51.2163938 134.7025791 116.1226890
  51.9899870 121.1245072 123.2019466  51.0762950 121.3549299 123.3701673
  52.4192972 121.2083516 124.0533499  41.5281178 123.7096853 127.0264898
  41.5922505 124.5711683 126.6142296  41.4648298 123.0970854 126.2937256
  37.7798993 127.5896414 116.6056287  38.0752434 126.6807093 116.5523341
  36.8787029 127.5684154 116.2837289  41.3093240 125.6652411 122.5883836
  40.5879826 126.2788378 122.4491309  42.0986496 126.2010176 122.5100482
  44.1119554 123.0006837 128.8624487  44.6353956 123.2469134 129.6250797
  43.8931887 123.8326872 128.4427625  39.5086835 125.2710512 116.7295612
  39.1799541 124.3907891 116.5470718  39.8626206 125.2158181 117.6172001
  42.6228658 125.5583482 117.0971090  42.9624731 126.0869403 116.3749698
  43.0700779 125.8963888 117.8729656  45.3172099 123.9420532 126.5474158
  44.9768919 123.1428345 126.9494838  44.6111105 124.2422243 125.9750991
  45.9688571 121.0269845 125.0001481  46.7914640 120.5530323 124.8780371
  46.2126634 121.8060329 125.5000167  44.6096805 124.0558103 115.2964383
  45.3305168 124.4339356 114.7928099  43.9862109 124.7746980 115.3999361
  48.7527928 124.7603252 116.2322715  48.9691543 125.6427890 115.9311543
  48.2721995 124.3689466 115.5028357  43.4927150 127.7188965 122.8093460
  43.3471730 128.0329269 123.7017741  43.0152353 128.3373866 122.2564358
  45.3523532 124.7091513 122.8574349  45.3385101 123.8132607 122.5206647
  46.0695961 124.7162177 123.4912635  47.2049663 125.1428854 124.9027477
  46.9467441 126.0645924 124.9011807  46.6734704 124.7459288 125.5927941
  44.7560428 123.5905894 118.1261919  44.8776340 122.6622540 118.3252807
  44.4662471 123.6044580 117.2140235  47.6251619 121.2760804 121.2628639
  47.6473316 121.3400137 120.3080619  48.0419678 120.4365313 121.4569145
  58.0035243 131.0116064 119.3007862  58.4466389 130.2623389 118.9026985
  57.1261753 131.0026200 118.9181594  55.0362448 135.0146111 116.3101791
  55.5613772 135.3533383 115.5851111  54.9484800 134.0793126 116.1264926
  41.4843120 131.2025204 117.2238875  41.2389162 130.2987534 117.4219085
  41.6539035 131.2042354 116.2818353  49.1739830 122.0748880 126.6063631
  49.6921774 122.8109907 126.2810119  48.8194963 122.3812874 127.4410390
  40.7538768 126.9353562 114.7225037  40.0608013 127.0097917 114.0665073
  40.5090520 126.1713905 115.2446554  49.4252424 118.4949163 122.1264527
  49.7054178 117.8272352 122.7524954  50.2103031 118.6878259 121.6139191
  51.3175662 124.0022380 126.0595504  50.7225594 124.2827393 125.3641992
  51.0325359 124.4916281 126.8312245  47.6132691 129.0068970 111.0305606
  48.5591796 128.8775178 111.0994024  47.2346936 128.2683632 111.5075034
  53.5854576 120.6724976 120.9932498  53.3879397 120.3640064 121.8775830
  54.1954281 121.3986615 121.1230428  45.7975608 126.9318946 110.9660492
  44.8907064 126.6352059 111.0423205  46.0751589 126.6348764 110.0994778
  47.4137674 121.4755836 117.1204733  46.6038403 121.1302921 117.4959979
  48.1022091 121.1663379 117.7092344  49.3428222 120.5533883 118.7429029
  49.8959261 120.9729336 119.4019053  49.5798309 119.6269631 118.7851985
  44.5674393 123.7905881 111.1072471  45.4293557 124.1160780 111.3668288
  44.7524737 123.0037377 110.5945537  52.7207030 122.6634408 118.2507694
  52.1405699 123.3219212 117.8685746  52.4542962 121.8411752 117.8395111
  51.1710596 122.0639465 120.4529014  51.6710374 122.1756000 119.6443333
  51.8146204 121.7600518 121.0929822  51.5031908 124.8234498 117.3064042
  50.6157763 125.1084149 117.0884237  51.9185897 124.6628261 116.4591319
  54.8546444 124.8481019 121.0218381  55.6306834 125.3377471 121.2942998
  54.1294578 125.2739073 121.4790251  57.2919002 125.5608638 122.0792322
  57.8863493 125.3204374 121.3685630  57.3645586 124.8415769 122.7065858
  51.4772931 130.3389034 117.5214332  51.4208133 130.7957585 116.6821965
  52.0301274 129.5779719 117.3437175  55.2877737 126.1278766 118.3464452
  55.0314671 125.7275402 119.1772659  54.6630605 126.8422560 118.2214591
  59.5990075 128.8674839 120.8535743  59.0389633 128.9368028 121.6267305
  58.9933578 128.6915824 120.1335239  52.5561818 135.0261702 113.4510522
  53.3907422 134.5942900 113.2687997  52.3946161 134.8543716 114.3787416
  52.2107711 131.5293815 114.8166861  52.1556514 131.3638087 113.8755305
  51.5853766 132.2369848 114.9729051  45.5203836 121.0301924 114.3952180
  45.5082506 121.9743764 114.5520451  46.4127258 120.8472070 114.1011641
  49.3355956 117.6244701 118.6498117  48.5688351 117.0703188 118.7954799
  49.7466661 117.6966570 119.5112268  55.9928754 136.3236037 118.6724659
  55.3393167 136.0085054 118.0481274  55.9509229 135.7011778 119.3984482
  58.2531429 136.8047753 117.1204733  57.4432157 136.4594838 117.4959979
  58.9415846 136.4955297 117.7092344  56.3597591 136.3593842 114.3952180
  56.3476260 137.3035682 114.5520451  57.2521012 136.1763987 114.1011641
  60.1749710 132.9536619 118.6498117  59.4082106 132.3995105 118.7954799
  60.5860415 133.0258487 119.5112268   0.8393676  35.3748645 103.0347098
   1.3645000  35.7135918 102.3096418   0.7516029  34.4395660 102.8510232
   6.9877322  45.9033887 110.2711005   7.6255732  45.7840635 109.5674345
   6.8698165  46.8514731 110.3298958   3.7967029  45.8561315 110.2072530
   3.4585540  45.7402380 109.3193065   4.6656797  45.4552480 110.1873536
   5.2353403  51.3767759 101.5083886   4.5841383  51.9621840 101.1217900
   6.0297766  51.9073954 101.5678923   1.9250280  47.1710127 111.7039279
   2.5213852  46.9466150 110.9896242   1.9825251  46.4294873 112.3064727
   1.4975308  44.6249563  99.5389470   1.7500829  44.1031084  98.7772933
   0.5599867  44.4615708  99.6416154   6.5418591  43.6285341 107.3464213
   7.3281680  43.2104764 106.9954630   6.8057295  44.5331433 107.5145862
   6.7128668  49.0658191 102.0452870   6.0774501  49.1392818 102.7573775
   6.3826075  49.6551790 101.3671950  11.9427018  43.5660574 108.2497192
  12.6752190  42.9959791 108.4835021  11.1866374  43.1782175 108.6903698
   1.2171597  46.5277669 101.7413845   1.1007855  45.8522572 102.4094929
   1.3273857  46.0410043 100.9245998   3.5603138  45.9887816 105.4460534
   3.1961345  45.4618437 106.1573456   4.4170254  45.5986285 105.2727020
   3.2008625  41.0177715 100.4421883   3.3683027  41.8857952 100.8092354
   3.0105794  41.1804997  99.5183172   5.9583958  49.4794694 112.1087713
   5.6584681  50.3819733 112.0003521   5.6135017  49.2126878 112.9608866
   9.3581102  41.9977235 109.7885151   8.4497979  41.9292643 109.4943912
   9.3068697  42.4749180 110.6166976   3.1797846  43.4735373 101.4268550
   3.0597471  43.9192424 102.2654030   2.4850434  43.8220691 100.8682088
  11.2242748  40.1993673 111.5663025  10.5817128  40.4926206 110.9202819
  10.7197677  40.0846593 112.3716221   8.8782912  43.9456846 102.2548884
   9.7900768  44.1784233 102.0796581   8.3692559  44.5293890 101.6923962
   7.4852494  48.9282665 109.6462465   6.8561356  49.0928379 108.9438533
   7.0978156  49.3424274 110.4173429  11.3641726  49.8637102 107.0006829
  10.6792764  50.2436004 106.4503862  11.4485575  50.4732429 107.7338777
   8.6192658  47.5097062 113.6002173   8.8309553  48.1528821 112.9236554
   8.5722406  46.6759378 113.1324103   3.0380456  48.6657073 106.9112550
   3.5018801  48.9444776 106.1217173   2.7737254  47.7640517 106.7285641
   1.9749342  44.7880225 103.7202115   2.6773385  45.2401269 104.1876042
   1.6429970  44.1464044 104.3482009   9.7338485  50.3869017 111.7724530
  10.5555929  49.9849204 111.4907212   9.7300888  50.2837251 112.7240646
   3.4995089  49.9353060 113.9285240   3.5639521  50.3973467 114.7643412
   2.7906013  49.3050425 114.0567550  17.8244479  46.7307765 108.1209501
  17.0708187  46.1615163 107.9653506  17.9592020  46.6970430 109.0680136
   3.2143107  51.6021168 103.7964221   3.0788781  52.4472703 104.2249069
   3.7552919  51.8040445 103.0330155   6.9392821  52.5047534 115.9545964
   6.9211296  53.3256415 115.4626233   7.8612741  52.3801609 116.1796105
   6.5285853  45.1160341 100.8335549   6.0132476  45.8864945 101.0723937
   6.2563161  44.4425477 101.4568611   4.1132964  39.9610041 105.8920788
   3.2574560  39.5716892 105.7126426   4.5259916  40.0402002 105.0320573
  11.5020127  47.8692695 102.7688723  10.7249570  47.5303855 102.3243885
  12.1811608  47.8745319 102.0943688   6.3172156  42.9887433 102.6595330
   6.0122292  43.3033582 103.5105474   7.2702598  43.0668853 102.7022663
   4.7618588  49.1477656 104.3088284   4.2339949  48.4130416 103.9961522
   4.2606091  49.9252332 104.0628253   9.7411434  47.3426677 109.4255331
   9.0835108  48.0325938 109.5135459  10.5451833  47.7323109 109.7689317
   8.5516893  45.6971049 107.4759272   9.0648774  46.3301041 107.9780982
   9.2018117  45.0972245 107.1102633   1.7959983  36.6838571 105.3969965
   1.1424396  36.3687588 104.7726580   1.7540457  36.0614312 106.1229788
   2.9071188  46.9657866  97.3123257   1.9998250  46.7347120  97.5114406
   3.4042220  46.1695486  97.4997239   5.8139267  55.6755374 100.2319944
   5.1400966  55.9787070 100.8404901   6.2005089  56.4784454  99.8825401
   5.0297724  43.1720505 109.7217613   4.1120285  43.3935452 109.5639301
   5.4457867  43.2466815 108.8629320   5.8132771  44.5711921 104.8520293
   6.5604590  45.0833318 104.5427415   6.0824361  44.2495973 105.7124687
   4.0859422  47.0670461 101.8347248   3.1770641  46.7829494 101.9319717
   4.1154505  47.4869540 100.9750554   9.3178689  50.6777051 105.6038415
   8.8641016  49.8367961 105.6603606   8.6872656  51.3138449 105.9413195
   8.2611608  41.6069037 106.8339083   7.5234365  41.0946423 107.1649325
   8.5138382  41.1669418 106.0222359   7.7611628  52.5153547 106.5388233
   8.0534603  53.0758605 105.8200599   8.2710249  52.8082108 107.2941392
   8.3623236  34.3845289 107.4280852   8.6682113  33.5242652 107.1406767
   9.0875841  34.9762909 107.2279846   2.6344316  44.6799082 107.9357043
   2.6892925  43.7272918 107.8599520   1.8235518  44.8358521 108.4198341
   3.7835509  48.6079205  99.1735326   3.3454939  47.8915064  98.7140963
   4.5245950  48.8355320  98.6120418   2.7245253  53.2933899 107.6281686
   2.6821432  53.5194745 106.6990218   3.6407952  53.0597273 107.7767488
  11.9008624  46.8836402 105.2311645  11.7626523  47.0737998 104.3032834
  11.5444843  47.6455785 105.6879696  11.9278004  48.9512929 110.2422916
  12.3614510  48.8588218 111.0905970  12.6409584  48.9270429 109.6042932
   5.6605899  52.5515023 111.7756017   5.7142921  53.1205959 112.5433733
   4.7920680  52.7216908 111.4110054  12.7893553  48.9936630 112.7755802
  12.9829443  49.8982440 113.0215077  12.6894171  48.5344049 113.6094387
   4.6193998  46.7175285 113.3342949   5.5486058  46.8686445 113.1611916
   4.1985028  46.8059306 112.4791595   3.4182330  50.7425950 111.1041486
   3.2793416  50.3744734 111.9767424   2.6296926  51.2573589 110.9325444
   4.0130482  55.8435046 102.4467023   4.1882238  55.3723089 103.2612646
   3.3263270  56.4700812 102.6748284   4.9687545  50.1207552 108.4930324
   4.6337378  50.0808322 109.3887974   4.4691491  49.4552268 108.0200734
   7.9046737  47.4663587  98.7667384   7.2875908  46.7410415  98.6700436
   7.4363225  48.2272947  98.4234458   9.5600869  52.1762495 116.4273164
   9.5013415  51.4921715 115.7603747   9.9620387  52.9181485 115.9753790
   9.5618276  50.1402079 114.6587144   8.6745055  49.8028001 114.7813543
  10.1316827  49.4085110 114.8955909   3.0919429  54.8003531 111.6248387
   3.0189601  55.6058503 112.1367692   2.6496822  54.9995497 110.7996408
   2.8809209  54.0375301 105.1351209   2.0976731  54.5796981 105.2289433
   3.5801954  54.5549281 105.5345450   6.1905859  39.8469931 107.7785414
   6.6874559  39.0939893 107.4586484   5.4192840  39.8834247 107.2128623
  14.0435616  45.5510296 109.4203705  14.0325493  46.4335012 109.0497639
  13.1752996  45.1981847 109.2258242   5.5518113  54.6990365 113.7806546
   6.2646085  55.3337830 113.7082447   5.0608141  54.7954231 112.9646547
   7.2735640  48.6041618 105.3523837   6.3391918  48.7243080 105.1828542
   7.4512308  47.7014085 105.0883847   2.7740828  41.9887314 107.5057099
   2.4038615  41.4358354 108.1938004   3.2699920  41.3845447 106.9532099
  10.6608191  44.4458937 105.8873871  11.1268643  45.2786929 105.8134174
  11.1115692  43.9803919 106.5919130   8.7284422  50.7902758 102.8860023
   9.0044266  50.6759353 103.7953898   7.8588921  50.3920243 102.8472197
   8.4031312  45.0029416 112.4264667   7.7502763  45.2505324 111.7717120
   8.7811692  44.1893554 112.0927144   5.3638486  55.0389109 106.5292837
   5.5460881  54.2210765 106.9920589   6.1871472  55.2556802 106.0917727
   5.6980652  53.9657294 103.7907886   6.2268418  53.4549749 103.1778048
   5.9608871  53.6499825 104.6553419   3.1941668  57.0516155 113.1488320
   3.7459976  57.2147776 113.9137405   3.5347862  57.6420592 112.4768345
   6.3310055  54.9998130 110.1352002   6.2061195  54.1987870 109.6262948
   6.9889147  55.4944324 109.6465972   8.3944964  52.8007150 111.7631552
   7.4475299  52.6812501 111.6909879   8.7427737  51.9129648 111.8457814
   5.3991397  52.5959866 107.9635904   5.2516360  51.6676574 108.1443474
   6.2244891  52.6179957 107.4792980   9.0025519  53.4188425 109.0500777
   9.9272066  53.2131287 108.9125228   8.8340822  53.1704826 109.9590119
   1.2521789  39.7452555 102.0209689   1.9730151  40.1233808 101.5173406
   0.6287093  40.4641432 102.1244667   5.3952911  40.4497704 102.9568022
   5.6116526  41.3322342 102.6556850   4.9146979  40.0583918 102.2273664
   8.7920835  53.9374093 104.4062869   8.9657713  53.3720515 103.6536721
   9.2849726  54.7374988 104.2242359   1.3985412  39.2800346 104.8507226
   1.5201323  38.3516992 105.0498113   1.1087454  39.2939032 103.9385541
  14.6460226  46.7010516 106.0253168  15.0891372  45.9517841 105.6272292
  13.7686737  46.6920652 105.6426900   9.7796008  53.2540857 101.5059767
  10.4746912  53.8747550 101.7247081  10.1219158  52.4036208 101.7812145
  11.6787431  50.7040563 103.0347098  12.2038755  51.0427835 102.3096418
  11.5909783  49.7687578 102.8510232   3.3407479  54.6174636 115.1636974
   3.6494606  54.3723783 116.0359674   4.1382962  54.8221275 114.6755844
   3.3628092  56.7712546 107.3942351   2.9233082  56.2788925 108.0875208
   4.1136208  56.2285514 107.1534426  11.3681337  51.3373466 118.3398296
  10.5776881  51.3197605 117.8002795  11.1314691  51.8761760 119.0947332
  11.4879212  48.1865933 115.6531024  11.5377217  48.0215940 116.5946547
  11.3793135  47.3193192 115.2628905  12.9897409  50.6062874 115.8973046
  12.6982217  50.9692855 116.7336507  12.3769540  49.8929882 115.7186378
  14.1893091  48.1715754 108.4175616  15.0239982  48.6105558 108.5813176
  14.3252220  47.6954407 107.5983862  11.2384597  45.7295489 114.3653104
  11.7138719  45.9223135 113.5571955  10.3150162  45.7854675 114.1196487
   3.8710876  53.3602609 100.4134860   3.2984843  53.9792796  99.9605332
   4.4443670  53.9101970 100.9474782   9.9386266  42.6061249 112.5981409
  10.8903689  42.7059347 112.6193633   9.7689716  41.8139517 113.1079494
   7.0908136  53.6439759 101.5443443   8.0238809  53.5785321 101.7476318
   7.0031349  54.4796026 101.0857975   9.7196153  52.9605629  98.5047390
   9.6409784  52.6265493  99.3983148  10.5405819  53.4527397  98.5038863
  12.4174344  45.8267369 111.7123709  12.3850664  44.8883369 111.8983393
  13.0274967  45.9051405 110.9789534   4.2557675  44.6963422  97.7550913
   5.2016779  44.5669630  97.8239331   3.8771920  43.9578083  98.2320341
  12.5668832  42.6178412 111.7581992  12.0507881  41.8336869 111.5711921
  13.4508781  42.2897129 111.9228512  10.2279559  36.3619428 107.7177805
  10.0304380  36.0534516 108.6021137  10.8379265  37.0881066 107.8475735
  18.2350894  46.8883375 110.8529746  18.9654282  46.6268664 111.4137449
  17.6257839  46.1512097 110.8931814  16.3166191  45.0291238 111.4504197
  15.5899354  44.8947203 110.8420688  15.9013478  45.3368067 112.2560915
   2.4400592  42.6213398  97.6905798   1.5332047  42.3246511  97.7668512
   2.7176573  42.3243216  96.8240084   4.0562658  37.1650288 103.8450039
   3.2463386  36.8197373 104.2205286   4.7447074  36.8557831 104.4337651
   5.9853206  36.2428334 105.4674336   6.5384244  36.6623788 106.1264359
   6.2223292  35.3164083 105.5097292   1.2099376  39.4800333  97.8317777
   2.0718540  39.8055231  98.0913595   1.3949721  38.6931829  97.3190843
   9.3632013  38.3528860 104.9753000   8.7830682  39.0113664 104.5931053
   9.0967946  37.5306204 104.5640418   7.8135579  37.7533917 107.1774321
   8.3135358  37.8650452 106.3688640   8.4571187  37.4494970 107.8175129
   8.1456891  40.5128950 104.0309349   7.2582746  40.7978601 103.8129543
   8.5610880  40.3522713 103.1836626  11.4971427  40.5375471 107.7463688
  12.2731817  41.0271923 108.0188305  10.7719561  40.9633525 108.2035557
  13.9343986  41.2503090 108.8037628  14.5288476  41.0098826 108.0930937
  14.0070569  40.5310221 109.4311165   7.2900104  50.2773625  98.1257369
   7.9935954  50.4823627  98.7415024   6.5662753  50.8450387  98.3906452
   8.1197915  46.0283486 104.2459639   8.0633116  46.4852037 103.4067271
   8.6726257  45.2674170 104.0682482  11.9302721  41.8173218 105.0709758
  11.6739655  41.4169853 105.9017966  11.3055589  42.5317012 104.9459897
  16.2415058  44.5569291 107.5781050  15.6814616  44.6262480 108.3512612
  15.6358562  44.3810276 106.8580546   9.1986802  50.7156154 100.1755829
  10.0332406  50.2837352  99.9933303   9.0371145  50.5438168 101.1032723
   8.8532694  47.2188267 101.5412168   8.7981498  47.0532539 100.6000612
   8.2278749  47.9264300 101.6974358   2.1628819  36.7196376 101.1197486
   2.1507489  37.6638216 101.2765757   3.0552241  36.5366522 100.8256948
   2.0918383  55.3965267 109.2065243   1.1414014  55.3967128 109.0929615
   2.3950870  54.6498001 108.6901278   5.9780939  33.3139153 105.3743423
   5.2113335  32.7597639 105.5200106   6.3891644  33.3861022 106.2357575
  17.8271077  61.2325805 110.2711005  18.4649487  61.1132552 109.5674345
  17.7091920  62.1806649 110.3298958  14.6360783  61.1853233 110.2072530
  14.2979295  61.0694298 109.3193065  15.5050551  60.7844398 110.1873536
  10.4947599  63.0388709 106.1969421   9.9312464  62.9478646 105.4285709
  10.3799994  62.2188614 106.6771914  15.1180566  62.3388085 116.1658736
  15.1069207  61.9440883 115.2939239  15.2801206  61.6054157 116.7592507
   8.0412031  64.5339901 109.0353642   8.8333323  64.1930726 108.6199941
   8.2808681  64.6434876 109.9555795  16.0747158  66.7059677 101.5083886
  15.4235137  67.2913758 101.1217900  16.8691520  67.2365872 101.5678923
  10.0002785  63.7948814 101.9071020  10.7733661  63.2477801 101.7683896
  10.3528184  64.6593064 102.1185482  11.8387827  65.1225197 115.1137920
  11.5477693  66.0270827 114.9984586  12.4744812  65.1641724 115.8281989
  12.7644034  62.5002045 111.7039279  13.3607606  62.2758067 110.9896242
  12.8219006  61.7586791 112.3064727  12.3369063  59.9541480  99.5389470
  12.5894583  59.4323002  98.7772933  11.3993622  59.7907626  99.6416154
  17.3812345  58.9577259 107.3464213  18.1675435  58.5396682 106.9954630
  17.6451050  59.8623351 107.5145862  17.5522423  64.3950109 102.0452870
  16.9168256  64.4684736 102.7573775  17.2219829  64.9843708 101.3671950
  22.7820772  58.8952492 108.2497192  23.5145944  58.3251709 108.4835021
  22.0260128  58.5074092 108.6903698  12.0565351  61.8569586 101.7413845
  11.9401609  61.1814490 102.4094929  12.1667611  61.3701960 100.9245998
  14.3996892  61.3179733 105.4460534  14.0355099  60.7910354 106.1573456
  15.2564008  60.9278203 105.2727020  20.3046193  52.6074066 112.7091801
  19.9729518  53.4769477 112.4853016  19.7091806  52.2910350 113.3885831
  14.0402379  56.3469633 100.4421883  14.2076782  57.2149870 100.8092354
  13.8499548  56.5096915  99.5183172  16.7977712  64.8086612 112.1087713
  16.4978435  65.7111651 112.0003521  16.4528772  64.5418795 112.9608866
  10.2490194  61.2600409 108.1424418   9.3240690  61.1276623 108.3502109
  10.4974607  62.0394628 108.6394360  20.1974856  57.3269152 109.7885151
  19.2891733  57.2584561 109.4943912  20.1462452  57.8041097 110.6166976
  14.0191600  58.8027291 101.4268550  13.8991225  59.2484341 102.2654030
  13.3244188  59.1512608 100.8682088   7.6099005  60.9033682 108.9768207
   7.7391386  61.1568161 109.8907618   6.9296456  61.4961390 108.6572862
  11.7798492  71.5730932 105.0758681  11.7022522  72.5238758 105.1547162
  11.1760136  71.2276805 105.7333607  14.2715722  58.7458798 117.7320048
  13.4949056  59.3052718 117.7222913  14.9106285  59.2315581 118.2534918
  22.0636503  55.5285591 111.5663025  21.4210883  55.8218124 110.9202819
  21.5591431  55.4138511 112.3716221  19.7176666  59.2748764 102.2548884
  20.6294522  59.5076151 102.0796581  19.2086313  59.8585808 101.6923962
  12.5262094  61.5544251 117.2938015  13.2676779  62.0929295 117.0172839
  11.8199080  62.1810540 117.4509567  18.0017434  63.6973392 115.8910176
  18.4100790  63.2555802 115.1464809  17.2794695  63.1226019 116.1444369
  14.3548504  58.6345998 113.2643733  15.2009699  59.0585412 113.4078382
  14.2947142  57.9779623 113.9582296  18.3246249  64.2574582 109.6462465
  17.6955111  64.4220296 108.9438533  17.9371911  64.6716192 110.4173429
  22.2035480  65.1929020 107.0006829  21.5186519  65.5727922 106.4503862
  22.2879330  65.8024347 107.7338777  17.5047949  56.2950367 114.9224907
  17.2608881  57.0492427 114.3859183  17.7807880  56.6735714 115.7572154
  19.4586412  62.8388979 113.6002173  19.6703307  63.4820739 112.9236554
  19.4116160  62.0051296 113.1324103  17.0612641  55.4506800 110.5038745
  16.1997120  55.7488053 110.7955482  17.0875076  55.6677199 109.5719777
  13.8774210  63.9948990 106.9112550  14.3412556  64.2736693 106.1217173
  13.6131009  63.0932435 106.7285641  10.7698291  63.5420472 109.8492314
  11.3399649  63.9707740 109.2109798  11.3606403  63.2603057 110.5476499
  12.8143096  60.1172143 103.7202115  13.5167140  60.5693186 104.1876042
  12.4823725  59.4755962 104.3482009  11.2623458  58.7083899 118.0953325
  10.6322119  59.3900180 118.3288722  11.1559546  58.5966981 117.1506463
   6.5568430  58.3755695 109.0219249   5.7667484  58.6313224 108.5459360
   7.0479678  59.1904033 109.1271290  20.5732240  65.7160935 111.7724530
  21.3949684  65.3141122 111.4907212  20.5694643  65.6129169 112.7240646
   8.5083176  58.7400275 105.9802726   7.7114339  58.8518969 106.4986221
   8.2808768  59.0786927 105.1143616  14.3388843  65.2644978 113.9285240
  14.4033276  65.7265385 114.7643412  13.6299767  64.6342343 114.0567550
   4.8406133  58.6286186 111.4534240   5.0914172  59.5133196 111.7191816
   5.3765682  58.4490787 110.6809332  28.6638233  62.0599683 108.1209501
  27.9101941  61.4907081 107.9653506  28.7985774  62.0262348 109.0680136
  14.0536861  66.9313085 103.7964221  13.9182536  67.7764621 104.2249069
  14.5946674  67.1332363 103.0330155   7.5066258  64.4488523 104.3692146
   8.0190779  65.2431774 104.5197710   8.1588971  63.7514814 104.3025747
   9.3161143  67.5654280 106.4514899   9.4927772  68.4872244 106.2635883
  10.1117977  67.2512699 106.8809279  13.4572162  54.4262544 118.0498832
  14.1981875  55.0269697 117.9703295  13.6890085  53.6840182 117.4916875
   8.6013500  59.6118912 116.3277062   8.4867015  58.7104169 116.6284161
   7.7458017  59.8582608 115.9761879  15.6805337  67.5536652 117.9264563
  15.2369192  66.7673030 117.6085467  16.3422551  67.7415802 117.2608454
  10.4392459  69.0832453 112.4525241  10.9899884  68.9549517 111.6802235
   9.6003935  69.3827343 112.1020134  17.7786576  67.8339452 115.9545964
  17.7605051  68.6548333 115.4626233  18.7006496  67.7093527 116.1796105
  14.2359630  65.3483581 116.7969472  14.7687966  64.5871869 116.5668780
  13.7073711  65.0557233 117.5393627  17.4029325  50.4543647 112.3263114
  17.0593594  51.3445289 112.2502225  17.7708287  50.2645305 111.4632699
   5.4715175  62.7777178 105.1451716   6.3090397  63.1874186 104.9285424
   5.6493443  61.8376620 105.1151910  17.3679607  60.4452258 100.8335549
  16.8526231  61.2156863 101.0723937  17.0956916  59.7717395 101.4568611
  14.9526718  55.2901959 105.8920788  14.0968315  54.9008810 105.7126426
  15.3653670  55.3693920 105.0320573  16.4825865  52.8248302 110.2912347
  15.9790661  52.7878438 109.4780153  16.7756472  53.7341045 110.3509004
  12.7268751  52.9087032 109.2978529  13.5921748  52.7129841 108.9384419
  12.7946260  52.6797384 110.2247886  22.3413881  63.1984613 102.7688723
  21.5643324  62.8595773 102.3243885  23.0205362  63.2037236 102.0943688
  17.1565911  58.3179350 102.6595330  16.8516046  58.6325500 103.5105474
  18.1096353  58.3960770 102.7022663  15.6012342  64.4769574 104.3088284
  15.0733704  63.7422333 103.9961522  15.0999845  65.2544250 104.0628253
  20.5805188  62.6718594 109.4255331  19.9228863  63.3617856 109.5135459
  21.3845588  63.0615026 109.7689317  10.3331070  55.1389240 106.6694896
  10.9074822  54.9164422 105.9368089  10.9202052  55.2077935 107.4223497
  19.3910647  61.0262967 107.4759272  19.9042529  61.6592959 107.9780982
  20.0411871  60.4264162 107.1102633  10.6600657  57.1693701 100.6890781
   9.8237969  57.5068388 101.0100056  10.5205427  57.0342681  99.7517918
  12.6353738  52.0130489 105.3969965  11.9818150  51.6979506 104.7726580
  12.5934212  51.3906229 106.1229788  13.7464943  62.2949784  97.3123257
  12.8392004  62.0639038  97.5114406  14.2435975  61.4987403  97.4997239
  16.6533021  71.0047291 100.2319944  15.9794720  71.3078988 100.8404901
  17.0398843  71.8076372  99.8825401  15.8691478  58.5012423 109.7217613
  14.9514039  58.7227370 109.5639301  16.2851622  58.5758733 108.8629320
  16.6526526  59.9003838 104.8520293  17.3998345  60.4125235 104.5427415
  16.9218115  59.5787891 105.7124687  14.9253176  62.3962379 101.8347248
  14.0164395  62.1121412 101.9319717  14.9548260  62.8161457 100.9750554
  20.1572443  66.0068968 105.6038415  19.7034771  65.1659878 105.6603606
  19.5266410  66.6430367 105.9413195  19.1005363  56.9360954 106.8339083
  18.3628120  56.4238341 107.1649325  19.3532137  56.4961336 106.0222359
  18.6005383  67.8445465 106.5388233  18.8928357  68.4050522 105.8200599
  19.1104003  68.1374026 107.2941392  19.2016990  49.7137206 107.4280852
  19.5075867  48.8534570 107.1406767  19.9269595  50.3054827 107.2279846
   5.4941346  60.1167893 105.8162450   5.2965746  59.5237254 105.0913516
   4.9388010  59.8120103 106.5338389  13.4738070  60.0091000 107.9357043
  13.5286680  59.0564836 107.8599520  12.6629272  60.1650439 108.4198341
  14.6229264  63.9371123  99.1735326  14.1848694  63.2206982  98.7140963
  15.3639705  64.1647237  98.6120418  11.4130430  58.6268059 105.6947422
  10.5998296  58.9262230 106.1012614  11.9089424  58.2323748 106.4121904
  13.5639008  68.6225816 107.6281686  13.5215187  68.8486663 106.6990218
  14.4801707  68.3889191 107.7767488  17.0104642  59.0909884 114.5262316
  17.3654029  59.3181357 115.3856781  17.6576773  59.4228261 113.9039571
  22.7402379  62.2128320 105.2311645  22.6020277  62.4029916 104.3032834
  22.3838597  62.9747702 105.6879696  10.9044505  56.1986415 111.3108657
  11.5443884  56.0575174 110.6131620  10.0722035  55.9120928 110.9347259
  22.7671758  64.2804847 110.2422916  23.2008265  64.1880136 111.0905970
  23.4803339  64.2562347 109.6042932  11.6804809  65.4988845 107.4243649
  12.4745407  65.0039165 107.2226224  10.9696501  64.9706708 107.0611355
  16.4999653  67.8806941 111.7756017  16.5536675  68.4497877 112.5433733
  15.6314434  68.0508826 111.4110054   7.9887572  59.6431927 103.5003402
   7.0585160  59.5816382 103.7173364   8.0845044  59.1207880 102.7040043
   7.9073121  56.1686740 106.0881644   8.1679938  57.0832073 105.9790804
   8.7290293  55.7011182 106.2378256   9.3798046  57.5824497 113.2580468
  10.0521100  57.3741859 112.6093117   8.5527833  57.3846583 112.8185700
  23.6287308  64.3228547 112.7755802  23.8223198  65.2274358 113.0215077
  23.5287926  63.8635966 113.6094387  15.2823618  54.2086438 115.2746129
  14.6351534  54.9076388 115.1810605  16.0524634  54.6422582 115.6422377
  18.6902416  64.4735290 118.3496682  18.5387923  64.2445842 117.4326766
  18.6807096  65.4305891 118.3628027  15.4587753  62.0467203 113.3342949
  16.3879813  62.1978362 113.1611916  15.0378783  62.1351224 112.4791595
  14.2576085  66.0717867 111.1041486  14.1187170  65.7036652 111.9767424
  13.4690681  66.5865507 110.9325444  14.8524237  71.1726964 102.4467023
  15.0275992  70.7015007 103.2612646  14.1657025  71.7992730 102.6748284
  15.8081300  65.4499470 108.4930324  15.4731132  65.4100240 109.3887974
  15.3085245  64.7844186 108.0200734   9.7825544  60.8567100 114.0182905
   9.6445342  60.1247339 114.6194444  10.6930467  60.7676000 113.7367093
  18.7440491  62.7955504  98.7667384  18.1269662  62.0702332  98.6700436
  18.2756980  63.5564865  98.4234458  12.4107844  60.5687059 113.5066585
  13.1207463  59.9280251 113.4653203  12.3677153  60.8199954 114.4292766
  20.3994623  67.5054413 116.4273164  20.3407169  66.8213633 115.7603747
  20.8014141  68.2473403 115.9753790  11.1236778  57.5552277 115.3262224
  10.5874135  57.1043016 115.9783821  10.5353487  57.6898186 114.5832689
   9.4185322  74.3216326 109.2206883   9.6581920  74.9534851 109.8985902
   8.5754518  73.9704366 109.5072242  10.5339037  57.0140929  97.8888688
   9.6568504  56.8929729  97.5250935  11.0096790  56.2227007  97.6367577
  20.4012030  65.4693997 114.6587144  19.5138809  65.1319918 114.7813543
  20.9710581  64.7377028 114.8955909   2.0541177  61.8018088 107.9830195
   2.7412217  61.4879818 107.3951210   1.8989306  62.7059453 107.7097447
   6.8575900  56.6908285 112.4115219   6.7734088  56.0833954 111.6765629
   6.0358606  57.1817303 112.4124715  13.9313184  70.1295449 111.6248387
  13.8583355  70.9350420 112.1367692  13.4890577  70.3287415 110.7996408
  13.7202963  69.3667219 105.1351209  12.9370485  69.9088899 105.2289433
  14.4195709  69.8841199 105.5345450  17.0299613  55.1761848 107.7785414
  17.5268313  54.4231811 107.4586484  16.2586595  55.2126165 107.2128623
  24.8829371  60.8802214 109.4203705  24.8719247  61.7626929 109.0497639
  24.0146750  60.5273765 109.2258242  16.3911867  70.0282283 113.7806546
  17.1039839  70.6629748 113.7082447  15.9001896  70.1246149 112.9646547
  18.1129394  63.9333536 105.3523837  17.1785673  64.0534998 105.1828542
  18.2906063  63.0306002 105.0883847  13.6134582  57.3179231 107.5057099
  13.2432370  56.7650272 108.1938004  14.1093675  56.7137365 106.9532099
  21.5001946  59.7750855 105.8873871  21.9662398  60.6078846 105.8134174
  21.9509446  59.3095836 106.5919130  11.4423781  67.7776726 114.6012116
  12.1433240  68.4113209 114.7541511  10.9718896  68.1191458 113.8407756
  19.5678177  66.1194676 102.8860023  19.8438021  66.0051271 103.7953898
  18.6982675  65.7212161 102.8472197  19.4718608  52.1431442 109.9264773
  18.5581688  52.3735669 110.0946980  19.9011710  52.2269886 110.7778805
  19.2425067  60.3321334 112.4264667  18.5896517  60.5797241 111.7717120
  19.6205447  59.5185472 112.0927144  16.2032241  70.3681027 106.5292837
  16.3854635  69.5502683 106.9920589  17.0265227  70.5848719 106.0917727
  16.5374406  69.2949212 103.7907886  17.0662173  68.7841667 103.1778048
  16.8002626  68.9791742 104.6553419  15.2912640  61.0741145 118.9130704
  14.6153277  60.9735274 119.5833079  16.1140274  60.9180359 119.3766701
   7.0391499  67.3113081 111.5343219   7.6244936  66.5656769 111.6671123
   6.8416337  67.6217038 112.4179883   9.8930154  70.3464329 106.5505662
   9.2240529  70.8310456 106.0669702   9.7543024  70.5933549 107.4649040
   1.6309154  59.8818682 110.2547662   1.6693253  59.3482272 111.0484780
   1.1249446  59.3553887 109.6358639  14.0335423  72.3808072 113.1488320
  14.5853731  72.5439694 113.9137405  14.3741616  72.9712510 112.4768345
   9.0099916  54.7283222 113.7510205   9.0741242  55.5898053 113.3387602
   8.9467036  54.1157224 113.0182563   8.4852188  56.8006355 117.3983239
   9.1124227  56.4183432 118.0120763   7.6280107  56.5820557 117.7638931
  18.8846297  67.2069330 119.0036974  19.4286201  67.8199288 118.5091929
  18.3033142  67.7648908 119.5203987   5.2617731  58.6082784 103.3301594
   5.5571172  57.6993462 103.2768647   4.3605767  58.5870523 103.0082596
  17.1703810  70.3290048 110.1352002  17.0454949  69.5279788 109.6262948
  17.8282901  70.8236241 109.6465972   8.7911978  56.6838780 109.3129142
   8.0698564  57.2974748 109.1736616   9.5805234  57.2196545 109.2345788
  19.2338718  68.1299068 111.7631552  18.2869054  68.0104419 111.6909879
  19.5821491  67.2421566 111.8457814  11.5938292  54.0193207 115.5869794
  12.1172694  54.2655503 116.3496103  11.3750625  54.8513242 115.1672931
   6.9905573  56.2896881 103.4540919   6.6618279  55.4094260 103.2716025
   7.3444943  56.2344550 104.3417308  16.2385152  67.9251784 107.9635904
  16.0910114  66.9968492 108.1443474  17.0638645  67.9471875 107.4792980
  10.1047396  56.5769851 103.8216397  10.4443468  57.1055772 103.0995005
  10.5519516  56.9150257 104.5974963  19.8419273  68.7480343 109.0500777
  20.7665821  68.5423204 108.9125228  19.6734577  68.4996744 109.9590119
  12.7990837  54.9606902 113.2719465  12.4587657  54.1614715 113.6740144
  12.0929843  55.2608613 112.6996298  13.4507309  52.0456214 111.7246788
  14.2733378  51.5716693 111.6025678  13.6945372  52.8246698 112.2245474
  12.0915543  55.0744473 102.0209689  12.8123906  55.4525726 101.5173406
  11.4680847  55.7933350 102.1244667  16.2346666  55.7789622 102.9568022
  16.4510280  56.6614260 102.6556850  15.7540733  55.3875835 102.2273664
  10.9745887  58.7375335 109.5338766  10.8290468  59.0515638 110.4263048
  10.4971091  59.3560235 108.9809665  12.8342270  55.7277883 109.5819656
  12.8203839  54.8318976 109.2451954  13.5514698  55.7348547 110.2157942
  14.6868401  56.1615223 111.6272783  14.4286179  57.0832294 111.6257114
  14.1553441  55.7645658 112.3173247  19.6314590  69.2666010 104.4062869
  19.8051467  68.7012433 103.6536721  20.1243481  70.0666905 104.2242359
   5.4491549  61.2780679 112.4726427   4.9045018  62.0540487 112.6046702
   6.3270899  61.6251484 112.3145549  12.2379166  54.6092263 104.8507226
  12.3595077  53.6808909 105.0498113  11.9481209  54.6230949 103.9385541
  15.1070357  52.2947174 107.9873946  15.1292053  52.3586507 107.0325925
  15.5238416  51.4551682 108.1814452  25.4853981  62.0302433 106.0253168
  25.9285127  61.2809758 105.6272292  24.6080491  62.0212570 105.6426900
  20.6189762  68.5832775 101.5059767  21.3140667  69.2039467 101.7247081
  20.9612912  67.7328126 101.7812145   6.2357571  60.4050576 115.3656584
   5.4939307  60.5533211 115.9521215   5.9150316  60.6658841 114.5023334
  22.5181185  66.0332480 103.0347098  23.0432509  66.3719753 102.3096418
  22.4303538  65.0979496 102.8510232  14.1801234  69.9466554 115.1636974
  14.4888360  69.7015701 116.0359674  14.9776716  70.1513192 114.6755844
  14.2021846  72.1004464 107.3942351  13.7626836  71.6080842 108.0875208
  14.9529963  71.5577431 107.1534426   6.6814185  68.2916004 107.3966979
   7.5072205  67.9919776 107.0165622   6.3308237  67.5223627 107.8456768
  11.6495718  67.6442473 109.4664652  11.0275727  66.9813178 109.1666880
  12.3200585  67.6703605 108.7838300   4.8822790  66.2102331 108.3555912
   4.0454698  65.7824505 108.1739914   4.8546435  66.4034774 109.2926704
  11.7220246  56.1224261 119.0597159  11.7708401  56.9986383 118.6774928
  12.2642760  55.5801654 118.4868802  22.2075091  66.6665384 118.3398296
  21.4170635  66.6489523 117.8002795  21.9708446  67.2053678 119.0947332
  22.3272966  63.5157850 115.6531024  22.3770971  63.3507858 116.5946547
  22.2186890  62.6485109 115.2628905  11.2109225  66.1946396 102.9423113
  11.3597345  66.8781860 102.2889786  12.0175669  66.1751486 103.4572569
  19.6176729  59.4988778 116.9690331  20.5186592  59.3595243 116.6774329
  19.6924703  59.6643233 117.9088508  13.9519534  56.8755633 115.8143517
  13.0822844  57.1689199 115.5426106  14.1879014  57.4596078 116.5350781
  23.8291163  65.9354792 115.8973046  23.5375972  66.2984772 116.7336507
  23.2163295  65.2221800 115.7186378  25.0286846  63.5007672 108.4175616
  25.8633737  63.9397476 108.5813176  25.1645974  63.0246325 107.5983862
  22.0778351  61.0587406 114.3653104  22.5532473  61.2515053 113.5571955
  21.1543917  61.1146592 114.1196487   8.9661858  62.2211574 103.9484182
   8.7207900  61.3173904 104.1464392   9.1357773  62.2228724 103.0063660
  16.6558568  53.0935250 113.3308938  17.1740512  53.8296277 113.0055426
  16.3013701  53.3999243 114.1655697   8.2357506  57.9539931 101.4470343
   7.5426751  58.0284286 100.7910379   7.9909258  57.1900275 101.9691860
  16.9071162  49.5135533 108.8509834  17.1872916  48.8458722 109.4770261
  17.6921769  49.7064628 108.3384498  14.7104631  68.6894526 100.4134860
  14.1378598  69.3084714  99.9605332  15.2837424  69.2393888 100.9474782
  20.7780020  57.9353167 112.5981409  21.7297443  58.0351264 112.6193633
  20.6083471  57.1431435 113.1079494  18.7994400  55.0208750 112.7840810
  18.2044332  55.3013762 112.0887299  18.5144097  55.5102651 113.5557551
  17.9301890  68.9731677 101.5443443  18.8632564  68.9077238 101.7476318
  17.8425103  69.8087943 101.0857975  20.5589907  68.2897547  98.5047390
  20.4803539  67.9557411  99.3983148  21.3799574  68.7819315  98.5038863
  23.2568098  61.1559286 111.7123709  23.2244418  60.2175287 111.8983393
  23.8668722  61.2343323 110.9789534  15.0951429  60.0255339  97.7550913
  16.0410534  59.8961547  97.8239331  14.7165674  59.2870001  98.2320341
  23.4062587  57.9470330 111.7581992  22.8901635  57.1628786 111.5711921
  24.2902535  57.6189046 111.9228512  21.0673314  51.6911345 107.7177805
  20.8698135  51.3826433 108.6021137  21.6773019  52.4172984 107.8475735
  29.0744648  62.2175293 110.8529746  29.8048037  61.9560581 111.4137449
  28.4651594  61.4804015 110.8931814  27.1559945  60.3583156 111.4504197
  26.4293109  60.2239121 110.8420688  26.7407232  60.6659984 112.2560915
  14.9790122  64.0773085 119.2151570  15.8993131  64.2551684 119.4091616
  14.9439705  63.1329131 119.0631269  13.2794346  57.9505316  97.6905798
  12.3725802  57.6538428  97.7668512  13.5570327  57.6535134  96.8240084
   4.1972287  59.2711679 108.1404845   3.8775071  58.4176987 107.8479219
   3.6505715  59.4860257 108.8962812   7.9752194  61.9874120 111.8574351
   8.1938204  62.9191228 111.8762385   8.3877968  61.6282094 112.6429155
  14.8956412  52.4942205 103.8450039  14.0857140  52.1489290 104.2205286
  15.5840829  52.1849749 104.4337651  16.8246960  51.5720252 105.4674336
  17.3777999  51.9915706 106.1264359  17.0617047  50.6456000 105.5097292
  12.8480060  57.5607326 121.2477100  12.7476786  58.5101683 121.1789191
  12.6301602  57.2325565 120.3753170  12.0493131  54.8092251  97.8317777
  12.9112295  55.1347149  98.0913595  12.2343475  54.0223747  97.3190843
   4.0660547  62.8914590 110.1097966   3.3724018  62.4768543 109.5967921
   4.8133538  62.9335127 109.5131385  20.2025767  53.6820777 104.9753000
  19.6224436  54.3405581 104.5931053  19.9361700  52.8598122 104.5640418
  18.6529334  53.0825835 107.1774321  19.1529112  53.1942369 106.3688640
  19.2964942  52.7786888 107.8175129  12.7111330  60.9904465 120.0642162
  12.2278411  61.7904825 120.2706051  12.7972269  61.0012409 119.1109606
   5.9797289  62.8232844 107.9863981   5.9567977  62.9220532 107.0345864
   6.2897926  63.6697995 108.3081147   8.6384667  64.8808999 112.1010595
   9.5927921  64.8492942 112.0340527   8.4397191  64.4199623 112.9160821
   9.2284049  63.4510115 114.6681393  10.0476938  63.9454194 114.6916230
   9.5020857  62.5342083 114.6398961  18.9850645  55.8420868 104.0309349
  18.0976500  56.1270518 103.8129543  19.4004634  55.6814631 103.1836626
  22.3365182  55.8667389 107.7463688  23.1125572  56.3563841 108.0188305
  21.6113316  56.2925443 108.2035557  24.7737740  56.5795008 108.8037628
  25.3682231  56.3390744 108.0930937  24.8464324  55.8602138 109.4311165
   6.9934896  70.4228619 109.1180793   6.8589364  69.6629020 108.5518791
   6.5766958  71.1469519 108.6509582  18.1293859  65.6065542  98.1257369
  18.8329709  65.8115545  98.7415024  17.4056508  66.1742304  98.3906452
  18.9591669  61.3575404 104.2459639  18.9026871  61.8143955 103.4067271
  19.5120012  60.5966088 104.0682482  22.7696475  57.1465135 105.0709758
  22.5133409  56.7461771 105.9017966  22.1449343  57.8608929 104.9459897
  27.0808813  59.8861209 107.5781050  26.5208371  59.9554398 108.3512612
  26.4752316  59.7102193 106.8580546  10.1504022  71.3197936 109.3299236
  10.0336406  72.2643368 109.2277926   9.3296468  71.0171497 109.7185035
  20.0380556  66.0448072 100.1755829  20.8726160  65.6129270  99.9933303
  19.8764899  65.8730085 101.1032723  19.6926448  62.5480185 101.5412168
  19.6375252  62.3824456 100.6000612  19.0672504  63.2556218 101.6974358
   4.4818963  57.7848249 115.3673590   5.1277827  57.2747203 115.8560815
   4.2736115  58.5216931 115.9417015  17.0072356  64.8529097 120.8665731
  17.8763515  65.0269749 120.5052366  16.5279107  65.6723513 120.7441460
  13.0022574  52.0488294 101.1197486  12.9901244  52.9930134 101.2765757
  13.8945996  51.8658439 100.8256948  11.1758536  71.9726198 112.5455164
  12.0785783  72.0049808 112.8621659  10.9495906  71.0426649 112.5601500
  12.9312138  70.7257184 109.2065243  11.9807769  70.7259046 109.0929615
  13.2344624  69.9789919 108.6901278  16.8174693  48.6431070 105.3743423
  16.0507089  48.0889557 105.5200106  17.2285398  48.7152939 106.2357575
  28.6664831  76.5617723 110.2711005  29.3043241  76.4424470 109.5674345
  28.5485674  77.5098567 110.3298958  25.4754538  76.5145151 110.2072530
  25.1373049  76.3986215 109.3193065  26.3444306  76.1136316 110.1873536
  21.3341353  78.3680627 106.1969421  20.7706218  78.2770564 105.4285709
  21.2193748  77.5480532 106.6771914  25.9574321  77.6680002 116.1658736
  25.9462961  77.2732801 115.2939239  26.1194960  76.9346075 116.7592507
  18.8805785  79.8631819 109.0353642  19.6727077  79.5222643 108.6199941
  19.1202435  79.9726794 109.9555795  26.9140912  82.0351595 101.5083886
  26.2628892  82.6205675 101.1217900  27.7085275  82.5657790 101.5678923
  20.8396539  79.1240732 101.9071020  21.6127415  78.5769719 101.7683896
  21.1921938  79.9884981 102.1185482  22.6781582  80.4517114 115.1137920
  22.3871448  81.3562745 114.9984586  23.3138566  80.4933642 115.8281989
  23.6037789  77.8293963 111.7039279  24.2001361  77.6049985 110.9896242
  23.6612760  77.0878708 112.3064727  23.1762817  75.2833398  99.5389470
  23.4288338  74.7614919  98.7772933  22.2387376  75.1199544  99.6416154
  28.2206100  74.2869176 107.3464213  29.0069189  73.8688600 106.9954630
  28.4844804  75.1915269 107.5145862  28.3916177  79.7242027 102.0452870
  27.7562010  79.7976653 102.7573775  28.0613584  80.3135626 101.3671950
  33.6214527  74.2244410 108.2497192  34.3539699  73.6543626 108.4835021
  32.8653883  73.8366010 108.6903698  22.8959106  77.1861504 101.7413845
  22.7795364  76.5106407 102.4094929  23.0061366  76.6993878 100.9245998
  25.2390647  76.6471651 105.4460534  24.8748854  76.1202272 106.1573456
  26.0957763  76.2570120 105.2727020  31.1439947  67.9365984 112.7091801
  30.8123272  68.8061395 112.4853016  30.5485561  67.6202268 113.3885831
  24.8796134  71.6761551 100.4421883  25.0470536  72.5441787 100.8092354
  24.6893303  71.8388833  99.5183172  27.6371467  80.1378530 112.1087713
  27.3372190  81.0403569 112.0003521  27.2922526  79.8710713 112.9608866
  21.0883948  76.5892327 108.1424418  20.1634445  76.4568541 108.3502109
  21.3368362  77.3686546 108.6394360  31.0368611  72.6561070 109.7885151
  30.1285488  72.5876478 109.4943912  30.9856206  73.1333015 110.6166976
  24.8585355  74.1319208 101.4268550  24.7384980  74.5776259 102.2654030
  24.1637943  74.4804526 100.8682088  18.4492759  76.2325600 108.9768207
  18.5785141  76.4860079 109.8907618  17.7690211  76.8253308 108.6572862
  22.6192247  86.9022850 105.0758681  22.5416276  87.8530675 105.1547162
  22.0153890  86.5568723 105.7333607  25.1109476  74.0750716 117.7320048
  24.3342810  74.6344636 117.7222913  25.7500039  74.5607499 118.2534918
  32.9030257  70.8577508 111.5663025  32.2604637  71.1510042 110.9202819
  32.3985186  70.7430429 112.3716221  30.5570421  74.6040682 102.2548884
  31.4688277  74.8368068 102.0796581  30.0480068  75.1877726 101.6923962
  23.3655849  76.8836169 117.2938015  24.1070533  77.4221213 117.0172839
  22.6592834  77.5102458 117.4509567  28.8411188  79.0265309 115.8910176
  29.2494544  78.5847720 115.1464809  28.1188450  78.4517937 116.1444369
  25.1942258  73.9637916 113.2643733  26.0403454  74.3877330 113.4078382
  25.1340896  73.3071540 113.9582296  29.1640003  79.5866500 109.6462465
  28.5348865  79.7512214 108.9438533  28.7765665  80.0008110 110.4173429
  33.0429235  80.5220938 107.0006829  32.3580273  80.9019839 106.4503862
  33.1273084  81.1316264 107.7338777  28.3441704  71.6242284 114.9224907
  28.1002636  72.3784345 114.3859183  28.6201634  72.0027632 115.7572154
  30.2980167  78.1680897 113.6002173  30.5097062  78.8112657 112.9236554
  30.2509915  77.3343213 113.1324103  27.9006395  70.7798718 110.5038745
  27.0390875  71.0779971 110.7955482  27.9268830  70.9969116 109.5719777
  24.7167965  79.3240908 106.9112550  25.1806310  79.6028611 106.1217173
  24.4524763  78.4224353 106.7285641  21.6092046  78.8712390 109.8492314
  22.1793403  79.2999658 109.2109798  22.2000158  78.5894974 110.5476499
  23.6536851  75.4464060 103.7202115  24.3560894  75.8985104 104.1876042
  23.3217479  74.8047879 104.3482009  22.1017212  74.0375817 118.0953325
  21.4715873  74.7192098 118.3288722  21.9953300  73.9258899 117.1506463
  17.3962185  73.7047613 109.0219249  16.6061239  73.9605142 108.5459360
  17.8873432  74.5195951 109.1271290  31.4125994  81.0452852 111.7724530
  32.2343438  80.6433040 111.4907212  31.4088397  80.9421086 112.7240646
  19.3476930  74.0692192 105.9802726  18.5508094  74.1810887 106.4986221
  19.1202522  74.4078845 105.1143616  25.1782598  80.5936896 113.9285240
  25.2427030  81.0557303 114.7643412  24.4693522  79.9634260 114.0567550
  15.6799888  73.9578104 111.4534240  15.9307926  74.8425113 111.7191816
  16.2159436  73.7782705 110.6809332  39.5031988  77.3891601 108.1209501
  38.7495696  76.8198999 107.9653506  39.6379529  77.3554265 109.0680136
  24.8930616  82.2605003 103.7964221  24.7576290  83.1056539 104.2249069
  25.4340428  82.4624281 103.0330155  21.3797955  68.3396583 120.4578576
  20.9864901  67.7862781 121.1326220  22.1964096  68.6507161 120.8485093
  18.3460013  79.7780441 104.3692146  18.8584534  80.5723691 104.5197710
  18.9982726  79.0806732 104.3025747  20.1554898  82.8946197 106.4514899
  20.3321526  83.8164162 106.2635883  20.9511731  82.5804617 106.8809279
  24.2965916  69.7554462 118.0498832  25.0375630  70.3561615 117.9703295
  24.5283839  69.0132100 117.4916875  19.4407254  74.9410829 116.3277062
  19.3260769  74.0396087 116.6284161  18.5851772  75.1874526 115.9761879
  26.5199092  82.8828570 117.9264563  26.0762946  82.0964948 117.6085467
  27.1816306  83.0707720 117.2608454  21.2786213  84.4124371 112.4525241
  21.8293638  84.2841435 111.6802235  20.4397689  84.7119260 112.1020134
  28.6180330  83.1631370 115.9545964  28.5998805  83.9840251 115.4626233
  29.5400250  83.0385445 116.1796105  25.0753384  80.6775499 116.7969472
  25.6081721  79.9163787 116.5668780  24.5467465  80.3849151 117.5393627
  28.2423079  65.7835565 112.3263114  27.8987349  66.6737207 112.2502225
  28.6102042  65.5937223 111.4632699  16.3108930  78.1069095 105.1451716
  17.1484152  78.5166104 104.9285424  16.4887197  77.1668538 105.1151910
  28.2073362  75.7744176 100.8335549  27.6919985  76.5448781 101.0723937
  27.9350670  75.1009312 101.4568611  25.7920473  70.6193877 105.8920788
  24.9362069  70.2300727 105.7126426  26.2047425  70.6985838 105.0320573
  27.3219620  68.1540220 110.2912347  26.8184415  68.1170355 109.4780153
  27.6150226  69.0632963 110.3509004  23.5662505  68.2378950 109.2978529
  24.4315502  68.0421759 108.9384419  23.6340014  68.0089302 110.2247886
  33.1807636  78.5276531 102.7688723  32.4037079  78.1887690 102.3243885
  33.8599117  78.5329154 102.0943688  27.9959665  73.6471268 102.6595330
  27.6909801  73.9617417 103.5105474  28.9490107  73.7252688 102.7022663
  26.4406097  79.8061491 104.3088284  25.9127458  79.0714251 103.9961522
  25.9393600  80.5836168 104.0628253  31.4198943  78.0010512 109.4255331
  30.7622617  78.6909773 109.5135459  32.2239342  78.3906944 109.7689317
  21.1724824  70.4681158 106.6694896  21.7468576  70.2456339 105.9368089
  21.7595807  70.5369852 107.4223497  30.2304402  76.3554885 107.4759272
  30.7436283  76.9884876 107.9780982  30.8805626  75.7556080 107.1102633
  21.4994412  72.4985619 100.6890781  20.6631724  72.8360305 101.0100056
  21.3599181  72.3634599  99.7517918  23.4747492  67.3422407 105.3969965
  22.8211905  67.0271424 104.7726580  23.4327966  66.7198147 106.1229788
  24.5858697  77.6241702  97.3123257  23.6785759  77.3930955  97.5114406
  25.0829729  76.8279321  97.4997239  27.4926776  86.3339209 100.2319944
  26.8188475  86.6370906 100.8404901  27.8792598  87.1368289  99.8825401
  26.7085233  73.8304340 109.7217613  25.7907794  74.0519287 109.5639301
  27.1245376  73.9050651 108.8629320  27.4920280  75.2295756 104.8520293
  28.2392099  75.7417153 104.5427415  27.7611870  74.9079809 105.7124687
  25.7646930  77.7254297 101.8347248  24.8558150  77.4413329 101.9319717
  25.7942014  78.1453375 100.9750554  30.9966198  81.3360886 105.6038415
  30.5428525  80.4951796 105.6603606  30.3660165  81.9722284 105.9413195
  29.9399117  72.2652872 106.8339083  29.2021874  71.7530258 107.1649325
  30.1925891  71.8253254 106.0222359  29.4399137  83.1737383 106.5388233
  29.7322112  83.7342440 105.8200599  29.9497758  83.4665944 107.2941392
  30.0410745  65.0429124 107.4280852  30.3469622  64.1826488 107.1406767
  30.7663350  65.6346744 107.2279846  16.3335101  75.4459811 105.8162450
  16.1359501  74.8529171 105.0913516  15.7781765  75.1412021 106.5338389
  24.3131825  75.3382917 107.9357043  24.3680434  74.3856754 107.8599520
  23.5023027  75.4942356 108.4198341  25.4623018  79.2663040  99.1735326
  25.0242448  78.5498899  98.7140963  26.2033459  79.4939155  98.6120418
  22.2524184  73.9559977 105.6947422  21.4392050  74.2554147 106.1012614
  22.7483179  73.5615666 106.4121904  24.4032762  83.9517734 107.6281686
  24.3608941  84.1778580 106.6990218  25.3195461  83.7181108 107.7767488
  27.8498396  74.4201801 114.5262316  28.2047784  74.6473275 115.3856781
  28.4970527  74.7520178 113.9039571  33.5796133  77.5420237 105.2311645
  33.4414032  77.7321833 104.3032834  33.2232352  78.3039620 105.6879696
  21.7438259  71.5278332 111.3108657  22.3837639  71.3867092 110.6131620
  20.9115790  71.2412846 110.9347259  33.6065513  79.6096764 110.2422916
  34.0402019  79.5172053 111.0905970  34.3197093  79.5854265 109.6042932
  22.5198563  80.8280763 107.4243649  23.3139162  80.3331083 107.2226224
  21.8090256  80.2998626 107.0611355  27.3393408  83.2098858 111.7756017
  27.3930430  83.7789795 112.5433733  26.4708189  83.3800743 111.4110054
  18.8281327  74.9723845 103.5003402  17.8978915  74.9108300 103.7173364
  18.9238799  74.4499797 102.7040043  18.7466876  71.4978657 106.0881644
  19.0073693  72.4123991 105.9790804  19.5684048  71.0303100 106.2378256
  20.2191801  72.9116415 113.2580468  20.8914854  72.7033777 112.6093117
  19.3921587  72.7138501 112.8185700  34.4681062  79.6520465 112.7755802
  34.6616952  80.5566275 113.0215077  34.3681680  79.1927884 113.6094387
  26.1217373  69.5378356 115.2746129  25.4745288  70.2368305 115.1810605
  26.8918388  69.9714499 115.6422377  29.5296171  79.8027208 118.3496682
  29.3781677  79.5737759 117.4326766  29.5200850  80.7597809 118.3628027
  26.2981507  77.3759120 113.3342949  27.2273567  77.5270280 113.1611916
  25.8772537  77.4643141 112.4791595  25.0969839  81.4009785 111.1041486
  24.9580925  81.0328569 111.9767424  24.3084435  81.9157424 110.9325444
  25.6917991  86.5018881 102.4467023  25.8669747  86.0306925 103.2612646
  25.0050779  87.1284648 102.6748284  26.6475054  80.7791388 108.4930324
  26.3124887  80.7392158 109.3887974  26.1479000  80.1136103 108.0200734
  20.6219298  76.1859018 114.0182905  20.4839096  75.4539256 114.6194444
  21.5324222  76.0967918 113.7367093  29.5834246  78.1247422  98.7667384
  28.9663417  77.3994250  98.6700436  29.1150734  78.8856782  98.4234458
  23.2501599  75.8978977 113.5066585  23.9601217  75.2572169 113.4653203
  23.2070907  76.1491872 114.4292766  31.2388378  82.8346330 116.4273164
  31.1800924  82.1505550 115.7603747  31.6407896  83.5765320 115.9753790
  21.9630533  72.8844195 115.3262224  21.4267890  72.4334933 115.9783821
  21.3747241  73.0190104 114.5832689  20.2579076  89.6508244 109.2206883
  20.4975675  90.2826768 109.8985902  19.4148273  89.2996284 109.5072242
  21.3732792  72.3432846  97.8888688  20.4962258  72.2221647  97.5250935
  21.8490545  71.5518925  97.6367577  31.2405785  80.7985914 114.6587144
  30.3532564  80.4611836 114.7813543  31.8104336  80.0668945 114.8955909
  12.8934932  77.1310006 107.9830195  13.5805972  76.8171736 107.3951210
  12.7383061  78.0351371 107.7097447  17.6969654  72.0200203 112.4115219
  17.6127843  71.4125872 111.6765629  16.8752361  72.5109221 112.4124715
  24.7706938  85.4587367 111.6248387  24.6977110  86.2642338 112.1367692
  24.3284331  85.6579332 110.7996408  24.5596718  84.6959137 105.1351209
  23.7764240  85.2380817 105.2289433  25.2589463  85.2133116 105.5345450
  27.8693368  70.5053766 107.7785414  28.3662068  69.7523728 107.4586484
  27.0980349  70.5418083 107.2128623  35.7223125  76.2094132 109.4203705
  35.7113002  77.0918847 109.0497639  34.8540505  75.8565682 109.2258242
  27.2305622  85.3574201 113.7806546  27.9433594  85.9921665 113.7082447
  26.7395650  85.4538067 112.9646547  28.9523149  79.2625453 105.3523837
  28.0179427  79.3826916 105.1828542  29.1299817  78.3597920 105.0883847
  24.4528337  72.6471149 107.5057099  24.0826124  72.0942189 108.1938004
  24.9487429  72.0429283 106.9532099  32.3395700  75.1042773 105.8873871
  32.8056152  75.9370764 105.8134174  32.7903201  74.6387754 106.5919130
  22.2817535  83.1068644 114.6012116  22.9826995  83.7405127 114.7541511
  21.8112650  83.4483376 113.8407756  30.4071931  81.4486594 102.8860023
  30.6831775  81.3343188 103.7953898  29.5376430  81.0504079 102.8472197
  30.3112363  67.4723360 109.9264773  29.3975443  67.7027586 110.0946980
  30.7405464  67.5561804 110.7778805  30.0818821  75.6613251 112.4264667
  29.4290271  75.9089159 111.7717120  30.4599201  74.8477390 112.0927144
  27.0425995  85.6972945 106.5292837  27.2248390  84.8794601 106.9920589
  27.8658981  85.9140637 106.0917727  27.3768161  84.6241130 103.7907886
  27.9055927  84.1133584 103.1778048  27.6396380  84.3083660 104.6553419
  26.1306394  76.4033063 118.9130704  25.4547031  76.3027192 119.5833079
  26.9534028  76.2472276 119.3766701  17.8785253  82.6404999 111.5343219
  18.4638690  81.8948687 111.6671123  17.6810092  82.9508956 112.4179883
  20.7323909  85.6756246 106.5505662  20.0634284  86.1602374 106.0669702
  20.5936778  85.9225467 107.4649040  12.4702908  75.2110599 110.2547662
  12.5087008  74.6774190 111.0484780  11.9643201  74.6845805 109.6358639
  24.8729177  87.7099990 113.1488320  25.4247485  87.8731612 113.9137405
  25.2135371  88.3004428 112.4768345  19.8493670  70.0575140 113.7510205
  19.9134997  70.9189971 113.3387602  19.7860791  69.4449141 113.0182563
  19.3245943  72.1298272 117.3983239  19.9517982  71.7475350 118.0120763
  18.4673862  71.9112474 117.7638931  29.7240051  82.5361248 119.0036974
  30.2679955  83.1491206 118.5091929  29.1426896  83.0940826 119.5203987
  16.1011486  73.9374701 103.3301594  16.3964927  73.0285380 103.2768647
  15.1999521  73.9162441 103.0082596  28.0097564  85.6581966 110.1352002
  27.8848704  84.8571705 109.6262948  28.6676656  86.1528159 109.6465972
  19.6305733  72.0130698 109.3129142  18.9092318  72.6266666 109.1736616
  20.4198988  72.5488463 109.2345788  30.0732473  83.4590986 111.7631552
  29.1262808  83.3396337 111.6909879  30.4215246  82.5713484 111.8457814
  22.4332046  69.3485125 115.5869794  22.9566448  69.5947421 116.3496103
  22.2144379  70.1805159 115.1672931  17.8299327  71.6188799 103.4540919
  17.5012033  70.7386178 103.2716025  18.1838698  71.5636468 104.3417308
  27.0778906  83.2543702 107.9635904  26.9303869  82.3260409 108.1443474
  27.9032400  83.2763793 107.4792980  20.9441150  71.9061769 103.8216397
  21.2837223  72.4347690 103.0995005  21.3913271  72.2442175 104.5974963
  30.6813028  84.0772261 109.0500777  31.6059575  83.8715122 108.9125228
  30.5128331  83.8288662 109.9590119  23.6384591  70.2898820 113.2719465
  23.2981412  69.4906633 113.6740144  22.9323597  70.5900530 112.6996298
  24.2901063  67.3748132 111.7246788  25.1127132  66.9008610 111.6025678
  24.5339127  68.1538616 112.2245474  22.9309298  70.4036391 102.0209689
  23.6517660  70.7817643 101.5173406  22.3074602  71.1225267 102.1244667
  27.0740420  71.1081539 102.9568022  27.2904035  71.9906177 102.6556850
  26.5934488  70.7167753 102.2273664  21.8139642  74.0667253 109.5338766
  21.6684223  74.3807556 110.4263048  21.3364845  74.6852153 108.9809665
  23.6736025  71.0569801 109.5819656  23.6597593  70.1610894 109.2451954
  24.3908453  71.0640464 110.2157942  25.5262155  71.4907141 111.6272783
  25.2679933  72.4124212 111.6257114  24.9947196  71.0937575 112.3173247
  30.4708344  84.5957928 104.4062869  30.6445222  84.0304350 103.6536721
  30.9637235  85.3958823 104.2242359  16.2885304  76.6072597 112.4726427
  15.7438772  77.3832405 112.6046702  17.1664654  76.9543402 112.3145549
  23.0772921  69.9384181 104.8507226  23.1988832  69.0100827 105.0498113
  22.7874963  69.9522867 103.9385541  25.9464111  67.6239091 107.9873946
  25.9685808  67.6878424 107.0325925  26.3632170  66.7843600 108.1814452
  36.3247735  77.3594351 106.0253168  36.7678881  76.6101676 105.6272292
  35.4474246  77.3504487 105.6426900  31.4583517  83.9124692 101.5059767
  32.1534421  84.5331385 101.7247081  31.8006667  83.0620044 101.7812145
  17.0751326  75.7342493 115.3656584  16.3333062  75.8825129 115.9521215
  16.7544070  75.9950759 114.5023334  33.3574940  81.3624398 103.0347098
  33.8826264  81.7011671 102.3096418  33.2697292  80.4271413 102.8510232
  25.0194988  85.2758472 115.1636974  25.3282115  85.0307618 116.0359674
  25.8170470  85.4805110 114.6755844  25.0415601  87.4296381 107.3942351
  24.6020591  86.9372760 108.0875208  25.7923717  86.8869349 107.1534426
  17.5207940  83.6207922 107.3966979  18.3465959  83.3211694 107.0165622
  17.1701991  82.8515545 107.8456768  22.4889473  82.9734390 109.4664652
  21.8669482  82.3105095 109.1666880  23.1594340  82.9995522 108.7838300
  15.7216545  81.5394249 108.3555912  14.8848453  81.1116423 108.1739914
  15.6940190  81.7326692 109.2926704  22.5614000  71.4516178 119.0597159
  22.6102156  72.3278301 118.6774928  23.1036514  70.9093571 118.4868802
  33.0468846  81.9957302 118.3398296  32.2564390  81.9781440 117.8002795
  32.8102200  82.5345595 119.0947332  33.1666721  78.8449768 115.6531024
  33.2164726  78.6799775 116.5946547  33.0580644  77.9777027 115.2628905
  22.0502980  81.5238314 102.9423113  22.1991100  82.2073778 102.2889786
  22.8569423  81.5043404 103.4572569  30.4570483  74.8280696 116.9690331
  31.3580346  74.6887161 116.6774329  30.5318458  74.9935151 117.9088508
  24.7913289  72.2047551 115.8143517  23.9216598  72.4981117 115.5426106
  25.0272769  72.7887996 116.5350781  34.6684918  81.2646709 115.8973046
  34.3769726  81.6276690 116.7336507  34.0557049  80.5513718 115.7186378
  35.8680600  78.8299589 108.4175616  36.7027491  79.2689393 108.5813176
  36.0039729  78.3538242 107.5983862  32.9172106  76.3879324 114.3653104
  33.3926228  76.5806970 113.5571955  31.9937671  76.4438510 114.1196487
  19.8055613  77.5503491 103.9484182  19.5601655  76.6465821 104.1464392
  19.9751527  77.5520642 103.0063660  27.4952322  68.4227168 113.3308938
  28.0134266  69.1588195 113.0055426  27.1407455  68.7291161 114.1655697
  19.0751260  73.2831849 101.4470343  18.3820505  73.3576204 100.7910379
  18.8303012  72.5192193 101.9691860  27.7464917  64.8427450 108.8509834
  28.0266670  64.1750639 109.4770261  28.5315524  65.0356546 108.3384498
  25.5498385  84.0186444 100.4134860  24.9772352  84.6376631  99.9605332
  26.1231179  84.5685806 100.9474782  31.6173775  73.2645084 112.5981409
  32.5691198  73.3643182 112.6193633  31.4477225  72.4723353 113.1079494
  29.6388154  70.3500667 112.7840810  29.0438087  70.6305680 112.0887299
  29.3537851  70.8394568 113.5557551  28.7695645  84.3023594 101.5443443
  29.7026318  84.2369156 101.7476318  28.6818858  85.1379861 101.0857975
  31.3983662  83.6189465  98.5047390  31.3197293  83.2849328  99.3983148
  32.2193328  84.1111232  98.5038863  34.0961853  76.4851204 111.7123709
  34.0638173  75.5467205 111.8983393  34.7062476  76.5635241 110.9789534
  25.9345184  75.3547257  97.7550913  26.8804288  75.2253465  97.8239331
  25.5559429  74.6161919  98.2320341  34.2456341  73.2762247 111.7581992
  33.7295390  72.4920704 111.5711921  35.1296290  72.9480964 111.9228512
  31.9067068  67.0203263 107.7177805  31.7091889  66.7118351 108.6021137
  32.5166774  67.7464902 107.8475735  39.9138403  77.5467211 110.8529746
  40.6441791  77.2852499 111.4137449  39.3045348  76.8095933 110.8931814
  37.9953700  75.6875073 111.4504197  37.2686863  75.5531038 110.8420688
  37.5800987  75.9951902 112.2560915  25.8183876  79.4065003 119.2151570
  26.7386886  79.5843602 119.4091616  25.7833459  78.4621048 119.0631269
  24.1188101  73.2797233  97.6905798  23.2119556  72.9830346  97.7668512
  24.3964082  72.9827051  96.8240084  15.0366041  74.6003597 108.1404845
  14.7168825  73.7468905 107.8479219  14.4899469  74.8152175 108.8962812
  18.8145949  77.3166038 111.8574351  19.0331958  78.2483145 111.8762385
  19.2271723  76.9574012 112.6429155  25.7350166  67.8234123 103.8450039
  24.9250895  67.4781208 104.2205286  26.4234583  67.5141667 104.4337651
  27.6640715  66.9012170 105.4674336  28.2171753  67.3207623 106.1264359
  27.9010801  65.9747918 105.5097292  23.6873814  72.8899243 121.2477100
  23.5870541  73.8393600 121.1789191  23.4695356  72.5617482 120.3753170
  22.8886885  70.1384168  97.8317777  23.7506049  70.4639067  98.0913595
  23.0737230  69.3515664  97.3190843  14.9054301  78.2206508 110.1097966
  14.2117773  77.8060461 109.5967921  15.6527292  78.2627045 109.5131385
  31.0419522  69.0112695 104.9753000  30.4618191  69.6697499 104.5931053
  30.7755455  68.1890040 104.5640418  29.4923088  68.4117753 107.1774321
  29.9922867  68.5234287 106.3688640  30.1358696  68.1078805 107.8175129
  23.5505084  76.3196382 120.0642162  23.0672166  77.1196742 120.2706051
  23.6366023  76.3304327 119.1109606  16.8191044  78.1524762 107.9863981
  16.7961732  78.2512449 107.0345864  17.1291680  78.9989913 108.3081147
  19.4778422  80.2100917 112.1010595  20.4321675  80.1784859 112.0340527
  19.2790945  79.7491541 112.9160821  20.0677804  78.7802033 114.6681393
  20.8870693  79.2746112 114.6916230  20.3414611  77.8634001 114.6398961
  29.8244400  71.1712785 104.0309349  28.9370255  71.4562436 103.8129543
  30.2398389  71.0106549 103.1836626  33.1758936  71.1959306 107.7463688
  33.9519326  71.6855759 108.0188305  32.4507070  71.6217360 108.2035557
  35.6131495  71.9086926 108.8037628  36.2075985  71.6682661 108.0930937
  35.6858078  71.1894056 109.4311165  17.8328650  85.7520536 109.1180793
  17.6983118  84.9920937 108.5518791  17.4160713  86.4761436 108.6509582
  28.9687613  80.9357460  98.1257369  29.6723463  81.1407462  98.7415024
  28.2450262  81.5034222  98.3906452  29.7985424  76.6867321 104.2459639
  29.7420625  77.1435873 103.4067271  30.3513766  75.9258006 104.0682482
  33.6090230  72.4757053 105.0709758  33.3527164  72.0753689 105.9017966
  32.9843098  73.1900847 104.9459897  37.9202567  75.2153126 107.5781050
  37.3602125  75.2846316 108.3512612  37.3146071  75.0394111 106.8580546
  20.9897776  86.6489853 109.3299236  20.8730160  87.5935286 109.2277926
  20.1690222  86.3463415 109.7185035  30.8774311  81.3739989 100.1755829
  31.7119915  80.9421188  99.9933303  30.7158654  81.2022003 101.1032723
  30.5320203  77.8772102 101.5412168  30.4769007  77.7116374 100.6000612
  29.9066258  78.5848135 101.6974358  15.3212718  73.1140167 115.3673590
  15.9671582  72.6039121 115.8560815  15.1129869  73.8508849 115.9417015
  27.8466110  80.1821014 120.8665731  28.7157270  80.3561667 120.5052366
  27.3672862  81.0015431 120.7441460  23.8416328  67.3780211 101.1197486
  23.8294998  68.3222051 101.2765757  24.7339750  67.1950357 100.8256948
  22.0152290  87.3018115 112.5455164  22.9179537  87.3341726 112.8621659
  21.7889660  86.3718566 112.5601500  23.7705892  86.0549102 109.2065243
  22.8201523  86.0550964 109.0929615  24.0738379  85.3081836 108.6901278
  27.6568448  63.9722988 105.3743423  26.8900844  63.4181475 105.5200106
  28.0679153  64.0444857 106.2357575  19.6610209  70.2607784 119.4648604
  20.5241670  69.9044589 119.6751929  19.0875620  69.9221679 120.1524009
  39.5058586  91.8909640 110.2711005  40.1436996  91.7716388 109.5674345
  39.3879429  92.8390484 110.3298958  36.3148292  91.8437068 110.2072530
  35.9766804  91.7278133 109.3193065  37.1838060  91.4428233 110.1873536
  32.1735108  93.6972545 106.1969421  31.6099973  93.6062482 105.4285709
  32.0587503  92.8772449 106.6771914  36.7968075  92.9971920 116.1658736
  36.7856716  92.6024718 115.2939239  36.9588715  92.2637993 116.7592507
  29.7199540  95.1923736 109.0353642  30.5120832  94.8514561 108.6199941
  29.9596190  95.3018711 109.9555795  37.7534667  97.3643513 101.5083886
  37.1022646  97.9497593 101.1217900  38.5479029  97.8949707 101.5678923
  31.6790294  94.4532650 101.9071020  32.4521170  93.9061637 101.7683896
  32.0315693  95.3176899 102.1185482  33.5175336  95.7809032 115.1137920
  33.2265202  96.6854663 114.9984586  34.1532321  95.8225560 115.8281989
  34.4431543  93.1585880 111.7039279  35.0395115  92.9341903 110.9896242
  34.5006515  92.4170626 112.3064727  34.0156572  90.6125316  99.5389470
  34.2682092  90.0906837  98.7772933  33.0781131  90.4491461  99.6416154
  39.0599854  89.6161094 107.3464213  39.8462944  89.1980517 106.9954630
  39.3238559  90.5207186 107.5145862  39.2309932  95.0533944 102.0452870
  38.5955765  95.1268571 102.7573775  38.9007338  95.6427543 101.3671950
  44.4608281  89.5536327 108.2497192  45.1933453  88.9835544 108.4835021
  43.7047637  89.1657928 108.6903698  33.7352860  92.5153422 101.7413845
  33.6189118  91.8398325 102.4094929  33.8455120  92.0285796 100.9245998
  36.0784401  91.9763569 105.4460534  35.7142608  91.4494190 106.1573456
  36.9351517  91.5862038 105.2727020  41.9833702  83.2657901 112.7091801
  41.6517027  84.1353312 112.4853016  41.3879315  82.9494185 113.3885831
  35.7189888  87.0053469 100.4421883  35.8864291  87.8733705 100.8092354
  35.5287057  87.1680750  99.5183172  38.4765221  95.4670447 112.1087713
  38.1765944  96.3695486 112.0003521  38.1316281  95.2002631 112.9608866
  31.9277703  91.9184244 108.1424418  31.0028199  91.7860458 108.3502109
  32.1762116  92.6978464 108.6394360  41.8762365  87.9852988 109.7885151
  40.9679242  87.9168396 109.4943912  41.8249961  88.4624933 110.6166976
  35.6979109  89.4611126 101.4268550  35.5778734  89.9068177 102.2654030
  35.0031697  89.8096444 100.8682088  29.2886514  91.5617518 108.9768207
  29.4178895  91.8151997 109.8907618  28.6083965  92.1545226 108.6572862
  33.4586001 102.2314768 105.0758681  33.3810031 103.1822593 105.1547162
  32.8547645 101.8860640 105.7333607  35.9503231  89.4042633 117.7320048
  35.1736565  89.9636553 117.7222913  36.5893794  89.8899416 118.2534918
  43.7424012  86.1869426 111.5663025  43.0998392  86.4801959 110.9202819
  43.2378940  86.0722346 112.3716221  41.3964175  89.9332599 102.2548884
  42.3082031  90.1659986 102.0796581  40.8873822  90.5169643 101.6923962
  34.2049603  92.2128087 117.2938015  34.9464288  92.7513131 117.0172839
  33.4986589  92.8394375 117.4509567  39.6804943  94.3557227 115.8910176
  40.0888299  93.9139638 115.1464809  38.9582204  93.7809855 116.1444369
  36.0336013  89.2929834 113.2643733  36.8797208  89.7169247 113.4078382
  35.9734651  88.6363458 113.9582296  40.0033758  94.9158418 109.6462465
  39.3742620  95.0804132 108.9438533  39.6159420  95.3300027 110.4173429
  43.8822989  95.8512856 107.0006829  43.1974028  96.2311757 106.4503862
  43.9666839  96.4608182 107.7338777  39.1835458  86.9534202 114.9224907
  38.9396390  87.7076263 114.3859183  39.4595389  87.3319550 115.7572154
  41.1373921  93.4972815 113.6002173  41.3490816  94.1404574 112.9236554
  41.0903669  92.6635131 113.1324103  38.7400150  86.1090635 110.5038745
  37.8784629  86.4071889 110.7955482  38.7662585  86.3261034 109.5719777
  35.5561719  94.6532826 106.9112550  36.0200065  94.9320529 106.1217173
  35.2918517  93.7516270 106.7285641  32.4485800  94.2004307 109.8492314
  33.0187158  94.6291576 109.2109798  33.0393912  93.9186892 110.5476499
  34.4930605  90.7755978 103.7202115  35.1954649  91.2277022 104.1876042
  34.1611234  90.1339797 104.3482009  32.9410967  89.3667735 118.0953325
  32.3109628  90.0484016 118.3288722  32.8347055  89.2550816 117.1506463
  28.2355939  89.0339531 109.0219249  27.4454993  89.2897059 108.5459360
  28.7267187  89.8487869 109.1271290  42.2519749  96.3744770 111.7724530
  43.0737193  95.9724957 111.4907212  42.2482152  96.2713004 112.7240646
  30.1870685  89.3984110 105.9802726  29.3901848  89.5102804 106.4986221
  29.9596277  89.7370762 105.1143616  36.0176352  95.9228813 113.9285240
  36.0820785  96.3849220 114.7643412  35.3087276  95.2926178 114.0567550
  26.5193642  89.2870021 111.4534240  26.7701681  90.1717031 111.7191816
  27.0553191  89.1074623 110.6809332  50.3425742  92.7183518 108.1209501
  49.5889450  92.1490917 107.9653506  50.4773283  92.6846183 109.0680136
  35.7324370  97.5896921 103.7964221  35.5970045  98.4348456 104.2249069
  36.2734183  97.7916198 103.0330155  32.2191710  83.6688501 120.4578576
  31.8258655  83.1154699 121.1326220  33.0357850  83.9799079 120.8485093
  29.1853767  95.1072359 104.3692146  29.6978288  95.9015609 104.5197710
  29.8376480  94.4098649 104.3025747  30.9948652  98.2238115 106.4514899
  31.1715280  99.1456080 106.2635883  31.7905486  97.9096534 106.8809279
  35.1359671  85.0846380 118.0498832  35.8769384  85.6853533 117.9703295
  35.3677594  84.3424017 117.4916875  30.2801009  90.2702747 116.3277062
  30.1654524  89.3688004 116.6284161  29.4245526  90.5166444 115.9761879
  37.3592846  98.2120487 117.9264563  36.9156701  97.4256866 117.6085467
  38.0210060  98.3999638 117.2608454  32.1179968  99.7416289 112.4525241
  32.6687393  99.6133352 111.6802235  31.2791444 100.0411178 112.1020134
  39.4574085  98.4923287 115.9545964  39.4392560  99.3132168 115.4626233
  40.3794005  98.3677362 116.1796105  35.9147139  96.0067417 116.7969472
  36.4475475  95.2455705 116.5668780  35.3861220  95.7141068 117.5393627
  39.0816834  81.1127483 112.3263114  38.7381103  82.0029124 112.2502225
  39.4495796  80.9229140 111.4632699  27.1502684  93.4361013 105.1451716
  27.9877906  93.8458021 104.9285424  27.3280952  92.4960455 105.1151910
  39.0467116  91.1036094 100.8335549  38.5313740  91.8740698 101.0723937
  38.7744425  90.4301230 101.4568611  36.6314227  85.9485795 105.8920788
  35.7755824  85.5592645 105.7126426  37.0441179  86.0277755 105.0320573
  38.1613374  83.4832138 110.2912347  37.6578170  83.4462273 109.4780153
  38.4543981  84.3924880 110.3509004  34.4056260  83.5670867 109.2978529
  35.2709257  83.3713676 108.9384419  34.4733769  83.3381219 110.2247886
  44.0201390  93.8568448 102.7688723  43.2430833  93.5179608 102.3243885
  44.6992871  93.8621072 102.0943688  38.8353420  88.9763186 102.6595330
  38.5303555  89.2909335 103.5105474  39.7883862  89.0544606 102.7022663
  37.2799851  95.1353409 104.3088284  36.7521213  94.4006169 103.9961522
  36.7787354  95.9128085 104.0628253  42.2592697  93.3302430 109.4255331
  41.6016372  94.0201691 109.5135459  43.0633097  93.7198862 109.7689317
  32.0118579  85.7973075 106.6694896  32.5862331  85.5748257 105.9368089
  32.5989561  85.8661770 107.4223497  41.0698156  91.6846802 107.4759272
  41.5830038  92.3176794 107.9780982  41.7199380  91.0847998 107.1102633
  32.3388166  87.8277536 100.6890781  31.5025478  88.1652223 101.0100056
  32.1992936  87.6926516  99.7517918  34.3141247  82.6714324 105.3969965
  33.6605659  82.3563342 104.7726580  34.2721721  82.0490065 106.1229788
  35.4252452  92.9533619  97.3123257  34.5179513  92.7222873  97.5114406
  35.9223484  92.1571239  97.4997239  38.3320530 101.6631127 100.2319944
  37.6582229 101.9662823 100.8404901  38.7186352 102.4660207  99.8825401
  37.5478987  89.1596258 109.7217613  36.6301548  89.3811205 109.5639301
  37.9639131  89.2342568 108.8629320  38.3314035  90.5587674 104.8520293
  39.0785854  91.0709071 104.5427415  38.6005624  90.2371726 105.7124687
  36.6040685  93.0546214 101.8347248  35.6951904  92.7705247 101.9319717
  36.6335769  93.4745293 100.9750554  41.8359952  96.6652804 105.6038415
  41.3822279  95.8243714 105.6603606  41.2053919  97.3014202 105.9413195
  40.7792872  87.5944790 106.8339083  40.0415629  87.0822176 107.1649325
  41.0319645  87.1545171 106.0222359  40.2792892  98.5029300 106.5388233
  40.5715866  99.0634358 105.8200599  40.7891512  98.7957861 107.2941392
  40.8804499  80.3721042 107.4280852  41.1863376  79.5118405 107.1406767
  41.6057104  80.9638662 107.2279846  27.1728855  90.7751728 105.8162450
  26.9753255  90.1821089 105.0913516  26.6175519  90.4703939 106.5338389
  35.1525579  90.6674835 107.9357043  35.2074189  89.7148671 107.8599520
  34.3416781  90.8234274 108.4198341  36.3016773  94.5954958  99.1735326
  35.8636203  93.8790817  98.7140963  37.0427214  94.8231073  98.6120418
  33.0917939  89.2851895 105.6947422  32.2785804  89.5846065 106.1012614
  33.5876933  88.8907583 106.4121904  35.2426517  99.2809652 107.6281686
  35.2002696  99.5070498 106.6990218  36.1589216  99.0473026 107.7767488
  38.6892151  89.7493719 114.5262316  39.0441538  89.9765192 115.3856781
  39.3364282  90.0812096 113.9039571  44.4189888  92.8712155 105.2311645
  44.2807786  93.0613751 104.3032834  44.0626106  93.6331538 105.6879696
  32.5832014  86.8570250 111.3108657  33.2231393  86.7159009 110.6131620
  31.7509544  86.5704764 110.9347259  44.4459267  94.9388682 110.2422916
  44.8795774  94.8463971 111.0905970  45.1590848  94.9146182 109.6042932
  33.3592318  96.1572681 107.4243649  34.1532916  95.6623001 107.2226224
  32.6484010  95.6290544 107.0611355  38.1787162  98.5390776 111.7756017
  38.2324184  99.1081712 112.5433733  37.3101943  98.7092661 111.4110054
  29.6675081  90.3015762 103.5003402  28.7372669  90.2400218 103.7173364
  29.7632553  89.7791715 102.7040043  29.5860630  86.8270575 106.0881644
  29.8467447  87.7415908 105.9790804  30.4077802  86.3595018 106.2378256
  31.0585555  88.2408332 113.2580468  31.7308609  88.0325694 112.6093117
  30.2315342  88.0430418 112.8185700  45.3074817  94.9812383 112.7755802
  45.5010707  95.8858193 113.0215077  45.2075435  94.5219802 113.6094387
  36.9611127  84.8670273 115.2746129  36.3139043  85.5660223 115.1810605
  37.7312143  85.3006417 115.6422377  40.3689925  95.1319125 118.3496682
  40.2175432  94.9029677 117.4326766  40.3594605  96.0889727 118.3628027
  37.1375262  92.7051038 113.3342949  38.0667322  92.8562198 113.1611916
  36.7166292  92.7935059 112.4791595  35.9363594  96.7301703 111.1041486
  35.7974679  96.3620487 111.9767424  35.1478190  97.2449342 110.9325444
  36.5311746 101.8310799 102.4467023  36.7063501 101.3598842 103.2612646
  35.8444534 102.4576565 102.6748284  37.4868809  96.1083305 108.4930324
  37.1518641  96.0684075 109.3887974  36.9872754  95.4428021 108.0200734
  31.4613053  91.5150935 114.0182905  31.3232851  90.7831174 114.6194444
  32.3717976  91.4259835 113.7367093  40.4228000  93.4539340  98.7667384
  39.8057171  92.7286168  98.6700436  39.9544489  94.2148700  98.4234458
  34.0895353  91.2270895 113.5066585  34.7994972  90.5864087 113.4653203
  34.0464662  91.4783789 114.4292766  42.0782132  98.1638248 116.4273164
  42.0194678  97.4797468 115.7603747  42.4801650  98.9057238 115.9753790
  32.8024287  88.2136112 115.3262224  32.2661644  87.7626851 115.9783821
  32.2140996  88.3482021 114.5832689  31.0972831 104.9800162 109.2206883
  31.3369429 105.6118686 109.8985902  30.2542027 104.6288202 109.5072242
  32.2126546  87.6724764  97.8888688  31.3356013  87.5513565  97.5250935
  32.6884299  86.8810842  97.6367577  42.0799539  96.1277832 114.6587144
  41.1926318  95.7903754 114.7813543  42.6498090  95.3960863 114.8955909
  23.7328686  92.4601924 107.9830195  24.4199726  92.1463654 107.3951210
  23.5776815  93.3643288 107.7097447  28.5363409  87.3492120 112.4115219
  28.4521597  86.7417790 111.6765629  27.7146115  87.8401138 112.4124715
  35.6100693 100.7879284 111.6248387  35.5370864 101.5934256 112.1367692
  35.1678086 100.9871250 110.7996408  35.3990472 100.0251054 105.1351209
  34.6157994 100.5672734 105.2289433  36.0983218 100.5425034 105.5345450
  38.7087122  85.8345684 107.7785414  39.2055822  85.0815646 107.4586484
  37.9374104  85.8710000 107.2128623  46.5616880  91.5386049 109.4203705
  46.5506756  92.4210765 109.0497639  45.6934259  91.1857600 109.2258242
  38.0699376 100.6866118 113.7806546  38.7827348 101.3213583 113.7082447
  37.5789405 100.7829984 112.9646547  39.7916903  94.5917371 105.3523837
  38.8573182  94.7118833 105.1828542  39.9693572  93.6889838 105.0883847
  35.2922091  87.9763067 107.5057099  34.9219879  87.4234107 108.1938004
  35.7881184  87.3721200 106.9532099  43.1789454  90.4334690 105.8873871
  43.6449907  91.2662682 105.8134174  43.6296955  89.9679672 106.5919130
  33.1211290  98.4360562 114.6012116  33.8220749  99.0697045 114.7541511
  32.6506405  98.7775293 113.8407756  41.2465686  96.7778512 102.8860023
  41.5225530  96.6635106 103.7953898  40.3770184  96.3795996 102.8472197
  41.1506117  82.8015277 109.9264773  40.2369197  83.0319504 110.0946980
  41.5799219  82.8853721 110.7778805  40.9212576  90.9905169 112.4264667
  40.2684026  91.2381077 111.7717120  41.2992956  90.1769307 112.0927144
  37.8819750 101.0264862 106.5292837  38.0642144 100.2086518 106.9920589
  38.7052736 101.2432555 106.0917727  38.2161915  99.9533047 103.7907886
  38.7449682  99.4425502 103.1778048  38.4790135  99.6375578 104.6553419
  36.9700149  91.7324980 118.9130704  36.2940786  91.6319110 119.5833079
  37.7927783  91.5764194 119.3766701  28.7179008  97.9696917 111.5343219
  29.3032445  97.2240605 111.6671123  28.5203846  98.2800873 112.4179883
  31.5717663 101.0048164 106.5505662  30.9028038 101.4894292 106.0669702
  31.4330533 101.2517385 107.4649040  23.3096663  90.5402517 110.2547662
  23.3480762  90.0066108 111.0484780  22.8036955  90.0137722 109.6358639
  35.7122932 103.0391908 113.1488320  36.2641240 103.2023529 113.9137405
  36.0529125 103.6296346 112.4768345  30.6887425  85.3867057 113.7510205
  30.7528751  86.2481888 113.3387602  30.6254545  84.7741059 113.0182563
  30.1639697  87.4590190 117.3983239  30.7911736  87.0767267 118.0120763
  29.3067616  87.2404392 117.7638931  40.5633806  97.8653165 119.0036974
  41.1073710  98.4783123 118.5091929  39.9820651  98.4232744 119.5203987
  26.9405240  89.2666619 103.3301594  27.2358681  88.3577298 103.2768647
  26.0393276  89.2454359 103.0082596  38.8491319 100.9873883 110.1352002
  38.7242458 100.1863623 109.6262948  39.5070410 101.4820077 109.6465972
  30.4699487  87.3422616 109.3129142  29.7486073  87.9558583 109.1736616
  31.2592743  87.8780381 109.2345788  40.9126227  98.7882903 111.7631552
  39.9656563  98.6688254 111.6909879  41.2609000  97.9005401 111.8457814
  33.2725801  84.6777042 115.5869794  33.7960202  84.9239339 116.3496103
  33.0538134  85.5097077 115.1672931  28.6693082  86.9480717 103.4540919
  28.3405788  86.0678096 103.2716025  29.0232452  86.8928385 104.3417308
  37.9172661  98.5835620 107.9635904  37.7697623  97.6552327 108.1443474
  38.7426154  98.6055710 107.4792980  31.7834905  87.2353687 103.8216397
  32.1230977  87.7639608 103.0995005  32.2307025  87.5734093 104.5974963
  41.5206782  99.4064178 109.0500777  42.4453330  99.2007040 108.9125228
  41.3522086  99.1580579 109.9590119  34.4778346  85.6190737 113.2719465
  34.1375166  84.8198550 113.6740144  33.7717352  85.9192448 112.6996298
  35.1294818  82.7040050 111.7246788  35.9520887  82.2300528 111.6025678
  35.3732881  83.4830533 112.2245474  33.7703052  85.7328308 102.0209689
  34.4911415  86.1109561 101.5173406  33.1468356  86.4517185 102.1244667
  37.9134175  86.4373457 102.9568022  38.1297789  87.3198095 102.6556850
  37.4328242  86.0459671 102.2273664  32.6533396  89.3959170 109.5338766
  32.5077977  89.7099473 110.4263048  32.1758600  90.0144071 108.9809665
  34.5129779  86.3861718 109.5819656  34.4991348  85.4902812 109.2451954
  35.2302207  86.3932382 110.2157942  36.3655910  86.8199059 111.6272783
  36.1073688  87.7416129 111.6257114  35.8340950  86.4229493 112.3173247
  41.3102099  99.9249846 104.4062869  41.4838976  99.3596268 103.6536721
  41.8030990 100.7250741 104.2242359  27.1279058  91.9364515 112.4726427
  26.5832527  92.7124323 112.6046702  28.0058408  92.2835319 112.3145549
  33.9166675  85.2676099 104.8507226  34.0382586  84.3392745 105.0498113
  33.6268717  85.2814785 103.9385541  36.7857866  82.9531009 107.9873946
  36.8079562  83.0170342 107.0325925  37.2025925  82.1135518 108.1814452
  47.1641490  92.6886269 106.0253168  47.6072636  91.9393594 105.6272292
  46.2868000  92.6796405 105.6426900  42.2977271  99.2416610 101.5059767
  42.9928176  99.8623303 101.7247081  42.6400421  98.3911961 101.7812145
  27.9145080  91.0634411 115.3656584  27.1726816  91.2117046 115.9521215
  27.5937825  91.3242677 114.5023334  44.1968694  96.6916316 103.0347098
  44.7220018  97.0303588 102.3096418  44.1091047  95.7563331 102.8510232
  35.8588743 100.6050389 115.1636974  36.1675869 100.3599536 116.0359674
  36.6564225 100.8097028 114.6755844  35.8809355 102.7588299 107.3942351
  35.4414345 102.2664678 108.0875208  36.6317472 102.2161267 107.1534426
  28.3601694  98.9499840 107.3966979  29.1859714  98.6503612 107.0165622
  28.0095746  98.1807462 107.8456768  33.3283227  98.3026308 109.4664652
  32.7063236  97.6397013 109.1666880  33.9988094  98.3287440 108.7838300
  26.5610299  96.8686166 108.3555912  25.7242207  96.4408341 108.1739914
  26.5333944  97.0618610 109.2926704  33.4007755  86.7808096 119.0597159
  33.4495910  87.6570219 118.6774928  33.9430269  86.2385489 118.4868802
  43.8862600  97.3249219 118.3398296  43.0958144  97.3073358 117.8002795
  43.6495955  97.8637513 119.0947332  44.0060475  94.1741686 115.6531024
  44.0558480  94.0091693 116.5946547  43.8974399  93.3068945 115.2628905
  32.8896734  96.8530231 102.9423113  33.0384854  97.5365696 102.2889786
  33.6963178  96.8335321 103.4572569  41.2964238  90.1572614 116.9690331
  42.1974101  90.0179079 116.6774329  41.3712212  90.3227068 117.9088508
  35.6307043  87.5339468 115.8143517  34.7610353  87.8273034 115.5426106
  35.8666523  88.1179913 116.5350781  45.5078672  96.5938627 115.8973046
  45.2163481  96.9568608 116.7336507  44.8950803  95.8805635 115.7186378
  46.7074355  94.1591507 108.4175616  47.5421246  94.5981311 108.5813176
  46.8433483  93.6830160 107.5983862  43.7565860  91.7171242 114.3653104
  44.2319982  91.9098888 113.5571955  42.8331426  91.7730428 114.1196487
  30.6449367  92.8795409 103.9484182  30.3995409  91.9757739 104.1464392
  30.8145282  92.8812559 103.0063660  38.3346077  83.7519085 113.3308938
  38.8528021  84.4880112 113.0055426  37.9801210  84.0583079 114.1655697
  29.9145015  88.6123767 101.4470343  29.2214260  88.6868122 100.7910379
  29.6696766  87.8484110 101.9691860  38.5858671  80.1719368 108.8509834
  38.8660425  79.5042557 109.4770261  39.3709278  80.3648463 108.3384498
  36.3892140  99.3478362 100.4134860  35.8166107  99.9668549  99.9605332
  36.9624933  99.8977723 100.9474782  42.4567529  88.5937002 112.5981409
  43.4084952  88.6935100 112.6193633  42.2870980  87.8015270 113.1079494
  40.4781909  85.6792585 112.7840810  39.8831841  85.9597598 112.0887299
  40.1931606  86.1686486 113.5557551  39.6089399  99.6315512 101.5443443
  40.5420073  99.5661074 101.7476318  39.5212612 100.4671779 101.0857975
  42.2377416  98.9481382  98.5047390  42.1591048  98.6141246  99.3983148
  43.0587083  99.4403150  98.5038863  44.9355607  91.8143122 111.7123709
  44.9031927  90.8759122 111.8983393  45.5456231  91.8927158 110.9789534
  36.7738938  90.6839175  97.7550913  37.7198043  90.5545383  97.8239331
  36.3953183  89.9453836  98.2320341  45.0850096  88.6054165 111.7581992
  44.5689144  87.8212622 111.5711921  45.9690044  88.2772882 111.9228512
  42.7460823  82.3495181 107.7177805  42.5485644  82.0410269 108.6021137
  43.3560528  83.0756819 107.8475735  50.7532157  92.8759128 110.8529746
  51.4835546  92.6144417 111.4137449  50.1439103  92.1387850 110.8931814
  48.8347454  91.0166991 111.4504197  48.1080618  90.8822956 110.8420688
  48.4194741  91.3243820 112.2560915  36.6577631  94.7356921 119.2151570
  37.5780640  94.9135520 119.4091616  36.6227214  93.7912966 119.0631269
  34.9581855  88.6089151  97.6905798  34.0513311  88.3122264  97.7668512
  35.2357836  88.3118969  96.8240084  25.8759796  89.9295514 108.1404845
  25.5562580  89.0760823 107.8479219  25.3293224  90.1444092 108.8962812
  29.6539703  92.6457955 111.8574351  29.8725713  93.5775063 111.8762385
  30.0665477  92.2865930 112.6429155  36.5743921  83.1526041 103.8450039
  35.7644649  82.8073126 104.2205286  37.2628338  82.8433584 104.4337651
  38.5034469  82.2304087 105.4674336  39.0565508  82.6499541 106.1264359
  38.7404556  81.3039836 105.5097292  34.5267568  88.2191161 121.2477100
  34.4264295  89.1685518 121.1789191  34.3089111  87.8909400 120.3753170
  33.7280640  85.4676086  97.8317777  34.5899804  85.7930984  98.0913595
  33.9130984  84.6807582  97.3190843  25.7448056  93.5498426 110.1097966
  25.0511527  93.1352379 109.5967921  26.4921047  93.5918962 109.5131385
  41.8813276  84.3404613 104.9753000  41.3011945  84.9989417 104.5931053
  41.6149209  83.5181957 104.5640418  40.3316843  83.7409670 107.1774321
  40.8316621  83.8526205 106.3688640  40.9752451  83.4370723 107.8175129
  34.3898839  91.6488300 120.0642162  33.9065920  92.4488660 120.2706051
  34.4759778  91.6596245 119.1109606  27.6584798  93.4816680 107.9863981
  27.6355486  93.5804367 107.0345864  27.9685435  94.3281830 108.3081147
  30.3172176  95.5392835 112.1010595  31.2715430  95.5076777 112.0340527
  30.1184700  95.0783458 112.9160821  30.9071558  94.1093951 114.6681393
  31.7264447  94.6038029 114.6916230  31.1808366  93.1925919 114.6398961
  40.6638154  86.5004703 104.0309349  39.7764009  86.7854354 103.8129543
  41.0792143  86.3398466 103.1836626  44.0152691  86.5251224 107.7463688
  44.7913081  87.0147676 108.0188305  43.2900825  86.9509278 108.2035557
  46.4525249  87.2378843 108.8037628  47.0469740  86.9974579 108.0930937
  46.5251833  86.5185974 109.4311165  28.6722405 101.0812454 109.1180793
  28.5376873 100.3212855 108.5518791  28.2554467 101.8053354 108.6509582
  39.8081368  96.2649378  98.1257369  40.5117218  96.4699380  98.7415024
  39.0844017  96.8326140  98.3906452  40.6379178  92.0159239 104.2459639
  40.5814380  92.4727790 103.4067271  41.1907521  91.2549924 104.0682482
  44.4483984  87.8048971 105.0709758  44.1920918  87.4045606 105.9017966
  43.8236852  88.5192765 104.9459897  48.7596322  90.5445044 107.5781050
  48.1995880  90.6138233 108.3512612  48.1539825  90.3686029 106.8580546
  31.8291531 101.9781771 109.3299236  31.7123915 102.9227204 109.2277926
  31.0083977 101.6755333 109.7185035  41.7168065  96.7031907 100.1755829
  42.5513669  96.2713105  99.9933303  41.5552408  96.5313921 101.1032723
  41.3713957  93.2064020 101.5412168  41.3162761  93.0408292 100.6000612
  40.7460013  93.9140053 101.6974358  26.1606472  88.4432085 115.3673590
  26.8065336  87.9331039 115.8560815  25.9523624  89.1800766 115.9417015
  38.6859865  95.5112932 120.8665731  39.5551024  95.6853584 120.5052366
  38.2066616  96.3307349 120.7441460  34.6810083  82.7072129 101.1197486
  34.6688753  83.6513969 101.2765757  35.5733505  82.5242275 100.8256948
  32.8546045 102.6310033 112.5455164  33.7573292 102.6633643 112.8621659
  32.6283415 101.7010484 112.5601500  34.6099647 101.3841020 109.2065243
  33.6595278 101.3842881 109.0929615  34.9132133 100.6373754 108.6901278
  38.4962202  79.3014906 105.3743423  37.7294598  78.7473393 105.5200106
  38.9072907  79.3736775 106.2357575  30.5003963  85.5899702 119.4648604
  31.3635425  85.2336506 119.6751929  29.9269374  85.2513596 120.1524009
  50.3452340 107.2201558 110.2711005  50.9830750 107.1008305 109.5674345
  50.2273183 108.1682402 110.3298958  47.1542047 107.1728986 110.2072530
  46.8160558 107.0570051 109.3193065  48.0231815 106.7720151 110.1873536
  43.0128862 109.0264462 106.1969421  42.4493727 108.9354399 105.4285709
  42.8981257 108.2064367 106.6771914  47.6361830 108.3263838 116.1658736
  47.6250470 107.9316636 115.2939239  47.7982469 107.5929910 116.7592507
  40.5593294 110.5215654 109.0353642  41.3514586 110.1806479 108.6199941
  40.7989944 110.6310629 109.9555795  48.5928421 112.6935430 101.5083886
  47.9416401 113.2789511 101.1217900  49.3872784 113.2241625 101.5678923
  42.5184048 109.7824567 101.9071020  43.2914924 109.2353554 101.7683896
  42.8709447 110.6468817 102.1185482  44.3569091 111.1100950 115.1137920
  44.0658957 112.0146580 114.9984586  44.9926075 111.1517477 115.8281989
  45.2825298 108.4877798 111.7039279  45.8788870 108.2633821 110.9896242
  45.3400269 107.7462544 112.3064727  44.8550326 105.9417233  99.5389470
  45.1075847 105.4198755  98.7772933  43.9174885 105.7783379  99.6416154
  49.8993609 104.9453012 107.3464213  50.6856698 104.5272435 106.9954630
  50.1632313 105.8499104 107.5145862  50.0703686 110.3825862 102.0452870
  49.4349519 110.4560489 102.7573775  49.7401093 110.9719461 101.3671950
  55.3002036 104.8828245 108.2497192  56.0327208 104.3127462 108.4835021
  54.5441392 104.4949845 108.6903698  44.5746615 107.8445339 101.7413845
  44.4582873 107.1690243 102.4094929  44.6848875 107.3577713 100.9245998
  46.9178156 107.3055487 105.4460534  46.5536363 106.7786107 106.1573456
  47.7745272 106.9153956 105.2727020  52.8227456  98.5949819 112.7091801
  52.4910781  99.4645230 112.4853016  52.2273070  98.2786103 113.3885831
  46.5583643 102.3345386 100.4421883  46.7258045 103.2025623 100.8092354
  46.3680812 102.4972668  99.5183172  49.3158976 110.7962365 112.1087713
  49.0159699 111.6987404 112.0003521  48.9710035 110.5294548 112.9608866
  42.7671457 107.2476162 108.1424418  41.8421954 107.1152376 108.3502109
  43.0155871 108.0270381 108.6394360  52.7156120 103.3144905 109.7885151
  51.8072997 103.2460314 109.4943912  52.6643715 103.7916850 110.6166976
  46.5372864 104.7903044 101.4268550  46.4172489 105.2360094 102.2654030
  45.8425452 105.1388361 100.8682088  40.1280268 106.8909436 108.9768207
  40.2572650 107.1443914 109.8907618  39.4477720 107.4837144 108.6572862
  44.2979756 117.5606685 105.0758681  44.2203785 118.5114511 105.1547162
  43.6941399 117.2152558 105.7333607  46.7896985 104.7334551 117.7320048
  46.0130319 105.2928471 117.7222913  47.4287548 105.2191334 118.2534918
  54.5817766 101.5161344 111.5663025  53.9392146 101.8093877 110.9202819
  54.0772695 101.4014264 112.3716221  52.2357930 105.2624517 102.2548884
  53.1475786 105.4951904 102.0796581  51.7267577 105.8461561 101.6923962
  45.0443358 107.5420004 117.2938015  45.7858042 108.0805048 117.0172839
  44.3380343 108.1686293 117.4509567  50.5198697 109.6849145 115.8910176
  50.9282053 109.2431555 115.1464809  49.7975959 109.1101772 116.1444369
  46.8729767 104.6221751 113.2643733  47.7190963 105.0461165 113.4078382
  46.8128405 103.9655376 113.9582296  50.8427512 110.2450335 109.6462465
  50.2136374 110.4096049 108.9438533  50.4553174 110.6591945 110.4173429
  54.7216744 111.1804773 107.0006829  54.0367782 111.5603675 106.4503862
  54.8060593 111.7900100 107.7338777  50.0229213 102.2826120 114.9224907
  49.7790145 103.0368180 114.3859183  50.2989143 102.6611467 115.7572154
  51.9767675 108.8264732 113.6002173  52.1884571 109.4696492 112.9236554
  51.9297424 107.9927049 113.1324103  49.5793904 101.4382553 110.5038745
  48.7178383 101.7363806 110.7955482  49.6056339 101.6552952 109.5719777
  46.3955474 109.9824743 106.9112550  46.8593819 110.2612446 106.1217173
  46.1312272 109.0808188 106.7285641  43.2879555 109.5296225 109.8492314
  43.8580912 109.9583493 109.2109798  43.8787667 109.2478810 110.5476499
  45.3324360 106.1047896 103.7202115  46.0348403 106.5568939 104.1876042
  45.0004988 105.4631715 104.3482009  43.7804721 104.6959652 118.0953325
  43.1503382 105.3775933 118.3288722  43.6740809 104.5842734 117.1506463
  39.0749694 104.3631448 109.0219249  38.2848748 104.6188977 108.5459360
  39.5660941 105.1779786 109.1271290  53.0913503 111.7036688 111.7724530
  53.9130947 111.3016875 111.4907212  53.0875906 111.6004922 112.7240646
  41.0264439 104.7276028 105.9802726  40.2295603 104.8394722 106.4986221
  40.7990031 105.0662680 105.1143616  46.8570107 111.2520731 113.9285240
  46.9214539 111.7141138 114.7643412  46.1481031 110.6218096 114.0567550
  37.3587397 104.6161939 111.4534240  37.6095435 105.5008949 111.7191816
  37.8946945 104.4366540 110.6809332  61.1819496 108.0475436 108.1209501
  60.4283205 107.4782834 107.9653506  61.3167038 108.0138101 109.0680136
  46.5718125 112.9188838 103.7964221  46.4363799 113.7640374 104.2249069
  47.1127937 113.1208116 103.0330155  43.0585464  98.9980418 120.4578576
  42.6652410  98.4446617 121.1326220  43.8751605  99.3090997 120.8485093
  40.0247522 110.4364276 104.3692146  40.5372043 111.2307527 104.5197710
  40.6770235 109.7390567 104.3025747  41.8342407 113.5530033 106.4514899
  42.0109035 114.4747997 106.2635883  42.6299240 113.2388452 106.8809279
  45.9753425 100.4138297 118.0498832  46.7163139 101.0145450 117.9703295
  46.2071348  99.6715935 117.4916875  41.1194763 105.5994665 116.3277062
  41.0048278 104.6979922 116.6284161  40.2639281 105.8458361 115.9761879
  48.1986601 113.5412405 117.9264563  47.7550455 112.7548783 117.6085467
  48.8603815 113.7291555 117.2608454  42.9573722 115.0708207 112.4525241
  43.5081147 114.9425270 111.6802235  42.1185198 115.3703096 112.1020134
  50.2967839 113.8215205 115.9545964  50.2786314 114.6424086 115.4626233
  51.2187759 113.6969280 116.1796105  46.7540893 111.3359334 116.7969472
  47.2869230 110.5747623 116.5668780  46.2254974 111.0432986 117.5393627
  49.9210588  96.4419400 112.3263114  49.5774858  97.3321042 112.2502225
  50.2889551  96.2521058 111.4632699  37.9896439 108.7652931 105.1451716
  38.8271661 109.1749939 104.9285424  38.1674706 107.8252373 105.1151910
  49.8860871 106.4328011 100.8335549  49.3707494 107.2032616 101.0723937
  49.6138179 105.7593148 101.4568611  47.4707982 101.2777712 105.8920788
  46.6149578 100.8884563 105.7126426  47.8834934 101.3569673 105.0320573
  49.0007129  98.8124055 110.2912347  48.4971924  98.7754191 109.4780153
  49.2937735  99.7216798 110.3509004  45.2450014  98.8962785 109.2978529
  46.1103011  98.7005594 108.9384419  45.3127523  98.6673137 110.2247886
  54.8595145 109.1860366 102.7688723  54.0824588 108.8471526 102.3243885
  55.5386626 109.1912989 102.0943688  49.6747174 104.3055104 102.6595330
  49.3697310 104.6201253 103.5105474  50.6277616 104.3836523 102.7022663
  48.1193606 110.4645327 104.3088284  47.5914967 109.7298086 103.9961522
  47.6181109 111.2420003 104.0628253  53.0986452 108.6594347 109.4255331
  52.4410126 109.3493609 109.5135459  53.9026851 109.0490779 109.7689317
  42.8512333 101.1264993 106.6694896  43.4256085 100.9040175 105.9368089
  43.4383316 101.1953688 107.4223497  51.9091911 107.0138720 107.4759272
  52.4223792 107.6468712 107.9780982  52.5593135 106.4139916 107.1102633
  43.1781921 103.1569454 100.6890781  42.3419233 103.4944141 101.0100056
  43.0386690 103.0218434  99.7517918  45.1535001  98.0006242 105.3969965
  44.4999414  97.6855259 104.7726580  45.1115475  97.3781982 106.1229788
  46.2646206 108.2825537  97.3123257  45.3573268 108.0514791  97.5114406
  46.7617238 107.4863156  97.4997239  49.1714285 116.9923044 100.2319944
  48.4975984 117.2954741 100.8404901  49.5580107 117.7952125  99.8825401
  48.3872742 104.4888176 109.7217613  47.4695303 104.7103123 109.5639301
  48.8032885 104.5634486 108.8629320  49.1707789 105.8879591 104.8520293
  49.9179608 106.4000988 104.5427415  49.4399379 105.5663644 105.7124687
  47.4434439 108.3838132 101.8347248  46.5345659 108.0997165 101.9319717
  47.4729523 108.8037211 100.9750554  52.6753707 111.9944721 105.6038415
  52.2216034 111.1535631 105.6603606  52.0447674 112.6306120 105.9413195
  51.6186626 102.9236707 106.8339083  50.8809383 102.4114094 107.1649325
  51.8713400 102.4837089 106.0222359  51.1186646 113.8321218 106.5388233
  51.4109621 114.3926275 105.8200599  51.6285267 114.1249779 107.2941392
  51.7198254  95.7012959 107.4280852  52.0257131  94.8410323 107.1406767
  52.4450859  96.2930580 107.2279846  38.0122610 106.1043646 105.8162450
  37.8147010 105.5113007 105.0913516  37.4569274 105.7995856 106.5338389
  45.9919334 105.9966753 107.9357043  46.0467943 105.0440589 107.8599520
  45.1810536 106.1526192 108.4198341  47.1410527 109.9246876  99.1735326
  46.7029957 109.2082735  98.7140963  47.8820968 110.1522990  98.6120418
  43.9311693 104.6143812 105.6947422  43.1179559 104.9137983 106.1012614
  44.4270688 104.2199501 106.4121904  46.0820271 114.6101569 107.6281686
  46.0396450 114.8362416 106.6990218  46.9982970 114.3764944 107.7767488
  49.5285905 105.0785637 114.5262316  49.8835293 105.3057110 115.3856781
  50.1758036 105.4104014 113.9039571  55.2583642 108.2004073 105.2311645
  55.1201541 108.3905669 104.3032834  54.9019861 108.9623455 105.6879696
  43.4225768 102.1862168 111.3108657  44.0625148 102.0450927 110.6131620
  42.5903299 101.8996681 110.9347259  55.2853022 110.2680600 110.2422916
  55.7189528 110.1755889 111.0905970  55.9984602 110.2438100 109.6042932
  44.1986072 111.4864598 107.4243649  44.9926671 110.9914918 107.2226224
  43.4877764 110.9582461 107.0611355  49.0180917 113.8682694 111.7756017
  49.0717939 114.4373630 112.5433733  48.1495698 114.0384579 111.4110054
  40.5068836 105.6307680 103.5003402  39.5766424 105.5692135 103.7173364
  40.6026308 105.1083633 102.7040043  40.4254385 102.1562493 106.0881644
  40.6861202 103.0707826 105.9790804  41.2471557 101.6886935 106.2378256
  41.8979310 103.5700250 113.2580468  42.5702363 103.3617612 112.6093117
  41.0709096 103.3722336 112.8185700  56.1468571 110.3104300 112.7755802
  56.3404461 111.2150111 113.0215077  56.0469189 109.8511719 113.6094387
  47.8004882 100.1962191 115.2746129  47.1532797 100.8952141 115.1810605
  48.5705897 100.6298335 115.6422377  51.2083680 110.4611043 118.3496682
  51.0569186 110.2321595 117.4326766  51.1988359 111.4181644 118.3628027
  47.9769016 108.0342956 113.3342949  48.9061076 108.1854115 113.1611916
  47.5560046 108.1226977 112.4791595  46.7757348 112.0593620 111.1041486
  46.6368434 111.6912405 111.9767424  45.9871944 112.5741260 110.9325444
  47.3705500 117.1602717 102.4467023  47.5457256 116.6890760 103.2612646
  46.6838288 117.7868483 102.6748284  48.3262563 111.4375223 108.4930324
  47.9912396 111.3975993 109.3887974  47.8266509 110.7719939 108.0200734
  42.3006807 106.8442853 114.0182905  42.1626605 106.1123092 114.6194444
  43.2111731 106.7551753 113.7367093  51.2621755 108.7831257  98.7667384
  50.6450926 108.0578085  98.6700436  50.7938243 109.5440618  98.4234458
  44.9289108 106.5562812 113.5066585  45.6388726 105.9156004 113.4653203
  44.8858416 106.8075707 114.4292766  52.9175887 113.4930166 116.4273164
  52.8588433 112.8089386 115.7603747  53.3195405 114.2349156 115.9753790
  43.6418042 103.5428030 115.3262224  43.1055399 103.0918769 115.9783821
  43.0534750 103.6773939 114.5832689  41.9366585 120.3092079 109.2206883
  42.1763184 120.9410604 109.8985902  41.0935782 119.9580119 109.5072242
  43.0520301 103.0016682  97.8888688  42.1749767 102.8805482  97.5250935
  43.5278054 102.2102760  97.6367577  52.9193294 111.4569750 114.6587144
  52.0320073 111.1195671 114.7813543  53.4891845 110.7252781 114.8955909
  34.5722441 107.7893841 107.9830195  35.2593481 107.4755571 107.3951210
  34.4170570 108.6935206 107.7097447  39.3757163 102.6784038 112.4115219
  39.2915352 102.0709707 111.6765629  38.5539869 103.1693056 112.4124715
  46.4494447 116.1171202 111.6248387  46.3764619 116.9226173 112.1367692
  46.0071840 116.3163168 110.7996408  46.2384227 115.3542972 105.1351209
  45.4551749 115.8964652 105.2289433  46.9376972 115.8716952 105.5345450
  49.5480877 101.1637601 107.7785414  50.0449576 100.4107564 107.4586484
  48.7767858 101.2001918 107.2128623  57.4010634 106.8677967 109.4203705
  57.3900511 107.7502682 109.0497639  56.5328014 106.5149518 109.2258242
  48.9093131 116.0158036 113.7806546  49.6221103 116.6505501 113.7082447
  48.4183159 116.1121902 112.9646547  50.6310658 109.9209289 105.3523837
  49.6966936 110.0410751 105.1828542  50.8087326 109.0181755 105.0883847
  46.1315846 103.3054984 107.5057099  45.7613633 102.7526025 108.1938004
  46.6274938 102.7013118 106.9532099  54.0183209 105.7626608 105.8873871
  54.4843661 106.5954599 105.8134174  54.4690709 105.2971589 106.5919130
  43.9605044 113.7652479 114.6012116  44.6614504 114.3988962 114.7541511
  43.4900159 114.1067211 113.8407756  52.0859440 112.1070429 102.8860023
  52.3619284 111.9927024 103.7953898  51.2163939 111.7087914 102.8472197
  51.9899872  98.1307195 109.9264773  51.0762952  98.3611422 110.0946980
  52.4192973  98.2145639 110.7778805  51.7606330 106.3197087 112.4264667
  51.1077780 106.5672994 111.7717120  52.1386710 105.5061225 112.0927144
  48.7213504 116.3556780 106.5292837  48.9035899 115.5378436 106.9920589
  49.5446490 116.5724472 106.0917727  49.0555670 115.2824965 103.7907886
  49.5843436 114.7717420 103.1778048  49.3183889 114.9667495 104.6553419
  47.8093903 107.0616898 118.9130704  47.1334540 106.9611027 119.5833079
  48.6321537 106.9056112 119.3766701  39.5572762 113.2988834 111.5343219
  40.1426199 112.5532522 111.6671123  39.3597601 113.6092791 112.4179883
  42.4111418 116.3340082 106.5505662  41.7421793 116.8186209 106.0669702
  42.2724287 116.5809302 107.4649040  34.1490417 105.8694435 110.2547662
  34.1874517 105.3358025 111.0484780  33.6430710 105.3429640 109.6358639
  46.5516686 118.3683825 113.1488320  47.1034994 118.5315447 113.9137405
  46.8922880 118.9588263 112.4768345  41.5281179 100.7158975 113.7510205
  41.5922506 101.5773806 113.3387602  41.4648300 100.1032977 113.0182563
  41.0033452 102.7882108 117.3983239  41.6305491 102.4059185 118.0120763
  40.1461371 102.5696310 117.7638931  51.4027560 113.1945083 119.0036974
  51.9467464 113.8075041 118.5091929  50.8214405 113.7524661 119.5203987
  37.7798995 104.5958537 103.3301594  38.0752436 103.6869215 103.2768647
  36.8787030 104.5746276 103.0082596  49.6885073 116.3165801 110.1352002
  49.5636213 115.5155541 109.6262948  50.3464165 116.8111994 109.6465972
  41.3093242 102.6714533 109.3129142  40.5879827 103.2850501 109.1736616
  42.0986497 103.2072298 109.2345788  51.7519982 114.1174821 111.7631552
  50.8050317 113.9980172 111.6909879  52.1002755 113.2297319 111.8457814
  44.1119555 100.0068960 115.5869794  44.6353957 100.2531256 116.3496103
  43.8931888 100.8388995 115.1672931  39.5086836 102.2772634 103.4540919
  39.1799542 101.3970013 103.2716025  39.8626207 102.2220303 104.3417308
  48.7566415 113.9127537 107.9635904  48.6091378 112.9844245 108.1443474
  49.5819909 113.9347628 107.4792980  42.6228659 102.5645604 103.8216397
  42.9624732 103.0931526 103.0995005  43.0700780 102.9026010 104.5974963
  52.3600537 114.7356096 109.0500777  53.2847084 114.5298957 108.9125228
  52.1915840 114.4872497 109.9590119  45.3172100 100.9482655 113.2719465
  44.9768921 100.1490468 113.6740144  44.6111106 101.2484366 112.6996298
  45.9688572  98.0331967 111.7246788  46.7914641  97.5592446 111.6025678
  46.2126636  98.8122451 112.2245474  44.6096807 101.0620226 102.0209689
  45.3305169 101.4401479 101.5173406  43.9862111 101.7809103 102.1244667
  48.7527929 101.7665375 102.9568022  48.9691544 102.6490013 102.6556850
  48.2721997 101.3751588 102.2273664  43.4927151 104.7251088 109.5338766
  43.3471732 105.0391391 110.4263048  43.0152354 105.3435988 108.9809665
  45.3523534 101.7153636 109.5819656  45.3385102 100.8194729 109.2451954
  46.0695962 101.7224300 110.2157942  47.2049664 102.1490976 111.6272783
  46.9467442 103.0708047 111.6257114  46.6734705 101.7521411 112.3173247
  52.1495853 115.2541763 104.4062869  52.3232731 114.6888186 103.6536721
  52.6424744 116.0542658 104.2242359  37.9672813 107.2656432 112.4726427
  37.4226281 108.0416240 112.6046702  38.8452163 107.6127237 112.3145549
  44.7560430 100.5968016 104.8507226  44.8776341  99.6684662 105.0498113
  44.4662472 100.6106702 103.9385541  47.6251620  98.2822927 107.9873946
  47.6473317  98.3462260 107.0325925  48.0419679  97.4427435 108.1814452
  58.0035244 108.0178186 106.0253168  58.4466390 107.2685512 105.6272292
  57.1261755 108.0088323 105.6426900  53.1371026 114.5708528 101.5059767
  53.8321930 115.1915220 101.7247081  53.4794176 113.7203879 101.7812145
  38.7538835 106.3926329 115.3656584  38.0120571 106.5408964 115.9521215
  38.4331579 106.6534594 114.5023334  55.0362449 112.0208233 103.0347098
  55.5613773 112.3595506 102.3096418  54.9484801 111.0855249 102.8510232
  46.6982497 115.9342307 115.1636974  47.0069624 115.6891454 116.0359674
  47.4957979 116.1388945 114.6755844  46.7203110 118.0880217 107.3942351
  46.2808100 117.5956595 108.0875208  47.4711226 117.5453184 107.1534426
  39.1995448 114.2791757 107.3966979  40.0253468 113.9795529 107.0165622
  38.8489500 113.5099380 107.8456768  44.1676982 113.6318226 109.4664652
  43.5456991 112.9688931 109.1666880  44.8381849 113.6579358 108.7838300
  37.4004054 112.1978084 108.3555912  36.5635962 111.7700258 108.1739914
  37.3727699 112.3910527 109.2926704  44.2401509 102.1100014 119.0597159
  44.2889665 102.9862136 118.6774928  44.7824023 101.5677407 118.4868802
  54.7256355 112.6541137 118.3398296  53.9351899 112.6365276 117.8002795
  54.4889709 113.1929431 119.0947332  54.8454230 109.5033603 115.6531024
  54.8952235 109.3383611 116.5946547  54.7368153 108.6360862 115.2628905
  43.7290489 112.1822149 102.9423113  43.8778609 112.8657613 102.2889786
  44.5356932 112.1627239 103.4572569  52.1357992 105.4864531 116.9690331
  53.0367855 105.3470996 116.6774329  52.2105967 105.6518986 117.9088508
  46.4700798 102.8631386 115.8143517  45.6004107 103.1564952 115.5426106
  46.7060278 103.4471831 116.5350781  56.3472427 111.9230545 115.8973046
  56.0557235 112.2860525 116.7336507  55.7344558 111.2097553 115.7186378
  57.5468109 109.4883425 108.4175616  58.3815000 109.9273229 108.5813176
  57.6827238 109.0122078 107.5983862  54.5959615 107.0463159 114.3653104
  55.0713737 107.2390806 113.5571955  53.6725180 107.1022345 114.1196487
  41.4843122 108.2087327 103.9484182  41.2389163 107.3049657 104.1464392
  41.6539036 108.2104477 103.0063660  49.1739831  99.0811003 113.3308938
  49.6921775  99.8172030 113.0055426  48.8194964  99.3874996 114.1655697
  40.7538769 103.9415684 101.4470343  40.0608014 104.0160039 100.7910379
  40.5090521 103.1776028 101.9691860  49.4252426  95.5011286 108.8509834
  49.7054179  94.8334475 109.4770261  50.2103033  95.6940381 108.3384498
  47.2285894 114.6770279 100.4134860  46.6559861 115.2960467  99.9605332
  47.8018688 115.2269641 100.9474782  53.2961284 103.9228920 112.5981409
  54.2478707 104.0227017 112.6193633  53.1264734 103.1307188 113.1079494
  51.3175663 101.0084503 112.7840810  50.7225596 101.2889515 112.0887299
  51.0325360 101.4978404 113.5557551  50.4483154 114.9607430 101.5443443
  51.3813827 114.8952991 101.7476318  50.3606367 115.7963696 101.0857975
  53.0771171 114.2773300  98.5047390  52.9984802 113.9433164  99.3983148
  53.8980837 114.7695068  98.5038863  55.7749362 107.1435039 111.7123709
  55.7425682 106.2051040 111.8983393  56.3849985 107.2219076 110.9789534
  47.6132693 106.0131092  97.7550913  48.5591797 105.8837300  97.8239331
  47.2346938 105.2745754  98.2320341  55.9243850 103.9346083 111.7581992
  55.4082899 103.1504539 111.5711921  56.8083799 103.6064799 111.9228512
  53.5854577  97.6787098 107.7177805  53.3879398  97.3702186 108.6021137
  54.1954283  98.4048737 107.8475735  61.5925912 108.2051046 110.8529746
  62.3229300 107.9436334 111.4137449  60.9832857 107.4679768 110.8931814
  59.6741209 106.3458909 111.4504197  58.9474372 106.2114874 110.8420688
  59.2588496 106.6535737 112.2560915  47.4971385 110.0648838 119.2151570
  48.4174395 110.2427437 119.4091616  47.4620968 109.1204884 119.0631269
  45.7975610 103.9381069  97.6905798  44.8907065 103.6414181  97.7668512
  46.0751591 103.6410887  96.8240084  36.7153550 105.2587432 108.1404845
  36.3956334 104.4052740 107.8479219  36.1686978 105.4736010 108.8962812
  40.4933458 107.9749873 111.8574351  40.7119467 108.9066981 111.8762385
  40.9059231 107.6157847 112.6429155  47.4137675  98.4817958 103.8450039
  46.6038404  98.1365043 104.2205286  48.1022092  98.1725502 104.4337651
  49.3428224  97.5596005 105.4674336  49.8959262  97.9791459 106.1264359
  49.5798310  96.6331753 105.5097292  45.3661323 103.5483079 121.2477100
  45.2658050 104.4977436 121.1789191  45.1482865 103.2201318 120.3753170
  44.5674394 100.7968004  97.8317777  45.4293558 101.1222902  98.0913595
  44.7524739 100.0099500  97.3190843  36.5841810 108.8790343 110.1097966
  35.8905282 108.4644296 109.5967921  37.3314801 108.9210880 109.5131385
  52.7207031  99.6696530 104.9753000  52.1405700 100.3281334 104.5931053
  52.4542964  98.8473875 104.5640418  51.1710597  99.0701588 107.1774321
  51.6710376  99.1818123 106.3688640  51.8146205  98.7662641 107.8175129
  45.2292593 106.9780218 120.0642162  44.7459675 107.7780578 120.2706051
  45.3153532 106.9888162 119.1109606  38.4978553 108.8108597 107.9863981
  38.4749241 108.9096285 107.0345864  38.8079189 109.6573748 108.3081147
  41.1565931 110.8684752 112.1010595  42.1109184 110.8368695 112.0340527
  40.9578454 110.4075376 112.9160821  41.7465313 109.4385868 114.6681393
  42.5658202 109.9329947 114.6916230  42.0202120 108.5217836 114.6398961
  51.5031909 101.8296621 104.0309349  50.6157764 102.1146271 103.8129543
  51.9185898 101.6690384 103.1836626  54.8546445 101.8543142 107.7463688
  55.6306835 102.3439594 108.0188305  54.1294579 102.2801196 108.2035557
  57.2919004 102.5670761 108.8037628  57.8863494 102.3266497 108.0930937
  57.3645587 101.8477891 109.4311165  39.5116159 116.4104372 109.1180793
  39.3770627 115.6504773 108.5518791  39.0948222 117.1345272 108.6509582
  50.6475122 111.5941295  98.1257369  51.3510972 111.7991298  98.7415024
  49.9237771 112.1618057  98.3906452  51.4772933 107.3451157 104.2459639
  51.4208134 107.8019708 103.4067271  52.0301275 106.5841841 104.0682482
  55.2877739 103.1340888 105.0709758  55.0314673 102.7337524 105.9017966
  54.6630607 103.8484682 104.9459897  59.5990076 105.8736962 107.5781050
  59.0389634 105.9430151 108.3512612  58.9933580 105.6977946 106.8580546
  42.6685285 117.3073689 109.3299236  42.5517669 118.2519121 109.2277926
  41.8477731 117.0047250 109.7185035  52.5561820 112.0323825 100.1755829
  53.3907424 111.6005023  99.9933303  52.3946163 111.8605838 101.1032723
  52.2107712 108.5355938 101.5412168  52.1556516 108.3700209 100.6000612
  51.5853767 109.2431971 101.6974358  37.0000227 103.7724002 115.3673590
  37.6459091 103.2622956 115.8560815  36.7917378 104.5092684 115.9417015
  49.5253619 110.8404850 120.8665731  50.3944779 111.0145502 120.5052366
  49.0460371 111.6599267 120.7441460  45.5203837  98.0364047 101.1197486
  45.5082507  98.9805887 101.2765757  46.4127259  97.8534192 100.8256948
  43.6939799 117.9601951 112.5455164  44.5967046 117.9925561 112.8621659
  43.4677169 117.0302402 112.5601500  45.4493401 116.7132937 109.2065243
  44.4989032 116.7134799 109.0929615  45.7525887 115.9665672 108.6901278
  49.3355957  94.6306823 105.3743423  48.5688353  94.0765310 105.5200106
  49.7466662  94.7028692 106.2357575  41.3397718 100.9191619 119.4648604
  42.2029179 100.5628424 119.6751929  40.7663129 100.5805514 120.1524009
  61.1846095 122.5493476 110.2711005  61.8224505 122.4300223 109.5674345
  61.0666938 123.4974320 110.3298958  57.9935801 122.5020904 110.2072530
  57.6554313 122.3861968 109.3193065  58.8625569 122.1012069 110.1873536
  53.8522617 124.3556380 106.1969421  53.2887482 124.2646317 105.4285709
  53.7375012 123.5356285 106.6771914  58.4755584 123.6555755 116.1658736
  58.4644225 123.2608554 115.2939239  58.6376224 122.9221828 116.7592507
  51.3987049 125.8507572 109.0353642  52.1908341 125.5098396 108.6199941
  51.6383699 125.9602547 109.9555795  59.4322176 128.0227348 101.5083886
  58.7810155 128.6081428 101.1217900  60.2266538 128.5533543 101.5678923
  53.3577803 125.1116485 101.9071020  54.1308679 124.5645472 101.7683896
  53.7103202 125.9760734 102.1185482  55.1962845 126.4392867 115.1137920
  54.9052711 127.3438498 114.9984586  55.8319830 126.4809395 115.8281989
  56.1219052 123.8169716 111.7039279  56.7182624 123.5925738 110.9896242
  56.1794024 123.0754461 112.3064727  55.6944081 121.2709151  99.5389470
  55.9469601 120.7490672  98.7772933  54.7568640 121.1075297  99.6416154
  60.7387363 120.2744929 107.3464213  61.5250453 119.8564353 106.9954630
  61.0026068 121.1791022 107.5145862  60.9097441 125.7117780 102.0452870
  60.2743274 125.7852406 102.7573775  60.5794847 126.3011379 101.3671950
  66.1395790 120.2120163 108.2497192  66.8720962 119.6419379 108.4835021
  65.3835146 119.8241763 108.6903698  55.4140369 123.1737257 101.7413845
  55.2976627 122.4982160 102.4094929  55.5242629 122.6869631 100.9245998
  57.7571910 122.6347404 105.4460534  57.3930117 122.1078025 106.1573456
  58.6139026 122.2445873 105.2727020  63.6621211 113.9241737 112.7091801
  63.3304536 114.7937148 112.4853016  63.0666824 113.6078021 113.3885831
  57.3977397 117.6637304 100.4421883  57.5651799 118.5317540 100.8092354
  57.2074566 117.8264586  99.5183172  60.1552730 126.1254283 112.1087713
  59.8553453 127.0279322 112.0003521  59.8103790 125.8586466 112.9608866
  53.6065212 122.5768080 108.1424418  52.6815708 122.4444294 108.3502109
  53.8549625 123.3562299 108.6394360  63.5549874 118.6436823 109.7885151
  62.6466751 118.5752231 109.4943912  63.5037470 119.1208768 110.6166976
  57.3766618 120.1194961 101.4268550  57.2566243 120.5652012 102.2654030
  56.6819206 120.4680279 100.8682088  50.9674023 122.2201353 108.9768207
  51.0966404 122.4735832 109.8907618  50.2871474 122.8129061 108.6572862
  55.1373510 132.8898603 105.0758681  55.0597540 133.8406428 105.1547162
  54.5335154 132.5444476 105.7333607  57.6290740 120.0626469 117.7320048
  56.8524074 120.6220389 117.7222913  58.2681303 120.5483252 118.2534918
  65.4211521 116.8453261 111.5663025  64.7785901 117.1385795 110.9202819
  64.9166449 116.7306182 112.3716221  63.0751684 120.5916435 102.2548884
  63.9869540 120.8243821 102.0796581  62.5661331 121.1753479 101.6923962
  55.8837112 122.8711922 117.2938015  56.6251797 123.4096966 117.0172839
  55.1774098 123.4978211 117.4509567  61.3592452 125.0141062 115.8910176
  61.7675808 124.5723473 115.1464809  60.6369713 124.4393690 116.1444369
  57.7123522 119.9513669 113.2643733  58.5584717 120.3753083 113.4078382
  57.6522160 119.2947293 113.9582296  61.6821266 125.5742253 109.6462465
  61.0530129 125.7387967 108.9438533  61.2946929 125.9883863 110.4173429
  65.5610498 126.5096691 107.0006829  64.8761537 126.8895592 106.4503862
  65.6454348 127.1192018 107.7338777  60.8622967 117.6118038 114.9224907
  60.6183899 118.3660098 114.3859183  61.1382898 117.9903385 115.7572154
  62.8161430 124.1556650 113.6002173  63.0278325 124.7988410 112.9236554
  62.7691178 123.3218966 113.1324103  60.4187659 116.7674471 110.5038745
  59.5572138 117.0655724 110.7955482  60.4450094 116.9844869 109.5719777
  57.2349228 125.3116661 106.9112550  57.6987574 125.5904364 106.1217173
  56.9706026 124.4100106 106.7285641  54.1273309 124.8588143 109.8492314
  54.6974666 125.2875411 109.2109798  54.7181421 124.5770727 110.5476499
  56.1718114 121.4339813 103.7202115  56.8742158 121.8860857 104.1876042
  55.8398743 120.7923632 104.3482009  54.6198476 120.0251570 118.0953325
  53.9897137 120.7067851 118.3288722  54.5134564 119.9134652 117.1506463
  49.9143448 119.6923366 109.0219249  49.1242502 119.9480895 108.5459360
  50.4054696 120.5071704 109.1271290  63.9307258 127.0328605 111.7724530
  64.7524702 126.6308793 111.4907212  63.9269661 126.9296839 112.7240646
  51.8658194 120.0567945 105.9802726  51.0689357 120.1686640 106.4986221
  51.6383786 120.3954598 105.1143616  57.6963861 126.5812649 113.9285240
  57.7608294 127.0433056 114.7643412  56.9874785 125.9510014 114.0567550
  48.1981151 119.9453857 111.4534240  48.4489190 120.8300866 111.7191816
  48.7340700 119.7658458 110.6809332  72.0213251 123.3767354 108.1209501
  71.2676959 122.8074752 107.9653506  72.1560792 123.3430018 109.0680136
  57.4111879 128.2480756 103.7964221  57.2757554 129.0932292 104.2249069
  57.9521692 128.4500034 103.0330155  53.8979219 114.3272336 120.4578576
  53.5046164 113.7738534 121.1326220  54.7145359 114.6382914 120.8485093
  50.8641276 125.7656194 104.3692146  51.3765797 126.5599444 104.5197710
  51.5163989 125.0682485 104.3025747  52.6736161 128.8821950 106.4514899
  52.8502789 129.8039915 106.2635883  53.4692995 128.5680370 106.8809279
  56.8147180 115.7430215 118.0498832  57.5556893 116.3437368 117.9703295
  57.0465102 115.0007853 117.4916875  51.9588518 120.9286582 116.3277062
  51.8442033 120.0271840 116.6284161  51.1033035 121.1750279 115.9761879
  59.0380355 128.8704323 117.9264563  58.5944210 128.0840701 117.6085467
  59.6997569 129.0583473 117.2608454  53.7967477 130.4000124 112.4525241
  54.3474902 130.2717188 111.6802235  52.9578952 130.6995013 112.1020134
  61.1361593 129.1507123 115.9545964  61.1180069 129.9716004 115.4626233
  62.0581514 129.0261198 116.1796105  57.5934648 126.6651252 116.7969472
  58.1262984 125.9039540 116.5668780  57.0648729 126.3724904 117.5393627
  60.7604343 111.7711318 112.3263114  60.4168612 112.6612960 112.2502225
  61.1283305 111.5812976 111.4632699  48.8290193 124.0944848 105.1451716
  49.6665415 124.5041857 104.9285424  49.0068461 123.1544291 105.1151910
  60.7254625 121.7619929 100.8335549  60.2101249 122.5324534 101.0723937
  60.4531934 121.0885065 101.4568611  58.3101736 116.6069630 105.8920788
  57.4543333 116.2176480 105.7126426  58.7228688 116.6861591 105.0320573
  59.8400883 114.1415973 110.2912347  59.3365679 114.1046108 109.4780153
  60.1331490 115.0508716 110.3509004  56.0843769 114.2254703 109.2978529
  56.9496766 114.0297512 108.9384419  56.1521278 113.9965055 110.2247886
  65.6988899 124.5152284 102.7688723  64.9218342 124.1763443 102.3243885
  66.3780380 124.5204907 102.0943688  60.5140928 119.6347021 102.6595330
  60.2091064 119.9493170 103.5105474  61.4671371 119.7128441 102.7022663
  58.9587360 125.7937244 104.3088284  58.4308722 125.0590004 103.9961522
  58.4574863 126.5711921 104.0628253  63.9380206 123.9886265 109.4255331
  63.2803881 124.6785526 109.5135459  64.7420606 124.3782697 109.7689317
  53.6906088 116.4556911 106.6694896  54.2649840 116.2332092 105.9368089
  54.2777070 116.5245605 107.4223497  62.7485665 122.3430638 107.4759272
  63.2617547 122.9760630 107.9780982  63.3986889 121.7431833 107.1102633
  54.0175675 118.4861372 100.6890781  53.1812987 118.8236058 101.0100056
  53.8780445 118.3510352  99.7517918  55.9928756 113.3298160 105.3969965
  55.3393168 113.0147177 104.7726580  55.9509230 112.7073900 106.1229788
  57.1039961 123.6117455  97.3123257  56.1967022 123.3806708  97.5114406
  57.6010993 122.8155074  97.4997239  60.0108039 132.3214962 100.2319944
  59.3369738 132.6246659 100.8404901  60.3973861 133.1244042  99.8825401
  59.2266496 119.8180093 109.7217613  58.3089057 120.0395040 109.5639301
  59.6426640 119.8926404 108.8629320  60.0101544 121.2171509 104.8520293
  60.7573363 121.7292906 104.5427415  60.2793133 120.8955562 105.7124687
  58.2828194 123.7130050 101.8347248  57.3739413 123.4289082 101.9319717
  58.3123278 124.1329128 100.9750554  63.5147461 127.3236639 105.6038415
  63.0609788 126.4827549 105.6603606  62.8841428 127.9598037 105.9413195
  62.4580381 118.2528625 106.8339083  61.7203138 117.7406011 107.1649325
  62.7107154 117.8129007 106.0222359  61.9580401 129.1613136 106.5388233
  62.2503375 129.7218193 105.8200599  62.4679021 129.4541697 107.2941392
  62.5592008 111.0304877 107.4280852  62.8650885 110.1702241 107.1406767
  63.2844613 111.6222497 107.2279846  48.8516364 121.4335564 105.8162450
  48.6540764 120.8404924 105.0913516  48.2963028 121.1287774 106.5338389
  56.8313088 121.3258670 107.9357043  56.8861698 120.3732507 107.8599520
  56.0204290 121.4818109 108.4198341  57.9804282 125.2538793  99.1735326
  57.5423712 124.5374652  98.7140963  58.7214723 125.4814908  98.6120418
  54.7705448 119.9435730 105.6947422  53.9573313 120.2429901 106.1012614
  55.2664442 119.5491419 106.4121904  56.9214026 129.9393487 107.6281686
  56.8790205 130.1654333 106.6990218  57.8376725 129.7056861 107.7767488
  60.3679660 120.4077554 114.5262316  60.7229047 120.6349028 115.3856781
  61.0151791 120.7395931 113.9039571  66.0977397 123.5295990 105.2311645
  65.9595295 123.7197586 104.3032834  65.7413615 124.2915373 105.6879696
  54.2619523 117.5154085 111.3108657  54.9018902 117.3742845 110.6131620
  53.4297053 117.2288599 110.9347259  66.1246776 125.5972517 110.2422916
  66.5583283 125.5047806 111.0905970  66.8378357 125.5730018 109.6042932
  55.0379827 126.8156516 107.4243649  55.8320425 126.3206836 107.2226224
  54.3271519 126.2874379 107.0611355  59.8574671 129.1974611 111.7756017
  59.9111693 129.7665548 112.5433733  58.9889452 129.3676496 111.4110054
  51.3462590 120.9599598 103.5003402  50.4160178 120.8984053 103.7173364
  51.4420062 120.4375550 102.7040043  51.2648139 117.4854410 106.0881644
  51.5254956 118.3999744 105.9790804  52.0865311 117.0178853 106.2378256
  52.7373064 118.8992168 113.2580468  53.4096118 118.6909530 112.6093117
  51.9102851 118.7014254 112.8185700  66.9862326 125.6396218 112.7755802
  67.1798216 126.5442028 113.0215077  66.8862944 125.1803637 113.6094387
  58.6398636 115.5254109 115.2746129  57.9926551 116.2244058 115.1810605
  59.4099652 115.9590252 115.6422377  62.0477434 125.7902961 118.3496682
  61.8962941 125.5613512 117.4326766  62.0382114 126.7473562 118.3628027
  58.8162771 123.3634873 113.3342949  59.7454831 123.5146033 113.1611916
  58.3953801 123.4518894 112.4791595  57.6151103 127.3885538 111.1041486
  57.4762188 127.0204322 111.9767424  56.8265699 127.9033177 110.9325444
  58.2099255 132.4894634 102.4467023  58.3851010 132.0182678 103.2612646
  57.5232043 133.1160401 102.6748284  59.1656318 126.7667141 108.4930324
  58.8306150 126.7267911 109.3887974  58.6660263 126.1011857 108.0200734
  53.1400562 122.1734771 114.0182905  53.0020360 121.4415009 114.6194444
  54.0505485 122.0843671 113.7367093  62.1015509 124.1123175  98.7667384
  61.4844680 123.3870003  98.6700436  61.6331998 124.8732535  98.4234458
  55.7682862 121.8854730 113.5066585  56.4782481 121.2447922 113.4653203
  55.7252171 122.1367625 114.4292766  63.7569641 128.8222083 116.4273164
  63.6982187 128.1381303 115.7603747  64.1589159 129.5641073 115.9753790
  54.4811796 118.8719948 115.3262224  53.9449153 118.4210686 115.9783821
  53.8928505 119.0065857 114.5832689  53.8914055 118.3308599  97.8888688
  53.0143522 118.2097400  97.5250935  54.3671808 117.5394678  97.6367577
  63.7587048 126.7861667 114.6587144  62.8713827 126.4487589 114.7813543
  64.3285599 126.0544698 114.8955909  45.4116195 123.1185759 107.9830195
  46.0987235 122.8047489 107.3951210  45.2564324 124.0227124 107.7097447
  50.2150918 118.0075956 112.4115219  50.1309106 117.4001625 111.6765629
  49.3933624 118.4984974 112.4124715  57.2888202 131.4463120 111.6248387
  57.2158373 132.2518091 112.1367692  56.8465595 131.6455085 110.7996408
  57.0777981 130.6834890 105.1351209  56.2945503 131.2256570 105.2289433
  57.7770726 131.2008869 105.5345450  60.3874631 116.4929519 107.7785414
  60.8843331 115.7399481 107.4586484  59.6161613 116.5293836 107.2128623
  68.2404389 122.1969885 109.4203705  68.2294265 123.0794600 109.0497639
  67.3721768 121.8441435 109.2258242  59.7486885 131.3449954 113.7806546
  60.4614857 131.9797418 113.7082447  59.2576914 131.4413820 112.9646547
  61.4704412 125.2501206 105.3523837  60.5360691 125.3702669 105.1828542
  61.6481081 124.3473673 105.0883847  56.9709600 118.6346902 107.5057099
  56.6007388 118.0817942 108.1938004  57.4668693 118.0305036 106.9532099
  64.8576963 121.0918526 105.8873871  65.3237416 121.9246517 105.8134174
  65.3084464 120.6263507 106.5919130  54.7998799 129.0944397 114.6012116
  55.5008258 129.7280880 114.7541511  54.3293914 129.4359129 113.8407756
  62.9253195 127.4362347 102.8860023  63.2013038 127.3218941 103.7953898
  62.0557693 127.0379832 102.8472197  62.8293626 113.4599113 109.9264773
  61.9156706 113.6903339 110.0946980  63.2586728 113.5437557 110.7778805
  62.6000085 121.6489005 112.4264667  61.9471535 121.8964912 111.7717120
  62.9780465 120.8353143 112.0927144  59.5607259 131.6848698 106.5292837
  59.7429653 130.8670354 106.9920589  60.3840245 131.9016390 106.0917727
  59.8949424 130.6116883 103.7907886  60.4237191 130.1009337 103.1778048
  60.1577644 130.2959413 104.6553419  58.6487658 122.3908816 118.9130704
  57.9728295 122.2902945 119.5833079  59.4715292 122.2348029 119.3766701
  50.3966517 128.6280752 111.5343219  50.9819954 127.8824440 111.6671123
  50.1991355 128.9384709 112.4179883  53.2505172 131.6632000 106.5505662
  52.5815547 132.1478127 106.0669702  53.1118042 131.9101220 107.4649040
  44.9884172 121.1986352 110.2547662  45.0268271 120.6649943 111.0484780
  44.4824464 120.6721558 109.6358639  57.3910441 133.6975743 113.1488320
  57.9428749 133.8607365 113.9137405  57.7316634 134.2880181 112.4768345
  52.3674934 116.0450893 113.7510205  52.4316260 116.9065724 113.3387602
  52.3042054 115.4324894 113.0182563  51.8427206 118.1174025 117.3983239
  52.4699245 117.7351103 118.0120763  50.9855125 117.8988227 117.7638931
  62.2421315 128.5237001 119.0036974  62.7861219 129.1366959 118.5091929
  61.6608160 129.0816579 119.5203987  48.6192749 119.9250454 103.3301594
  48.9146190 119.0161133 103.2768647  47.7180785 119.9038194 103.0082596
  60.5278828 131.6457719 110.1352002  60.4029967 130.8447458 109.6262948
  61.1857919 132.1403912 109.6465972  52.1486996 118.0006451 109.3129142
  51.4273582 118.6142419 109.1736616  52.9380252 118.5364216 109.2345788
  62.5913736 129.4466739 111.7631552  61.6444072 129.3272090 111.6909879
  62.9396509 128.5589237 111.8457814  54.9513310 115.3360878 115.5869794
  55.4747711 115.5823174 116.3496103  54.7325643 116.1680912 115.1672931
  50.3480591 117.6064552 103.4540919  50.0193297 116.7261931 103.2716025
  50.7019961 117.5512221 104.3417308  59.5960170 129.2419455 107.9635904
  59.4485132 128.3136162 108.1443474  60.4213663 129.2639546 107.4792980
  53.4622414 117.8937522 103.8216397  53.8018486 118.4223443 103.0995005
  53.9094534 118.2317928 104.5974963  63.1994291 130.0648014 109.0500777
  64.1240839 129.8590875 108.9125228  63.0309595 129.8164415 109.9590119
  56.1565855 116.2774573 113.2719465  55.8162675 115.4782386 113.6740144
  55.4504861 116.5776284 112.6996298  56.8082327 113.3623885 111.7246788
  57.6308396 112.8884363 111.6025678  57.0520390 114.1414369 112.2245474
  55.4490561 116.3912144 102.0209689  56.1698924 116.7693396 101.5173406
  54.8255865 117.1101020 102.1244667  59.5921684 117.0957293 102.9568022
  59.8085298 117.9781930 102.6556850  59.1115751 116.7043506 102.2273664
  54.3320905 120.0543006 109.5338766  54.1865486 120.3683309 110.4263048
  53.8546109 120.6727906 108.9809665  56.1917288 117.0445554 109.5819656
  56.1778857 116.1486647 109.2451954  56.9089716 117.0516217 110.2157942
  58.0443419 117.4782894 111.6272783  57.7861197 118.3999965 111.6257114
  57.5128459 117.0813328 112.3173247  62.9889608 130.5833681 104.4062869
  63.1626485 130.0180104 103.6536721  63.4818499 131.3834576 104.2242359
  48.8066567 122.5948350 112.4726427  48.2620036 123.3708158 112.6046702
  49.6845917 122.9419155 112.3145549  55.5954184 115.9259934 104.8507226
  55.7170095 114.9976580 105.0498113  55.3056226 115.9398620 103.9385541
  58.4645374 113.6114844 107.9873946  58.4867071 113.6754178 107.0325925
  58.8813433 112.7719353 108.1814452  68.8428999 123.3470104 106.0253168
  69.2860145 122.5977429 105.6272292  67.9655509 123.3380240 105.6426900
  63.9764780 129.9000445 101.5059767  64.6715685 130.5207138 101.7247081
  64.3187930 129.0495797 101.7812145  49.5932589 121.7218246 115.3656584
  48.8514325 121.8700882 115.9521215  49.2725334 121.9826512 114.5023334
  65.8756203 127.3500151 103.0347098  66.4007527 127.6887424 102.3096418
  65.7878556 126.4147166 102.8510232  57.5376252 131.2634225 115.1636974
  57.8463378 131.0183371 116.0359674  58.3351734 131.4680863 114.6755844
  57.5596864 133.4172134 107.3942351  57.1201854 132.9248513 108.0875208
  58.3104981 132.8745102 107.1534426  50.0389203 129.6083675 107.3966979
  50.8647223 129.3087447 107.0165622  49.6883255 128.8391298 107.8456768
  55.0070736 128.9610143 109.4664652  54.3850745 128.2980848 109.1666880
  55.6775603 128.9871275 108.7838300  48.2397808 127.5270002 108.3555912
  47.4029716 127.0992176 108.1739914  48.2121453 127.7202445 109.2926704
  55.0795264 117.4391931 119.0597159  55.1283419 118.3154054 118.6774928
  55.6217778 116.8969324 118.4868802  65.5650109 127.9833055 118.3398296
  64.7745653 127.9657193 117.8002795  65.3283464 128.5221348 119.0947332
  65.6847984 124.8325521 115.6531024  65.7345989 124.6675528 116.5946547
  65.5761908 123.9652780 115.2628905  54.5684243 127.5114067 102.9423113
  54.7172363 128.1949531 102.2889786  55.3750687 127.4919157 103.4572569
  62.9751747 120.8156449 116.9690331  63.8761610 120.6762914 116.6774329
  63.0499721 120.9810904 117.9088508  57.3094552 118.1923304 115.8143517
  56.4397861 118.4856870 115.5426106  57.5454032 118.7763749 116.5350781
  67.1866181 127.2522463 115.8973046  66.8950989 127.6152443 116.7336507
  66.5738312 126.5389471 115.7186378  68.3861864 124.8175342 108.4175616
  69.2208755 125.2565146 108.5813176  68.5220992 124.3413995 107.5983862
  65.4353369 122.3755077 114.3653104  65.9107491 122.5682723 113.5571955
  64.5118935 122.4314263 114.1196487  52.3236876 123.5379244 103.9484182
  52.0782918 122.6341574 104.1464392  52.4932791 123.5396395 103.0063660
  60.0133586 114.4102921 113.3308938  60.5315530 115.1463948 113.0055426
  59.6588719 114.7166914 114.1655697  51.5932524 119.2707602 101.4470343
  50.9001769 119.3451957 100.7910379  51.3484275 118.5067946 101.9691860
  60.2646180 110.8303203 108.8509834  60.5447934 110.1626392 109.4770261
  61.0496787 111.0232299 108.3384498  58.0679649 130.0062197 100.4134860
  57.4953616 130.6252384  99.9605332  58.6412442 130.5561559 100.9474782
  64.1355038 119.2520837 112.5981409  65.0872461 119.3518935 112.6193633
  63.9658489 118.4599106 113.1079494  62.1569418 116.3376420 112.7840810
  61.5619350 116.6181433 112.0887299  61.8719115 116.8270321 113.5557551
  61.2876908 130.2899347 101.5443443  62.2207582 130.2244909 101.7476318
  61.2000121 131.1255614 101.0857975  63.9164925 129.6065218  98.5047390
  63.8378557 129.2725081  99.3983148  64.7374592 130.0986986  98.5038863
  66.6143116 122.4726957 111.7123709  66.5819436 121.5342958 111.8983393
  67.2243740 122.5510994 110.9789534  58.4526447 121.3423010  97.7550913
  59.3985552 121.2129218  97.8239331  58.0740692 120.6037672  98.2320341
  66.7637605 119.2638000 111.7581992  66.2476653 118.4796457 111.5711921
  67.6477553 118.9356717 111.9228512  64.4248332 113.0079016 107.7177805
  64.2273153 112.6994104 108.6021137  65.0348037 113.7340655 107.8475735
  72.4319666 123.5342964 110.8529746  73.1623055 123.2728252 111.4137449
  71.8226612 122.7971686 110.8931814  70.5134963 121.6750826 111.4504197
  69.7868127 121.5406791 110.8420688  70.0982250 121.9827655 112.2560915
  58.3365140 125.3940756 119.2151570  59.2568149 125.5719355 119.4091616
  58.3014723 124.4496801 119.0631269  56.6369364 119.2672986  97.6905798
  55.7300820 118.9706099  97.7668512  56.9145345 118.9702804  96.8240084
  47.5547305 120.5879350 108.1404845  47.2350089 119.7344658 107.8479219
  47.0080733 120.8027928 108.8962812  51.3327212 123.3041791 111.8574351
  51.5513222 124.2358898 111.8762385  51.7452986 122.9449765 112.6429155
  58.2531430 113.8109876 103.8450039  57.4432158 113.4656961 104.2205286
  58.9415847 113.5017420 104.4337651  60.1821978 112.8887923 105.4674336
  60.7353017 113.3083376 106.1264359  60.4192065 111.9623671 105.5097292
  56.2055077 118.8774996 121.2477100  56.1051804 119.8269353 121.1789191
  55.9876620 118.5493235 120.3753170  55.4068149 116.1259921  97.8317777
  56.2687313 116.4514820  98.0913595  55.5918493 115.3391417  97.3190843
  47.4235565 124.2082261 110.1097966  46.7299036 123.7936214 109.5967921
  48.1708556 124.2502798 109.5131385  63.5600785 114.9988448 104.9753000
  62.9799454 115.6573252 104.5931053  63.2936718 114.1765793 104.5640418
  62.0104352 114.3993506 107.1774321  62.5104130 114.5110040 106.3688640
  62.6539960 114.0954559 107.8175129  56.0686348 122.3072135 120.0642162
  55.5853429 123.1072495 120.2706051  56.1547287 122.3180080 119.1109606
  49.3372307 124.1400515 107.9863981  49.3142995 124.2388202 107.0345864
  49.6472944 124.9865666 108.3081147  51.9959685 126.1976670 112.1010595
  52.9502939 126.1660612 112.0340527  51.7972209 125.7367294 112.9160821
  52.5859067 124.7677786 114.6681393  53.4051956 125.2621865 114.6916230
  52.8595875 123.8509754 114.6398961  62.3425663 117.1588538 104.0309349
  61.4551518 117.4438189 103.8129543  62.7579652 116.9982302 103.1836626
  65.6940199 117.1835059 107.7463688  66.4700590 117.6731512 108.0188305
  64.9688334 117.6093114 108.2035557  68.1312758 117.8962679 108.8037628
  68.7257249 117.6558414 108.0930937  68.2039342 117.1769809 109.4311165
  50.3509914 131.7396289 109.1180793  50.2164382 130.9796690 108.5518791
  49.9341976 132.4637189 108.6509582  61.4868877 126.9233213  98.1257369
  62.1904727 127.1283216  98.7415024  60.7631526 127.4909975  98.3906452
  62.3166687 122.6743074 104.2459639  62.2601888 123.1311626 103.4067271
  62.8695030 121.9133759 104.0682482  66.1271493 118.4632806 105.0709758
  65.8708427 118.0629442 105.9017966  65.5024361 119.1776600 104.9459897
  70.4383831 121.2028879 107.5781050  69.8783389 121.2722069 108.3512612
  69.8327334 121.0269864 106.8580546  53.5079040 132.6365606 109.3299236
  53.3911424 133.5811039 109.2277926  52.6871486 132.3339168 109.7185035
  63.3955574 127.3615742 100.1755829  64.2301178 126.9296941  99.9933303
  63.2339917 127.1897756 101.1032723  63.0501466 123.8647856 101.5412168
  62.9950270 123.6992127 100.6000612  62.4247522 124.5723888 101.6974358
  47.8393981 119.1015920 115.3673590  48.4852845 118.5914874 115.8560815
  47.6311133 119.8384602 115.9417015  60.3647374 126.1696767 120.8665731
  61.2338533 126.3437420 120.5052366  59.8854125 126.9891184 120.7441460
  56.3597592 113.3655965 101.1197486  56.3476262 114.3097804 101.2765757
  57.2521014 113.1826110 100.8256948  54.5333554 133.2893868 112.5455164
  55.4360801 133.3217479 112.8621659  54.3070924 132.3594319 112.5601500
  56.2887156 132.0424855 109.2065243  55.3382787 132.0426717 109.0929615
  56.5919642 131.2957589 108.6901278  60.1749711 109.9598741 105.3743423
  59.4082107 109.4057228 105.5200106  60.5860416 110.0320610 106.2357575
  52.1791472 116.2483537 119.4648604  53.0422934 115.8920342 119.6751929
  51.6056883 115.9097432 120.1524009  72.0239849 137.8785393 110.2711005
  72.6618259 137.7592141 109.5674345  71.9060692 138.8266237 110.3298958
  68.8329556 137.8312821 110.2072530  68.4948067 137.7153886 109.3193065
  69.7019324 137.4303987 110.1873536  64.6916371 139.6848298 106.1969421
  64.1281236 139.5938235 105.4285709  64.5768766 138.8648202 106.6771914
  66.9612807 139.1461633 111.7039279  67.5576379 138.9217656 110.9896242
  67.0187778 138.4046379 112.3064727  66.5337835 136.6001069  99.5389470
  66.7863356 136.0782590  98.7772933  65.5962394 136.4367214  99.6416154
  71.5781118 135.6036847 107.3464213  72.3644207 135.1856270 106.9954630
  71.8419822 136.5082939 107.5145862  71.7491195 141.0409697 102.0452870
  71.1137028 141.1144324 102.7573775  71.4188602 141.6303296 101.3671950
  76.9789545 135.5412080 108.2497192  77.7114717 134.9711297 108.4835021
  76.2228901 135.1533681 108.6903698  66.2534124 138.5029175 101.7413845
  66.1370382 137.8274078 102.4094929  66.3636384 138.0161549 100.9245998
  68.5965665 137.9639322 105.4460534  68.2323872 137.4369943 106.1573456
  69.4532781 137.5737791 105.2727020  68.2371152 132.9929222 100.4421883
  68.4045554 133.8609458 100.8092354  68.0468321 133.1556503  99.5183172
  64.4458966 137.9059997 108.1424418  63.5209463 137.7736211 108.3502109
  64.6943379 138.6854217 108.6394360  74.3943629 133.9728741 109.7885151
  73.4860506 133.9044149 109.4943912  74.3431224 134.4500686 110.6166976
  68.2160373 135.4486879 101.4268550  68.0959998 135.8943930 102.2654030
  67.5212961 135.7972197 100.8682088  61.8067777 137.5493271 108.9768207
  61.9360158 137.8027750 109.8907618  61.1265229 138.1420979 108.6572862
  73.9145439 135.9208352 102.2548884  74.8263295 136.1535739 102.0796581
  73.4055086 136.5045396 101.6923962  68.5517276 135.2805587 113.2643733
  69.3978472 135.7045000 113.4078382  68.4915914 134.6239211 113.9582296
  71.2581413 132.0966388 110.5038745  70.3965892 132.3947642 110.7955482
  71.2843848 132.3136787 109.5719777  68.0742983 140.6408579 106.9112550
  68.5381328 140.9196282 106.1217173  67.8099781 139.7392023 106.7285641
  67.0111869 136.7631731 103.7202115  67.7135912 137.2152775 104.1876042
  66.6792497 136.1215550 104.3482009  60.7537203 135.0215284 109.0219249
  59.9636257 135.2772812 108.5459360  61.2448450 135.8363622 109.1271290
  62.7051948 135.3859863 105.9802726  61.9083112 135.4978557 106.4986221
  62.4777540 135.7246515 105.1143616  59.0374906 135.2745774 111.4534240
  59.2882944 136.1592784 111.7191816  59.5734454 135.0950376 110.6809332
  62.7982272 136.2578500 116.3277062  62.6835787 135.3563757 116.6284161
  61.9426790 136.5042197 115.9761879  71.5998097 127.1003236 112.3263114
  71.2562366 127.9904877 112.2502225  71.9677060 126.9104893 111.4632699
  71.5648380 137.0911847 100.8335549  71.0495003 137.8616451 101.0723937
  71.2925688 136.4176983 101.4568611  69.1495491 131.9361548 105.8920788
  68.2937087 131.5468398 105.7126426  69.5622443 132.0153508 105.0320573
  70.6794637 129.4707891 110.2912347  70.1759433 129.4338026 109.4780153
  70.9725244 130.3800634 110.3509004  66.9237523 129.5546621 109.2978529
  67.7890520 129.3589429 108.9384419  66.9915032 129.3256972 110.2247886
  76.5382654 139.8444201 102.7688723  75.7612097 139.5055361 102.3243885
  77.2174135 139.8496825 102.0943688  71.3534683 134.9638939 102.6595330
  71.0484819 135.2785088 103.5105474  72.3065125 135.0420359 102.7022663
  64.5299842 131.7848828 106.6694896  65.1043594 131.5624010 105.9368089
  65.1170825 131.8537523 107.4223497  73.5879420 137.6722555 107.4759272
  74.1011301 138.3052547 107.9780982  74.2380644 137.0723751 107.1102633
  64.8569430 133.8153289 100.6890781  64.0206742 134.1527976 101.0100056
  64.7174199 133.6802269  99.7517918  66.8322510 128.6590077 105.3969965
  66.1786922 128.3439095 104.7726580  66.7902984 128.0365818 106.1229788
  67.9433715 138.9409372  97.3123257  67.0360777 138.7098626  97.5114406
  68.4404747 138.1446992  97.4997239  70.0660251 135.1472011 109.7217613
  69.1482812 135.3686958 109.5639301  70.4820394 135.2218321 108.8629320
  70.8495298 136.5463427 104.8520293  71.5967117 137.0584824 104.5427415
  71.1186888 136.2247479 105.7124687  69.1221948 139.0421967 101.8347248
  68.2133168 138.7581000 101.9319717  69.1517032 139.4621046 100.9750554
  74.3541216 142.6528557 105.6038415  73.9003543 141.8119467 105.6603606
  73.7235183 143.2889955 105.9413195  73.2974135 133.5820543 106.8339083
  72.5596892 133.0697929 107.1649325  73.5500909 133.1420924 106.0222359
  73.3985763 126.3596795 107.4280852  73.7044640 125.4994158 107.1406767
  74.1238368 126.9514415 107.2279846  59.6910119 136.7627481 105.8162450
  59.4934519 136.1696842 105.0913516  59.1356783 136.4579692 106.5338389
  67.6706842 136.6550588 107.9357043  67.7255452 135.7024424 107.8599520
  66.8598045 136.8110027 108.4198341  68.8198036 140.5830711  99.1735326
  68.3817466 139.8666570  98.7140963  69.5608477 140.8106826  98.6120418
  65.6099202 135.2727648 105.6947422  64.7967068 135.5721818 106.1012614
  66.1058197 134.8783336 106.4121904  76.9371151 138.8587908 105.2311645
  76.7989050 139.0489504 104.3032834  76.5807370 139.6207291 105.6879696
  65.1013277 132.8446003 111.3108657  65.7412656 132.7034762 110.6131620
  64.2690808 132.5580517 110.9347259  62.1856345 136.2891515 103.5003402
  61.2553933 136.2275971 103.7173364  62.2813817 135.7667468 102.7040043
  62.1041894 132.8146328 106.0881644  62.3648711 133.7291661 105.9790804
  62.9259066 132.3470771 106.2378256  63.5766819 134.2284085 113.2580468
  64.2489872 134.0201447 112.6093117  62.7496605 134.0306171 112.8185700
  69.4792391 130.8546026 115.2746129  68.8320306 131.5535976 115.1810605
  70.2493406 131.2882170 115.6422377  63.9794316 137.5026688 114.0182905
  63.8414114 136.7706927 114.6194444  64.8899240 137.4135588 113.7367093
  72.9409264 139.4415093  98.7667384  72.3238435 138.7161921  98.6700436
  72.4725752 140.2024453  98.4234458  66.6076617 137.2146648 113.5066585
  67.3176235 136.5739840 113.4653203  66.5645925 137.4659542 114.4292766
  65.3205551 134.2011866 115.3262224  64.7842908 133.7502604 115.9783821
  64.7322259 134.3357774 114.5832689  64.7307810 133.6600517  97.8888688
  63.8537276 133.5389318  97.5250935  65.2065563 132.8686595  97.6367577
  61.0544672 133.3367873 112.4115219  60.9702861 132.7293543 111.6765629
  60.2327378 133.8276892 112.4124715  71.2268386 131.8221437 107.7785414
  71.7237085 131.0691399 107.4586484  70.4555367 131.8585753 107.2128623
  72.3098167 140.5793124 105.3523837  71.3754445 140.6994586 105.1828542
  72.4874835 139.6765591 105.0883847  67.8103355 133.9638820 107.5057099
  67.4401142 133.4109860 108.1938004  68.3062447 133.3596953 106.9532099
  75.6970718 136.4210443 105.8873871  76.1631170 137.2538435 105.8134174
  76.1478218 135.9555425 106.5919130  73.7646949 142.7654265 102.8860023
  74.0406793 142.6510859 103.7953898  72.8951448 142.3671749 102.8472197
  55.8277926 136.5278270 110.2547662  55.8662026 135.9941861 111.0484780
  55.3218219 136.0013476 109.6358639  63.2068688 131.3742811 113.7510205
  63.2710015 132.2357641 113.3387602  63.1435809 130.7616812 113.0182563
  62.6820961 133.4465943 117.3983239  63.3093000 133.0643020 118.0120763
  61.8248880 133.2280145 117.7638931  59.4586504 135.2542372 103.3301594
  59.7539945 134.3453051 103.2768647  58.5574539 135.2330112 103.0082596
  62.9880751 133.3298369 109.3129142  62.2667336 133.9434336 109.1736616
  63.7774006 133.8656134 109.2345788  65.7907064 130.6652795 115.5869794
  66.3141466 130.9115092 116.3496103  65.5719397 131.4972830 115.1672931
  61.1874345 132.9356470 103.4540919  60.8587051 132.0553849 103.2716025
  61.5413716 132.8804139 104.3417308  64.3016168 133.2229440 103.8216397
  64.6412241 133.7515361 103.0995005  64.7488289 133.5609846 104.5974963
  66.9959609 131.6066490 113.2719465  66.6556430 130.8074303 113.6740144
  66.2898615 131.9068201 112.6996298  67.6476081 128.6915803 111.7246788
  68.4702150 128.2176281 111.6025678  67.8914145 129.4706287 112.2245474
  66.2884316 131.7204061 102.0209689  67.0092678 132.0985314 101.5173406
  65.6649620 132.4392938 102.1244667  70.4315438 132.4249210 102.9568022
  70.6479053 133.3073848 102.6556850  69.9509506 132.0335424 102.2273664
  65.1714660 135.3834923 109.5338766  65.0259240 135.6975226 110.4263048
  64.6939863 136.0019824 108.9809665  67.0311043 132.3737471 109.5819656
  67.0172611 131.4778565 109.2451954  67.7483471 132.3808135 110.2157942
  68.8837173 132.8074812 111.6272783  68.6254951 133.7291882 111.6257114
  68.3522214 132.4105246 112.3173247  66.4347939 131.2551852 104.8507226
  66.5563850 130.3268498 105.0498113  66.1449981 131.2690538 103.9385541
  69.3039129 128.9406762 107.9873946  69.3260826 129.0046095 107.0325925
  69.7207188 128.1011271 108.1814452  79.6822753 138.6762022 106.0253168
  80.1253899 137.9269347 105.6272292  78.8049264 138.6672158 105.6426900
  60.4326344 137.0510164 115.3656584  59.6908080 137.1992799 115.9521215
  60.1119088 137.3118430 114.5023334  76.7149958 142.6792069 103.0347098
  77.2401282 143.0179341 102.3096418  76.6272310 141.7439084 102.8510232
  63.1630631 138.8671162 103.9484182  62.9176672 137.9633492 104.1464392
  63.3326545 138.8688312 103.0063660  70.8527340 129.7394838 113.3308938
  71.3709284 130.4755865 113.0055426  70.4982473 130.0458832 114.1655697
  62.4326278 134.5999520 101.4470343  61.7395523 134.6743875 100.7910379
  62.1878030 133.8359863 101.9691860  71.1039935 126.1595121 108.8509834
  71.3841688 125.4918310 109.4770261  71.8890541 126.3524217 108.3384498
  72.9963172 131.6668338 112.7840810  72.4013105 131.9473351 112.0887299
  72.7112869 132.1562239 113.5557551  69.2920202 136.6714928  97.7550913
  70.2379306 136.5421136  97.8239331  68.9134447 135.9329589  98.2320341
  67.4763119 134.5964904  97.6905798  66.5694574 134.2998017  97.7668512
  67.7539100 134.2994722  96.8240084  58.3941059 135.9171267 108.1404845
  58.0743843 135.0636576 107.8479219  57.8474487 136.1319846 108.8962812
  69.0925184 129.1401794 103.8450039  68.2825913 128.7948879 104.2205286
  69.7809601 128.8309337 104.4337651  71.0215733 128.2179840 105.4674336
  71.5746771 128.6375294 106.1264359  71.2585819 127.2915589 105.5097292
  66.2461903 131.4551839  97.8317777  67.1081067 131.7806737  98.0913595
  66.4312248 130.6683335  97.3190843  74.3994540 130.3280366 104.9753000
  73.8193209 130.9865170 104.5931053  74.1330473 129.5057710 104.5640418
  72.8498106 129.7285423 107.1774321  73.3497885 129.8401958 106.3688640
  73.4933714 129.4246476 107.8175129  73.1819418 132.4880456 104.0309349
  72.2945273 132.7730107 103.8129543  73.5973407 132.3274219 103.1836626
  76.5333954 132.5126977 107.7463688  77.3094344 133.0023429 108.0188305
  75.8082088 132.9385031 108.2035557  78.9706513 133.2254596 108.8037628
  79.5651003 132.9850332 108.0930937  79.0433096 132.5061727 109.4311165
  73.1560442 138.0034992 104.2459639  73.0995643 138.4603543 103.4067271
  73.7088784 137.2425677 104.0682482  76.9665248 133.7924724 105.0709758
  76.7102182 133.3921359 105.9017966  76.3418116 134.5068518 104.9459897
  81.2777585 136.5320797 107.5781050  80.7177143 136.6013986 108.3512612
  80.6721089 136.3561782 106.8580546  74.2349329 142.6907660 100.1755829
  75.0694933 142.2588858  99.9933303  74.0733672 142.5189674 101.1032723
  73.8895221 139.1939773 101.5412168  73.8344025 139.0284045 100.6000612
  73.2641276 139.9015806 101.6974358  58.6787736 134.4307838 115.3673590
  59.3246599 133.9206792 115.8560815  58.4704887 135.1676519 115.9417015
  67.1991346 128.6947882 101.1197486  67.1870016 129.6389722 101.2765757
  68.0914768 128.5118028 100.8256948  71.0143466 125.2890659 105.3743423
  70.2475862 124.7349146 105.5200106  71.4254171 125.3612528 106.2357575
  77.6716265 143.9881995 105.3969965  77.0180677 143.6731012 104.7726580
  77.6296739 143.3657735 106.1229788  79.9318939 144.4693711 103.8450039
  79.1219667 144.1240796 104.2205286  80.6203356 144.1601255 104.4337651
  78.0385101 144.0239800 101.1197486  78.0263771 144.9681640 101.2765757
  78.9308523 143.8409945 100.8256948  81.8537220 140.6182577 105.3743423
  81.0869616 140.0641063 105.5200106  82.2647925 140.6904445 106.2357575
   6.9877324  22.9096010  96.9956312   7.6255734  22.7902757  96.2919652
   6.8698167  23.8576854  97.0544264   3.7967030  22.8623438  96.9317837
   3.4585541  22.7464503  96.0438372   4.6656798  22.4614603  96.9118843
   5.2353404  28.3829882  88.2329193   4.5841384  28.9683962  87.8463206
   6.0297767  28.9136077  88.2924230   1.9250281  24.1772250  98.4284586
   2.5213853  23.9528272  97.7141549   1.9825252  23.4356995  99.0310034
   1.4975309  21.6311685  86.2634777   1.7500830  21.1093207  85.5018240
   0.5599868  21.4677831  86.3661460   6.5418592  20.6347464  94.0709520
   7.3281681  20.2166887  93.7199937   6.8057296  21.5393556  94.2391168
   6.7128669  26.0720314  88.7698177   6.0774502  26.1454941  89.4819082
   6.3826076  26.6613913  88.0917256  11.9427019  20.5722697  94.9742499
  12.6752191  20.0021914  95.2080328  11.1866375  20.1844297  95.4149004
   1.2171598  23.5339791  88.4659152   1.1007856  22.8584695  89.1340236
   1.3273858  23.0472165  87.6491305   3.5603139  22.9949938  92.1705841
   3.1961346  22.4680559  92.8818763   4.4170255  22.6048407  91.9972326
   5.9583959  26.4856817  98.8333020   5.6584682  27.3881856  98.7248827
   5.6135019  26.2189000  99.6854173   9.3581103  19.0039357  96.5130457
   8.4497980  18.9354766  96.2189218   9.3068699  19.4811302  97.3412283
   3.1797847  20.4797496  88.1513856   3.0597472  20.9254546  88.9899337
   2.4850435  20.8282813  87.5927395  11.2242749  17.2055796  98.2908331
  10.5817130  17.4988329  97.6448126  10.7197678  17.0908716  99.0961528
   8.8782913  20.9518969  88.9794190   9.7900769  21.1846356  88.8041888
   8.3692560  21.5356013  88.4169269   7.4852495  25.9344787  96.3707772
   6.8561358  26.0990501  95.6683840   7.0978157  26.3486397  97.1418736
  11.3641727  26.8699225  93.7252136  10.6792765  27.2498126  93.1749169
  11.4485577  27.4794552  94.4584083   8.6192659  24.5159184 100.3247479
   8.8309554  25.1590944  99.6481860   8.5722407  23.6821501  99.8569409
   3.0380457  25.6719195  93.6357857   3.5018803  25.9506898  92.8462479
   2.7737255  24.7702640  93.4530948   1.9749343  21.7942348  90.4447422
   2.6773387  22.2463391  90.9121348   1.6429972  21.1526167  91.0727315
   9.7338487  27.3931140  98.4969837  10.5555930  26.9911327  98.2152518
   9.7300890  27.2899374  99.4485952   3.4995090  26.9415183 100.6530547
   3.5639523  27.4035590 101.4888719   2.7906014  26.3112548 100.7812857
  17.8244480  23.7369888  94.8454808  17.0708188  23.1677286  94.6898812
  17.9592021  23.7032553  95.7925443   3.2143108  28.6083290  90.5209527
   3.0788783  29.4534826  90.9494375   3.7552920  28.8102568  89.7575461
   6.9392822  29.5109657 102.6791271   6.9211298  30.3318538 102.1871540
   7.8612742  29.3863732 102.9041412   6.5285854  22.1222463  87.5580856
   6.0132478  22.8927068  87.7969243   6.2563163  21.4487599  88.1813917
  11.5020128  24.8754818  89.4934029  10.7249571  24.5365977  89.0489191
  12.1811609  24.8807441  88.8188994   6.3172157  19.9949555  89.3840637
   6.0122293  20.3095705  90.2350780   7.2702599  20.0730975  89.4267970
   4.7618589  26.1539779  91.0333591   4.2339951  25.4192538  90.7206829
   4.2606092  26.9314455  90.7873559   9.7411435  24.3488799  96.1500637
   9.0835110  25.0388061  96.2380766  10.5451834  24.7385231  96.4934624
   8.5516894  22.7033172  94.2004579   9.0648776  23.3363164  94.7026289
   9.2018118  22.1034367  93.8347939   2.9071189  23.9719989  84.0368564
   1.9998251  23.7409242  84.2359713   3.4042221  23.1757608  84.2242546
   5.8139268  32.6817496  86.9565250   5.1400967  32.9849193  87.5650208
   6.2005090  33.4846577  86.6070707   5.0297725  20.1782627  96.4462920
   4.1120286  20.3997574  96.2884608   5.4457868  20.2528938  95.5874627
   5.8132773  21.5774043  91.5765600   6.5604592  22.0895440  91.2672722
   6.0824362  21.2558096  92.4369993   4.0859423  24.0732584  88.5592554
   3.1770642  23.7891617  88.6565024   4.1154507  24.4931662  87.6995861
   9.3178690  27.6839173  92.3283722   8.8641017  26.8430083  92.3848912
   8.6872657  28.3200572  92.6658502   8.2611610  18.6131159  93.5584389
   7.5234367  18.1008546  93.8894632   8.5138383  18.1731541  92.7467666
   7.7611629  29.5215670  93.2633540   8.0534604  30.0820727  92.5445906
   8.2710250  29.8144231  94.0186699   2.6344317  21.6861204  94.6602350
   2.6892927  20.7335041  94.5844826   1.8235519  21.8420644  95.1443648
   3.7835511  25.6141328  85.8980633   3.3454941  24.8977186  85.4386270
   4.5245951  25.8417442  85.3365724   2.7245255  30.2996021  94.3526993
   2.6821433  30.5256867  93.4235525   3.6407953  30.0659396  94.5012794
  11.9008625  23.8898525  91.9556951  11.7626524  24.0800121  91.0278141
  11.5444844  24.6517907  92.4125002  11.9278005  25.9575052  96.9668223
  12.3614512  25.8650341  97.8151277  12.6409586  25.9332552  96.3288239
   5.6605900  29.5577146  98.5001323   5.7142922  30.1268082  99.2679039
   4.7920681  29.7279031  98.1355361  12.7893555  25.9998752  99.5001108
  12.9829445  26.9044563  99.7460383  12.6894173  25.5406171 100.3339693
   4.6194000  23.7237408 100.0588255   5.5486060  23.8748567  99.8857223
   4.1985030  23.8121428  99.2036902   3.4182331  27.7488072  97.8286793
   3.2793417  27.3806857  98.7012731   2.6296928  28.2635712  97.6570751
   4.0130483  32.8497169  89.1712329   4.1882239  32.3785212  89.9857952
   3.3263271  33.4762935  89.3993590   4.9687547  27.1269675  95.2175631
   4.6337379  27.0870445  96.1133281   4.4691492  26.4614391  94.7446041
   7.9046738  24.4725709  85.4912690   7.2875909  23.7472537  85.3945743
   7.4363227  25.2335069  85.1479765   9.5600870  29.1824618 103.1518471
   9.5013416  28.4983838 102.4849054   9.9620388  29.9243608 102.6999097
   9.5618277  27.1464201 101.3832450   8.6745056  26.8090123 101.5058849
  10.1316828  26.4147233 101.6201216   3.0919431  31.8065654  98.3493694
   3.0189602  32.6120625  98.8612998   2.6496824  32.0057620  97.5241715
   2.8809210  31.0437424  91.8596515   2.0976732  31.5859104  91.9534740
   3.5801955  31.5611403  92.2590756  14.0435618  22.5572419  96.1449012
  14.0325494  23.4397134  95.7742945  13.1752997  22.2043970  95.9503549
   5.5518114  31.7052488 100.5051852   6.2646086  32.3399953 100.4327754
   5.0608143  31.8016354  99.6891854   7.2735641  25.6103741  92.0769144
   6.3391920  25.7305203  91.9073848   7.4512309  24.7076207  91.8129154
  10.6608192  21.4521060  92.6119178  11.1268644  22.2849051  92.5379481
  11.1115693  20.9866041  93.3164437   8.7284423  27.7964881  89.6105330
   9.0044267  27.6821476  90.5199204   7.8588922  27.3982366  89.5717503
   8.4031314  22.0091539  99.1509973   7.7502764  22.2567446  98.4962426
   8.7811693  21.1955677  98.8172451   5.3638487  32.0451232  93.2538144
   5.5460882  31.2272888  93.7165896   6.1871473  32.2618924  92.8163034
   5.6980653  30.9719417  90.5153192   6.2268419  30.4611872  89.9023354
   5.9608872  30.6561947  91.3798725   3.1941669  34.0578277  99.8733627
   3.7459977  34.2209899 100.6382712   3.5347863  34.6482715  99.2013651
   6.3310057  32.0060253  96.8597309   6.2061196  31.2049993  96.3508254
   6.9889148  32.5006446  96.3711279   8.3944965  29.8069273  98.4876859
   7.4475301  29.6874624  98.4155186   8.7427738  28.9191771  98.5703120
   5.3991398  29.6021989  94.6881211   5.2516361  28.6738696  94.8688781
   6.2244892  29.6242080  94.2038286   9.0025520  30.4250548  95.7746084
   9.9272068  30.2193409  95.6370535   8.8340824  30.1766949  96.6835425
   8.7920836  30.9436215  91.1308175   8.9657714  30.3782638  90.3782028
   9.2849728  31.7437110  90.9487665  14.6460228  23.7072638  92.7498475
  15.0891374  22.9579963  92.3517598  13.7686738  23.6982775  92.3672207
   9.7796009  30.2602980  88.2305073  10.4746914  30.8809672  88.4492388
  10.1219159  29.4098331  88.5057451  11.6787432  27.7102685  89.7592404
  12.2038756  28.0489958  89.0341724  11.5909785  26.7749701  89.5755539
   3.3407481  31.6236759 101.8882281   3.6494607  31.3785906 102.7604980
   4.1382963  31.8283397 101.4001151   3.3628093  33.7774668  94.1187657
   2.9233083  33.2851047  94.8120514   4.1136210  33.2347636  93.8779733
  11.3681338  28.3435589 105.0643602  10.5776882  28.3259728 104.5248102
  11.1314693  28.8823883 105.8192639  11.4879213  25.1928055 102.3776331
  11.5377218  25.0278063 103.3191854  11.3793137  24.3255314 101.9874212
  12.9897410  27.6124997 102.6218352  12.6982218  27.9754977 103.4581813
  12.3769541  26.8992005 102.4431684  14.1893092  25.1777877  95.1420923
  15.0239984  25.6167681  95.3058483  14.3252221  24.7016530  94.3229168
  11.2384598  22.7357611 101.0898410  11.7138720  22.9285258 100.2817262
  10.3150164  22.7916797 100.8441794   3.8710877  30.3664731  87.1380167
   3.2984844  30.9854918  86.6850639   4.4443671  30.9164093  87.6720089
   9.9386267  19.6123371  99.3226716  10.8903690  19.7121469  99.3438940
   9.7689718  18.8201640  99.8324800   7.0908137  30.6501881  88.2688749
   8.0238810  30.5847443  88.4721625   7.0031350  31.4858148  87.8103282
   9.7196154  29.9667752  85.2292697   9.6409785  29.6327615  86.1228455
  10.5405821  30.4589520  85.2284169  12.4174345  22.8329491  98.4369016
  12.3850665  21.8945492  98.6228699  13.0274969  22.9113528  97.7034840
   4.2557676  21.7025544  84.4796220   5.2016781  21.5731752  84.5484638
   3.8771921  20.9640206  84.9565648  12.5668834  19.6240535  98.4827299
  12.0507882  18.8398991  98.2957228  13.4508782  19.2959251  98.6473818
  18.2350895  23.8945498  97.5775052  18.9654283  23.6330786  98.1382756
  17.6257840  23.1574220  97.6177120  16.3166192  22.0353361  98.1749504
  15.5899356  21.9009325  97.5665995  15.9013479  22.3430189  98.9806222
   9.3632014  15.3590982  91.6998307   8.7830683  16.0175786  91.3176359
   9.0967947  14.5368327  91.2885724   8.1456892  17.5191073  90.7554655
   7.2582747  17.8040723  90.5374850   8.5610881  17.3584836  89.9081932
  11.4971428  17.5437594  94.4708994  12.2731818  18.0334046  94.7433611
  10.7719562  17.9695648  94.9280864  13.9343987  18.2565213  95.5282935
  14.5288478  18.0160949  94.8176243  14.0070571  17.5372343  96.1556471
   7.2900106  27.2835747  84.8502675   7.9935956  27.4885750  85.4660331
   6.5662754  27.8512509  85.1151759   8.1197916  23.0345608  90.9704945
   8.0633117  23.4914160  90.1312578   8.6726258  22.2736293  90.7927788
  11.9302722  18.8235340  91.7955065  11.6739656  18.4231976  92.6263273
  11.3055590  19.5379134  91.6705204  16.2415060  21.5631414  94.3026356
  15.6814618  21.6324603  95.0757918  15.6358563  21.3872398  93.5825853
   9.1986803  27.7218276  86.9001135  10.0332407  27.2899475  86.7178610
   9.0371146  27.5500290  87.8278030   8.8532695  24.2250390  88.2657475
   8.7981499  24.0594661  87.3245919   8.2278750  24.9326423  88.4219664
   2.0918385  32.4027389  95.9310550   1.1414016  32.4029251  95.8174922
   2.3950871  31.6560124  95.4146584  17.8271078  38.2387928  96.9956312
  18.4649488  38.1194675  96.2919652  17.7091921  39.1868771  97.0544264
  14.6360784  38.1915356  96.9317837  14.2979296  38.0756420  96.0438372
  15.5050553  37.7906521  96.9118843  10.4947600  40.0450832  92.9214728
   9.9312465  39.9540769  92.1531015  10.3799995  39.2250737  93.4017220
  15.1180567  39.3450207 102.8904042  15.1069208  38.9503006 102.0184546
  15.2801207  38.6116280 103.4837814   8.0412032  41.5402024  95.7598948
   8.8333324  41.1992848  95.3445247   8.2808682  41.6496999  96.6801101
  16.0747159  43.7121800  88.2329193  15.4235139  44.2975880  87.8463206
  16.8691522  44.2427995  88.2924230  10.0002786  40.8010937  88.6316327
  10.7733662  40.2539924  88.4929203  10.3528185  41.6655186  88.8430788
  11.8387829  42.1287319 101.8383226  11.5477695  43.0332950 101.7229893
  12.4744813  42.1703847 102.5527296  12.7644035  39.5064168  98.4284586
  13.3607608  39.2820190  97.7141549  12.8219007  38.7648913  99.0310034
  12.3369064  36.9603603  86.2634777  12.5894584  36.4385124  85.5018240
  11.3993623  36.7969748  86.3661460  17.3812347  35.9639381  94.0709520
  18.1675436  35.5458805  93.7199937  17.6451051  36.8685474  94.2391168
  17.5522424  41.4012232  88.7698177  16.9168257  41.4746858  89.4819082
  17.2219830  41.9905831  88.0917256  22.7820774  35.9014615  94.9742499
  23.5145946  35.3313831  95.2080328  22.0260129  35.5136215  95.4149004
  12.0565353  38.8631709  88.4659152  11.9401611  38.1876612  89.1340236
  12.1667612  38.3764083  87.6491305  14.3996893  38.3241856  92.1705841
  14.0355101  37.7972477  92.8818763  15.2564009  37.9340325  91.9972326
  20.3046194  29.6136189  99.4337107  19.9729519  30.4831600  99.2098322
  19.7091807  29.2972473 100.1131138  14.0402380  33.3531756  87.1667190
  14.2076783  34.2211992  87.5337661  13.8499550  33.5159037  86.2428479
  16.7977714  41.8148735  98.8333020  16.4978437  42.7173773  98.7248827
  16.4528773  41.5480918  99.6854173  10.2490195  38.2662532  94.8669724
   9.3240692  38.1338746  95.0747416  10.4974608  39.0456751  95.3639667
  20.1974857  34.3331275  96.5130457  19.2891735  34.2646683  96.2189218
  20.1462453  34.8103220  97.3412283  14.0191601  35.8089413  88.1513856
  13.8991227  36.2546464  88.9899337  13.3244190  36.1574731  87.5927395
   7.6099006  37.9095805  95.7013513   7.7391387  38.1630284  96.6152925
   6.9296457  38.5023513  95.3818168  11.7798493  48.5793055  91.8003988
  11.7022523  49.5300880  91.8792468  11.1760137  48.2338928  92.4578914
  14.2715723  35.7520920 104.4565355  13.4949057  36.3114841 104.4468219
  14.9106286  36.2377703 104.9780225  22.0636504  32.5347713  98.2908331
  21.4210884  32.8280246  97.6448126  21.5591432  32.4200634  99.0961528
  19.7176667  36.2810886  88.9794190  20.6294524  36.5138273  88.8041888
  19.2086315  36.8647931  88.4169269  12.5262095  38.5606374 104.0183322
  13.2676780  39.0991418 103.7418145  11.8199081  39.1872663 104.1754873
  18.0017435  40.7035514 102.6155483  18.4100791  40.2617925 101.8710115
  17.2794697  40.1288142 102.8689676  14.3548505  35.6408121  99.9889040
  15.2009700  36.0647535 100.1323689  14.2947143  34.9841745 100.6827603
  18.3246250  41.2636705  96.3707772  17.6955112  41.4282419  95.6683840
  17.9371912  41.6778314  97.1418736  22.2035482  42.1991143  93.7252136
  21.5186520  42.5790044  93.1749169  22.2879331  42.8086469  94.4584083
  17.5047951  33.3012489 101.6470214  17.2608882  34.0554550 101.1104489
  17.7807881  33.6797837 102.4817461  19.4586413  39.8451102 100.3247479
  19.6703309  40.4882862  99.6481860  19.4116162  39.0113418  99.8569409
  17.0612642  32.4568922  97.2284051  16.1997121  32.7550176  97.5200789
  17.0875077  32.6739321  96.2965084  13.8774212  41.0011113  93.6357857
  14.3412557  41.2798816  92.8462479  13.6131010  40.0994558  93.4530948
  10.7698293  40.5482595  96.5737620  11.3399650  40.9769863  95.9355105
  11.3606405  40.2665179  97.2721806  12.8143098  37.1234265  90.4447422
  13.5167141  37.5755309  90.9121348  12.4823726  36.4818084  91.0727315
  11.2623459  35.7146022 104.8198632  10.6322120  36.3962303 105.0534028
  11.1559547  35.6029104 103.8751770   6.5568432  35.3817818  95.7464556
   5.7667486  35.6375347  95.2704666   7.0479679  36.1966156  95.8516596
  20.5732241  42.7223057  98.4969837  21.3949685  42.3203244  98.2152518
  20.5694644  42.6191291  99.4485952   8.5083177  35.7462397  92.7048032
   7.7114340  35.8581092  93.2231528   8.2808769  36.0849049  91.8388923
  14.3388845  42.2707100 100.6530547  14.4033277  42.7327508 101.4888719
  13.6299769  41.6404465 100.7812857   4.8406135  35.6348308  98.1779546
   5.0914173  36.5195318  98.4437122   5.3765683  35.4552910  97.4054638
  28.6638234  39.0661806  94.8454808  27.9101943  38.4969204  94.6898812
  28.7985775  39.0324470  95.7925443  14.0536862  43.9375208  90.5209527
  13.9182537  44.7826744  90.9494375  14.5946675  44.1394486  89.7575461
   7.5066260  41.4550646  91.0937452   8.0190780  42.2493896  91.2443017
   8.1588973  40.7576936  91.0271054   9.3161144  44.5716402  93.1760206
   9.4927773  45.4934367  92.9881190  10.1117978  44.2574822  93.6054585
  13.4572163  31.4324667 104.7744139  14.1981876  32.0331820 104.6948602
  13.6890086  30.6902305 104.2162182   8.6013501  36.6181034 103.0522369
   8.4867016  35.7166291 103.3529468   7.7458019  36.8644731 102.7007185
  15.6805339  44.5598774 104.6509869  15.2369193  43.7735153 104.3330774
  16.3422552  44.7477925 103.9853760  10.4392460  46.0894576  99.1770548
  10.9899885  45.9611639  98.4047542   9.6003936  46.3889465  98.8265441
  17.7786577  44.8401574 102.6791271  17.7605052  45.6610455 102.1871540
  18.7006497  44.7155650 102.9041412  14.2359631  42.3545704 103.5214779
  14.7687968  41.5933992 103.2914087  13.7073712  42.0619356 104.2638934
  17.4029326  27.4605770  99.0508421  17.0593595  28.3507412  98.9747531
  17.7708289  27.2707428  98.1878006   5.4715177  39.7839300  91.8697023
   6.3090399  40.1936309  91.6530731   5.6493444  38.8438742  91.8397217
  17.3679609  37.4514381  87.5580856  16.8526232  38.2218986  87.7969243
  17.0956917  36.7779517  88.1813917  14.9526720  32.2964082  92.6166094
  14.0968316  31.9070932  92.4371733  15.3653671  32.3756043  91.7565880
  16.4825866  29.8310425  97.0157654  15.9790662  29.7940560  96.2025459
  16.7756473  30.7403168  97.0754311  12.7268752  29.9149155  96.0223836
  13.5921749  29.7191963  95.6629725  12.7946261  29.6859507  96.9493193
  22.3413883  40.2046736  89.4934029  21.5643326  39.8657895  89.0489191
  23.0205364  40.2099359  88.8188994  17.1565912  35.3241473  89.3840637
  16.8516047  35.6387622  90.2350780  18.1096354  35.4022893  89.4267970
  15.6012344  41.4831696  91.0333591  15.0733705  40.7484456  90.7206829
  15.0999846  42.2606373  90.7873559  20.5805190  39.6780717  96.1500637
  19.9228864  40.3679978  96.2380766  21.3845589  40.0677149  96.4934624
  10.3331071  32.1451363  93.3940203  10.9074823  31.9226544  92.6613396
  10.9202054  32.2140057  94.1468804  19.3910648  38.0325090  94.2004579
  19.9042530  38.6655081  94.7026289  20.0411872  37.4326285  93.8347939
  10.6600658  34.1755824  87.4136088   9.8237971  34.5130510  87.7345363
  10.5205428  34.0404803  86.4763225  12.6353739  29.0192612  92.1215272
  11.9818151  28.7041629  91.4971887  12.5934213  28.3968352  92.8475095
  13.7464944  39.3011907  84.0368564  12.8392006  39.0701160  84.2359713
  14.2435976  38.5049526  84.2242546  16.6533023  48.0109414  86.9565250
  15.9794721  48.3141111  87.5650208  17.0398845  48.8138494  86.6070707
  15.8691479  35.5074545  96.4462920  14.9514041  35.7289492  96.2884608
  16.2851623  35.5820856  95.5874627  16.6526527  36.9065961  91.5765600
  17.3998346  37.4187358  91.2672722  16.9218117  36.5850014  92.4369993
  14.9253177  39.4024502  88.5592554  14.0164397  39.1183534  88.6565024
  14.9548261  39.8223580  87.6995861  20.1572445  43.0131091  92.3283722
  19.7034772  42.1722001  92.3848912  19.5266411  43.6492489  92.6658502
  19.1005364  33.9423077  93.5584389  18.3628121  33.4300463  93.8894632
  19.3532138  33.5023459  92.7467666  18.6005384  44.8507588  93.2633540
  18.8928358  45.4112645  92.5445906  19.1104004  45.1436149  94.0186699
  19.2016992  26.7199329  94.1526158  19.5075868  25.8596692  93.8652074
  19.9269596  27.3116949  93.9525152   5.4941348  37.1230016  92.5407756
   5.2965747  36.5299376  91.8158823   4.9388012  36.8182226  93.2583695
  13.4738071  37.0153122  94.6602350  13.5286681  36.0626959  94.5844826
  12.6629273  37.1712561  95.1443648  14.6229265  40.9433245  85.8980633
  14.1848695  40.2269104  85.4386270  15.3639706  41.1709360  85.3365724
  11.4130431  35.6330182  92.4192728  10.5998297  35.9324352  92.8257921
  11.9089425  35.2385871  93.1367211  13.5639009  45.6287939  94.3526993
  13.5215188  45.8548785  93.4235525  14.4801708  45.3951313  94.5012794
  17.0104643  36.0972006 101.2507622  17.3654031  36.3243479 102.1102088
  17.6576774  36.4290383 100.6284878  22.7402380  39.2190442  91.9556951
  22.6020278  39.4092038  91.0278141  22.3838599  39.9809825  92.4125002
  10.9044506  33.2048537  98.0353963  11.5443885  33.0637296  97.3376927
  10.0722037  32.9183051  97.6592565  22.7671759  41.2866969  96.9668223
  23.2008266  41.1942258  97.8151277  23.4803340  41.2624470  96.3288239
  11.6804810  42.5050968  94.1488956  12.4745408  42.0101288  93.9471531
  10.9696502  41.9768831  93.7856661  16.4999654  44.8869063  98.5001323
  16.5536677  45.4560000  99.2679039  15.6314436  45.0570948  98.1355361
   7.9887573  36.6494050  90.2248709   7.0585161  36.5878505  90.4418671
   8.0845045  36.1270002  89.4285350   7.9073122  33.1748862  92.8126950
   8.1679940  34.0894196  92.7036111   8.7290295  32.7073305  92.9623563
   9.3798048  34.5886620  99.9825775  10.0521101  34.3803982  99.3338424
   8.5527834  34.3908706  99.5431007  23.6287309  41.3290670  99.5001108
  23.8223199  42.2336480  99.7460383  23.5287927  40.8698089 100.3339693
  15.2823620  31.2148560 101.9991436  14.6351535  31.9138510 101.9055912
  16.0524635  31.6484704 102.3667684  18.6902418  41.4797413 105.0741989
  18.5387924  41.2507964 104.1572073  18.6807097  42.4368014 105.0873334
  15.4587754  39.0529325 100.0588255  16.3879814  39.2040485  99.8857223
  15.0378784  39.1413346  99.2036902  14.2576086  43.0779990  97.8286793
  14.1187172  42.7098774  98.7012731  13.4690682  43.5927629  97.6570751
  14.8524238  48.1789086  89.1712329  15.0275994  47.7077129  89.9857952
  14.1657026  48.8054852  89.3993590  15.8081301  42.4561592  95.2175631
  15.4731134  42.4162362  96.1133281  15.3085247  41.7906308  94.7446041
   9.7825545  37.8629223 100.7428212   9.6445343  37.1309461 101.3439751
  10.6930468  37.7738123 100.4612400  18.7440493  39.8017627  85.4912690
  18.1269663  39.0764455  85.3945743  18.2756981  40.5626987  85.1479765
  12.4107846  37.5749182 100.2311892  13.1207464  36.9342374 100.1898510
  12.3677154  37.8262077 101.1538072  20.3994624  44.5116535 103.1518471
  20.3407170  43.8275755 102.4849054  20.8014143  45.2535525 102.6999097
  11.1236780  34.5614400 102.0507531  10.5874137  34.1105138 102.7029127
  10.5353488  34.6960309 101.3077995   9.4185323  51.3278449  95.9452190
   9.6581921  51.9596973  96.6231208   8.5754520  50.9766489  96.2317549
  10.5339039  34.0203051  84.6133995   9.6568505  33.8991852  84.2496241
  11.0096792  33.2289129  84.3612883  20.4012032  42.4756119 101.3832450
  19.5138810  42.1382041 101.5058849  20.9710583  41.7439150 101.6201216
   2.0541179  38.8080211  94.7075502   2.7412219  38.4941941  94.1196517
   1.8989307  39.7121576  94.4342753   6.8575901  33.6970407  99.1360525
   6.7734090  33.0896077  98.4010935   6.0358607  34.1879426  99.1370022
  13.9313185  47.1357571  98.3493694  13.8583356  47.9412543  98.8612998
  13.4890578  47.3349537  97.5241715  13.7202965  46.3729341  91.8596515
  12.9370487  46.9151022  91.9534740  14.4195710  46.8903321  92.2590756
  17.0299615  32.1823971  94.5030721  17.5268314  31.4293933  94.1831791
  16.2586596  32.2188288  93.9373930  24.8829372  37.8864336  96.1449012
  24.8719248  38.7689052  95.7742945  24.0146752  37.5335887  95.9503549
  16.3911869  47.0344405 100.5051852  17.1039841  47.6691870 100.4327754
  15.9001897  47.1308271  99.6891854  18.1129395  40.9395658  92.0769144
  17.1785674  41.0597121  91.9073848  18.2906064  40.0368125  91.8129154
  13.6134583  34.3241354  94.2302405  13.2432371  33.7712394  94.9183311
  14.1093676  33.7199487  93.6777405  21.5001947  36.7812977  92.6119178
  21.9662399  37.6140969  92.5379481  21.9509447  36.3157959  93.3164437
  11.4423782  44.7838849 101.3257423  12.1433242  45.4175332 101.4786817
  10.9718897  45.1253581 100.5653062  19.5678178  43.1256799  89.6105330
  19.8438022  43.0113393  90.5199204  18.6982677  42.7274284  89.5717503
  19.4718610  29.1493564  96.6510079  18.5581689  29.3797791  96.8192286
  19.9011711  29.2332009  97.5024112  19.2425068  37.3383456  99.1509973
  18.5896518  37.5859364  98.4962426  19.6205448  36.5247595  98.8172451
  16.2032242  47.3743150  93.2538144  16.3854636  46.5564806  93.7165896
  17.0265228  47.5910842  92.8163034  16.5374407  46.3011335  90.5153192
  17.0662174  45.7903789  89.9023354  16.8002627  45.9853865  91.3798725
  15.2912641  38.0803267 105.6376011  14.6153278  37.9797397 106.3078386
  16.1140275  37.9242481 106.1012008   7.0391500  44.3175204  98.2588526
   7.6244937  43.5718892  98.3916430   6.8416339  44.6279161  99.1425190
   9.8930155  47.3526451  93.2750968   9.2240531  47.8372579  92.7915008
   9.7543025  47.5995672  94.1894347   1.6309155  36.8880804  96.9792969
   1.6693254  36.3544395  97.7730087   1.1249448  36.3616010  96.3603946
  14.0335424  49.3870195  99.8733627  14.5853732  49.5501816 100.6382712
  14.3741617  49.9774633  99.2013651   9.0099917  31.7345345 100.4755511
   9.0741244  32.5960176 100.0632909   8.9467037  31.1219346  99.7427870
   8.4852190  33.8068477 104.1228545   9.1124228  33.4245555 104.7366070
   7.6280109  33.5882679 104.4884238  18.8846298  44.2131452 105.7282281
  19.4286202  44.8261411 105.2337236  18.3033143  44.7711031 106.2449294
   5.2617732  35.6144906  90.0546900   5.5571174  34.7055585  90.0013954
   4.3605768  35.5932646  89.7327903  17.1703811  47.3352170  96.8597309
  17.0454951  46.5341910  96.3508254  17.8282902  47.8298364  96.3711279
   8.7911979  33.6900903  96.0374449   8.0698565  34.3036871  95.8981922
   9.5805235  34.2258668  95.9591095  19.2338720  45.1361191  98.4876859
  18.2869055  45.0166542  98.4155186  19.5821493  44.2483689  98.5703120
  11.5938293  31.0255329 102.3115101  12.1172695  31.2717626 103.0741410
  11.3750626  31.8575364 101.8918238   6.9905574  33.2959004  90.1786225
   6.6618280  32.4156383  89.9961331   7.3444945  33.2406673  91.0662615
  16.2385153  44.9313907  94.6881211  16.0910115  44.0030614  94.8688781
  17.0638646  44.9533997  94.2038286  10.1047397  33.5831974  90.5461703
  10.4443470  34.1117895  89.8240312  10.5519518  33.9212380  91.3220270
  19.8419275  45.7542465  95.7746084  20.7665822  45.5485327  95.6370535
  19.6734578  45.5058867  96.6835425  12.7990838  31.9669025  99.9964771
  12.4587658  31.1676838 100.3985451  12.0929844  32.2670735  99.4241604
  13.4507310  29.0518337  98.4492094  14.2733379  28.5778815  98.3270985
  13.6945373  29.8308821  98.9490781  12.0915544  32.0806595  88.7454996
  12.8123907  32.4587848  88.2418713  11.4680848  32.7995472  88.8489974
  16.2346667  32.7851744  89.6813328  16.4510282  33.6676382  89.3802156
  15.7540734  32.3937958  88.9518970  10.9745889  35.7437458  96.2584073
  10.8290469  36.0577761  97.1508354  10.4971092  36.3622358  95.7054971
  12.8342271  32.7340006  96.3064962  12.8203840  31.8381099  95.9697260
  13.5514700  32.7410669  96.9403248  14.6868402  33.1677346  98.3518090
  14.4286180  34.0894416  98.3502420  14.1553443  32.7707780  99.0418554
  19.6314591  46.2728133  91.1308175  19.8051468  45.7074555  90.3782028
  20.1243482  47.0729028  90.9487665   5.4491551  38.2842802  99.1971734
   4.9045019  39.0602610  99.3292008   6.3270901  38.6313606  99.0390855
  12.2379167  31.6154386  91.5752533  12.3595079  30.6871032  91.7743420
  11.9481210  31.6293072  90.6630848  15.1070358  29.3009296  94.7119252
  15.1292055  29.3648629  93.7571232  15.5238417  28.4613805  94.9059759
  25.4853982  39.0364556  92.7498475  25.9285128  38.2871881  92.3517598
  24.6080492  39.0274692  92.3672207  20.6189763  45.5894897  88.2305073
  21.3140668  46.2101590  88.4492388  20.9612914  44.7390249  88.5057451
   6.2357573  37.4112698 102.0901891   5.4939309  37.5595334 102.6766521
   5.9150317  37.6720964 101.2268640  22.5181187  43.0394603  89.7592404
  23.0432511  43.3781876  89.0341724  22.4303539  42.1041618  89.5755539
  14.1801235  46.9528677 101.8882281  14.4888362  46.7077823 102.7604980
  14.9776717  47.1575315 101.4001151  14.2021847  49.1066586  94.1187657
  13.7626838  48.6142965  94.8120514  14.9529964  48.5639554  93.8779733
   6.6814186  45.2978127  94.1212286   7.5072206  44.9981899  93.7410929
   6.3308238  44.5285749  94.5702074  11.6495719  44.6504595  96.1909959
  11.0275729  43.9875300  95.8912187  12.3200586  44.6765727  95.5083607
   4.8822791  43.2164453  95.0801219   4.0454700  42.7886628  94.8985220
   4.8546437  43.4096897  96.0172010  11.7220247  33.1286383 105.7842465
  11.7708402  34.0048506 105.4020235  12.2642761  32.5863776 105.2114108
  22.2075093  43.6727507 105.0643602  21.4170636  43.6551645 104.5248102
  21.9708447  44.2115800 105.8192639  22.3272968  40.5219973 102.3776331
  22.3770973  40.3569980 103.3191854  22.2186891  39.6547232 101.9874212
  11.2109226  43.2008519  89.6668420  11.3597347  43.8843983  89.0135092
  12.0175670  43.1813609  90.1817875  19.6176730  36.5050901 103.6935637
  20.5186593  36.3657366 103.4019635  19.6924705  36.6705356 104.6333815
  13.9519535  33.8817756 102.5388824  13.0822845  34.1751322 102.2671412
  14.1879016  34.4658201 103.2596087  23.8291164  42.9416914 102.6218352
  23.5375973  43.3046895 103.4581813  23.2163296  42.2283923 102.4431684
  25.0286847  40.5069794  95.1420923  25.8633738  40.9459598  95.3058483
  25.1645976  40.0308447  94.3229168  22.0778353  38.0649529 101.0898410
  22.5532474  38.2577175 100.2817262  21.1543918  38.1208715 100.8441794
   8.9661859  39.2273696  90.6729489   8.7207901  38.3236026  90.8709699
   9.1357774  39.2290847  89.7308967  16.6558569  30.0997373 100.0554244
  17.1740513  30.8358400  99.7300733  16.3013702  30.4061366 100.8901003
   8.2357507  34.9602054  88.1715650   7.5426752  35.0346409  87.5155686
   7.9909259  34.1962397  88.6937167  16.9071163  26.5197655  95.5755141
  17.1872917  25.8520844  96.2015567  17.6921770  26.7126751  95.0629805
  14.7104632  45.6956649  87.1380167  14.1378599  46.3146836  86.6850639
  15.2837426  46.2456011  87.6720089  20.7780022  34.9415289  99.3226716
  21.7297445  35.0413387  99.3438940  20.6083472  34.1493558  99.8324800
  18.7994401  32.0270872  99.5086117  18.2044333  32.3075885  98.8132605
  18.5144098  32.5164773 100.2802858  17.9301892  45.9793799  88.2688749
  18.8632565  45.9139361  88.4721625  17.8425104  46.8150066  87.8103282
  20.5589908  45.2959669  85.2292697  20.4803540  44.9619533  86.1228455
  21.3799575  45.7881437  85.2284169  23.2568100  38.1621409  98.4369016
  23.2244420  37.2237410  98.6228699  23.8668723  38.2405446  97.7034840
  15.0951430  37.0317462  84.4796220  16.0410535  36.9023670  84.5484638
  14.7165675  36.2932124  84.9565648  23.4062588  34.9532452  98.4827299
  22.8901637  34.1690909  98.2957228  24.2902537  34.6251169  98.6473818
  21.0673315  28.6973468  94.4423111  20.8698136  28.3888556  95.3266443
  21.6773021  29.4235107  94.5721041  29.0744649  39.2237416  97.5775052
  29.8048038  38.9622704  98.1382756  28.4651595  38.4866138  97.6177120
  27.1559946  37.3645278  98.1749504  26.4293110  37.2301243  97.5665995
  26.7407233  37.6722107  98.9806222  14.9790123  41.0835208 105.9396877
  15.8993132  41.2613807 106.1336923  14.9439706  40.1391253 105.7876576
  13.2794348  34.9567438  84.4151105  12.3725803  34.6600551  84.4913818
  13.5570329  34.6597256  83.5485391   4.1972288  36.2773802  94.8650151
   3.8775072  35.4239110  94.5724525   3.6505716  36.4922380  95.6208119
   7.9752195  38.9936243  98.5819658   8.1938205  39.9253350  98.6007692
   8.3877969  38.6344217  99.3674462  14.8956413  29.5004328  90.5695346
  14.0857142  29.1551413  90.9450592  15.5840830  29.1911872  91.1582958
  16.8246962  28.5782375  92.1919643  17.3778000  28.9977828  92.8509666
  17.0617048  27.6518123  92.2342599  12.8480061  34.5669448 107.9722407
  12.7476788  35.5163805 107.9034498  12.6301603  34.2387687 107.0998477
  12.0493132  31.8154373  84.5563084  12.9112296  32.1409272  84.8158901
  12.2343476  31.0285869  84.0436150   4.0660548  39.8976713  96.8343273
   3.3724019  39.4830666  96.3213227   4.8133539  39.9397250  96.2376692
  20.2025769  30.6882900  91.6998307  19.6224438  31.3467704  91.3176359
  19.9361701  29.8660244  91.2885724  18.6529335  30.0887958  93.9019627
  19.1529113  30.2004492  93.0933946  19.2964943  29.7849010  94.5420436
  12.7111331  37.9966587 106.7887468  12.2278413  38.7966947 106.9951357
  12.7972270  38.0074532 105.8354912   5.9797290  39.8294967  94.7109288
   5.9567979  39.9282654  93.7591171   6.2897927  40.6760118  95.0326454
   8.6384668  41.8871122  98.8255902   9.5927922  41.8555064  98.7585834
   8.4397192  41.4261746  99.6406128   9.2284050  40.4572238 101.3926700
  10.0476939  40.9516317 101.4161537   9.5020858  39.5404206 101.3644267
  18.9850647  32.8482990  90.7554655  18.0976502  33.1332641  90.5374850
  19.4004636  32.6876754  89.9081932  22.3365183  32.8729511  94.4708994
  23.1125573  33.3625964  94.7433611  21.6113317  33.2987565  94.9280864
  24.7737741  33.5857130  95.5282935  25.3682232  33.3452866  94.8176243
  24.8464325  32.8664261  96.1556471   6.9934897  47.4290741  95.8426100
   6.8589365  46.6691142  95.2764098   6.5766959  48.1531641  95.3754889
  18.1293860  42.6127665  84.8502675  18.8329710  42.8177667  85.4660331
  17.4056509  43.1804427  85.1151759  18.9591670  38.3637526  90.9704945
  18.9026872  38.8206078  90.1312578  19.5120013  37.6028211  90.7927788
  22.7696476  34.1527258  91.7955065  22.5133411  33.7523894  92.6263273
  22.1449344  34.8671052  91.6705204  27.0808814  36.8923331  94.3026356
  26.5208372  36.9616521  95.0757918  26.4752318  36.7164316  93.5825853
  10.1504023  48.3260058  96.0544543  10.0336407  49.2705491  95.9523233
   9.3296469  48.0233620  96.4430342  20.0380558  43.0510194  86.9001135
  20.8726161  42.6191393  86.7178610  19.8764900  42.8792208  87.8278030
  19.6926450  39.5542307  88.2657475  19.6375253  39.3886579  87.3245919
  19.0672505  40.2618340  88.4219664   4.4818965  34.7910372 102.0918897
   5.1277828  34.2809326 102.5806122   4.2736116  35.5279053 102.6662322
  17.0072357  41.8591219 107.5911037  17.8763517  42.0331872 107.2297672
  16.5279108  42.6785636 107.4686767  13.0022575  29.0550416  87.8442793
  12.9901245  29.9992256  88.0011064  13.8945997  28.8720562  87.5502254
  11.1758537  48.9788320  99.2700471  12.0785784  49.0111931  99.5866966
  10.9495907  48.0488771  99.2846807  12.9312139  47.7319307  95.9310550
  11.9807770  47.7321168  95.8174922  13.2344625  46.9852041  95.4146584
  16.8174695  25.6493193  92.0988730  16.0507090  25.0951680  92.2445412
  17.2285400  25.7215062  92.9602881  28.6664833  53.5679845  96.9956312
  29.3043243  53.4486593  96.2919652  28.5485676  54.5160689  97.0544264
  25.4754539  53.5207273  96.9317837  25.1373050  53.4048338  96.0438372
  26.3444307  53.1198438  96.9118843  21.3341355  55.3742750  92.9214728
  20.7706220  55.2832687  92.1531015  21.2193750  54.5542654  93.4017220
  25.9574322  54.6742125 102.8904042  25.9462963  54.2794923 102.0184546
  26.1194961  53.9408198 103.4837814  18.8805787  56.8693941  95.7598948
  19.6727078  56.5284766  95.3445247  19.1202437  56.9788916  96.6801101
  26.9140913  59.0413717  88.2329193  26.2628893  59.6267798  87.8463206
  27.7085276  59.5719912  88.2924230  20.8396540  56.1302855  88.6316327
  21.6127416  55.5831842  88.4929203  21.1921939  56.9947104  88.8430788
  22.6781583  57.4579237 101.8383226  22.3871449  58.3624868 101.7229893
  23.3138567  57.4995764 102.5527296  23.6037790  54.8356085  98.4284586
  24.2001362  54.6112108  97.7141549  23.6612761  54.0940831  99.0310034
  28.2206101  51.2931299  94.0709520  29.0069190  50.8750722  93.7199937
  28.4844805  52.1977391  94.2391168  28.3916178  56.7304149  88.7698177
  27.7562011  56.8038776  89.4819082  28.0613585  57.3197748  88.0917256
  33.6214528  51.2306532  94.9742499  34.3539700  50.6605749  95.2080328
  32.8653884  50.8428133  95.4149004  22.8959107  54.1923627  88.4659152
  22.7795365  53.5168530  89.1340236  23.0061367  53.7056001  87.6491305
  25.2390648  53.6533774  92.1705841  24.8748855  53.1264395  92.8818763
  26.0957764  53.2632243  91.9972326  31.1439949  44.9428106  99.4337107
  30.8123273  45.8123517  99.2098322  30.5485562  44.6264390 100.1131138
  27.6371468  57.1440652  98.8333020  27.3372191  58.0465691  98.7248827
  27.2922528  56.8772836  99.6854173  21.0883950  53.5954449  94.8669724
  20.1634446  53.4630663  95.0747416  21.3368363  54.3748668  95.3639667
  31.0368612  49.6623193  96.5130457  30.1285489  49.5938601  96.2189218
  30.9856208  50.1395137  97.3412283  18.4492761  53.2387723  95.7013513
  18.5785142  53.4922202  96.6152925  17.7690212  53.8315431  95.3818168
  22.6192248  63.9084973  91.8003988  22.5416278  64.8592798  91.8792468
  22.0153892  63.5630845  92.4578914  25.1109478  51.0812838 104.4565355
  24.3342812  51.6406758 104.4468219  25.7500041  51.5669621 104.9780225
  32.9030258  47.8639631  98.2908331  32.2604639  48.1572164  97.6448126
  32.3985187  47.7492551  99.0961528  23.3655850  53.8898291 104.0183322
  24.1070534  54.4283335 103.7418145  22.6592835  54.5164580 104.1754873
  28.8411190  56.0327432 102.6155483  29.2494546  55.5909842 101.8710115
  28.1188451  55.4580059 102.8689676  25.1942260  50.9700039  99.9889040
  26.0403455  51.3939452 100.1323689  25.1340897  50.3133663 100.6827603
  29.1640004  56.5928623  96.3707772  28.5348867  56.7574337  95.6683840
  28.7765666  57.0070232  97.1418736  28.3441705  48.6304407 101.6470214
  28.1002637  49.3846468 101.1104489  28.6201636  49.0089755 102.4817461
  30.2980168  55.1743019 100.3247479  30.5097063  55.8174779  99.6481860
  30.2509916  54.3405336  99.8569409  27.9006397  47.7860840  97.2284051
  27.0390876  48.0842094  97.5200789  27.9268831  48.0031239  96.2965084
  24.7167966  56.3303031  93.6357857  25.1806312  56.6090734  92.8462479
  24.4524764  55.4286475  93.4530948  21.6092047  55.8774512  96.5737620
  22.1793404  56.3061781  95.9355105  22.2000159  55.5957097  97.2721806
  23.6536852  52.4526183  90.4447422  24.3560896  52.9047227  90.9121348
  23.3217481  51.8110002  91.0727315  22.1017214  51.0437940 104.8198632
  21.4715874  51.7254221 105.0534028  21.9953302  50.9321021 103.8751770
  17.3962186  50.7109736  95.7464556  16.6061240  50.9667264  95.2704666
  17.8873434  51.5258074  95.8516596  31.4125996  58.0514975  98.4969837
  32.2343439  57.6495162  98.2152518  31.4088399  57.9483209  99.4485952
  19.3476932  51.0754315  92.7048032  18.5508095  51.1873009  93.2231528
  19.1202524  51.4140967  91.8388923  25.1782599  57.5999018 100.6530547
  25.2427032  58.0619425 101.4888719  24.4693523  56.9696383 100.7812857
  15.6799889  50.9640226  98.1779546  15.9307928  51.8487236  98.4437122
  16.2159438  50.7844828  97.4054638  24.8930617  59.2667126  90.5209527
  24.7576292  60.1118661  90.9494375  25.4340429  59.4686403  89.7575461
  21.3797956  45.3458706 107.1823883  20.9864902  44.7924904 107.8571527
  22.1964097  45.6569284 107.5730400  18.3460014  56.7842564  91.0937452
  18.8584535  57.5785814  91.2443017  18.9982727  56.0868854  91.0271054
  20.1554899  59.9008320  93.1760206  20.3321527  60.8226285  92.9881190
  20.9511732  59.5866739  93.6054585  24.2965917  46.7616585 104.7744139
  25.0375631  47.3623738 104.6948602  24.5283840  46.0194222 104.2162182
  19.4407255  51.9472952 103.0522369  19.3260771  51.0458209 103.3529468
  18.5851773  52.1936649 102.7007185  26.5199093  59.8890692 104.6509869
  26.0762947  59.1027071 104.3330774  27.1816307  60.0769843 103.9853760
  21.2786214  61.4186494  99.1770548  21.8293640  61.2903557  98.4047542
  20.4397690  61.7181383  98.8265441  28.6180331  60.1693492 102.6791271
  28.5998807  60.9902373 102.1871540  29.5400251  60.0447567 102.9041412
  25.0753385  57.6837622 103.5214779  25.6081722  56.9225910 103.2914087
  24.5467467  57.3911273 104.2638934  28.2423080  42.7897688  99.0508421
  27.8987350  43.6799329  98.9747531  28.6102043  42.5999345  98.1878006
  16.3108931  55.1131218  91.8697023  17.1484153  55.5228226  91.6530731
  16.4887199  54.1730660  91.8397217  25.7920474  47.6255999  92.6166094
  24.9362070  47.2362850  92.4371733  26.2047426  47.7047960  91.7565880
  27.3219621  45.1602343  97.0157654  26.8184416  45.1232478  96.2025459
  27.6150228  46.0695085  97.0754311  23.5662507  45.2441072  96.0223836
  24.4315503  45.0483881  95.6629725  23.6340016  45.0151424  96.9493193
  26.4406098  56.8123614  91.0333591  25.9127460  56.0776374  90.7206829
  25.9393601  57.5898290  90.7873559  31.4198944  55.0072635  96.1500637
  30.7622619  55.6971896  96.2380766  32.2239343  55.3969066  96.4934624
  21.1724826  47.4743280  93.3940203  21.7468578  47.2518462  92.6613396
  21.7595808  47.5431975  94.1468804  30.2304403  53.3617007  94.2004579
  30.7436285  53.9946999  94.7026289  30.8805627  52.7618203  93.8347939
  21.4994413  49.5047741  87.4136088  20.6631725  49.8422428  87.7345363
  21.3599182  49.3696721  86.4763225  23.4747493  44.3484529  92.1215272
  22.8211906  44.0333546  91.4971887  23.4327968  43.7260270  92.8475095
  27.4926777  63.3401332  86.9565250  26.8188476  63.6433028  87.5650208
  27.8792599  64.1430412  86.6070707  26.7085234  50.8366463  96.4462920
  25.7907795  51.0581410  96.2884608  27.1245377  50.9112773  95.5874627
  27.4920282  52.2357878  91.5765600  28.2392101  52.7479276  91.2672722
  27.7611871  51.9141931  92.4369993  25.7646932  54.7316419  88.5592554
  24.8558151  54.4475452  88.6565024  25.7942016  55.1515498  87.6995861
  30.9966199  58.3423009  92.3283722  30.5428526  57.5013919  92.3848912
  30.3660166  58.9784407  92.6658502  29.9399119  49.2714995  93.5584389
  29.2021876  48.7592381  93.8894632  30.1925892  48.8315376  92.7467666
  29.4399138  60.1799505  93.2633540  29.7322113  60.7404562  92.5445906
  29.9497759  60.4728066  94.0186699  30.0410746  42.0491247  94.1526158
  30.3469623  41.1888610  93.8652074  30.7663351  42.6408867  93.9525152
  16.3335102  52.4521933  92.5407756  16.1359502  51.8591294  91.8158823
  15.7781766  52.1474144  93.2583695  24.3131826  52.3445040  94.6602350
  24.3680436  51.3918876  94.5844826  23.5023028  52.5004479  95.1443648
  22.2524186  50.9622100  92.4192728  21.4392051  51.2616270  92.8257921
  22.7483180  50.5677788  93.1367211  24.4032764  60.9579856  94.3526993
  24.3608942  61.1840703  93.4235525  25.3195462  60.7243231  94.5012794
  27.8498397  51.4263924 101.2507622  28.2047785  51.6535397 102.1102088
  28.4970529  51.7582301 100.6284878  21.7438260  48.5340455  98.0353963
  22.3837640  48.3929214  97.3376927  20.9115791  48.2474968  97.6592565
  33.6065514  56.6158887  96.9668223  34.0402021  56.5234176  97.8151277
  34.3197095  56.5916387  96.3288239  22.5198564  57.8342885  94.1488956
  23.3139163  57.3393206  93.9471531  21.8090257  57.3060749  93.7856661
  27.3393409  60.2160981  98.5001323  27.3930431  60.7851917  99.2679039
  26.4708190  60.3862866  98.1355361  18.8281328  51.9785967  90.2248709
  17.8978916  51.9170423  90.4418671  18.9238800  51.4561920  89.4285350
  18.7466877  48.5040780  92.8126950  19.0073694  49.4186113  92.7036111
  19.5684049  48.0365223  92.9623563  20.2191802  49.9178537  99.9825775
  20.8914856  49.7095899  99.3338424  19.3921589  49.7200623  99.5431007
  34.4681064  56.6582588  99.5001108  34.6616954  57.5628398  99.7460383
  34.3681682  56.1990007 100.3339693  26.1217374  46.5440478 101.9991436
  25.4745289  47.2430428 101.9055912  26.8918390  46.9776622 102.3667684
  29.5296172  56.8089330 105.0741989  29.3781679  56.5799882 104.1572073
  29.5200852  57.7659932 105.0873334  26.2981509  54.3821243 100.0588255
  27.2273569  54.5332403  99.8857223  25.8772539  54.4705264  99.2036902
  25.0969840  58.4071907  97.8286793  24.9580926  58.0390692  98.7012731
  24.3084437  58.9219547  97.6570751  25.6917992  63.5081004  89.1712329
  25.8669748  63.0369047  89.9857952  25.0050780  64.1346770  89.3993590
  26.6475056  57.7853510  95.2175631  26.3124888  57.7454280  96.1133281
  26.1479001  57.1198226  94.7446041  20.6219299  53.1921140 100.7428212
  20.4839097  52.4601379 101.3439751  21.5324223  53.1030040 100.4612400
  23.2501600  52.9041100 100.2311892  23.9601219  52.2634292 100.1898510
  23.2070908  53.1553994 101.1538072  31.2388379  59.8408453 103.1518471
  31.1800925  59.1567673 102.4849054  31.6407897  60.5827443 102.6999097
  21.9630534  49.8906317 102.0507531  21.4267891  49.4397056 102.7029127
  21.3747243  50.0252226 101.3077995  20.2579078  66.6570367  95.9452190
  20.4975676  67.2888891  96.6231208  19.4148274  66.3058407  96.2317549
  21.3732793  49.3494969  84.6133995  20.4962259  49.2283770  84.2496241
  21.8490546  48.5581047  84.3612883  31.2405786  57.8048037 101.3832450
  30.3532565  57.4673959 101.5058849  31.8104337  57.0731068 101.6201216
  12.8934933  54.1372129  94.7075502  13.5805973  53.8233859  94.1196517
  12.7383062  55.0413493  94.4342753  17.6969655  49.0262325  99.1360525
  17.6127844  48.4187995  98.4010935  16.8752362  49.5171343  99.1370022
  24.7706939  62.4649489  98.3493694  24.6977111  63.2704461  98.8612998
  24.3284333  62.6641455  97.5241715  24.5596719  61.7021259  91.8596515
  23.7764241  62.2442939  91.9534740  25.2589464  62.2195239  92.2590756
  27.8693369  47.5115889  94.5030721  28.3662069  46.7585851  94.1831791
  27.0980351  47.5480205  93.9373930  27.2305623  62.3636323 100.5051852
  27.9433595  62.9983788 100.4327754  26.7395652  62.4600189  99.6891854
  28.9523150  56.2687576  92.0769144  28.0179429  56.3889038  91.9073848
  29.1299818  55.3660043  91.8129154  24.4528338  49.6533272  94.2302405
  24.0826126  49.1004312  94.9183311  24.9487430  49.0491405  93.6777405
  32.3395701  52.1104895  92.6119178  32.8056153  52.9432887  92.5379481
  32.7903202  51.6449877  93.3164437  22.2817537  60.1130767 101.3257423
  22.9826996  60.7467250 101.4786817  21.8112652  60.4545498 100.5653062
  30.4071932  58.4548716  89.6105330  30.6831776  58.3405311  90.5199204
  29.5376431  58.0566201  89.5717503  30.3112364  44.4785482  96.6510079
  29.3975444  44.7089709  96.8192286  30.7405465  44.5623926  97.5024112
  30.0818823  52.6675374  99.1509973  29.4290273  52.9151282  98.4962426
  30.4599202  51.8539512  98.8172451  27.0425996  62.7035067  93.2538144
  27.2248391  61.8856723  93.7165896  27.8658982  62.9202760  92.8163034
  27.3768162  61.6303252  90.5153192  27.9055928  61.1195707  89.9023354
  27.6396381  61.3145783  91.3798725  26.1306396  53.4095185 105.6376011
  25.4547033  53.3089314 106.3078386  26.9534029  53.2534399 106.1012008
  17.8785255  59.6467122  98.2588526  18.4638691  58.9010810  98.3916430
  17.6810093  59.9571078  99.1425190  20.7323910  62.6818369  93.2750968
  20.0634285  63.1664497  92.7915008  20.5936780  62.9287590  94.1894347
  12.4702909  52.2172722  96.9792969  12.5087009  51.6836313  97.7730087
  11.9643202  51.6907927  96.3603946  24.8729178  64.7162113  99.8733627
  25.4247486  64.8793734 100.6382712  25.2135372  65.3066550  99.2013651
  19.8493672  47.0637262 100.4755511  19.9134998  47.9252093 100.0632909
  19.7860792  46.4511264  99.7427870  19.3245944  49.1360395 104.1228545
  19.9517983  48.7537472 104.7366070  18.4673863  48.9174597 104.4884238
  29.7240053  59.5423370 105.7282281  30.2679957  60.1553328 105.2337236
  29.1426898  60.1002949 106.2449294  16.1011487  50.9436824  90.0546900
  16.3964928  50.0347502  90.0013954  15.1999523  50.9224564  89.7327903
  28.0097566  62.6644088  96.8597309  27.8848705  61.8633828  96.3508254
  28.6676657  63.1590281  96.3711279  19.6305734  49.0192821  96.0374449
  18.9092320  49.6328788  95.8981922  20.4198990  49.5550585  95.9591095
  30.0732474  60.4653108  98.4876859  29.1262810  60.3458459  98.4155186
  30.4215247  59.5775606  98.5703120  22.4332047  46.3547247 102.3115101
  22.9566449  46.6009544 103.0741410  22.2144381  47.1867282 101.8918238
  17.8299329  48.6250922  90.1786225  17.5012035  47.7448301  89.9961331
  18.1838699  48.5698590  91.0662615  27.0778907  60.2605824  94.6881211
  26.9303870  59.3322532  94.8688781  27.9032401  60.2825915  94.2038286
  20.9441152  48.9123892  90.5461703  21.2837224  49.4409813  89.8240312
  21.3913272  49.2504298  91.3220270  30.6813029  61.0834383  95.7746084
  31.6059577  60.8777244  95.6370535  30.5128333  60.8350784  96.6835425
  23.6384592  47.2960942  99.9964771  23.2981413  46.4968755 100.3985451
  22.9323599  47.5962653  99.4241604  24.2901064  44.3810255  98.4492094
  25.1127134  43.9070733  98.3270985  24.5339128  45.1600738  98.9490781
  22.9309299  47.4098513  88.7454996  23.6517661  47.7879766  88.2418713
  22.3074603  48.1287390  88.8489974  21.8139643  51.0729375  96.2584073
  21.6684224  51.3869678  97.1508354  21.3364847  51.6914276  95.7054971
  23.6736026  48.0631923  96.3064962  23.6597595  47.1673017  95.9697260
  24.3908454  48.0702587  96.9403248  25.5262157  48.4969263  98.3518090
  25.2679934  49.4186334  98.3502420  24.9947197  48.0999698  99.0418554
  30.4708345  61.6020051  91.1308175  30.6445223  61.0366473  90.3782028
  30.9637237  62.4020945  90.9487665  16.2885305  53.6134720  99.1971734
  15.7438773  54.3894528  99.3292008  17.1664655  53.9605524  99.0390855
  23.0772922  46.9446304  91.5752533  23.1988833  46.0162950  91.7743420
  22.7874964  46.9584990  90.6630848  25.9464112  44.6301214  94.7119252
  25.9685809  44.6940547  93.7571232  26.3632171  43.7905723  94.9059759
  17.0751327  52.7404616 102.0901891  16.3333063  52.8887251 102.6766521
  16.7544071  53.0012882 101.2268640  25.0194990  62.2820594 101.8882281
  25.3282116  62.0369741 102.7604980  25.8170472  62.4867233 101.4001151
  25.0415602  64.4358504  94.1187657  24.6020592  63.9434883  94.8120514
  25.7923719  63.8931471  93.8779733  17.5207941  60.6270045  94.1212286
  18.3465961  60.3273817  93.7410929  17.1701993  59.8577667  94.5702074
  22.4889474  59.9796513  96.1909959  21.8669483  59.3167218  95.8912187
  23.1594341  60.0057645  95.5083607  15.7216546  58.5456371  95.0801219
  14.8848454  58.1178545  94.8985220  15.6940191  58.7388814  96.0172010
  22.5614001  48.4578301 105.7842465  22.6102157  49.3340424 105.4020235
  23.1036516  47.9155694 105.2114108  33.0468847  59.0019424 105.0643602
  32.2564391  58.9843563 104.5248102  32.8102202  59.5407718 105.8192639
  33.1666722  55.8511891 102.3776331  33.2164727  55.6861898 103.3191854
  33.0580645  54.9839150 101.9874212  22.0502981  58.5300436  89.6668420
  22.1991101  59.2135901  89.0135092  22.8569424  58.5105526  90.1817875
  30.4570485  51.8342819 103.6935637  31.3580347  51.6949283 103.4019635
  30.5318459  51.9997273 104.6333815  24.7913290  49.2109673 102.5388824
  23.9216599  49.5043239 102.2671412  25.0272770  49.7950118 103.2596087
  34.6684919  58.2708832 102.6218352  34.3769727  58.6338813 103.4581813
  34.0557050  57.5575840 102.4431684  32.9172107  53.3941447 101.0898410
  33.3926229  53.5869093 100.2817262  31.9937673  53.4500633 100.8441794
  19.8055614  54.5565614  90.6729489  19.5601656  53.6527944  90.8709699
  19.9751528  54.5582764  89.7308967  27.4952324  45.4289290 100.0554244
  28.0134268  46.1650317  99.7300733  27.1407456  45.7353284 100.8901003
  19.0751261  50.2893971  88.1715650  18.3820506  50.3638326  87.5155686
  18.8303013  49.5254315  88.6937167  27.7464918  41.8489573  95.5755141
  28.0266672  41.1812762  96.2015567  28.5315525  42.0418668  95.0629805
  25.5498386  61.0248567  87.1380167  24.9772353  61.6438754  86.6850639
  26.1231180  61.5747928  87.6720089  31.6173776  50.2707207  99.3226716
  32.5691199  50.3705304  99.3438940  31.4477227  49.4785475  99.8324800
  29.6388156  47.3562790  99.5086117  29.0438088  47.6367803  98.8132605
  29.3537852  47.8456691 100.2802858  28.7695646  61.3085717  88.2688749
  29.7026319  61.2431279  88.4721625  28.6818859  62.1441984  87.8103282
  34.0961854  53.4913326  98.4369016  34.0638174  52.5529327  98.6228699
  34.7062478  53.5697363  97.7034840  34.2456342  50.2824370  98.4827299
  33.7295391  49.4982827  98.2957228  35.1296291  49.9543087  98.6473818
  31.9067069  44.0265385  94.4423111  31.7091891  43.7180474  95.3266443
  32.5166775  44.7527024  94.5721041  25.8183877  56.4127126 105.9396877
  26.7386887  56.5905725 106.1336923  25.7833460  55.4683171 105.7876576
  15.0366042  51.6065719  94.8650151  14.7168827  50.7531027  94.5724525
  14.4899471  51.8214297  95.6208119  18.8145950  54.3228160  98.5819658
  19.0331960  55.2545268  98.6007692  19.2271724  53.9636135  99.3674462
  25.7350168  44.8296246  90.5695346  24.9250896  44.4843331  90.9450592
  26.4234585  44.5203789  91.1582958  27.6640716  43.9074292  92.1919643
  28.2171755  44.3269746  92.8509666  27.9010802  42.9810040  92.2342599
  23.6873815  49.8961366 107.9722407  23.5870542  50.8455723 107.9034498
  23.4695357  49.5679605 107.0998477  14.9054302  55.2268631  96.8343273
  14.2117774  54.8122584  96.3213227  15.6527293  55.2689167  96.2376692
  31.0419523  46.0174818  91.6998307  30.4618192  46.6759622  91.3176359
  30.7755456  45.1952162  91.2885724  29.4923089  45.4179875  93.9019627
  29.9922868  45.5296410  93.0933946  30.1358697  45.1140928  94.5420436
  23.5505085  53.3258505 106.7887468  23.0672167  54.1258865 106.9951357
  23.6366024  53.3366450 105.8354912  16.8191045  55.1586885  94.7109288
  16.7961733  55.2574572  93.7591171  17.1291681  56.0052035  95.0326454
  19.4778423  57.2163040  98.8255902  20.4321676  57.1846982  98.7585834
  19.2790946  56.7553663  99.6406128  20.0677805  55.7864156 101.3926700
  20.8870694  56.2808234 101.4161537  20.3414613  54.8696124 101.3644267
  29.8244401  48.1774908  90.7554655  28.9370256  48.4624559  90.5374850
  30.2398390  48.0168671  89.9081932  33.1758937  48.2021429  94.4708994
  33.9519327  48.6917881  94.7433611  32.4507071  48.6279483  94.9280864
  35.6131496  48.9149048  95.5282935  36.2075987  48.6744784  94.8176243
  35.6858080  48.1956179  96.1556471  17.8328652  62.7582659  95.8426100
  17.6983120  61.9983060  95.2764098  17.4160714  63.4823559  95.3754889
  29.7985425  53.6929444  90.9704945  29.7420626  54.1497995  90.1312578
  30.3513767  52.9320128  90.7927788  33.6090231  49.4819176  91.7955065
  33.3527165  49.0815811  92.6263273  32.9843099  50.1962970  91.6705204
  20.9897777  63.6551976  96.0544543  20.8730162  64.5997409  95.9523233
  20.1690224  63.3525538  96.4430342  30.5320204  54.8834225  88.2657475
  30.4769008  54.7178497  87.3245919  29.9066259  55.5910258  88.4219664
  15.3212719  50.1202289 102.0918897  15.9671583  49.6101243 102.5806122
  15.1129870  50.8570971 102.6662322  27.8466111  57.1883137 107.5911037
  28.7157271  57.3623789 107.2297672  27.3672863  58.0077554 107.4686767
  23.8416330  44.3842334  87.8442793  23.8294999  45.3284174  88.0011064
  24.7339752  44.2012479  87.5502254  22.0152292  64.3080238  99.2700471
  22.9179538  64.3403848  99.5866966  21.7889662  63.3780689  99.2846807
  23.7705894  63.0611224  95.9310550  22.8201525  63.0613086  95.8174922
  24.0738380  62.3143959  95.4146584  27.6568449  40.9785111  92.0988730
  26.8900845  40.4243597  92.2445412  28.0679154  41.0506979  92.9602881
  19.6610210  47.2669907 106.1893911  20.5241672  46.9106711 106.3997236
  19.0875621  46.9283801 106.8769315  39.5058587  68.8971763  96.9956312
  40.1436997  68.7778510  96.2919652  39.3879430  69.8452607  97.0544264
  36.3148293  68.8499191  96.9317837  35.9766805  68.7340256  96.0438372
  37.1838062  68.4490356  96.9118843  32.1735109  70.7034667  92.9214728
  31.6099974  70.6124604  92.1531015  32.0587504  69.8834572  93.4017220
  36.7968076  70.0034043 102.8904042  36.7856717  69.6086841 102.0184546
  36.9588716  69.2700115 103.4837814  29.7199541  72.1985859  95.7598948
  30.5120833  71.8576684  95.3445247  29.9596191  72.3080834  96.6801101
  37.7534668  74.3705635  88.2329193  37.1022648  74.9559716  87.8463206
  38.5479031  74.9011830  88.2924230  31.6790295  71.4594772  88.6316327
  32.4521171  70.9123759  88.4929203  32.0315694  72.3239022  88.8430788
  33.5175338  72.7871155 101.8383226  33.2265203  73.6916785 101.7229893
  34.1532322  72.8287682 102.5527296  34.4431544  70.1648003  98.4284586
  35.0395117  69.9404025  97.7141549  34.5006516  69.4232749  99.0310034
  34.0156573  67.6187438  86.2634777  34.2682093  67.0968960  85.5018240
  33.0781132  67.4553584  86.3661460  39.0599856  66.6223217  94.0709520
  39.8462945  66.2042640  93.7199937  39.3238560  67.5269309  94.2391168
  39.2309933  72.0596067  88.7698177  38.5955766  72.1330694  89.4819082
  38.9007339  72.6489666  88.0917256  44.4608283  66.5598450  94.9742499
  45.1933455  65.9897667  95.2080328  43.7047638  66.1720050  95.4149004
  33.7352862  69.5215544  88.4659152  33.6189120  68.8460448  89.1340236
  33.8455121  69.0347918  87.6491305  36.0784402  68.9825691  92.1705841
  35.7142610  68.4556312  92.8818763  36.9351518  68.5924160  91.9972326
  41.9833703  60.2720024  99.4337107  41.6517028  61.1415435  99.2098322
  41.3879316  59.9556308 100.1131138  35.7189889  64.0115591  87.1667190
  35.8864292  64.8795828  87.5337661  35.5287058  64.1742873  86.2428479
  38.4765223  72.4732570  98.8333020  38.1765946  73.3757609  98.7248827
  38.1316282  72.2064753  99.6854173  31.9277704  68.9246367  94.8669724
  31.0028201  68.7922581  95.0747416  32.1762117  69.7040586  95.3639667
  41.8762366  64.9915110  96.5130457  40.9679244  64.9230519  96.2189218
  41.8249962  65.4687055  97.3412283  35.6979110  66.4673249  88.1513856
  35.5778735  66.9130299  88.9899337  35.0031699  66.8158566  87.5927395
  29.2886515  68.5679640  95.7013513  29.4178896  68.8214119  96.6152925
  28.6083966  69.1607348  95.3818168  33.4586002  79.2376890  91.8003988
  33.3810032  80.1884715  91.8792468  32.8547646  78.8922763  92.4578914
  35.9503232  66.4104756 104.4565355  35.1736566  66.9698676 104.4468219
  36.5893795  66.8961539 104.9780225  43.7424013  63.1931549  98.2908331
  43.0998393  63.4864082  97.6448126  43.2378941  63.0784469  99.0961528
  41.3964176  66.9394722  88.9794190  42.3082033  67.1722109  88.8041888
  40.8873824  67.5231766  88.4169269  34.2049604  69.2190209 104.0183322
  34.9464289  69.7575253 103.7418145  33.4986590  69.8456498 104.1754873
  39.6804944  71.3619350 102.6155483  40.0888300  70.9201760 101.8710115
  38.9582206  70.7871977 102.8689676  36.0336014  66.2991956  99.9889040
  36.8797209  66.7231370 100.1323689  35.9734652  65.6425581 100.6827603
  40.0033759  71.9220540  96.3707772  39.3742621  72.0866254  95.6683840
  39.6159421  72.3362150  97.1418736  43.8822991  72.8574978  93.7252136
  43.1974029  73.2373879  93.1749169  43.9666840  73.4670305  94.4584083
  39.1835459  63.9596325 101.6470214  38.9396391  64.7138385 101.1104489
  39.4595390  64.3381672 102.4817461  41.1373922  70.5034937 100.3247479
  41.3490818  71.1466697  99.6481860  41.0903671  69.6697254  99.8569409
  38.7400151  63.1152758  97.2284051  37.8784630  63.4134011  97.5200789
  38.7662586  63.3323157  96.2965084  35.5561721  71.6594948  93.6357857
  36.0200066  71.9382651  92.8462479  35.2918519  70.7578393  93.4530948
  32.4485802  71.2066430  96.5737620  33.0187159  71.6353698  95.9355105
  33.0393914  70.9249015  97.2721806  34.4930607  67.7818101  90.4447422
  35.1954650  68.2339144  90.9121348  34.1611235  67.1401920  91.0727315
  32.9410968  66.3729857 104.8198632  32.3109629  67.0546138 105.0534028
  32.8347056  66.2612939 103.8751770  28.2355941  66.0401653  95.7464556
  27.4454995  66.2959182  95.2704666  28.7267188  66.8549991  95.8516596
  42.2519750  73.3806893  98.4969837  43.0737194  72.9787080  98.2152518
  42.2482153  73.2775127  99.4485952  30.1870686  66.4046233  92.7048032
  29.3901849  66.5164927  93.2231528  29.9596278  66.7432885  91.8388923
  36.0176354  72.9290936 100.6530547  36.0820786  73.3911343 101.4888719
  35.3087278  72.2988301 100.7812857  26.5193644  66.2932144  98.1779546
  26.7701682  67.1779154  98.4437122  27.0553192  66.1136745  97.4054638
  50.3425743  69.7245641  94.8454808  49.5889452  69.1553039  94.6898812
  50.4773284  69.6908306  95.7925443  35.7324371  74.5959043  90.5209527
  35.5970046  75.4410579  90.9494375  36.2734184  74.7978321  89.7575461
  32.2191711  60.6750623 107.1823883  31.8258657  60.1216822 107.8571527
  33.0357851  60.9861202 107.5730400  29.1853769  72.1134481  91.0937452
  29.6978289  72.9077732  91.2443017  29.8376482  71.4160772  91.0271054
  30.9948653  75.2300238  93.1760206  31.1715282  76.1518202  92.9881190
  31.7905487  74.9158657  93.6054585  35.1359672  62.0908502 104.7744139
  35.8769385  62.6915655 104.6948602  35.3677595  61.3486140 104.2162182
  30.2801010  67.2764870 103.0522369  30.1654525  66.3750127 103.3529468
  29.4245528  67.5228566 102.7007185  37.3592848  75.2182610 104.6509869
  36.9156702  74.4318988 104.3330774  38.0210061  75.4061760 103.9853760
  32.1179969  76.7478411  99.1770548  32.6687394  76.6195475  98.4047542
  31.2791445  77.0473300  98.8265441  39.4574086  75.4985410 102.6791271
  39.4392561  76.3194291 102.1871540  40.3794006  75.3739485 102.9041412
  35.9147140  73.0129539 103.5214779  36.4475477  72.2517827 103.2914087
  35.3861221  72.7203191 104.2638934  27.1502685  70.4423136  91.8697023
  27.9877907  70.8520144  91.6530731  27.3280953  69.5022578  91.8397217
  39.0467118  68.1098216  87.5580856  38.5313741  68.8802821  87.7969243
  38.7744426  67.4363352  88.1813917  36.6314229  62.9547917  92.6166094
  35.7755825  62.5654767  92.4371733  37.0441180  63.0339878  91.7565880
  38.1613375  60.4894260  97.0157654  37.6578171  60.4524396  96.2025459
  38.4543982  61.3987003  97.0754311  34.4056261  60.5732990  96.0223836
  35.2709258  60.3775799  95.6629725  34.4733770  60.3443342  96.9493193
  44.0201392  70.8630571  89.4934029  43.2430835  70.5241730  89.0489191
  44.6992873  70.8683194  88.8188994  38.8353421  65.9825308  89.3840637
  38.5303556  66.2971458  90.2350780  39.7883863  66.0606728  89.4267970
  37.2799853  72.1415532  91.0333591  36.7521214  71.4068291  90.7206829
  36.7787355  72.9190208  90.7873559  42.2592699  70.3364552  96.1500637
  41.6016373  71.0263814  96.2380766  43.0633098  70.7260984  96.4934624
  32.0118580  62.8035198  93.3940203  32.5862332  62.5810380  92.6613396
  32.5989563  62.8723893  94.1468804  41.0698157  68.6908925  94.2004579
  41.5830039  69.3238917  94.7026289  41.7199381  68.0910120  93.8347939
  32.3388167  64.8339659  87.4136088  31.5025480  65.1714346  87.7345363
  32.1992937  64.6988639  86.4763225  35.4252453  69.9595742  84.0368564
  34.5179515  69.7284995  84.2359713  35.9223485  69.1633361  84.2242546
  38.3320532  78.6693249  86.9565250  37.6582230  78.9724946  87.5650208
  38.7186354  79.4722330  86.6070707  37.5478988  66.1658380  96.4462920
  36.6301550  66.3873327  96.2884608  37.9639132  66.2404691  95.5874627
  38.3314036  67.5649796  91.5765600  39.0785855  68.0771193  91.2672722
  38.6005626  67.2433849  92.4369993  36.6040686  70.0608337  88.5592554
  35.6951906  69.7767370  88.6565024  36.6335770  70.4807415  87.6995861
  41.8359954  73.6714926  92.3283722  41.3822281  72.8305836  92.3848912
  41.2053920  74.3076325  92.6658502  40.7792873  64.6006912  93.5584389
  40.0415630  64.0884299  93.8894632  41.0319647  64.1607294  92.7467666
  40.2792893  75.5091423  93.2633540  40.5715867  76.0696480  92.5445906
  40.7891513  75.8019984  94.0186699  27.1728857  67.7813851  92.5407756
  26.9753256  67.1883212  91.8158823  26.6175521  67.4766061  93.2583695
  35.1525580  67.6736957  94.6602350  35.2074190  66.7210794  94.5844826
  34.3416782  67.8296397  95.1443648  36.3016774  71.6017081  85.8980633
  35.8636204  70.8852939  85.4386270  37.0427215  71.8293195  85.3365724
  33.0917940  66.2914017  92.4192728  32.2785806  66.5908188  92.8257921
  33.5876934  65.8969706  93.1367211  35.2426518  76.2871774  94.3526993
  35.2002697  76.5132620  93.4235525  36.1589217  76.0535149  94.5012794
  38.6892152  66.7555842 101.2507622  39.0441540  66.9827315 102.1102088
  39.3364283  67.0874218 100.6284878  44.4189889  69.8774278  91.9556951
  44.2807787  70.0675874  91.0278141  44.0626108  70.6393660  92.4125002
  32.5832015  63.8632373  98.0353963  33.2231394  63.7221132  97.3376927
  31.7509546  63.5766886  97.6592565  44.4459268  71.9450805  96.9668223
  44.8795775  71.8526094  97.8151277  45.1590849  71.9208305  96.3288239
  33.3592319  73.1634803  94.1488956  34.1532917  72.6685123  93.9471531
  32.6484011  72.6352666  93.7856661  38.1787163  75.5452899  98.5001323
  38.2324186  76.1143835  99.2679039  37.3101945  75.7154784  98.1355361
  29.6675082  67.3077885  90.2248709  28.7372670  67.2462340  90.4418671
  29.7632554  66.7853838  89.4285350  29.5860631  63.8332698  92.8126950
  29.8467449  64.7478031  92.7036111  30.4077804  63.3657140  92.9623563
  31.0585557  65.2470455  99.9825775  31.7308610  65.0387817  99.3338424
  30.2315343  65.0492541  99.5431007  45.3074818  71.9874505  99.5001108
  45.5010708  72.8920316  99.7460383  45.2075436  71.5281924 100.3339693
  36.9611129  61.8732396 101.9991436  36.3139044  62.5722345 101.9055912
  37.7312144  62.3068540 102.3667684  40.3689927  72.1381248 105.0741989
  40.2175433  71.9091800 104.1572073  40.3594606  73.0951849 105.0873334
  37.1375263  69.7113161 100.0588255  38.0667323  69.8624320  99.8857223
  36.7166293  69.7997182  99.2036902  35.9363595  73.7363825  97.8286793
  35.7974681  73.3682610  98.7012731  35.1478191  74.2511465  97.6570751
  36.5311747  78.8372922  89.1712329  36.7063503  78.3660965  89.9857952
  35.8444535  79.4638688  89.3993590  37.4868810  73.1145428  95.2175631
  37.1518643  73.0746198  96.1133281  36.9872756  72.4490144  94.7446041
  31.4613054  68.5213058 100.7428212  31.3232852  67.7893297 101.3439751
  32.3717977  68.4321958 100.4612400  40.4228002  70.4601462  85.4912690
  39.8057172  69.7348290  85.3945743  39.9544490  71.2210822  85.1479765
  34.0895355  68.2333017 100.2311892  34.7994973  67.5926209 100.1898510
  34.0464663  68.4845912 101.1538072  42.0782133  75.1700371 103.1518471
  42.0194679  74.4859591 102.4849054  42.4801652  75.9119361 102.6999097
  32.8024289  65.2198235 102.0507531  32.2661646  64.7688974 102.7029127
  32.2140997  65.3544144 101.3077995  31.0972832  81.9862284  95.9452190
  31.3369430  82.6180809  96.6231208  30.2542029  81.6350324  96.2317549
  42.0799541  73.1339954 101.3832450  41.1926319  72.7965876 101.5058849
  42.6498092  72.4022986 101.6201216  23.7328688  69.4664046  94.7075502
  24.4199728  69.1525776  94.1196517  23.5776816  70.3705411  94.4342753
  28.5363410  64.3554243  99.1360525  28.4521599  63.7479912  98.4010935
  27.7146116  64.8463261  99.1370022  35.6100694  77.7941407  98.3493694
  35.5370865  78.5996378  98.8612998  35.1678087  77.9933373  97.5241715
  35.3990474  77.0313177  91.8596515  34.6157995  77.5734857  91.9534740
  36.0983219  77.5487156  92.2590756  38.7087124  62.8407806  94.5030721
  39.2055823  62.0877769  94.1831791  37.9374105  62.8772123  93.9373930
  46.5616881  68.5448172  96.1449012  46.5506757  69.4272887  95.7742945
  45.6934261  68.1919723  95.9503549  38.0699378  77.6928241 100.5051852
  38.7827350  78.3275706 100.4327754  37.5789406  77.7892107  99.6891854
  39.7916904  71.5979494  92.0769144  38.8573183  71.7180956  91.9073848
  39.9693573  70.6951960  91.8129154  35.2922092  64.9825189  94.2302405
  34.9219880  64.4296230  94.9183311  35.7881185  64.3783323  93.6777405
  43.1789456  67.4396813  92.6119178  43.6449908  68.2724804  92.5379481
  43.6296956  66.9741794  93.3164437  33.1211291  75.4422684 101.3257423
  33.8220751  76.0759167 101.4786817  32.6506406  75.7837416 100.5653062
  41.2465687  73.7840634  89.6105330  41.5225531  73.6697229  90.5199204
  40.3770186  73.3858119  89.5717503  40.9212577  67.9967292  99.1509973
  40.2684027  68.2443199  98.4962426  41.2992957  67.1831430  98.8172451
  37.8819751  78.0326985  93.2538144  38.0642145  77.2148641  93.7165896
  38.7052737  78.2494677  92.8163034  38.2161916  76.9595170  90.5153192
  38.7449683  76.4487625  89.9023354  38.4790136  76.6437700  91.3798725
  36.9700150  68.7387103 105.6376011  36.2940787  68.6381232 106.3078386
  37.7927784  68.5826317 106.1012008  28.7179009  74.9759039  98.2588526
  29.3032446  74.2302727  98.3916430  28.5203848  75.2862996  99.1425190
  31.5717664  78.0110287  93.2750968  30.9028040  78.4956414  92.7915008
  31.4330534  78.2579507  94.1894347  23.3096664  67.5464640  96.9792969
  23.3480763  67.0128230  97.7730087  22.8036957  67.0199845  96.3603946
  35.7122933  80.0454030  99.8733627  36.2641241  80.2085652 100.6382712
  36.0529126  80.6358468  99.2013651  30.6887426  62.3929180 100.4755511
  30.7528753  63.2544011 100.0632909  30.6254546  61.7803182  99.7427870
  30.1639699  64.4652313 104.1228545  30.7911737  64.0829390 104.7366070
  29.3067618  64.2466515 104.4884238  40.5633807  74.8715288 105.7282281
  41.1073711  75.4845246 105.2337236  39.9820652  75.4294866 106.2449294
  26.9405241  66.2728742  90.0546900  27.2358682  65.3639420  90.0013954
  26.0393277  66.2516481  89.7327903  38.8491320  77.9936006  96.8597309
  38.7242460  77.1925746  96.3508254  39.5070411  78.4882199  96.3711279
  30.4699488  64.3484738  96.0374449  29.7486074  64.9620706  95.8981922
  31.2592744  64.8842503  95.9591095  40.9126229  75.7945026  98.4876859
  39.9656564  75.6750377  98.4155186  41.2609002  74.9067524  98.5703120
  33.2725802  61.6839165 102.3115101  33.7960204  61.9301461 103.0741410
  33.0538135  62.5159200 101.8918238  28.6693083  63.9542839  90.1786225
  28.3405789  63.0740218  89.9961331  29.0232454  63.8990508  91.0662615
  37.9172662  75.5897742  94.6881211  37.7697624  74.6614450  94.8688781
  38.7426155  75.6117833  94.2038286  31.7834906  64.2415809  90.5461703
  32.1230979  64.7701730  89.8240312  32.2307027  64.5796215  91.3220270
  41.5206784  76.4126301  95.7746084  42.4453331  76.2069162  95.6370535
  41.3522087  76.1642702  96.6835425  34.4778347  62.6252860  99.9964771
  34.1375167  61.8260673 100.3985451  33.7717353  62.9254571  99.4241604
  33.7703053  62.7390431  88.7454996  34.4911416  63.1171684  88.2418713
  33.1468357  63.4579308  88.8489974  37.9134176  63.4435580  89.6813328
  38.1297791  64.3260218  89.3802156  37.4328243  63.0521793  88.9518970
  32.6533398  66.4021293  96.2584073  32.5077978  66.7161596  97.1508354
  32.1758601  67.0206193  95.7054971  34.5129780  63.3923841  96.3064962
  34.4991349  62.4964934  95.9697260  35.2302209  63.3994505  96.9403248
  36.3655911  63.8261181  98.3518090  36.1073689  64.7478252  98.3502420
  35.8340952  63.4291616  99.0418554  41.3102100  76.9311968  91.1308175
  41.4838977  76.3658391  90.3782028  41.8030991  77.7312863  90.9487665
  27.1279060  68.9426637  99.1971734  26.5832528  69.7186445  99.3292008
  28.0058410  69.2897442  99.0390855  33.9166676  62.2738221  91.5752533
  34.0382588  61.3454867  91.7743420  33.6268719  62.2876907  90.6630848
  47.1641491  69.6948391  92.7498475  47.6072637  68.9455716  92.3517598
  46.2868001  69.6858528  92.3672207  42.2977272  76.2478733  88.2305073
  42.9928177  76.8685425  88.4492388  42.6400423  75.3974084  88.5057451
  27.9145082  68.0696534 102.0901891  27.1726818  68.2179169 102.6766521
  27.5937826  68.3304799 101.2268640  44.1968696  73.6978438  89.7592404
  44.7220020  74.0365711  89.0341724  44.1091048  72.7625454  89.5755539
  35.8588744  77.6112512 101.8882281  36.1675871  77.3661659 102.7604980
  36.6564226  77.8159150 101.4001151  35.8809356  79.7650421  94.1187657
  35.4414347  79.2726800  94.8120514  36.6317473  79.2223389  93.8779733
  28.3601695  75.9561962  94.1212286  29.1859715  75.6565734  93.7410929
  28.0095747  75.1869585  94.5702074  33.3283228  75.3088431  96.1909959
  32.7063238  74.6459136  95.8912187  33.9988095  75.3349562  95.5083607
  26.5610300  73.8748289  95.0801219  25.7242209  73.4470463  94.8985220
  26.5333946  74.0680732  96.0172010  33.4007756  63.7870219 105.7842465
  33.4495911  64.6632341 105.4020235  33.9430270  63.2447612 105.2114108
  43.8862602  74.3311342 105.0643602  43.0958145  74.3135481 104.5248102
  43.6495956  74.8699636 105.8192639  44.0060477  71.1803808 102.3776331
  44.0558482  71.0153816 103.3191854  43.8974400  70.3131067 101.9874212
  32.8896735  73.8592354  89.6668420  33.0384856  74.5427818  89.0135092
  33.6963179  73.8397444  90.1817875  41.2964239  67.1634736 103.6935637
  42.1974102  67.0241201 103.4019635  41.3712214  67.3289191 104.6333815
  35.6307044  64.5401591 102.5388824  34.7610354  64.8335157 102.2671412
  35.8666525  65.1242036 103.2596087  45.5078673  73.6000750 102.6218352
  45.2163482  73.9630730 103.4581813  44.8950805  72.8867758 102.4431684
  46.7074356  71.1653630  95.1420923  47.5421247  71.6043434  95.3058483
  46.8433485  70.6892283  94.3229168  43.7565862  68.7233364 101.0898410
  44.2319983  68.9161011 100.2817262  42.8331427  68.7792550 100.8441794
  30.6449368  69.8857532  90.6729489  30.3995410  68.9819862  90.8709699
  30.8145283  69.8874682  89.7308967  38.3346078  60.7581208 100.0554244
  38.8528022  61.4942235  99.7300733  37.9801211  61.0645201 100.8901003
  29.9145016  65.6185889  88.1715650  29.2214261  65.6930244  87.5155686
  29.6696768  64.8546233  88.6937167  36.3892141  76.3540484  87.1380167
  35.8166108  76.9730672  86.6850639  36.9624935  76.9039846  87.6720089
  42.4567531  65.5999124  99.3226716  43.4084954  65.6997222  99.3438940
  42.2870981  64.8077393  99.8324800  40.4781910  62.6854708  99.5086117
  39.8831842  62.9659720  98.8132605  40.1931607  63.1748609 100.2802858
  39.6089401  76.6377635  88.2688749  40.5420074  76.5723196  88.4721625
  39.5212613  77.4733901  87.8103282  42.2377417  75.9543505  85.2292697
  42.1591049  75.6203368  86.1228455  43.0587084  76.4465273  85.2284169
  44.9355608  68.8205244  98.4369016  44.9031929  67.8821245  98.6228699
  45.5456232  68.8989281  97.7034840  36.7738939  67.6901297  84.4796220
  37.7198044  67.5607505  84.5484638  36.3953184  66.9515959  84.9565648
  45.0850097  65.6116288  98.4827299  44.5689146  64.8274744  98.2957228
  45.9690046  65.2835004  98.6473818  50.7532158  69.8821251  97.5775052
  51.4835547  69.6206539  98.1382756  50.1439104  69.1449973  97.6177120
  48.8347455  68.0229114  98.1749504  48.1080619  67.8885079  97.5665995
  48.4194742  68.3305942  98.9806222  36.6577632  71.7419043 105.9396877
  37.5780641  71.9197642 106.1336923  36.6227215  70.7975089 105.7876576
  34.9581857  65.6151274  84.4151105  34.0513312  65.3184386  84.4913818
  35.2357838  65.3181092  83.5485391  25.8759797  66.9357637  94.8650151
  25.5562581  66.0822945  94.5724525  25.3293225  67.1506215  95.6208119
  29.6539704  69.6520078  98.5819658  29.8725714  70.5837186  98.6007692
  30.0665478  69.2928052  99.3674462  38.5034471  59.2366210  92.1919643
  39.0565509  59.6561663  92.8509666  38.7404557  58.3101958  92.2342599
  34.5267570  65.2253284 107.9722407  34.4264297  66.1747641 107.9034498
  34.3089112  64.8971523 107.0998477  25.7448057  70.5560548  96.8343273
  25.0511528  70.1414501  96.3213227  26.4921048  70.5981085  96.2376692
  34.3898840  68.6550423 106.7887468  33.9065922  69.4550783 106.9951357
  34.4759779  68.6658367 105.8354912  27.6584799  70.4878802  94.7109288
  27.6355488  70.5866489  93.7591171  27.9685436  71.3343953  95.0326454
  30.3172177  72.5454957  98.8255902  31.2715431  72.5138900  98.7585834
  30.1184701  72.0845581  99.6406128  30.9071559  71.1156073 101.3926700
  31.7264448  71.6100152 101.4161537  31.1808367  70.1988041 101.3644267
  44.0152692  63.5313347  94.4708994  44.7913082  64.0209799  94.7433611
  43.2900826  63.9571401  94.9280864  46.4525250  64.2440966  95.5282935
  47.0469741  64.0036702  94.8176243  46.5251834  63.5248096  96.1556471
  28.6722406  78.0874577  95.8426100  28.5376874  77.3274978  95.2764098
  28.2554468  78.8115477  95.3754889  39.8081369  73.2711500  84.8502675
  40.5117219  73.4761503  85.4660331  39.0844018  73.8388262  85.1151759
  40.6379179  69.0221362  90.9704945  40.5814381  69.4789913  90.1312578
  41.1907522  68.2612046  90.7927788  44.4483985  64.8111093  91.7955065
  44.1920920  64.4107729  92.6263273  43.8236853  65.5254887  91.6705204
  48.7596323  67.5507167  94.3026356  48.1995881  67.6200356  95.0757918
  48.1539827  67.3748151  93.5825853  31.8291532  78.9843894  96.0544543
  31.7123916  79.9289326  95.9523233  31.0083978  78.6817455  96.4430342
  41.7168067  73.7094029  86.9001135  42.5513670  73.2775228  86.7178610
  41.5552409  73.5376043  87.8278030  41.3713959  70.2126143  88.2657475
  41.3162762  70.0470414  87.3245919  40.7460014  70.9202176  88.4219664
  26.1606474  65.4494207 102.0918897  26.8065337  64.9393161 102.5806122
  25.9523625  66.1862889 102.6662322  38.6859866  72.5175055 107.5911037
  39.5551025  72.6915707 107.2297672  38.2066617  73.3369471 107.4686767
  32.8546046  79.6372156  99.2700471  33.7573293  79.6695766  99.5866966
  32.6283416  78.7072607  99.2846807  34.6099648  78.3903142  95.9310550
  33.6595279  78.3905004  95.8174922  34.9132134  77.6435877  95.4146584
  30.5003965  62.5961824 106.1893911  31.3635426  62.2398629 106.3997236
  29.9269375  62.2575719 106.8769315  50.3452342  84.2263681  96.9956312
  50.9830752  84.1070428  96.2919652  50.2273184  85.1744525  97.0544264
  47.1542048  84.1791109  96.9317837  46.8160559  84.0632173  96.0438372
  48.0231816  83.7782274  96.9118843  43.0128864  86.0326585  92.9214728
  42.4493729  85.9416522  92.1531015  42.8981259  85.2126490  93.4017220
  47.6361831  85.3325960 102.8904042  47.6250472  84.9378759 102.0184546
  47.7982470  84.5992033 103.4837814  40.5593296  87.5277777  95.7598948
  41.3514587  87.1868601  95.3445247  40.7989946  87.6372752  96.6801101
  48.5928422  89.6997553  88.2329193  47.9416402  90.2851633  87.8463206
  49.3872785  90.2303748  88.2924230  42.5184049  86.7886690  88.6316327
  43.2914925  86.2415677  88.4929203  42.8709448  87.6530939  88.8430788
  44.3569092  88.1163072 101.8383226  44.0658958  89.0208703 101.7229893
  44.9926076  88.1579600 102.5527296  45.2825299  85.4939921  98.4284586
  45.8788871  85.2695943  97.7141549  45.3400270  84.7524666  99.0310034
  44.8550327  82.9479356  86.2634777  45.1075848  82.4260877  85.5018240
  43.9174886  82.7845501  86.3661460  49.8993610  81.9515134  94.0709520
  50.6856699  81.5334558  93.7199937  50.1632314  82.8561227  94.2391168
  50.0703687  87.3887985  88.7698177  49.4349520  87.4622611  89.4819082
  49.7401094  87.9781584  88.0917256  55.3002037  81.8890368  94.9742499
  56.0327209  81.3189584  95.2080328  54.5441393  81.5011968  95.4149004
  44.5746616  84.8507462  88.4659152  44.4582874  84.1752365  89.1340236
  44.6848876  84.3639836  87.6491305  46.9178157  84.3117609  92.1705841
  46.5536364  83.7848230  92.8818763  47.7745273  83.9216078  91.9972326
  52.8227458  75.6011942  99.4337107  52.4910782  76.4707353  99.2098322
  52.2273071  75.2848226 100.1131138  46.5583644  79.3407509  87.1667190
  46.7258046  80.2087745  87.5337661  46.3680813  79.5034791  86.2428479
  49.3158977  87.8024488  98.8333020  49.0159700  88.7049527  98.7248827
  48.9710037  87.5356671  99.6854173  42.7671459  84.2538285  94.8669724
  41.8421955  84.1214499  95.0747416  43.0155872  85.0332504  95.3639667
  52.7156121  80.3207028  96.5130457  51.8072998  80.2522436  96.2189218
  52.6643717  80.7978973  97.3412283  46.5372865  81.7965166  88.1513856
  46.4172490  82.2422217  88.9899337  45.8425453  82.1450484  87.5927395
  40.1280270  83.8971558  95.7013513  40.2572651  84.1506037  96.6152925
  39.4477721  84.4899266  95.3818168  44.2979757  94.5668808  91.8003988
  44.2203787  95.5176633  91.8792468  43.6941400  94.2214681  92.4578914
  46.7896987  81.7396673 104.4565355  46.0130321  82.2990594 104.4468219
  47.4287550  82.2253456 104.9780225  54.5817767  78.5223466  98.2908331
  53.9392148  78.8155999  97.6448126  54.0772696  78.4076387  99.0961528
  52.2357931  82.2686639  88.9794190  53.1475787  82.5014026  88.8041888
  51.7267578  82.8523684  88.4169269  45.0443359  84.5482127 104.0183322
  45.7858043  85.0867171 103.7418145  44.3380344  85.1748416 104.1754873
  50.5198699  86.6911267 102.6155483  50.9282055  86.2493678 101.8710115
  49.7975960  86.1163895 102.8689676  46.8729769  81.6283874  99.9889040
  47.7190964  82.0523288 100.1323689  46.8128406  80.9717498 100.6827603
  50.8427513  87.2512458  96.3707772  50.2136376  87.4158172  95.6683840
  50.4553175  87.6654067  97.1418736  54.7216745  88.1866896  93.7252136
  54.0367783  88.5665797  93.1749169  54.8060594  88.7962222  94.4584083
  50.0229214  79.2888242 101.6470214  49.7790146  80.0430303 101.1104489
  50.2989144  79.6673590 102.4817461  51.9767677  85.8326855 100.3247479
  52.1884572  86.4758615  99.6481860  51.9297425  84.9989171  99.8569409
  49.5793906  78.4444675  97.2284051  48.7178385  78.7425929  97.5200789
  49.6056340  78.6615074  96.2965084  46.3955475  86.9886866  93.6357857
  46.8593821  87.2674569  92.8462479  46.1312273  86.0870311  93.4530948
  43.2879556  86.5358348  96.5737620  43.8580913  86.9645616  95.9355105
  43.8787668  86.2540932  97.2721806  45.3324361  83.1110018  90.4447422
  46.0348405  83.5631062  90.9121348  45.0004990  82.4693837  91.0727315
  43.7804723  81.7021775 104.8198632  43.1503383  82.3838056 105.0534028
  43.6740811  81.5904857 103.8751770  39.0749695  81.3693571  95.7464556
  38.2848749  81.6251100  95.2704666  39.5660943  82.1841909  95.8516596
  53.0913505  88.7098810  98.4969837  53.9130948  88.3078998  98.2152518
  53.0875908  88.6067044  99.4485952  41.0264441  81.7338150  92.7048032
  40.2295604  81.8456845  93.2231528  40.7990033  82.0724803  91.8388923
  46.8570108  88.2582854 100.6530547  46.9214541  88.7203261 101.4888719
  46.1481032  87.6280218 100.7812857  37.3587398  81.6224061  98.1779546
  37.6095437  82.5071071  98.4437122  37.8946947  81.4428663  97.4054638
  61.1819498  85.0537559  94.8454808  60.4283206  84.4844957  94.6898812
  61.3167039  85.0200223  95.7925443  46.5718126  89.9250961  90.5209527
  46.4363801  90.7702497  90.9494375  47.1127938  90.1270239  89.7575461
  43.0585465  76.0042541 107.1823883  42.6652411  75.4508739 107.8571527
  43.8751606  76.3153119 107.5730400  40.0247523  87.4426399  91.0937452
  40.5372044  88.2369649  91.2443017  40.6770236  86.7452690  91.0271054
  41.8342408  90.5592155  93.1760206  42.0109036  91.4810120  92.9881190
  42.6299241  90.2450575  93.6054585  45.9753426  77.4200420 104.7744139
  46.7163140  78.0207573 104.6948602  46.2071349  76.6778058 104.2162182
  41.1194764  82.6056787 103.0522369  41.0048280  81.7042044 103.3529468
  40.2639282  82.8520484 102.7007185  48.1986602  90.5474528 104.6509869
  47.7550456  89.7610906 104.3330774  48.8603816  90.7353678 103.9853760
  42.9573723  92.0770329  99.1770548  43.5081148  91.9487392  98.4047542
  42.1185199  92.3765218  98.8265441  50.2967840  90.8277327 102.6791271
  50.2786316  91.6486208 102.1871540  51.2187760  90.7031403 102.9041412
  46.7540894  88.3421457 103.5214779  47.2869231  87.5809745 103.2914087
  46.2254976  88.0495109 104.2638934  49.9210589  73.4481523  99.0508421
  49.5774859  74.3383165  98.9747531  50.2889552  73.2583181  98.1878006
  37.9896440  85.7715053  91.8697023  38.8271662  86.1812062  91.6530731
  38.1674708  84.8314496  91.8397217  49.8860872  83.4390134  87.5580856
  49.3707496  84.2094739  87.7969243  49.6138181  82.7655270  88.1813917
  47.4707983  78.2839835  92.6166094  46.6149579  77.8946685  92.4371733
  47.8834935  78.3631796  91.7565880  49.0007130  75.8186178  97.0157654
  48.4971925  75.7816313  96.2025459  49.2937737  76.7278921  97.0754311
  45.2450016  75.9024908  96.0223836  46.1103012  75.7067716  95.6629725
  45.3127525  75.6735260  96.9493193  54.8595146  86.1922489  89.4934029
  54.0824589  85.8533648  89.0489191  55.5386627  86.1975112  88.8188994
  49.6747175  81.3117226  89.3840637  49.3697311  81.6263375  90.2350780
  50.6277617  81.3898646  89.4267970  48.1193607  87.4707449  91.0333591
  47.5914969  86.7360209  90.7206829  47.6181110  88.2482126  90.7873559
  53.0986453  85.6656470  96.1500637  52.4410128  86.3555731  96.2380766
  53.9026852  86.0552902  96.4934624  42.8512335  78.1327116  93.3940203
  43.4256087  77.9102297  92.6613396  43.4383317  78.2015810  94.1468804
  51.9091912  84.0200843  94.2004579  52.4223794  84.6530834  94.7026289
  52.5593136  83.4202038  93.8347939  43.1781922  80.1631577  87.4136088
  42.3419234  80.5006263  87.7345363  43.0386691  80.0280557  86.4763225
  45.1535002  75.0068365  92.1215272  44.4999415  74.6917382  91.4971887
  45.1115477  74.3844105  92.8475095  46.2646207  85.2887660  84.0368564
  45.3573269  85.0576913  84.2359713  46.7617239  84.4925279  84.2242546
  49.1714286  93.9985167  86.9565250  48.4975985  94.3016864  87.5650208
  49.5580108  94.8014247  86.6070707  48.3872743  81.4950298  96.4462920
  47.4695304  81.7165245  96.2884608  48.8032886  81.5696609  95.5874627
  49.1707791  82.8941714  91.5765600  49.9179610  83.4063111  91.2672722
  49.4399380  82.5725767  92.4369993  47.4434441  85.3900255  88.5592554
  46.5345660  85.1059287  88.6565024  47.4729525  85.8099333  87.6995861
  52.6753708  89.0006844  92.3283722  52.2216035  88.1597754  92.3848912
  52.0447675  89.6368242  92.6658502  51.6186628  79.9298830  93.5584389
  50.8809385  79.4176216  93.8894632  51.8713401  79.4899212  92.7467666
  51.1186647  90.8383341  93.2633540  51.4109622  91.3988398  92.5445906
  51.6285268  91.1311902  94.0186699  51.7198255  72.7075082  94.1526158
  52.0257132  71.8472446  93.8652074  52.4450860  73.2992702  93.9525152
  38.0122611  83.1105769  92.5407756  37.8147011  82.5175129  91.8158823
  37.4569275  82.8057979  93.2583695  45.9919335  83.0028875  94.6602350
  46.0467945  82.0502712  94.5844826  45.1810537  83.1588314  95.1443648
  47.1410529  86.9308998  85.8980633  46.7029958  86.2144857  85.4386270
  47.8820969  87.1585113  85.3365724  43.9311695  81.6205935  92.4192728
  43.1179560  81.9200105  92.8257921  44.4270689  81.2261624  93.1367211
  46.0820273  91.6163692  94.3526993  46.0396451  91.8424538  93.4235525
  46.9982971  91.3827066  94.5012794  49.5285906  82.0847759 101.2507622
  49.8835294  82.3119233 102.1102088  50.1758038  82.4166136 100.6284878
  55.2583643  85.2066195  91.9556951  55.1201542  85.3967791  91.0278141
  54.9019862  85.9685578  92.4125002  43.4225769  79.1924290  98.0353963
  44.0625149  79.0513050  97.3376927  42.5903300  78.9058804  97.6592565
  55.2853023  87.2742722  96.9668223  55.7189530  87.1818011  97.8151277
  55.9984604  87.2500223  96.3288239  44.1986073  88.4926721  94.1488956
  44.9926672  87.9977041  93.9471531  43.4877766  87.9644584  93.7856661
  49.0180918  90.8744816  98.5001323  49.0717940  91.4435753  99.2679039
  48.1495699  91.0446701  98.1355361  40.5068837  82.6369803  90.2248709
  39.5766425  82.5754258  90.4418671  40.6026309  82.1145755  89.4285350
  40.4254386  79.1624615  92.8126950  40.6861203  80.0769949  92.7036111
  41.2471558  78.6949058  92.9623563  41.8979311  80.5762373  99.9825775
  42.5702365  80.3679735  99.3338424  41.0709098  80.3784459  99.5431007
  56.1468572  87.3166423  99.5001108  56.3404463  88.2212233  99.7460383
  56.0469191  86.8573842 100.3339693  47.8004883  77.2024313 101.9991436
  47.1532798  77.9014263 101.9055912  48.5705899  77.6360457 102.3667684
  51.2083681  87.4673166 105.0741989  51.0569188  87.2383717 104.1572073
  51.1988361  88.4243767 105.0873334  47.9769018  85.0405078 100.0588255
  48.9061078  85.1916238  99.8857223  47.5560048  85.1289099  99.2036902
  46.7757349  89.0655743  97.8286793  46.6368435  88.6974527  98.7012731
  45.9871946  89.5803382  97.6570751  47.3705501  94.1664839  89.1712329
  47.5457257  93.6952882  89.9857952  46.6838289  94.7930605  89.3993590
  48.3262565  88.4437346  95.2175631  47.9912397  88.4038115  96.1133281
  47.8266510  87.7782061  94.7446041  42.3006808  83.8504976 100.7428212
  42.1626606  83.1185214 101.3439751  43.2111732  83.7613876 100.4612400
  51.2621756  85.7893380  85.4912690  50.6450927  85.0640208  85.3945743
  50.7938245  86.5502740  85.1479765  44.9289109  83.5624935 100.2311892
  45.6388728  82.9218127 100.1898510  44.8858417  83.8137830 101.1538072
  52.9175888  90.4992288 103.1518471  52.8588434  89.8151508 102.4849054
  53.3195406  91.2411278 102.6999097  43.6418043  80.5490153 102.0507531
  43.1055400  80.0980891 102.7029127  43.0534752  80.6836062 101.3077995
  41.9366587  97.3154202  95.9452190  42.1763185  97.9472726  96.6231208
  41.0935783  96.9642242  96.2317549  43.0520302  80.0078804  84.6133995
  42.1749768  79.8867605  84.2496241  43.5278055  79.2164882  84.3612883
  52.9193295  88.4631872 101.3832450  52.0320074  88.1257794 101.5058849
  53.4891846  87.7314903 101.6201216  34.5722442  84.7955964  94.7075502
  35.2593482  84.4817694  94.1196517  34.4170571  85.6997329  94.4342753
  39.3757164  79.6846160  99.1360525  39.2915353  79.0771830  98.4010935
  38.5539871  80.1755179  99.1370022  46.4494448  93.1233324  98.3493694
  46.3764620  93.9288296  98.8612998  46.0071842  93.3225290  97.5241715
  46.2384228  92.3605095  91.8596515  45.4551750  92.9026775  91.9534740
  46.9376973  92.8779074  92.2590756  49.5480878  78.1699724  94.5030721
  50.0449578  77.4169686  94.1831791  48.7767860  78.2064041  93.9373930
  57.4010636  83.8740090  96.1449012  57.3900512  84.7564805  95.7742945
  56.5328015  83.5211640  95.9503549  48.9093132  93.0220159 100.5051852
  49.6221104  93.6567623 100.4327754  48.4183161  93.1184025  99.6891854
  50.6310659  86.9271411  92.0769144  49.6966938  87.0472874  91.9073848
  50.8087327  86.0243878  91.8129154  46.1315847  80.3117107  94.2302405
  45.7613634  79.7588147  94.9183311  46.6274939  79.7075240  93.6777405
  54.0183210  82.7688730  92.6119178  54.4843662  83.6016722  92.5379481
  54.4690711  82.3033712  93.3164437  43.9605046  90.7714602 101.3257423
  44.6614505  91.4051085 101.4786817  43.4900161  91.1129334 100.5653062
  52.0859441  89.1132552  89.6105330  52.3619285  88.9989146  90.5199204
  51.2163940  88.7150037  89.5717503  51.9899873  75.1369317  96.6510079
  51.0762953  75.3673544  96.8192286  52.4192974  75.2207762  97.5024112
  51.7606331  83.3259209  99.1509973  51.1077782  83.5735117  98.4962426
  52.1386711  82.5123348  98.8172451  48.7213505  93.3618903  93.2538144
  48.9035900  92.5440559  93.7165896  49.5446491  93.5786595  92.8163034
  49.0555671  92.2887088  90.5153192  49.5843437  91.7779542  89.9023354
  49.3183890  91.9729618  91.3798725  47.8093905  84.0679020 105.6376011
  47.1334542  83.9673150 106.3078386  48.6321538  83.9118234 106.1012008
  39.5572764  90.3050957  98.2588526  40.1426200  89.5594645  98.3916430
  39.3597602  90.6154914  99.1425190  42.4111419  93.3402204  93.2750968
  41.7421794  93.8248332  92.7915008  42.2724289  93.5871425  94.1894347
  34.1490418  82.8756557  96.9792969  34.1874518  82.3420148  97.7730087
  33.6430711  82.3491763  96.3603946  46.5516687  95.3745948  99.8733627
  47.1034995  95.5377569 100.6382712  46.8922881  95.9650386  99.2013651
  41.5281181  77.7221098 100.4755511  41.5922507  78.5835929 100.0632909
  41.4648301  77.1095099  99.7427870  41.0033453  79.7944230 104.1228545
  41.6305492  79.4121308 104.7366070  40.1461372  79.5758432 104.4884238
  51.4027562  90.2007205 105.7282281  51.9467466  90.8137164 105.2337236
  50.8214407  90.7586784 106.2449294  37.7798996  81.6020659  90.0546900
  38.0752437  80.6931338  90.0013954  36.8787032  81.5808399  89.7327903
  49.6885075  93.3227923  96.8597309  49.5636214  92.5217663  96.3508254
  50.3464166  93.8174117  96.3711279  41.3093243  79.6776656  96.0374449
  40.5879829  80.2912624  95.8981922  42.0986499  80.2134421  95.9591095
  51.7519983  91.1236944  98.4876859  50.8050319  91.0042295  98.4155186
  52.1002756  90.2359442  98.5703120  44.1119556  77.0131082 102.3115101
  44.6353958  77.2593379 103.0741410  43.8931890  77.8451117 101.8918238
  39.5086837  79.2834757  90.1786225  39.1799544  78.4032136  89.9961331
  39.8626208  79.2282426  91.0662615  48.7566416  90.9189660  94.6881211
  48.6091379  89.9906367  94.8688781  49.5819910  90.9409750  94.2038286
  42.6228661  79.5707727  90.5461703  42.9624733  80.0993648  89.8240312
  43.0700781  79.9088133  91.3220270  52.3600538  91.7418219  95.7746084
  53.2847086  91.5361080  95.6370535  52.1915842  91.4934620  96.6835425
  45.3172101  77.9544778  99.9964771  44.9768922  77.1552591 100.3985451
  44.6111108  78.2546488  99.4241604  45.9688573  75.0394090  98.4492094
  46.7914643  74.5654568  98.3270985  46.2126637  75.8184574  98.9490781
  44.6096808  78.0682348  88.7454996  45.3305170  78.4463601  88.2418713
  43.9862112  78.7871225  88.8489974  48.7527931  78.7727497  89.6813328
  48.9691545  79.6552135  89.3802156  48.2721998  78.3813711  88.9518970
  43.4927152  81.7313211  96.2584073  43.3471733  82.0453514  97.1508354
  43.0152356  82.3498111  95.7054971  45.3523535  78.7215759  96.3064962
  45.3385104  77.8256852  95.9697260  46.0695963  78.7286422  96.9403248
  47.2049666  79.1553099  98.3518090  46.9467443  80.0770169  98.3502420
  46.6734706  78.7583533  99.0418554  52.1495854  92.2603886  91.1308175
  52.3232732  91.6950308  90.3782028  52.6424746  93.0604781  90.9487665
  37.9672814  84.2718555  99.1971734  37.4226282  85.0478363  99.3292008
  38.8452164  84.6189360  99.0390855  44.7560431  77.6030139  91.5752533
  44.8776342  76.6746785  91.7743420  44.4662473  77.6168825  90.6630848
  47.6251621  75.2885049  94.7119252  47.6473318  75.3524382  93.7571232
  48.0419680  74.4489558  94.9059759  58.0035246  85.0240309  92.7498475
  58.4466392  84.2747634  92.3517598  57.1261756  85.0150445  92.3672207
  53.1371027  91.5770650  88.2305073  53.8321932  92.1977343  88.4492388
  53.4794177  90.7266002  88.5057451  38.7538836  83.3988451 102.0901891
  38.0120572  83.5471087 102.6766521  38.4331580  83.6596717 101.2268640
  55.0362450  89.0270356  89.7592404  55.5613774  89.3657629  89.0341724
  54.9484803  88.0917371  89.5755539  46.6982499  92.9404430 101.8882281
  47.0069625  92.6953576 102.7604980  47.4957981  93.1451068 101.4001151
  46.7203111  95.0942339  94.1187657  46.2808101  94.6018718  94.8120514
  47.4711228  94.5515307  93.8779733  39.1995450  91.2853880  94.1212286
  40.0253470  90.9857652  93.7410929  38.8489502  90.5161502  94.5702074
  44.1676983  90.6380348  96.1909959  43.5456992  89.9751053  95.8912187
  44.8381850  90.6641480  95.5083607  37.4004055  89.2040206  95.0801219
  36.5635963  88.7762381  94.8985220  37.3727700  89.3972650  96.0172010
  44.2401510  79.1162136 105.7842465  44.2889666  79.9924259 105.4020235
  44.7824025  78.5739529 105.2114108  54.7256356  89.6603260 105.0643602
  53.9351900  89.6427398 104.5248102  54.4889711  90.1991553 105.8192639
  54.8454231  86.5095726 102.3776331  54.8952236  86.3445733 103.3191854
  54.7368154  85.6422985 101.9874212  43.7290490  89.1884272  89.6668420
  43.8778610  89.8719736  89.0135092  44.5356933  89.1689362  90.1817875
  52.1357994  82.4926654 103.6935637  53.0367856  82.3533119 103.4019635
  52.2105968  82.6581109 104.6333815  46.4700799  79.8693509 102.5388824
  45.6004108  80.1627075 102.2671412  46.7060279  80.4533954 103.2596087
  56.3472428  88.9292667 102.6218352  56.0557236  89.2922648 103.4581813
  55.7344559  88.2159676 102.4431684  57.5468110  86.4945547  95.1420923
  58.3815002  86.9335351  95.3058483  57.6827239  86.0184200  94.3229168
  54.5959616  84.0525282 101.0898410  55.0713738  84.2452928 100.2817262
  53.6725182  84.1084468 100.8441794  41.4843123  85.2149449  90.6729489
  41.2389165  84.3111779  90.8709699  41.6539037  85.2166600  89.7308967
  49.1739833  76.0873126 100.0554244  49.6921777  76.8234153  99.7300733
  48.8194965  76.3937119 100.8901003  40.7538770  80.9477807  88.1715650
  40.0608015  81.0222162  87.5155686  40.5090522  80.1838150  88.6937167
  49.4252427  72.5073408  95.5755141  49.7054181  71.8396597  96.2015567
  50.2103034  72.7002504  95.0629805  47.2285895  91.6832402  87.1380167
  46.6559862  92.3022589  86.6850639  47.8018689  92.2331764  87.6720089
  53.2961285  80.9291042  99.3226716  54.2478708  81.0289140  99.3438940
  53.1264736  80.1369311  99.8324800  51.3175665  78.0146625  99.5086117
  50.7225597  78.2951638  98.8132605  51.0325361  78.5040526 100.2802858
  50.4483155  91.9669552  88.2688749  51.3813828  91.9015114  88.4721625
  50.3606368  92.8025819  87.8103282  53.0771172  91.2835423  85.2292697
  52.9984803  90.9495286  86.1228455  53.8980839  91.7757190  85.2284169
  55.7749363  84.1497162  98.4369016  55.7425683  83.2113163  98.6228699
  56.3849987  84.2281199  97.7034840  47.6132694  83.0193215  84.4796220
  48.5591799  82.8899423  84.5484638  47.2346939  82.2807877  84.9565648
  55.9243851  80.9408205  98.4827299  55.4082900  80.1566662  98.2957228
  56.8083800  80.6126922  98.6473818  53.5854578  74.6849221  94.4423111
  53.3879400  74.3764309  95.3266443  54.1954284  75.4110860  94.5721041
  61.5925913  85.2113169  97.5775052  62.3229301  84.9498457  98.1382756
  60.9832858  84.4741891  97.6177120  59.6741210  83.3521031  98.1749504
  58.9474374  83.2176996  97.5665995  59.2588497  83.6597860  98.9806222
  47.4971386  87.0710961 105.9396877  48.4174396  87.2489560 106.1336923
  47.4620969  86.1267006 105.7876576  45.7975611  80.9443191  84.4151105
  44.8907066  80.6476304  84.4913818  46.0751592  80.6473009  83.5485391
  36.7153551  82.2649555  94.8650151  36.3956336  81.4114863  94.5724525
  36.1686980  82.4798133  95.6208119  40.4933459  84.9811996  98.5819658
  40.7119469  85.9129103  98.6007692  40.9059233  84.6219970  99.3674462
  47.4137677  75.4880081  90.5695346  46.6038405  75.1427166  90.9450592
  48.1022094  75.1787625  91.1582958  49.3428225  74.5658128  92.1919643
  49.8959264  74.9853581  92.8509666  49.5798311  73.6393876  92.2342599
  45.3661324  80.5545201 107.9722407  45.2658051  81.5039558 107.9034498
  45.1482866  80.2263440 107.0998477  44.5674396  77.8030126  84.5563084
  45.4293560  78.1285025  84.8158901  44.7524740  77.0161622  84.0436150
  36.5841811  85.8852466  96.8343273  35.8905283  85.4706419  96.3213227
  37.3314802  85.9273003  96.2376692  52.7207032  76.6758653  91.6998307
  52.1405701  77.3343457  91.3176359  52.4542965  75.8535997  91.2885724
  51.1710598  76.0763711  93.9019627  51.6710377  76.1880245  93.0933946
  51.8146206  75.7724763  94.5420436  45.2292594  83.9842340 106.7887468
  44.7459676  84.7842700 106.9951357  45.3153533  83.9950285 105.8354912
  38.4978554  85.8170720  94.7109288  38.4749242  85.9158407  93.7591171
  38.8079190  86.6635871  95.0326454  41.1565932  87.8746875  98.8255902
  42.1109185  87.8430817  98.7585834  40.9578455  87.4137499  99.6406128
  41.7465314  86.4447991 101.3926700  42.5658203  86.9392070 101.4161537
  42.0202122  85.5279959 101.3644267  51.5031910  78.8358743  90.7554655
  50.6157765  79.1208394  90.5374850  51.9185899  78.6752507  89.9081932
  54.8546446  78.8605264  94.4708994  55.6306836  79.3501717  94.7433611
  54.1294580  79.2863318  94.9280864  57.2919005  79.5732883  95.5282935
  57.8863496  79.3328619  94.8176243  57.3645589  78.8540014  96.1556471
  39.5116161  93.4166494  95.8426100  39.3770629  92.6566895  95.2764098
  39.0948223  94.1407394  95.3754889  50.6475124  88.6003418  84.8502675
  51.3510974  88.8053420  85.4660331  49.9237772  89.1680180  85.1151759
  51.4772934  84.3513279  90.9704945  51.4208135  84.8081831  90.1312578
  52.0301276  83.5903964  90.7927788  55.2877740  80.1403011  91.7955065
  55.0314674  79.7399647  92.6263273  54.6630608  80.8546805  91.6705204
  59.5990078  82.8799084  94.3026356  59.0389636  82.9492274  95.0757918
  58.9933581  82.7040069  93.5825853  42.6685286  94.3135811  96.0544543
  42.5517671  95.2581244  95.9523233  41.8477733  94.0109373  96.4430342
  52.5561821  89.0385947  86.9001135  53.3907425  88.6067146  86.7178610
  52.3946164  88.8667961  87.8278030  52.2107713  85.5418060  88.2657475
  52.1556517  85.3762332  87.3245919  51.5853768  86.2494093  88.4219664
  37.0000228  80.7786125 102.0918897  37.6459092  80.2685079 102.5806122
  36.7917379  81.5154806 102.6662322  49.5253620  87.8466972 107.5911037
  50.3944780  88.0207625 107.2297672  49.0460372  88.6661389 107.4686767
  45.5203839  75.0426169  87.8442793  45.5082508  75.9868009  88.0011064
  46.4127261  74.8596315  87.5502254  43.6939801  94.9664073  99.2700471
  44.5967047  94.9987684  99.5866966  43.4677171  94.0364524  99.2846807
  45.4493403  93.7195060  95.9310550  44.4989034  93.7196921  95.8174922
  45.7525889  92.9727794  95.4146584  49.3355958  71.6368946  92.0988730
  48.5688354  71.0827433  92.2445412  49.7466663  71.7090815  92.9602881
  41.3397719  77.9253742 106.1893911  42.2029181  77.5690547 106.3997236
  40.7663130  77.5867637 106.8769315  61.1846096  99.5555598  96.9956312
  61.8224506  99.4362346  96.2919652  61.0666939 100.5036442  97.0544264
  57.9935802  99.5083026  96.9317837  57.6554314  99.3924091  96.0438372
  58.8625571  99.1074191  96.9118843  53.8522618 101.3618503  92.9214728
  53.2887483 101.2708440  92.1531015  53.7375013 100.5418407  93.4017220
  58.4755585 100.6617878 102.8904042  58.4644226 100.2670676 102.0184546
  58.6376225  99.9283951 103.4837814  51.3987050 102.8569694  95.7598948
  52.1908342 102.5160519  95.3445247  51.6383700 102.9664669  96.6801101
  59.4322177 105.0289470  88.2329193  58.7810157 105.6143551  87.8463206
  60.2266540 105.5595665  88.2924230  53.3577804 102.1178608  88.6316327
  54.1308680 101.5707595  88.4929203  53.7103203 102.9822857  88.8430788
  55.1962846 103.4454990 101.8383226  54.9052712 104.3500621 101.7229893
  55.8319831 103.4871517 102.5527296  56.1219053 100.8231838  98.4284586
  56.7182626 100.5987861  97.7141549  56.1794025 100.0816584  99.0310034
  55.6944082  98.2771274  86.2634777  55.9469602  97.7552795  85.5018240
  54.7568641  98.1137419  86.3661460  60.7387365  97.2807052  94.0709520
  61.5250454  96.8626475  93.7199937  61.0026069  98.1853144  94.2391168
  60.9097442 102.7179902  88.7698177  60.2743275 102.7914529  89.4819082
  60.5794848 103.3073501  88.0917256  55.4140370 100.1799380  88.4659152
  55.2976629  99.5044283  89.1340236  55.5242630  99.6931754  87.6491305
  57.7571911  99.6409527  92.1705841  57.3930119  99.1140148  92.8818763
  58.6139027  99.2507996  91.9972326  57.3977398  94.6699426  87.1667190
  57.5651801  95.5379663  87.5337661  57.2074567  94.8326708  86.2428479
  60.1552732 103.1316405  98.8333020  59.8553455 104.0341444  98.7248827
  59.8103791 102.8648589  99.6854173  53.6065213  99.5830202  94.8669724
  52.6815710  99.4506416  95.0747416  53.8549626 100.3624421  95.3639667
  57.3766619  97.1257084  88.1513856  57.2566244  97.5714135  88.9899337
  56.6819208  97.4742402  87.5927395  50.9674024  99.2263476  95.7013513
  51.0966405  99.4797955  96.6152925  50.2871475  99.8191184  95.3818168
  55.1373511 109.8960726  91.8003988  55.0597541 110.8468551  91.8792468
  54.5335155 109.5506598  92.4578914  57.6290741  97.0688591 104.4565355
  56.8524075  97.6282511 104.4468219  58.2681304  97.5545374 104.9780225
  55.8837113  99.8774045 104.0183322  56.6251798 100.4159088 103.7418145
  55.1774099 100.5040333 104.1754873  61.3592453 102.0203185 102.6155483
  61.7675809 101.5785596 101.8710115  60.6369715 101.4455812 102.8689676
  57.7123523  96.9575792  99.9889040  58.5584718  97.3815205 100.1323689
  57.6522161  96.3009416 100.6827603  61.6821268 102.5804376  96.3707772
  61.0530130 102.7450090  95.6683840  61.2946930 102.9945985  97.1418736
  65.5610500 103.5158813  93.7252136  64.8761538 103.8957715  93.1749169
  65.6454349 104.1254140  94.4584083  60.8622968  94.6180160 101.6470214
  60.6183900  95.3722221 101.1104489  61.1382899  94.9965508 102.4817461
  62.8161431 101.1618772 100.3247479  63.0278326 101.8050532  99.6481860
  62.7691179 100.3281089  99.8569409  60.4187660  93.7736593  97.2284051
  59.5572139  94.0717847  97.5200789  60.4450095  93.9906992  96.2965084
  57.2349230 102.3178784  93.6357857  57.6987575 102.5966487  92.8462479
  56.9706028 101.4162228  93.4530948  54.1273311 101.8650265  96.5737620
  54.6974668 102.2937534  95.9355105  54.7181423 101.5832850  97.2721806
  56.1718116  98.4401936  90.4447422  56.8742159  98.8922980  90.9121348
  55.8398744  97.7985755  91.0727315  54.6198477  97.0313693 104.8198632
  53.9897138  97.7129974 105.0534028  54.5134565  96.9196774 103.8751770
  49.9143450  96.6985489  95.7464556  49.1242504  96.9543017  95.2704666
  50.4054697  97.5133827  95.8516596  63.9307259 104.0390728  98.4969837
  64.7524703 103.6370915  98.2152518  63.9269662 103.9358962  99.4485952
  51.8658195  97.0630068  92.7048032  51.0689358  97.1748762  93.2231528
  51.6383787  97.4016720  91.8388923  57.6963863 103.5874771 100.6530547
  57.7608295 104.0495178 101.4888719  56.9874787 102.9572136 100.7812857
  48.1981153  96.9515979  98.1779546  48.4489191  97.8362989  98.4437122
  48.7340701  96.7720581  97.4054638  57.4111880 105.2542879  90.5209527
  57.2757555 106.0994414  90.9494375  57.9521693 105.4562156  89.7575461
  53.8979220  91.3334459 107.1823883  53.5046165  90.7800657 107.8571527
  54.7145360  91.6445037 107.5730400  50.8641278 102.7718317  91.0937452
  51.3765798 103.5661567  91.2443017  51.5163991 102.0744607  91.0271054
  52.6736162 105.8884073  93.1760206  52.8502791 106.8102038  92.9881190
  53.4692996 105.5742492  93.6054585  56.8147181  92.7492338 104.7744139
  57.5556894  93.3499491 104.6948602  57.0465104  92.0069975 104.2162182
  51.9588519  97.9348705 103.0522369  51.8442034  97.0333962 103.3529468
  51.1033037  98.1812402 102.7007185  59.0380357 105.8766445 104.6509869
  58.5944211 105.0902824 104.3330774  59.6997570 106.0645596 103.9853760
  53.7967478 107.4062247  99.1770548  54.3474903 107.2779310  98.4047542
  52.9578954 107.7057136  98.8265441  61.1361595 106.1569245 102.6791271
  61.1180070 106.9778126 102.1871540  62.0581515 106.0323320 102.9041412
  57.5934649 103.6713375 103.5214779  58.1262986 102.9101663 103.2914087
  57.0648730 103.3787026 104.2638934  60.7604344  88.7773441  99.0508421
  60.4168613  89.6675082  98.9747531  61.1283306  88.5875098  98.1878006
  48.8290194 101.1006971  91.8697023  49.6665416 101.5103979  91.6530731
  49.0068462 100.1606413  91.8397217  58.3101738  93.6131752  92.6166094
  57.4543334  93.2238603  92.4371733  58.7228689  93.6923713  91.7565880
  59.8400884  91.1478096  97.0157654  59.3365680  91.1108231  96.2025459
  60.1331491  92.0570838  97.0754311  56.0843770  91.2316825  96.0223836
  56.9496767  91.0359634  95.6629725  56.1521279  91.0027177  96.9493193
  60.5140930  96.6409144  89.3840637  60.2091065  96.9555293  90.2350780
  61.4671372  96.7190564  89.4267970  58.9587362 102.7999367  91.0333591
  58.4308723 102.0652127  90.7206829  58.4574864 103.5774043  90.7873559
  63.9380208 100.9948388  96.1500637  63.2803882 101.6847649  96.2380766
  64.7420607 101.3844820  96.4934624  53.6906089  93.4619033  93.3940203
  54.2649841  93.2394215  92.6613396  54.2777072  93.5307728  94.1468804
  62.7485666  99.3492760  94.2004579  63.2617548  99.9822752  94.7026289
  63.3986890  98.7493956  93.8347939  54.0175676  95.4923494  87.4136088
  53.1812989  95.8298181  87.7345363  53.8780446  95.3572474  86.4763225
  55.9928757  90.3360282  92.1215272  55.3393169  90.0209299  91.4971887
  55.9509231  89.7136023  92.8475095  57.1039962 100.6179577  84.0368564
  56.1967024 100.3868831  84.2359713  57.6010994  99.8217197  84.2242546
  60.0108041 109.3277085  86.9565250  59.3369739 109.6308781  87.5650208
  60.3973863 110.1306165  86.6070707  59.2266497  96.8242216  96.4462920
  58.3089059  97.0457163  96.2884608  59.6426641  96.8988526  95.5874627
  60.0101545  98.2233631  91.5765600  60.7573364  98.7355029  91.2672722
  60.2793135  97.9017684  92.4369993  58.2828195 100.7192172  88.5592554
  57.3739414 100.4351205  88.6565024  58.3123279 101.1391251  87.6995861
  63.5147463 104.3298762  92.3283722  63.0609790 103.4889672  92.3848912
  62.8841429 104.9660160  92.6658502  62.4580382  95.2590748  93.5584389
  61.7203139  94.7468134  93.8894632  62.7107156  94.8191129  92.7467666
  61.9580402 106.1675258  93.2633540  62.2503376 106.7280316  92.5445906
  62.4679022 106.4603819  94.0186699  62.5592010  88.0367000  94.1526158
  62.8650886  87.1764363  93.8652074  63.2844614  88.6284620  93.9525152
  48.8516366  98.4397686  92.5407756  48.6540765  97.8467047  91.8158823
  48.2963030  98.1349897  93.2583695  56.8313089  98.3320793  94.6602350
  56.8861699  97.3794629  94.5844826  56.0204291  98.4880232  95.1443648
  57.9804283 102.2600916  85.8980633  57.5423713 101.5436775  85.4386270
  58.7214724 102.4877031  85.3365724  54.7705449  96.9497853  92.4192728
  53.9573315  97.2492023  92.8257921  55.2664443  96.5553541  93.1367211
  56.9214027 106.9455609  94.3526993  56.8790206 107.1716456  93.4235525
  57.8376726 106.7118984  94.5012794  60.3679661  97.4139677 101.2507622
  60.7229049  97.6411150 102.1102088  61.0151792  97.7458054 100.6284878
  54.2619524  94.5216208  98.0353963  54.9018903  94.3804967  97.3376927
  53.4297054  94.2350721  97.6592565  55.0379828 103.8218639  94.1488956
  55.8320426 103.3268959  93.9471531  54.3271520 103.2936502  93.7856661
  59.8574672 106.2036734  98.5001323  59.9111695 106.7727670  99.2679039
  58.9889454 106.3738619  98.1355361  51.3462591  97.9661720  90.2248709
  50.4160179  97.9046176  90.4418671  51.4420063  97.4437673  89.4285350
  51.2648140  94.4916533  92.8126950  51.5254958  95.4061866  92.7036111
  52.0865313  94.0240976  92.9623563  52.7373066  95.9054290  99.9825775
  53.4096119  95.6971652  99.3338424  51.9102852  95.7076376  99.5431007
  58.6398638  92.5316231 101.9991436  57.9926553  93.2306181 101.9055912
  59.4099653  92.9652375 102.3667684  62.0477436 102.7965083 105.0741989
  61.8962942 102.5675635 104.1572073  62.0382115 103.7535685 105.0873334
  58.8162772 100.3696996 100.0588255  59.7454832 100.5208156  99.8857223
  58.3953802 100.4581017  99.2036902  57.6151104 104.3947661  97.8286793
  57.4762190 104.0266445  98.7012731  56.8265700 104.9095300  97.6570751
  58.2099256 109.4956757  89.1712329  58.3851012 109.0244800  89.9857952
  57.5232044 110.1222523  89.3993590  59.1656319 103.7729263  95.2175631
  58.8306152 103.7330033  96.1133281  58.6660265 103.1073979  94.7446041
  53.1400563  99.1796893 100.7428212  53.0020361  98.4477132 101.3439751
  54.0505486  99.0905793 100.4612400  55.7682864  98.8916853 100.2311892
  56.4782482  98.2510045 100.1898510  55.7252172  99.1429747 101.1538072
  63.7569642 105.8284206 103.1518471  63.6982188 105.1443426 102.4849054
  64.1589161 106.5703196 102.6999097  54.4811798  95.8782070 102.0507531
  53.9449155  95.4272809 102.7029127  53.8928506  96.0127979 101.3077995
  52.7760341 112.6446120  95.9452190  53.0156939 113.2764644  96.6231208
  51.9329538 112.2934160  96.2317549  53.8914057  95.3370722  84.6133995
  53.0143523  95.2159523  84.2496241  54.3671810  94.5456800  84.3612883
  63.7587050 103.7923790 101.3832450  62.8713828 103.4549712 101.5058849
  64.3285601 103.0606821 101.6201216  45.4116197 100.1247882  94.7075502
  46.0987237  99.8109612  94.1196517  45.2564325 101.0289246  94.4342753
  50.2150919  95.0138078  99.1360525  50.1309108  94.4063748  98.4010935
  49.3933625  95.5047096  99.1370022  57.2888203 108.4525242  98.3493694
  57.2158374 109.2580214  98.8612998  56.8465596 108.6517208  97.5241715
  57.0777983 107.6897012  91.8596515  56.2945504 108.2318692  91.9534740
  57.7770728 108.2070992  92.2590756  60.3874633  93.4991642  94.5030721
  60.8843332  92.7461604  94.1831791  59.6161614  93.5355958  93.9373930
  59.7486886 108.3512076 100.5051852  60.4614859 108.9859541 100.4327754
  59.2576915 108.4475942  99.6891854  61.4704413 102.2563329  92.0769144
  60.5360692 102.3764791  91.9073848  61.6481082 101.3535796  91.8129154
  56.9709601  95.6409025  94.2302405  56.6007389  95.0880065  94.9183311
  57.4668694  95.0367158  93.6777405  54.7998800 106.1006520 101.3257423
  55.5008260 106.7343003 101.4786817  54.3293915 106.4421251 100.5653062
  62.9253196 104.4424469  89.6105330  63.2013040 104.3281064  90.5199204
  62.0557695 104.0441954  89.5717503  62.6000086  98.6551127  99.1509973
  61.9471536  98.9027035  98.4962426  62.9780466  97.8415265  98.8172451
  59.5607260 108.6910820  93.2538144  59.7429654 107.8732476  93.7165896
  60.3840246 108.9078513  92.8163034  59.8949425 107.6179005  90.5153192
  60.4237192 107.1071460  89.9023354  60.1577645 107.3021536  91.3798725
  58.6487659  99.3970938 105.6376011  57.9728296  99.2965068 106.3078386
  59.4715293  99.2410152 106.1012008  50.3966518 105.6342875  98.2588526
  50.9819955 104.8886563  98.3916430  50.1991357 105.9446831  99.1425190
  53.2505173 108.6694122  93.2750968  52.5815549 109.1540250  92.7915008
  53.1118043 108.9163343  94.1894347  44.9884173  98.2048475  96.9792969
  45.0268272  97.6712066  97.7730087  44.4824466  97.6783680  96.3603946
  57.3910442 110.7037866  99.8733627  57.9428750 110.8669487 100.6382712
  57.7316635 111.2942303  99.2013651  52.3674935  93.0513015 100.4755511
  52.4316262  93.9127846 100.0632909  52.3042055  92.4387017  99.7427870
  51.8427208  95.1236148 104.1228545  52.4699246  94.7413225 104.7366070
  50.9855126  94.9050350 104.4884238  62.2421316 105.5299123 105.7282281
  62.7861220 106.1429081 105.2337236  61.6608161 106.0878702 106.2449294
  48.6192750  96.9312577  90.0546900  48.9146191  96.0223255  90.0013954
  47.7180786  96.9100317  89.7327903  60.5278829 108.6519841  96.8597309
  60.4029969 107.8509581  96.3508254  61.1857920 109.1466035  96.3711279
  52.1486997  95.0068574  96.0374449  51.4273583  95.6204541  95.8981922
  52.9380253  95.5426338  95.9591095  62.5913738 106.4528861  98.4876859
  61.6444073 106.3334212  98.4155186  62.9396511 105.5651359  98.5703120
  54.9513311  92.3423000 102.3115101  55.4747713  92.5885297 103.0741410
  54.7325644  93.1743035 101.8918238  50.3480592  94.6126675  90.1786225
  50.0193298  93.7324054  89.9961331  50.7019963  94.5574343  91.0662615
  59.5960171 106.2481577  94.6881211  59.4485133 105.3198285  94.8688781
  60.4213664 106.2701668  94.2038286  53.4622415  94.8999645  90.5461703
  53.8018488  95.4285566  89.8240312  53.9094536  95.2380051  91.3220270
  63.1994293 107.0710136  95.7746084  64.1240840 106.8652998  95.6370535
  63.0309596 106.8226537  96.6835425  56.1565856  93.2836695  99.9964771
  55.8162676  92.4844508 100.3985451  55.4504862  93.5838406  99.4241604
  56.8082328  90.3686008  98.4492094  57.6308397  89.8946486  98.3270985
  57.0520391  91.1476491  98.9490781  55.4490562  93.3974266  88.7454996
  56.1698925  93.7755519  88.2418713  54.8255866  94.1163143  88.8489974
  59.5921685  94.1019415  89.6813328  59.8085300  94.9844053  89.3802156
  59.1115752  93.7105629  88.9518970  54.3320907  97.0605128  96.2584073
  54.1865487  97.3745431  97.1508354  53.8546110  97.6790029  95.7054971
  56.1917289  94.0507676  96.3064962  56.1778858  93.1548770  95.9697260
  56.9089718  94.0578340  96.9403248  58.0443420  94.4845017  98.3518090
  57.7861198  95.4062087  98.3502420  57.5128461  94.0875451  99.0418554
  62.9889609 107.5895804  91.1308175  63.1626486 107.0242226  90.3782028
  63.4818500 108.3896699  90.9487665  48.8066569  99.6010473  99.1971734
  48.2620037 100.3770281  99.3292008  49.6845919  99.9481277  99.0390855
  55.5954185  92.9322057  91.5752533  55.7170097  92.0038703  91.7743420
  55.3056228  92.9460743  90.6630848  58.4645376  90.6176967  94.7119252
  58.4867073  90.6816300  93.7571232  58.8813435  89.7781476  94.9059759
  49.5932591  98.7280369 102.0901891  48.8514327  98.8763004 102.6766521
  49.2725335  98.9888635 101.2268640  57.5376253 108.2696347 101.8882281
  57.8463380 108.0245494 102.7604980  58.3351735 108.4742986 101.4001151
  57.5596865 110.4234257  94.1187657  57.1201856 109.9310636  94.8120514
  58.3104982 109.8807225  93.8779733  50.0389204 106.6145798  94.1212286
  50.8647224 106.3149570  93.7410929  49.6883256 105.8453420  94.5702074
  55.0070737 105.9672266  96.1909959  54.3850747 105.3042971  95.8912187
  55.6775604 105.9933398  95.5083607  48.2397809 104.5332124  95.0801219
  47.4029718 104.1054299  94.8985220  48.2121455 104.7264568  96.0172010
  55.0795265  94.4454054 105.7842465  55.1283420  95.3216177 105.4020235
  55.6217779  93.9031447 105.2114108  65.5650111 104.9895177 105.0643602
  64.7745654 104.9719316 104.5248102  65.3283465 105.5283471 105.8192639
  65.6847986 101.8387644 102.3776331  65.7345991 101.6737651 103.3191854
  65.5761909 100.9714903 101.9874212  54.5684244 104.5176189  89.6668420
  54.7172365 105.2011654  89.0135092  55.3750688 104.4981279  90.1817875
  62.9751748  97.8218572 103.6935637  63.8761611  97.6825036 103.4019635
  63.0499723  97.9873026 104.6333815  57.3094553  95.1985426 102.5388824
  56.4397863  95.4918992 102.2671412  57.5454034  95.7825871 103.2596087
  67.1866182 104.2584585 102.6218352  66.8950991 104.6214566 103.4581813
  66.5738314 103.5451593 102.4431684  65.4353371  99.3817200 101.0898410
  65.9107492  99.5744846 100.2817262  64.5118936  99.4376386 100.8441794
  52.3236877 100.5441367  90.6729489  52.0782919  99.6403697  90.8709699
  52.4932792 100.5458517  89.7308967  60.0133587  91.4165043 100.0554244
  60.5315531  92.1526070  99.7300733  59.6588720  91.7229037 100.8901003
  51.5932525  96.2769724  88.1715650  50.9001770  96.3514079  87.5155686
  51.3484277  95.5130068  88.6937167  60.2646181  87.8365326  95.5755141
  60.5447935  87.1688515  96.2015567  61.0496788  88.0294421  95.0629805
  58.0679650 107.0124320  87.1380167  57.4953617 107.6314507  86.6850639
  58.6412444 107.5623681  87.6720089  58.4526448  98.3485132  84.4796220
  59.3985553  98.2191341  84.5484638  58.0740693  97.6099794  84.9565648
  58.3365141 102.4002879 105.9396877  59.2568150 102.5781478 106.1336923
  58.3014724 101.4558924 105.7876576  56.6369365  96.2735109  84.4151105
  55.7300821  95.9768222  84.4913818  56.9145346  95.9764927  83.5485391
  47.5547306  97.5941472  94.8650151  47.2350090  96.7406780  94.5724525
  47.0080734  97.8090050  95.6208119  51.3327213 100.3103913  98.5819658
  51.5513223 101.2421021  98.6007692  51.7452987  99.9511888  99.3674462
  58.2531431  90.8171999  90.5695346  57.4432160  90.4719084  90.9450592
  58.9415848  90.5079542  91.1582958  60.1821980  89.8950045  92.1919643
  60.7353018  90.3145499  92.8509666  60.4192066  88.9685794  92.2342599
  56.2055079  95.8837119 107.9722407  56.1051806  96.8331476 107.9034498
  55.9876621  95.5555358 107.0998477  55.4068150  93.1322044  84.5563084
  56.2687314  93.4576942  84.8158901  55.5918494  92.3453540  84.0436150
  47.4235566 101.2144384  96.8343273  46.7299037 100.7998337  96.3213227
  48.1708557 101.2564920  96.2376692  62.0104353  91.4055628  93.9019627
  62.5104131  91.5172163  93.0933946  62.6539961  91.1016681  94.5420436
  56.0686349  99.3134258 106.7887468  55.5853430 100.1134618 106.9951357
  56.1547288  99.3242203 105.8354912  49.3372308 101.1462638  94.7109288
  49.3142997 101.2450325  93.7591171  49.6472945 101.9927788  95.0326454
  51.9959686 103.2038793  98.8255902  52.9502940 103.1722735  98.7585834
  51.7972210 102.7429416  99.6406128  52.5859068 101.7739909 101.3926700
  53.4051957 102.2683987 101.4161537  52.8595876 100.8571877 101.3644267
  50.3509915 108.7458412  95.8426100  50.2164383 107.9858813  95.2764098
  49.9341977 109.4699312  95.3754889  62.3166688  99.6805197  90.9704945
  62.2601890 100.1373748  90.1312578  62.8695031  98.9195881  90.7927788
  53.5079041 109.6427729  96.0544543  53.3911425 110.5873162  95.9523233
  52.6871487 109.3401291  96.4430342  47.8393983  96.1078042 102.0918897
  48.4852846  95.5976996 102.5806122  47.6311134  96.8446724 102.6662322
  60.3647375 103.1758890 107.5911037  61.2338534 103.3499542 107.2297672
  59.8854126 103.9953307 107.4686767  56.3597593  90.3718087  87.8442793
  56.3476263  91.3159927  88.0011064  57.2521015  90.1888233  87.5502254
  54.5333555 110.2955991  99.2700471  55.4360802 110.3279601  99.5866966
  54.3070925 109.3656442  99.2846807  56.2887157 109.0486978  95.9310550
  55.3382788 109.0488839  95.8174922  56.5919643 108.3019712  95.4146584
  60.1749713  86.9660864  92.0988730  59.4082108  86.4119350  92.2445412
  60.5860418  87.0382733  92.9602881  52.1791474  93.2545660 106.1893911
  53.0422935  92.8982464 106.3997236  51.6056884  92.9159554 106.8769315
  64.6916373 116.6910420  92.9214728  64.1281238 116.6000357  92.1531015
  64.5768768 115.8710325  93.4017220  69.3149340 115.9909796 102.8904042
  69.3037981 115.5962594 102.0184546  69.4769979 115.2575868 103.4837814
  62.2380804 118.1861612  95.7598948  63.0302096 117.8452437  95.3445247
  62.4777455 118.2956587  96.6801101  64.1971558 117.4470525  88.6316327
  64.9702434 116.8999512  88.4929203  64.5496957 118.3114775  88.8430788
  66.0356601 118.7746908 101.8383226  65.7446467 119.6792538 101.7229893
  66.6713585 118.8163435 102.5527296  66.9612808 116.1523756  98.4284586
  67.5576380 115.9279778  97.7141549  67.0187779 115.4108502  99.0310034
  66.2534125 115.5091297  88.4659152  66.1370383 114.8336201  89.1340236
  66.3636385 115.0223671  87.6491305  64.4458968 114.9122120  94.8669724
  63.5209464 114.7798334  95.0747416  64.6943381 115.6916339  95.3639667
  61.8067779 114.5555393  95.7013513  61.9360160 114.8089872  96.6152925
  61.1265230 115.1483101  95.3818168  65.9767266 125.2252643  91.8003988
  65.8991296 126.1760468  91.8792468  65.3728909 124.8798516  92.4578914
  68.4684496 112.3980509 104.4565355  67.6917830 112.9574429 104.4468219
  69.1075059 112.8837292 104.9780225  66.7230868 115.2065962 104.0183322
  67.4645552 115.7451006 103.7418145  66.0167853 115.8332251 104.1754873
  72.1986208 117.3495103 102.6155483  72.6069564 116.9077513 101.8710115
  71.4763469 116.7747730 102.8689676  68.5517278 112.2867709  99.9889040
  69.3978473 112.7107123 100.1323689  68.4915915 111.6301334 100.6827603
  64.9667065 117.1942183  96.5737620  65.5368422 117.6229451  95.9355105
  65.5575177 116.9124768  97.2721806  65.4592232 112.3605610 104.8198632
  64.8290892 113.0421891 105.0534028  65.3528320 112.2488692 103.8751770
  60.7537204 112.0277406  95.7464556  59.9636258 112.2834935  95.2704666
  61.2448451 112.8425744  95.8516596  62.7051950 112.3921986  92.7048032
  61.9083113 112.5040680  93.2231528  62.4777542 112.7308638  91.8388923
  68.5357617 118.9166689 100.6530547  68.6002050 119.3787096 101.4888719
  67.8268541 118.2864054 100.7812857  59.0374907 112.2807897  98.1779546
  59.2882946 113.1654907  98.4437122  59.5734456 112.1012498  97.4054638
  64.7372974 106.6626376 107.1823883  64.3439920 106.1092575 107.8571527
  65.5539115 106.9736955 107.5730400  61.7035032 118.1010234  91.0937452
  62.2159553 118.8953485  91.2443017  62.3557745 117.4036525  91.0271054
  63.5129917 121.2175991  93.1760206  63.6896545 122.1393955  92.9881190
  64.3086750 120.9034410  93.6054585  67.6540935 108.0784255 104.7744139
  68.3950649 108.6791408 104.6948602  67.8858858 107.3361893 104.2162182
  62.7982273 113.2640623 103.0522369  62.6835789 112.3625880 103.3529468
  61.9426791 113.5104319 102.7007185  69.8774111 121.2058363 104.6509869
  69.4337965 120.4194741 104.3330774  70.5391325 121.3937513 103.9853760
  64.6361232 122.7354164  99.1770548  65.1868657 122.6071228  98.4047542
  63.7972708 123.0349053  98.8265441  71.9755349 121.4861163 102.6791271
  71.9573825 122.3070044 102.1871540  72.8975269 121.3615238 102.9041412
  68.4328403 119.0005292 103.5214779  68.9656740 118.2393580 103.2914087
  67.9042484 118.7078944 104.2638934  59.6683949 116.4298889  91.8697023
  60.5059171 116.8395897  91.6530731  59.8462217 115.4898331  91.8397217
  67.9433716 115.9471495  84.0368564  67.0360778 115.7160748  84.2359713
  68.4404748 115.1509114  84.2242546  70.8501795 124.6569002  86.9565250
  70.1763494 124.9600699  87.5650208  71.2367617 125.4598083  86.6070707
  59.6910120 113.7689604  92.5407756  59.4934520 113.1758965  91.8158823
  59.1356784 113.4641814  93.2583695  67.6706844 113.6612710  94.6602350
  67.7255454 112.7086547  94.5844826  66.8598046 113.8172150  95.1443648
  67.7607782 122.2747527  94.3526993  67.7183960 122.5008373  93.4235525
  68.6770480 122.0410902  94.5012794  71.2073415 112.7431595 101.2507622
  71.5622803 112.9703068 102.1102088  71.8545547 113.0749972 100.6284878
  65.1013278 109.8508126  98.0353963  65.7412658 109.7096885  97.3376927
  64.2690809 109.5642639  97.6592565  65.8773582 119.1510556  94.1488956
  66.6714181 118.6560876  93.9471531  65.1665275 118.6228419  93.7856661
  62.1856346 113.2953638  90.2248709  61.2553934 113.2338093  90.4418671
  62.2813818 112.7729591  89.4285350  62.1041895 109.8208451  92.8126950
  62.3648712 110.7353784  92.7036111  62.9259067 109.3532893  92.9623563
  63.5766820 111.2346208  99.9825775  64.2489874 111.0263570  99.3338424
  62.7496607 111.0368294  99.5431007  72.8871190 118.1257001 105.0741989
  72.7356697 117.8967553 104.1572073  72.8775870 119.0827602 105.0873334
  69.6556527 115.6988914 100.0588255  70.5848587 115.8500073  99.8857223
  69.2347557 115.7872935  99.2036902  68.4544858 119.7239578  97.8286793
  68.3155944 119.3558363  98.7012731  67.6659455 120.2387218  97.6570751
  69.0493010 124.8248675  89.1712329  69.2244766 124.3536718  89.9857952
  68.3625798 125.4514441  89.3993590  63.9794317 114.5088811 100.7428212
  63.8414115 113.7769050 101.3439751  64.8899241 114.4197711 100.4612400
  66.6076618 114.2208770 100.2311892  67.3176237 113.5801962 100.1898510
  66.5645926 114.4721665 101.1538072  65.3205552 111.2073988 102.0507531
  64.7842909 110.7564727 102.7029127  64.7322261 111.3419897 101.3077995
  63.6154096 127.9738037  95.9452190  63.8550694 128.6056562  96.6231208
  62.7723292 127.6226077  96.2317549  56.2509951 115.4539799  94.7075502
  56.9380991 115.1401529  94.1196517  56.0958080 116.3581164  94.4342753
  61.0544673 110.3429996  99.1360525  60.9702862 109.7355665  98.4010935
  60.2327380 110.8339014  99.1370022  68.1281957 123.7817160  98.3493694
  68.0552129 124.5872131  98.8612998  67.6859351 123.9809126  97.5241715
  67.9171737 123.0188930  91.8596515  67.1339259 123.5610610  91.9534740
  68.6164482 123.5362910  92.2590756  70.5880641 123.6803994 100.5051852
  71.3008613 124.3151459 100.4327754  70.0970670 123.7767860  99.6891854
  65.6392555 121.4298437 101.3257423  66.3402014 122.0634920 101.4786817
  65.1687669 121.7713169 100.5653062  70.4001014 124.0202738  93.2538144
  70.5823409 123.2024394  93.7165896  71.2234000 124.2370430  92.8163034
  70.7343180 122.9470923  90.5153192  71.2630946 122.4363378  89.9023354
  70.9971399 122.6313453  91.3798725  69.4881413 114.7262856 105.6376011
  68.8122051 114.6256985 106.3078386  70.3109047 114.5702070 106.1012008
  61.2360273 120.9634792  98.2588526  61.8213709 120.2178480  98.3916430
  61.0385111 121.2738749  99.1425190  64.0898928 123.9986040  93.2750968
  63.4209303 124.4832167  92.7915008  63.9511797 124.2455260  94.1894347
  55.8277927 113.5340393  96.9792969  55.8662027 113.0003983  97.7730087
  55.3218220 113.0075598  96.3603946  68.2304196 126.0329783  99.8733627
  68.7822504 126.1961405 100.6382712  68.5710390 126.6234221  99.2013651
  63.2068690 108.3804933 100.4755511  63.2710016 109.2419764 100.0632909
  63.1435810 107.7678935  99.7427870  62.6820962 110.4528066 104.1228545
  63.3093001 110.0705143 104.7366070  61.8248881 110.2342268 104.4884238
  73.0815071 120.8591041 105.7282281  73.6254975 121.4720999 105.2337236
  72.5001916 121.4170619 106.2449294  59.4586505 112.2604495  90.0546900
  59.7539946 111.3515173  90.0013954  58.5574541 112.2392234  89.7327903
  62.9880752 110.3360491  96.0374449  62.2667338 110.9496459  95.8981922
  63.7774008 110.8718256  95.9591095  65.7907065 107.6714918 102.3115101
  66.3141467 107.9177214 103.0741410  65.5719399 108.5034953 101.8918238
  61.1874346 109.9418592  90.1786225  60.8587053 109.0615971  89.9961331
  61.5413717 109.8866261  91.0662615  65.1714661 112.3897046  96.2584073
  65.0259242 112.7037349  97.1508354  64.6939865 113.0081946  95.7054971
  59.6460323 114.9302390  99.1971734  59.1013791 115.7062198  99.3292008
  60.5239673 115.2773195  99.0390855  60.4326345 114.0572287 102.0901891
  59.6908081 114.2054922 102.6766521  60.1119089 114.3180552 101.2268640
  68.3770008 123.5988265 101.8882281  68.6857134 123.3537412 102.7604980
  69.1745490 123.8034903 101.4001151  68.3990620 125.7526175  94.1187657
  67.9595610 125.2602553  94.8120514  69.1498737 125.2099142  93.8779733
  60.8782959 121.9437715  94.1212286  61.7040979 121.6441487  93.7410929
  60.5277011 121.1745338  94.5702074  65.8464492 121.2964184  96.1909959
  65.2244501 120.6334889  95.8912187  66.5169359 121.3225316  95.5083607
  59.0791564 119.8624042  95.0801219  58.2423472 119.4346216  94.8985220
  59.0515209 120.0556485  96.0172010  65.9189019 109.7745972 105.7842465
  65.9677175 110.6508094 105.4020235  66.4611534 109.2323365 105.2114108
  65.4077999 119.8468107  89.6668420  65.5566119 120.5303571  89.0135092
  66.2144442 119.8273197  90.1817875  68.1488308 110.5277344 102.5388824
  67.2791617 110.8210910 102.2671412  68.3847788 111.1117789 103.2596087
  63.1630632 115.8733285  90.6729489  62.9176674 114.9695615  90.8709699
  63.3326546 115.8750435  89.7308967  62.4326279 111.6061642  88.1715650
  61.7395524 111.6805997  87.5155686  62.1878031 110.8421986  88.6937167
  68.9073404 122.3416237  87.1380167  68.3347371 122.9606425  86.6850639
  69.4806198 122.8915599  87.6720089  69.1758895 117.7294796 105.9396877
  70.0961905 117.9073395 106.1336923  69.1408478 116.7850842 105.7876576
  58.3941060 112.9233390  94.8650151  58.0743845 112.0698698  94.5724525
  57.8474489 113.1381968  95.6208119  62.1720968 115.6395831  98.5819658
  62.3906978 116.5712939  98.6007692  62.5846742 115.2803805  99.3674462
  67.0448833 111.2129037 107.9722407  66.9445560 112.1623394 107.9034498
  66.8270375 110.8847276 107.0998477  58.2629320 116.5436301  96.8343273
  57.5692792 116.1290254  96.3213227  59.0102311 116.5856838  96.2376692
  66.9080103 114.6426176 106.7887468  66.4247185 115.4426536 106.9951357
  66.9941042 114.6534120 105.8354912  60.1766063 116.4754555  94.7109288
  60.1536751 116.5742242  93.7591171  60.4866699 117.3219706  95.0326454
  62.8353441 118.5330710  98.8255902  63.7896694 118.5014653  98.7585834
  62.6365964 118.0721334  99.6406128  63.4252823 117.1031826 101.3926700
  64.2445712 117.5975905 101.4161537  63.6989631 116.1863794 101.3644267
  61.1903670 124.0750330  95.8426100  61.0558137 123.3150731  95.2764098
  60.7735732 124.7991230  95.3754889  64.3472795 124.9719647  96.0544543
  64.2305180 125.9165079  95.9523233  63.5265242 124.6693208  96.4430342
  58.6787737 111.4369960 102.0918897  59.3246601 110.9268914 102.5806122
  58.4704888 112.1738642 102.6662322  71.2041129 118.5050808 107.5911037
  72.0732289 118.6791460 107.2297672  70.7247881 119.3245224 107.4686767
  65.3727310 125.6247909  99.2700471  66.2754556 125.6571519  99.5866966
  65.1464680 124.6948360  99.2846807  67.1280912 124.3778895  95.9310550
  66.1776543 124.3780757  95.8174922  67.4313398 123.6311630  95.4146584
  63.0185228 108.5837577 106.1893911  63.8816690 108.2274382 106.3997236
  62.4450639 108.2451472 106.8769315  82.8633605 130.2139434  96.9956312
  83.5012015 130.0946181  96.2919652  82.7454448 131.1620278  97.0544264
  79.6723311 130.1666862  96.9317837  79.3341823 130.0507926  96.0438372
  80.5413080 129.7658027  96.9118843  75.5310127 132.0202338  92.9214728
  74.9674992 131.9292275  92.1531015  75.4162522 131.2002243  93.4017220
  80.1543094 131.3201713 102.8904042  80.1431735 130.9254512 102.0184546
  80.3163734 130.5867786 103.4837814  73.0774559 133.5153530  95.7598948
  73.8695851 133.1744354  95.3445247  73.3171209 133.6248505  96.6801101
  81.1109686 135.6873306  88.2329193  80.4597666 136.2727386  87.8463206
  81.9054049 136.2179501  88.2924230  75.0365313 132.7762443  88.6316327
  75.8096189 132.2291430  88.4929203  75.3890712 133.6406692  88.8430788
  76.8750355 134.1038825 101.8383226  76.5840221 135.0084456 101.7229893
  77.5107340 134.1455353 102.5527296  77.8006562 131.4815674  98.4284586
  78.3970135 131.2571696  97.7141549  77.8581534 130.7400419  99.0310034
  77.3731591 128.9355109  86.2634777  77.6257111 128.4136630  85.5018240
  76.4356150 128.7721255  86.3661460  82.4174874 127.9390887  94.0709520
  83.2037963 127.5210311  93.7199937  82.6813578 128.8436980  94.2391168
  82.5884951 133.3763738  88.7698177  81.9530784 133.4498364  89.4819082
  82.2582357 133.9657337  88.0917256  87.8183301 127.8766121  94.9742499
  88.5508473 127.3065337  95.2080328  87.0622656 127.4887721  95.4149004
  77.0927879 130.8383215  88.4659152  76.9764138 130.1628118  89.1340236
  77.2030139 130.3515589  87.6491305  79.4359420 130.2993362  92.1705841
  79.0717628 129.7723983  92.8818763  80.2926536 129.9091831  91.9972326
  79.0764907 125.3283262  87.1667190  79.2439310 126.1963498  87.5337661
  78.8862076 125.4910544  86.2428479  81.8340241 133.7900241  98.8333020
  81.5340964 134.6925280  98.7248827  81.4891300 133.5232424  99.6854173
  75.2852722 130.2414038  94.8669724  74.3603219 130.1090252  95.0747416
  75.5337135 131.0208257  95.3639667  79.0554128 127.7840919  88.1513856
  78.9353753 128.2297970  88.9899337  78.3606717 128.1326237  87.5927395
  72.6461533 129.8847311  95.7013513  72.7753914 130.1381790  96.6152925
  71.9658984 130.4775019  95.3818168  76.8161020 140.5544561  91.8003988
  76.7385050 141.5052386  91.8792468  76.2122664 140.2090434  92.4578914
  84.7539194 128.2562393  88.9794190  85.6657051 128.4889779  88.8041888
  84.2448841 128.8399437  88.4169269  77.5624622 130.5357880 104.0183322
  78.3039307 131.0742924 103.7418145  76.8561608 131.1624169 104.1754873
  83.0379962 132.6787020 102.6155483  83.4463318 132.2369431 101.8710115
  82.3157224 132.1039648 102.8689676  83.3608777 133.2388211  96.3707772
  82.7317639 133.4033925  95.6683840  82.9734439 133.6529821  97.1418736
  87.2398009 134.1742649  93.7252136  86.5549047 134.5541550  93.1749169
  87.3241858 134.7837975  94.4584083  84.4948940 131.8202608 100.3247479
  84.7065835 132.4634368  99.6481860  84.4478688 130.9864924  99.8569409
  78.9136739 132.9762619  93.6357857  79.3775084 133.2550322  92.8462479
  78.6493537 132.0746064  93.4530948  75.8060820 132.5234101  96.5737620
  76.3762177 132.9521369  95.9355105  76.3968932 132.2416685  97.2721806
  77.8505625 129.0985771  90.4447422  78.5529668 129.5506815  90.9121348
  77.5186253 128.4569590  91.0727315  71.5930959 127.3569324  95.7464556
  70.8030013 127.6126853  95.2704666  72.0842206 128.1717662  95.8516596
  85.6094768 134.6974563  98.4969837  86.4312212 134.2954751  98.2152518
  85.6057171 134.5942797  99.4485952  73.5445704 127.7213903  92.7048032
  72.7476867 127.8332598  93.2231528  73.3171296 128.0600556  91.8388923
  79.3751372 134.2458607 100.6530547  79.4395804 134.7079014 101.4888719
  78.6662295 133.6155971 100.7812857  69.8768662 127.6099815  98.1779546
  70.1276700 128.4946824  98.4437122  70.4128210 127.4304416  97.4054638
  93.7000761 131.0413312  94.8454808  92.9464470 130.4720710  94.6898812
  93.8348302 131.0075976  95.7925443  79.0899389 135.9126714  90.5209527
  78.9545064 136.7578250  90.9494375  79.6309202 136.1145992  89.7575461
  72.5428787 133.4302152  91.0937452  73.0553307 134.2245402  91.2443017
  73.1951499 132.7328443  91.0271054  74.3523671 136.5467908  93.1760206
  74.5290300 137.4685873  92.9881190  75.1480505 136.2326328  93.6054585
  73.6376028 128.5932540 103.0522369  73.5229543 127.6917797 103.3529468
  72.7820546 128.8396237 102.7007185  80.7167866 136.5350281 104.6509869
  80.2731720 135.7486659 104.3330774  81.3785079 136.7229431 103.9853760
  75.4754987 138.0646082  99.1770548  76.0262412 137.9363146  98.4047542
  74.6366463 138.3640971  98.8265441  82.8149104 136.8153080 102.6791271
  82.7967579 137.6361962 102.1871540  83.7369024 136.6907156 102.9041412
  79.2722158 134.3297210 103.5214779  79.8050495 133.5685498 103.2914087
  78.7436239 134.0370862 104.2638934  70.5077703 131.7590806  91.8697023
  71.3452925 132.1687815  91.6530731  70.6855971 130.8190249  91.8397217
  82.4042136 129.4265887  87.5580856  81.8888759 130.1970492  87.7969243
  82.1319444 128.7531023  88.1813917  87.3776410 132.1798242  89.4934029
  86.6005852 131.8409401  89.0489191  88.0567891 132.1850865  88.8188994
  82.1928439 127.2992979  89.3840637  81.8878574 127.6139128  90.2350780
  83.1458881 127.3774399  89.4267970  80.6374871 133.4583202  91.0333591
  80.1096232 132.7235962  90.7206829  80.1362373 134.2357879  90.7873559
  85.6167717 131.6532223  96.1500637  84.9591391 132.3431484  96.2380766
  86.4208116 132.0428655  96.4934624  84.4273175 130.0076596  94.2004579
  84.9405057 130.6406587  94.7026289  85.0774399 129.4077791  93.8347939
  75.6963185 126.1507330  87.4136088  74.8600498 126.4882016  87.7345363
  75.5567955 126.0156310  86.4763225  78.7827471 131.2763413  84.0368564
  77.8754532 131.0452666  84.2359713  79.2798503 130.4801032  84.2242546
  81.6895550 139.9860920  86.9565250  81.0157248 140.2892617  87.5650208
  82.0761372 140.7890000  86.6070707  80.9054006 127.4826051  96.4462920
  79.9876568 127.7040998  96.2884608  81.3214150 127.5572362  95.5874627
  81.6889054 128.8817467  91.5765600  82.4360873 129.3938864  91.2672722
  81.9580644 128.5601520  92.4369993  79.9615704 131.3776008  88.5592554
  79.0526923 131.0935040  88.6565024  79.9910788 131.7975086  87.6995861
  85.1934972 134.9882597  92.3283722  84.7397299 134.1473507  92.3848912
  84.5628938 135.6243995  92.6658502  83.6367911 136.8259094  93.2633540
  83.9290885 137.3864151  92.5445906  84.1466531 137.1187655  94.0186699
  70.5303875 129.0981522  92.5407756  70.3328274 128.5050882  91.8158823
  69.9750539 128.7933732  93.2583695  78.5100598 128.9904628  94.6602350
  78.5649208 128.0378465  94.5844826  77.6991800 129.1464067  95.1443648
  79.6591792 132.9184751  85.8980633  79.2211222 132.2020610  85.4386270
  80.4002233 133.1460866  85.3365724  76.4492958 127.6081688  92.4192728
  75.6360824 127.9075858  92.8257921  76.9451952 127.2137377  93.1367211
  78.6001536 137.6039445  94.3526993  78.5577715 137.8300291  93.4235525
  79.5164235 137.3702819  94.5012794  87.7764907 131.1941948  91.9556951
  87.6382805 131.3843544  91.0278141  87.4201126 131.9561331  92.4125002
  87.8034286 133.2618475  96.9668223  88.2370793 133.1693764  97.8151277
  88.5165867 133.2375976  96.3288239  76.7167337 134.4802474  94.1488956
  77.5107935 133.9852794  93.9471531  76.0059029 133.9520337  93.7856661
  81.5362181 136.8620569  98.5001323  81.5899204 137.4311506  99.2679039
  80.6676963 137.0322454  98.1355361  73.0250100 128.6245556  90.2248709
  72.0947688 128.5630011  90.4418671  73.1207572 128.1021508  89.4285350
  88.6649836 133.3042176  99.5001108  88.8585726 134.2087986  99.7460383
  88.5650454 132.8449595 100.3339693  83.7264945 133.4548919 105.0741989
  83.5750451 133.2259470 104.1572073  83.7169624 134.4119520 105.0873334
  80.4950281 131.0280831 100.0588255  81.4242341 131.1791991  99.8857223
  80.0741311 131.1164852  99.2036902  79.2938613 135.0531496  97.8286793
  79.1549699 134.6850280  98.7012731  78.5053209 135.5679135  97.6570751
  79.8886765 140.1540592  89.1712329  80.0638520 139.6828636  89.9857952
  79.2019553 140.7806359  89.3993590  80.8443828 134.4313099  95.2175631
  80.5093661 134.3913869  96.1133281  80.3447774 133.7657814  94.7446041
  74.8188072 129.8380729 100.7428212  74.6807870 129.1060967 101.3439751
  75.7292995 129.7489629 100.4612400  83.7803020 131.7769133  85.4912690
  83.1632190 131.0515961  85.3945743  83.3119508 132.5378493  85.1479765
  85.4357151 136.4868041 103.1518471  85.3769697 135.8027261 102.4849054
  85.8376670 137.2287031 102.6999097  75.5701566 125.9954557  84.6133995
  74.6931032 125.8743358  84.2496241  76.0459319 125.2040635  84.3612883
  85.4374559 134.4507625 101.3832450  84.5501337 134.1133547 101.5058849
  86.0073110 133.7190656 101.6201216  67.0903706 130.7831717  94.7075502
  67.7774745 130.4693447  94.1196517  66.9351834 131.6873082  94.4342753
  78.9675712 139.1109078  98.3493694  78.8945883 139.9164049  98.8612998
  78.5253105 139.3101043  97.5241715  78.7565492 138.3480848  91.8596515
  77.9733013 138.8902528  91.9534740  79.4558237 138.8654827  92.2590756
  89.9191899 129.8615843  96.1449012  89.9081775 130.7440558  95.7742945
  89.0509279 129.5087393  95.9503549  81.4274395 139.0095912 100.5051852
  82.1402368 139.6443376 100.4327754  80.9364424 139.1059778  99.6891854
  83.1491922 132.9147164  92.0769144  82.2148201 133.0348627  91.9073848
  83.3268591 132.0119631  91.8129154  78.6497110 126.2992860  94.2302405
  78.2794898 125.7463900  94.9183311  79.1456203 125.6950993  93.6777405
  86.5364474 128.7564484  92.6119178  87.0024926 129.5892475  92.5379481
  86.9871974 128.2909465  93.3164437  76.4786309 136.7590355 101.3257423
  77.1795768 137.3926838 101.4786817  76.0081424 137.1005087 100.5653062
  84.6040705 135.1008305  89.6105330  84.8800549 134.9864899  90.5199204
  83.7345204 134.7025790  89.5717503  81.2394769 139.3494656  93.2538144
  81.4217163 138.5316312  93.7165896  82.0627755 139.5662348  92.8163034
  81.5736934 138.2762841  90.5153192  82.1024701 137.7655295  89.9023354
  81.8365154 137.9605371  91.3798725  80.3275168 130.0554774 105.6376011
  79.6515805 129.9548903 106.3078386  81.1502802 129.8993987 106.1012008
  72.0754027 136.2926710  98.2588526  72.6607464 135.5470398  98.3916430
  71.8778866 136.6030667  99.1425190  74.9292682 139.3277957  93.2750968
  74.2603058 139.8124085  92.7915008  74.7905552 139.5747178  94.1894347
  66.6671682 128.8632310  96.9792969  66.7055781 128.3295901  97.7730087
  66.1611975 128.3367516  96.3603946  79.0697951 141.3621701  99.8733627
  79.6216259 141.5253322 100.6382712  79.4104144 141.9526139  99.2013651
  73.5214717 125.7819983 104.1228545  74.1486755 125.3997061 104.7366070
  72.6642635 125.5634185 104.4884238  83.9208825 136.1882958 105.7282281
  84.4648729 136.8012917 105.2337236  83.3395670 136.7462537 106.2449294
  70.2980259 127.5896412  90.0546900  70.5933700 126.6807091  90.0013954
  69.3968295 127.5684152  89.7327903  82.2066338 139.3103677  96.8597309
  82.0817478 138.5093416  96.3508254  82.8645429 139.8049870  96.3711279
  84.2701247 137.1112697  98.4876859  83.3231582 136.9918048  98.4155186
  84.6184020 136.2235195  98.5703120  72.0268101 125.2710510  90.1786225
  71.6980807 124.3907889  89.9961331  72.3807472 125.2158179  91.0662615
  81.2747680 136.9065413  94.6881211  81.1272642 135.9782120  94.8688781
  82.1001173 136.9285504  94.2038286  84.8781802 137.7293972  95.7746084
  85.8028349 137.5236833  95.6370535  84.7097105 137.4810373  96.6835425
  81.2709194 124.7603250  89.6813328  81.4872809 125.6427888  89.3802156
  80.7903261 124.3689464  88.9518970  76.0108416 127.7188964  96.2584073
  75.8652996 128.0329267  97.1508354  75.5333619 128.3373864  95.7054971
  84.6677118 138.2479639  91.1308175  84.8413995 137.6826061  90.3782028
  85.1606009 139.0480534  90.9487665  70.4854078 130.2594308  99.1971734
  69.9407546 131.0354116  99.3292008  71.3633428 130.6065113  99.0390855
  90.5216509 131.0116062  92.7498475  90.9647655 130.2623387  92.3517598
  89.6443019 131.0026198  92.3672207  85.6552290 137.5646403  88.2305073
  86.3503195 138.1853096  88.4492388  85.9975441 136.7141755  88.5057451
  71.2720100 129.3864204 102.0901891  70.5301836 129.5346840 102.6766521
  70.9512844 129.6472470 101.2268640  87.5543713 135.0146109  89.7592404
  88.0795038 135.3533382  89.0341724  87.4666066 134.0793124  89.5755539
  79.2163762 138.9280183 101.8882281  79.5250889 138.6829329 102.7604980
  80.0139244 139.1326821 101.4001151  79.2384374 141.0818092  94.1187657
  78.7989365 140.5894471  94.8120514  79.9892491 140.5391060  93.8779733
  71.7176713 137.2729633  94.1212286  72.5434733 136.9733405  93.7410929
  71.3670765 136.5037255  94.5702074  76.6858246 136.6256101  96.1909959
  76.0638256 135.9626806  95.8912187  77.3563113 136.6517233  95.5083607
  69.9185318 135.1915960  95.0801219  69.0817227 134.7638134  94.8985220
  69.8908964 135.3848403  96.0172010  87.2437620 135.6479013 105.0643602
  86.4533163 135.6303151 104.5248102  87.0070974 136.1867306 105.8192639
  87.3635495 132.4971479 102.3776331  87.4133500 132.3321486 103.3191854
  87.2549418 131.6298738 101.9874212  76.2471753 135.1760025  89.6668420
  76.3959874 135.8595489  89.0135092  77.0538197 135.1565115  90.1817875
  84.6539257 128.4802407 103.6935637  85.5549120 128.3408872 103.4019635
  84.7287232 128.6456862 104.6333815  88.8653691 134.9168420 102.6218352
  88.5738500 135.2798401 103.4581813  88.2525823 134.2035429 102.4431684
  90.0649374 132.4821300  95.1420923  90.8996265 132.9211104  95.3058483
  90.2008503 132.0059953  94.3229168  87.1140880 130.0401035 101.0898410
  87.5895001 130.2328681 100.2817262  86.1906445 130.0960221 100.8441794
  74.0024386 131.2025202  90.6729489  73.7570428 130.2987532  90.8709699
  74.1720301 131.2042353  89.7308967  73.2720034 126.9353560  88.1715650
  72.5789279 127.0097915  87.5155686  73.0271786 126.1713903  88.6937167
  79.7467159 137.6708155  87.1380167  79.1741126 138.2898342  86.6850639
  80.3199952 138.2207517  87.6720089  82.9664419 137.9545305  88.2688749
  83.8995092 137.8890867  88.4721625  82.8787631 138.7901572  87.8103282
  85.5952435 137.2711176  85.2292697  85.5166067 136.9371039  86.1228455
  86.4162102 137.7632943  85.2284169  88.2930626 130.1372915  98.4369016
  88.2606947 129.1988916  98.6228699  88.9031250 130.2156952  97.7034840
  80.1313957 129.0068968  84.4796220  81.0773062 128.8775176  84.5484638
  79.7528202 128.2683630  84.9565648  88.4425115 126.9283958  98.4827299
  87.9264164 126.1442415  98.2957228  89.3265063 126.6002675  98.6473818
  94.1107176 131.1988922  97.5775052  94.8410565 130.9374210  98.1382756
  93.5014122 130.4617644  97.6177120  92.1922473 129.3396784  98.1749504
  91.4655637 129.2052749  97.5665995  91.7769760 129.6473613  98.9806222
  80.0152650 133.0586714 105.9396877  80.9355659 133.2365313 106.1336923
  79.9802233 132.1142759 105.7876576  78.3156874 126.9318944  84.4151105
  77.4088330 126.6352057  84.4913818  78.5932855 126.6348762  83.5485391
  69.2334815 128.2525308  94.8650151  68.9137599 127.3990616  94.5724525
  68.6868243 128.4673886  95.6208119  73.0114722 130.9687749  98.5819658
  73.2300732 131.9004856  98.6007692  73.4240496 130.6095723  99.3674462
  77.0855659 123.7905879  84.5563084  77.9474823 124.1160778  84.8158901
  77.2706003 123.0037375  84.0436150  69.1023075 131.8728219  96.8343273
  68.4086546 131.4582172  96.3213227  69.8496066 131.9148756  96.2376692
  71.0159817 131.8046473  94.7109288  70.9930505 131.9034160  93.7591171
  71.3260454 132.6511624  95.0326454  73.6747195 133.8622628  98.8255902
  74.6290449 133.8306570  98.7585834  73.4759719 133.4013252  99.6406128
  74.2646577 132.4323744 101.3926700  75.0839466 132.9267823 101.4161537
  74.5383385 131.5155712 101.3644267  84.0213174 124.8234496  90.7554655
  83.1339029 125.1084147  90.5374850  84.4367163 124.6628260  89.9081932
  87.3727710 124.8481017  94.4708994  88.1488100 125.3377470  94.7433611
  86.6475844 125.2739071  94.9280864  89.8100268 125.5608636  95.5282935
  90.4044759 125.3204372  94.8176243  89.8826852 124.8415767  96.1556471
  72.0297424 139.4042247  95.8426100  71.8951892 138.6442648  95.2764098
  71.6129486 140.1283147  95.3754889  83.1656387 134.5879171  84.8502675
  83.8692237 134.7929173  85.4660331  82.4419036 135.1555933  85.1151759
  83.9954197 130.3389032  90.9704945  83.9389399 130.7957584  90.1312578
  84.5482540 129.5779717  90.7927788  87.8059003 126.1278764  91.7955065
  87.5495937 125.7275400  92.6263273  87.1811871 126.8422558  91.6705204
  92.1171341 128.8674837  94.3026356  91.5570899 128.9368027  95.0757918
  91.5114844 128.6915822  93.5825853  75.1866550 140.3011564  96.0544543
  75.0698934 141.2456997  95.9523233  74.3658996 139.9985126  96.4430342
  85.0743084 135.0261700  86.9001135  85.9088688 134.5942899  86.7178610
  84.9127427 134.8543714  87.8278030  84.7288977 131.5293813  88.2657475
  84.6737780 131.3638085  87.3245919  84.1035032 132.2369846  88.4219664
  69.5181492 126.7661878 102.0918897  70.1640355 126.2560832 102.5806122
  69.3098643 127.5030559 102.6662322  82.0434884 133.8342725 107.5911037
  82.9126043 134.0083378 107.2297672  81.5641635 134.6537142 107.4686767
  76.2121064 140.9539826  99.2700471  77.1148311 140.9863437  99.5866966
  75.9858434 140.0240277  99.2846807  77.9674666 139.7070813  95.9310550
  77.0170297 139.7072674  95.8174922  78.2707152 138.9603547  95.4146584
  73.8578983 123.9129495 106.1893911  74.7210444 123.5566300 106.3997236
  73.2844393 123.5743390 106.8769315  93.7027360 145.5431351  96.9956312
  94.3405770 145.4238099  96.2919652  93.5848202 146.4912195  97.0544264
  90.5117066 145.4958779  96.9317837  90.1735577 145.3799844  96.0438372
  91.3806834 145.0949944  96.9118843  86.3703882 147.3494256  92.9214728
  85.8068747 147.2584193  92.1531015  86.2556277 146.5294160  93.4017220
  88.6400317 146.8107591  98.4284586  89.2363889 146.5863614  97.7141549
  88.6975288 146.0692337  99.0310034  88.2125345 144.2647027  86.2634777
  88.4650866 143.7428548  85.5018240  87.2749904 144.1013172  86.3661460
  93.2568628 143.2682805  94.0709520  94.0431717 142.8502228  93.7199937
  93.5207332 144.1728897  94.2391168  98.6577055 143.2058038  94.9742499
  99.3902227 142.6357255  95.2080328  97.9016411 142.8179639  95.4149004
  87.9321634 146.1675133  88.4659152  87.8157892 145.4920036  89.1340236
  88.0423894 145.6807507  87.6491305  90.2753175 145.6285280  92.1705841
  89.9111382 145.1015901  92.8818763  91.1320291 145.2383749  91.9972326
  96.1802476 136.9179612  99.4337107  95.8485800 137.7875023  99.2098322
  95.5848089 136.6015896 100.1131138  89.9158662 140.6575180  87.1667190
  90.0833064 141.5255416  87.5337661  89.7255831 140.8202461  86.2428479
  86.1246477 145.5705955  94.8669724  85.1996973 145.4382169  95.0747416
  86.3730890 146.3500174  95.3639667  96.0731139 141.6374699  96.5130457
  95.1648016 141.5690107  96.2189218  96.0218735 142.1146644  97.3412283
  89.8947883 143.1132837  88.1513856  89.7747508 143.5589888  88.9899337
  89.2000471 143.4618155  87.5927395  83.4855288 145.2139229  95.7013513
  83.6147669 145.4673708  96.6152925  82.8052739 145.8066937  95.3818168
  97.9392785 139.8391137  98.2908331  97.2967165 140.1323670  97.6448126
  97.4347714 139.7244057  99.0961528  95.5932949 143.5854310  88.9794190
  96.5050805 143.8181697  88.8041888  95.0842596 144.1691354  88.4169269
  90.2304787 142.9451545  99.9889040  91.0765982 143.3690958 100.1323689
  90.1703424 142.2885169 100.6827603  92.9368924 139.7612346  97.2284051
  92.0753403 140.0593600  97.5200789  92.9631358 139.9782745  96.2965084
  89.7530493 148.3054537  93.6357857  90.2168839 148.5842240  92.8462479
  89.4887291 147.4037981  93.4530948  88.6899379 144.4277689  90.4447422
  89.3923422 144.8798733  90.9121348  88.3580008 143.7861508  91.0727315
  82.4324713 142.6861242  95.7464556  81.6423767 142.9418770  95.2704666
  82.9235960 143.5009580  95.8516596  84.3839458 143.0505821  92.7048032
  83.5870622 143.1624515  93.2231528  84.1565051 143.3892473  91.8388923
  80.7162416 142.9391732  98.1779546  80.9670454 143.8238742  98.4437122
  81.2521964 142.7596334  97.4054638  84.4769782 143.9224458 103.0522369
  84.3623298 143.0209715 103.3529468  83.6214300 144.1688155 102.7007185
  93.2785607 134.7649194  99.0508421  92.9349877 135.6550835  98.9747531
  93.6464570 134.5750851  98.1878006  93.2435890 144.7557805  87.5580856
  92.7282513 145.5262409  87.7969243  92.9713198 144.0822941  88.1813917
  90.8283001 139.6007505  92.6166094  89.9724597 139.2114356  92.4371733
  91.2409953 139.6799466  91.7565880  92.3582148 137.1353849  97.0157654
  91.8546943 137.0983984  96.2025459  92.6512755 138.0446591  97.0754311
  88.6025034 137.2192578  96.0223836  89.4678030 137.0235387  95.6629725
  88.6702543 136.9902930  96.9493193  93.0322193 142.6284897  89.3840637
  92.7272329 142.9431046  90.2350780  93.9852635 142.7066317  89.4267970
  86.2087353 139.4494786  93.3940203  86.7831105 139.2269968  92.6613396
  86.7958335 139.5183481  94.1468804  95.2666930 145.3368513  94.2004579
  95.7798812 145.9698505  94.7026289  95.9168154 144.7369709  93.8347939
  86.5356940 141.4799247  87.4136088  85.6994252 141.8173934  87.7345363
  86.3961709 141.3448227  86.4763225  88.5110020 136.3236035  92.1215272
  87.8574433 136.0085052  91.4971887  88.4690495 135.7011776  92.8475095
  89.6221225 146.6055330  84.0368564  88.7148287 146.3744584  84.2359713
  90.1192257 145.8092950  84.2242546  91.7447761 142.8117969  96.4462920
  90.8270322 143.0332916  96.2884608  92.1607904 142.8864279  95.5874627
  92.5282809 144.2109385  91.5765600  93.2754627 144.7230782  91.2672722
  92.7974398 143.8893437  92.4369993  90.8009459 146.7067925  88.5592554
  89.8920678 146.4226958  88.6565024  90.8304542 147.1267004  87.6995861
  94.9761646 141.2466501  93.5584389  94.2384402 140.7343887  93.8894632
  95.2288419 140.8066882  92.7467666  95.0773273 134.0242753  94.1526158
  95.3832150 133.1640116  93.8652074  95.8025878 134.6160373  93.9525152
  81.3697629 144.4273439  92.5407756  81.1722029 143.8342800  91.8158823
  80.8144293 144.1225650  93.2583695  89.3494353 144.3196546  94.6602350
  89.4042963 143.3670382  94.5844826  88.5385555 144.4755985  95.1443648
  90.4985546 148.2476669  85.8980633  90.0604976 147.5312528  85.4386270
  91.2395987 148.4752784  85.3365724  87.2886713 142.9373606  92.4192728
  86.4754578 143.2367776  92.8257921  87.7845707 142.5429294  93.1367211
  86.7800787 140.5091961  98.0353963  87.4200167 140.3680720  97.3376927
  85.9478318 140.2226475  97.6592565  83.8643855 143.9537473  90.2248709
  82.9341443 143.8921929  90.4418671  83.9601327 143.4313426  89.4285350
  83.7829404 140.4792286  92.8126950  84.0436221 141.3937619  92.7036111
  84.6046576 140.0116729  92.9623563  85.2554329 141.8930043  99.9825775
  85.9277383 141.6847405  99.3338424  84.4284116 141.6952129  99.5431007
  91.1579901 138.5191984 101.9991436  90.5107816 139.2181934 101.9055912
  91.9280917 138.9528128 102.3667684  85.6581826 145.1672646 100.7428212
  85.5201624 144.4352885 101.3439751  86.5686750 145.0781546 100.4612400
  94.6196774 147.1061051  85.4912690  94.0025945 146.3807879  85.3945743
  94.1513263 147.8670411  85.1479765  88.2864127 144.8792606 100.2311892
  88.9963746 144.2385798 100.1898510  88.2433435 145.1305500 101.1538072
  86.9993061 141.8657823 102.0507531  86.4630418 141.4148562 102.7029127
  86.4109770 142.0003732 101.3077995  86.4095320 141.3246475  84.6133995
  85.5324786 141.2035276  84.2496241  86.8853073 140.5332553  84.3612883
  82.7332182 141.0013831  99.1360525  82.6490371 140.3939501  98.4010935
  81.9114889 141.4922849  99.1370022  92.9055896 139.4867395  94.5030721
  93.4024596 138.7337357  94.1831791  92.1342878 139.5231711  93.9373930
  93.9885677 148.2439082  92.0769144  93.0541956 148.3640544  91.9073848
  94.1662345 147.3411549  91.8129154  89.4890865 141.6284778  94.2302405
  89.1188652 141.0755818  94.9183311  89.9849957 141.0242911  93.6777405
  97.3758228 144.0856401  92.6119178  97.8418680 144.9184393  92.5379481
  97.8265729 143.6201383  93.3164437  95.3474891 136.4536988  96.6510079
  94.4337971 136.6841215  96.8192286  95.7767992 136.5375432  97.5024112
  77.5065436 144.1924228  96.9792969  77.5449536 143.6587819  97.7730087
  77.0005729 143.6659433  96.3603946  84.8856199 139.0388768 100.4755511
  84.9497525 139.9003599 100.0632909  84.8223319 138.4262770  99.7427870
  84.3608471 141.1111901 104.1228545  84.9880510 140.7288978 104.7366070
  83.5036390 140.8926103 104.4884238  81.1374014 142.9188330  90.0546900
  81.4327455 142.0099009  90.0013954  80.2362050 142.8976070  89.7327903
  84.6668261 140.9944327  96.0374449  83.9454847 141.6080294  95.8981922
  85.4561517 141.5302092  95.9591095  87.4694574 138.3298753 102.3115101
  87.9928976 138.5761050 103.0741410  87.2506908 139.1618788 101.8918238
  82.8661855 140.6002428  90.1786225  82.5374562 139.7199807  89.9961331
  83.2201226 140.5450096  91.0662615  85.9803679 140.8875398  90.5461703
  86.3199751 141.4161319  89.8240312  86.4275799 141.2255804  91.3220270
  88.6747119 139.2712448  99.9964771  88.3343940 138.4720261 100.3985451
  87.9686126 139.5714159  99.4241604  89.3263591 136.3561761  98.4492094
  90.1489661 135.8822239  98.3270985  89.5701655 137.1352244  98.9490781
  87.9671826 139.3850019  88.7454996  88.6880188 139.7631272  88.2418713
  87.3437130 140.1038896  88.8489974  92.1102949 140.0895168  89.6813328
  92.3266563 140.9719806  89.3802156  91.6297016 139.6981382  88.9518970
  86.8502170 143.0480881  96.2584073  86.7046751 143.3621184  97.1508354
  86.3727374 143.6665782  95.7054971  88.7098553 140.0383429  96.3064962
  88.6960122 139.1424523  95.9697260  89.4270981 140.0454093  96.9403248
  90.5624684 140.4720770  98.3518090  90.3042461 141.3937840  98.3502420
  90.0309724 140.0751204  99.0418554  88.1135449 138.9197810  91.5752533
  88.2351360 137.9914456  91.7743420  87.8237491 138.9336496  90.6630848
  90.9826639 136.6052720  94.7119252  91.0048336 136.6692053  93.7571232
  91.3994698 135.7657229  94.9059759  82.1113854 144.7156122 102.0901891
  81.3695590 144.8638757 102.6766521  81.7906598 144.9764388 101.2268640
  84.8418141 146.5317120  90.6729489  84.5964183 145.6279450  90.8709699
  85.0114055 146.5334270  89.7308967  92.5314851 137.4040796 100.0554244
  93.0496795 138.1401823  99.7300733  92.1769983 137.7104790 100.8901003
  84.1113788 142.2645478  88.1715650  83.4183033 142.3389833  87.5155686
  83.8665540 141.5005821  88.6937167  92.7827445 133.8241079  95.5755141
  93.0629199 133.1564268  96.2015567  93.5678052 134.0170174  95.0629805
  94.6750683 139.3314296  99.5086117  94.0800615 139.6119309  98.8132605
  94.3900379 139.8208197 100.2802858  90.9707712 144.3360886  84.4796220
  91.9166817 144.2067094  84.5484638  90.5921957 143.5975547  84.9565648
  96.9429596 136.0016892  94.4423111  96.7454417 135.6931980  95.3266443
  97.5529302 136.7278530  94.5721041  89.1550629 142.2610862  84.4151105
  88.2482084 141.9643975  84.4913818  89.4326610 141.9640680  83.5485391
  80.0728569 143.5817225  94.8650151  79.7531354 142.7282534  94.5724525
  79.5261998 143.7965803  95.6208119  90.7712695 136.8047752  90.5695346
  89.9613423 136.4594837  90.9450592  91.4597112 136.4955295  91.1582958
  92.7003243 135.8825798  92.1919643  93.2534282 136.3021252  92.8509666
  92.9373329 134.9561547  92.2342599  87.9249414 139.1197797  84.5563084
  88.7868578 139.4452695  84.8158901  88.1099758 138.3329293  84.0436150
  96.0782050 137.9926324  91.6998307  95.4980719 138.6511128  91.3176359
  95.8117983 137.1703668  91.2885724  94.5285616 137.3931381  93.9019627
  95.0285395 137.5047916  93.0933946  95.1721224 137.0892434  94.5420436
  94.8606928 140.1526414  90.7554655  93.9732783 140.4376065  90.5374850
  95.2760917 139.9920177  89.9081932  98.2121464 140.1772935  94.4708994
  98.9881854 140.6669387  94.7433611  97.4869598 140.6030989  94.9280864
 100.6494023 140.8900554  95.5282935 101.2438514 140.6496290  94.8176243
 100.7220607 140.1707685  96.1556471  94.8347952 145.6680950  90.9704945
  94.7783153 146.1249501  90.1312578  95.3876294 144.9071634  90.7927788
  98.6452758 141.4570682  91.7955065  98.3889692 141.0567317  92.6263273
  98.0205626 142.1714476  91.6705204  95.5682731 146.8585731  88.2657475
  95.5131535 146.6930003  87.3245919  94.9428786 147.5661764  88.4219664
  80.3575246 142.0953796 102.0918897  81.0034110 141.5852749 102.5806122
  80.1492397 142.8322477 102.6662322  88.8778857 136.3593840  87.8442793
  88.8657526 137.3035680  88.0011064  89.7702278 136.1763986  87.5502254
  92.6930976 132.9536617  92.0988730  91.9263372 132.3995103  92.2445412
  93.1041681 133.0258486  92.9602881  17.8271079  15.2450050  83.7201619
  18.4649489  15.1256797  83.0164959  17.7091922  16.1930894  83.7789571
  14.6360786  15.1977478  83.6563143  14.2979297  15.0818543  82.7683678
  15.5050554  14.7968643  83.6364150  10.4947601  17.0512955  79.6460034
   9.9312466  16.9602892  78.8776322  10.3799996  16.2312859  80.1262527
  15.1180569  16.3512330  89.6149349  15.1069209  15.9565128  88.7429853
  15.2801208  15.6178403  90.2083120   8.0412033  18.5464146  82.4844255
   8.8333325  18.2054971  82.0690554   8.2808683  18.6559121  83.4046408
  16.0747160  20.7183922  74.9574499  15.4235140  21.3038003  74.5708513
  16.8691523  21.2490117  75.0169537  10.0002787  17.8073059  75.3561634
  10.7733663  17.2602047  75.2174509  10.3528186  18.6717309  75.5676095
  11.8387830  19.1349442  88.5628533  11.5477696  20.0395073  88.4475199
  12.4744814  19.1765969  89.2772602  12.7644037  16.5126290  85.1529893
  13.3607609  16.2882313  84.4386855  12.8219008  15.7711036  85.7555340
  12.3369065  13.9665726  72.9880083  12.5894586  13.4447247  72.2263546
  11.3993624  13.8031871  73.0906767  17.3812348  12.9701504  80.7954827
  18.1675437  12.5520927  80.4445244  17.6451052  13.8747596  80.9636475
  17.5522425  18.4074354  75.4943484  16.9168258  18.4808981  76.2064388
  17.2219832  18.9967953  74.8162563  22.7820775  12.9076737  81.6987805
  23.5145947  12.3375954  81.9325635  22.0260131  12.5198338  82.1394311
  12.0565354  15.8693832  75.1904458  11.9401612  15.1938735  75.8585543
  12.1667614  15.3826206  74.3736611  14.3996895  15.3303979  78.8951148
  14.0355102  14.8034600  79.6064069  15.2564011  14.9402448  78.7217633
  16.7977715  18.8210857  85.5578327  16.4978438  19.7235896  85.4494134
  16.4528774  18.5543040  86.4099479  10.2490196  15.2724654  81.5915031
   9.3240693  15.1400868  81.7992723  10.4974610  16.0518873  82.0884973
  20.1974859  11.3393397  83.2375764  19.2891736  11.2708806  82.9434525
  20.1462454  11.8165342  84.0657589  14.0191603  12.8151536  74.8759163
  13.8991228  13.2608587  75.7144643  13.3244191  13.1636854  74.3172701
  11.7798495  25.5855178  78.5249294  11.7022524  26.5363003  78.6037775
  11.1760138  25.2401050  79.1824221  14.2715724  12.7583043  91.1810661
  13.4949059  13.3176963  91.1713526  14.9106288  13.2439826  91.7025531
  22.0636505   9.5409836  85.0153638  21.4210885   9.8342369  84.3693432
  21.5591434   9.4262756  85.8206834  19.7176669  13.2873009  75.7039497
  20.6294525  13.5200396  75.5287195  19.2086316  13.8710053  75.1414576
  12.5262097  15.5668496  90.7428628  13.2676781  16.1053540  90.4663452
  11.8199082  16.1934785  90.9000180  18.0017436  17.7097637  89.3400790
  18.4100792  17.2680047  88.5955422  17.2794698  17.1350264  89.5934983
  14.3548506  12.6470244  86.7134347  15.2009702  13.0709657  86.8568996
  14.2947144  11.9903868  87.4072910  18.3246251  18.2698828  83.0953079
  17.6955113  18.4344542  82.3929146  17.9371913  18.6840437  83.8664043
  22.2035483  19.2053265  80.4497442  21.5186521  19.5852167  79.8994476
  22.2879332  19.8148592  81.1829390  17.5047952  10.3074612  88.3715520
  17.2608884  11.0616673  87.8349796  17.7807882  10.6859960  89.2062767
  19.4586415  16.8513224  87.0492786  19.6703310  17.4944984  86.3727167
  19.4116163  16.0175541  86.5814716  17.0612644   9.4631045  83.9529358
  16.1997123   9.7612299  84.2446096  17.0875078   9.6801444  83.0210391
  13.8774213  18.0073236  80.3603164  14.3412558  18.2860939  79.5707786
  13.6131011  17.1056680  80.1776254  10.7698294  17.5544717  83.2982927
  11.3399651  17.9831986  82.6600411  11.3606406  17.2727302  83.9967113
  12.8143099  14.1296388  77.1692729  13.5167142  14.5817432  77.6366655
  12.4823727  13.4880207  77.7972622  20.5732242  19.7285180  85.2215143
  21.3949686  19.3265367  84.9397825  20.5694645  19.6253414  86.1731259
  14.3388846  19.2769223  87.3775854  14.4033278  19.7389630  88.2134025
  13.6299770  18.6466588  87.5058164  28.6638236  16.0723928  81.5700115
  27.9101944  15.5031326  81.4144119  28.7985777  16.0386593  82.5170749
  14.0536864  20.9437331  77.2454834  13.9182538  21.7888866  77.6739682
  14.5946676  21.1456608  76.4820768   7.5066261  18.4612769  77.8182759
   8.0190782  19.2556019  77.9688324   8.1588974  17.7639059  77.7516361
   9.3161146  21.5778525  79.9005512   9.4927774  22.4996490  79.7126496
  10.1117979  21.2636944  80.3299892  15.6805340  21.5660897  91.3755176
  15.2369194  20.7797276  91.0576081  16.3422554  21.7540048  90.7099067
  10.4392461  23.0956699  85.9015855  10.9899886  22.9673762  85.1292849
   9.6003937  23.3951588  85.5510747  17.7786578  21.8463697  89.4036577
  17.7605053  22.6672578  88.9116847  18.7006498  21.7217772  89.6286719
  14.2359632  19.3607827  90.2460086  14.7687969  18.5996115  90.0159394
  13.7073713  19.0681478  90.9884240  17.3679610  14.4576504  74.2826163
  16.8526233  15.2281108  74.5214550  17.0956918  13.7841640  74.9059224
  22.3413884  17.2108858  76.2179336  21.5643327  16.8720018  75.7734498
  23.0205365  17.2161481  75.5434301  17.1565913  12.3303596  76.1085944
  16.8516049  12.6449745  76.9596087  18.1096355  12.4085016  76.1513277
  15.6012345  18.4893819  77.7578898  15.0733706  17.7546579  77.4452135
  15.0999848  19.2668495  77.5118866  20.5805191  16.6842839  82.8745944
  19.9228865  17.3742101  82.9626073  21.3845590  17.0739271  83.2179930
  19.3910650  15.0387212  80.9249886  19.9042531  15.6717204  81.4271596
  20.0411874  14.4388408  80.5593246  13.7464945  16.3074029  70.7613871
  12.8392007  16.0763283  70.9605020  14.2435977  15.5111649  70.9487852
  16.6533024  25.0171536  73.6810557  15.9794723  25.3203233  74.2895515
  17.0398846  25.8200617  73.3316014  15.8691481  12.5136668  83.1708226
  14.9514042  12.7351615  83.0129914  16.2851624  12.5882978  82.3119934
  16.6526528  13.9128083  78.3010907  17.3998347  14.4249481  77.9918029
  16.9218118  13.5912136  79.1615300  14.9253179  16.4086624  75.2837861
  14.0164398  16.1245657  75.3810331  14.9548262  16.8285703  74.4241168
  20.1572446  20.0193214  79.0529028  19.7034773  19.1784123  79.1094219
  19.5266413  20.6554612  79.3903809  19.1005365  10.9485200  80.2829696
  18.3628122  10.4362586  80.6139938  19.3532139  10.5085581  79.4712973
  18.6005385  21.8569710  79.9878847  18.8928360  22.4174767  79.2691212
  19.1104006  22.1498271  80.7432006  13.4738073  14.0215245  81.3847656
  13.5286682  13.0689081  81.3090133  12.6629275  14.1774684  81.8688955
  14.6229266  17.9495368  72.6225939  14.1848696  17.2331227  72.1631577
  15.3639707  18.1771483  72.0611031  13.5639010  22.6350061  81.0772300
  13.5215189  22.8610908  80.1480832  14.4801709  22.4013436  81.2258101
  17.0104644  13.1034129  87.9752929  17.3654032  13.3305602  88.8347395
  17.6576775  13.4352506  87.3530184  22.7402381  16.2252565  78.6802258
  22.6020280  16.4154161  77.7523447  22.3838600  16.9871948  79.1370309
  22.7671761  18.2929092  83.6913529  23.2008267  18.2004381  84.5396584
  23.4803341  18.2686592  83.0533545  11.6804811  19.5113090  80.8734262
  12.4745410  19.0163411  80.6716837  10.9696504  18.9830954  80.5101968
  16.4999656  21.8931186  85.2246630  16.5536678  22.4622122  85.9924346
  15.6314437  22.0633071  84.8600667  23.6287310  18.3352792  86.2246415
  23.8223200  19.2398603  86.4705690  23.5287928  17.8760212  87.0585000
  18.6902419  18.4859535  91.7987296  18.5387925  18.2570087  90.8817379
  18.6807098  19.4430137  91.8118641  15.4587755  16.0591448  86.7833562
  16.3879815  16.2102608  86.6102529  15.0378785  16.1475469  85.9282208
  14.2576087  20.0842112  84.5532100  14.1187173  19.7160897  85.4258038
  13.4690683  20.5989752  84.3816057  14.8524239  25.1851209  75.8957636
  15.0275995  24.7139252  76.7103259  14.1657027  25.8116975  76.1238897
  15.8081302  19.4623715  81.9420937  15.4731135  19.4224485  82.8378587
  15.3085248  18.7968431  81.4691348   9.7825546  14.8691345  87.4673519
   9.6445344  14.1371584  88.0685058  10.6930470  14.7800245  87.1857706
  18.7440494  16.8079749  72.2157997  18.1269665  16.0826578  72.1191050
  18.2756982  17.5689110  71.8725071  12.4107847  14.5811304  86.9557198
  13.1207465  13.9404497  86.9143817  12.3677155  14.8324199  87.8783379
  20.3994626  21.5178658  89.8763777  20.3407172  20.8337878  89.2094360
  20.8014144  22.2597648  89.4244403   9.4185324  28.3340572  82.6697496
   9.6581923  28.9659096  83.3476515   8.5754521  27.9828612  82.9562856
  20.4012033  19.4818242  88.1077757  19.5138812  19.1444164  88.2304156
  20.9710584  18.7501273  88.3446522  13.9313186  24.1419694  85.0739000
  13.8583358  24.9474666  85.5858305  13.4890579  24.3411660  84.2487022
  13.7202966  23.3791464  78.5841822  12.9370488  23.9213144  78.6780046
  14.4195711  23.8965444  78.9836063  24.8829373  14.8926459  82.8694319
  24.8719250  15.7751175  82.4988252  24.0146753  14.5398010  82.6748856
  16.3911870  24.0406528  87.2297159  17.1039842  24.6753993  87.1573060
  15.9001898  24.1370394  86.4137161  18.1129397  17.9457781  78.8014451
  17.1785675  18.0659243  78.6319155  18.2906065  17.0430248  78.5374460
  21.5001948  13.7875100  79.3364485  21.9662400  14.6203092  79.2624787
  21.9509449  13.3220082  80.0409743  11.4423783  21.7900972  88.0502730
  12.1433243  22.4237455  88.2032124  10.9718898  22.1315703  87.2898369
  19.5678179  20.1318921  76.3350637  19.8438023  20.0175516  77.2444511
  18.6982678  19.7336406  76.2962810  19.2425069  14.3445579  85.8755280
  18.5896520  14.5921486  85.2207733  19.6205449  13.5309717  85.5417757
  16.2032243  24.3805272  79.9783450  16.3854638  23.5626928  80.4411203
  17.0265229  24.5972964  79.5408340  16.5374409  23.3073457  77.2398499
  17.0662175  22.7965912  76.6268661  16.8002628  22.9915988  78.1044032
  15.2912642  15.0865390  92.3621317  14.6153279  14.9859519  93.0323692
  16.1140276  14.9304604  92.8257314   7.0391501  21.3237327  84.9833832
   7.6244938  20.5781015  85.1161737   6.8416340  21.6341283  85.8670496
   9.8930157  24.3588574  79.9996275   9.2240532  24.8434702  79.5160315
   9.7543026  24.6057794  80.9139653  14.0335425  26.3932318  86.5978933
  14.5853733  26.5563939  87.3628018  14.3741619  26.9836755  85.9258958
  18.8846300  21.2193575  92.4527588  19.4286203  21.8323533  91.9582542
  18.3033144  21.7773153  92.9694601  17.1703812  24.3414293  83.5842615
  17.0454952  23.5404033  83.0753561  17.8282904  24.8360486  83.0956585
  19.2338721  22.1423313  85.2122165  18.2869056  22.0228664  85.1400492
  19.5821494  21.2545811  85.2948427  16.2385154  21.9376029  81.4126518
  16.0910117  21.0092737  81.5934088  17.0638648  21.9596120  80.9283593
  19.8419276  22.7604588  82.4991390  20.7665823  22.5547449  82.3615842
  19.6734579  22.5120989  83.4080732  19.6314592  23.2790256  77.8553482
  19.8051470  22.7136678  77.1027334  20.1243483  24.0791150  77.6732972
  25.4853983  16.0426678  79.4743782  25.9285129  15.2934004  79.0762905
  24.6080494  16.0336815  79.0917514  20.6189765  22.5957020  74.9550380
  21.3140669  23.2163713  75.1737695  20.9612915  21.7452371  75.2302758
  22.5181188  20.0456725  76.4837711  23.0432512  20.3843998  75.7587031
  22.4303540  19.1103741  76.3000846  14.1801237  23.9590799  88.6127588
  14.4888363  23.7139946  89.4850287  14.9776719  24.1637438  88.1246458
  14.2021849  26.1128709  80.8432964  13.7626839  25.6205087  81.5365821
  14.9529966  25.5701676  80.6025039   6.6814188  22.3040250  80.8457592
   7.5072207  22.0044021  80.4656236   6.3308240  21.5347872  81.2947381
  11.6495721  21.6566718  82.9155266  11.0275730  20.9937423  82.6157494
  12.3200588  21.6827850  82.2328914   4.8822793  20.2226576  81.8046526
   4.0454701  19.7948750  81.6230527   4.8546438  20.4159019  82.7417317
  22.2075094  20.6789629  91.7888909  21.4170638  20.6613768  91.2493408
  21.9708448  21.2177923  92.5437945  22.3272969  17.5282095  89.1021637
  22.3770974  17.3632103  90.0437160  22.2186892  16.6609355  88.7119518
  11.2109228  20.2070641  76.3913726  11.3597348  20.8906106  75.7380399
  12.0175671  20.1875731  76.9063182  19.6176731  13.5113024  90.4180944
  20.5186594  13.3719488  90.1264942  19.6924706  13.6767478  91.3579122
  23.8291166  19.9479037  89.3463659  23.5375974  20.3109018  90.1827120
  23.2163297  19.2346045  89.1676991  25.0286848  17.5131917  81.8666229
  25.8633739  17.9521721  82.0303790  25.1645977  17.0370570  81.0474475
  22.0778354  15.0711652  87.8143717  22.5532476  15.2639298  87.0062568
  21.1543919  15.1270837  87.5687101   8.9661861  16.2335819  77.3974795
   8.7207903  15.3298149  77.5955005   9.1357775  16.2352969  76.4554273
  14.7104633  22.7018772  73.8625474  14.1378600  23.3208959  73.4095946
  15.2837427  23.2518133  74.3965396  20.7780023  11.9477412  86.0472023
  21.7297446  12.0475509  86.0684247  20.6083473  11.1555680  86.5570107
  18.7994402   9.0332995  86.2331423  18.2044335   9.3138008  85.5377912
  18.5144099   9.5226896  87.0048165  17.9301893  22.9855922  74.9934056
  18.8632566  22.9201483  75.1966932  17.8425106  23.8212189  74.5348589
  20.5589910  22.3021792  71.9538004  20.4803541  21.9681656  72.8473761
  21.3799576  22.7943560  71.9529476  23.2568101  15.1683531  85.1614322
  23.2244421  14.2299532  85.3474006  23.8668724  15.2467568  84.4280147
  15.0951432  14.0379584  71.2041526  16.0410536  13.9085792  71.2729944
  14.7165677  13.2994246  71.6810954  23.4062589  11.9594575  85.2072605
  22.8901638  11.1753031  85.0202534  24.2902538  11.6313291  85.3719125
  29.0744651  16.2299538  84.3020359  29.8048039  15.9684826  84.8628062
  28.4651596  15.4928260  84.3422427  27.1559948  14.3707401  84.8994810
  26.4293111  14.2363366  84.2911302  26.7407235  14.6784229  85.7051528
  14.9790124  18.0897330  92.6642183  15.8993134  18.2675930  92.8582230
  14.9439707  17.1453376  92.5121882   7.9752197  15.9998365  85.3064964
   8.1938206  16.9315473  85.3252998   8.3877971  15.6406340  86.0919768
  20.2025770   7.6945022  78.4243614  19.6224439   8.3529826  78.0421666
  19.9361703   6.8722367  78.0131031  12.7111332  15.0028710  93.5132775
  12.2278414  15.8029070  93.7196664  12.7972271  15.0136655  92.5600219
   5.9797292  16.8357089  81.4354594   5.9567980  16.9344777  80.4836477
   6.2897928  17.6822240  81.7571760   8.6384670  18.8933244  85.5501209
   9.5927923  18.8617187  85.4831140   8.4397193  18.4323868  86.3651435
   9.2284052  17.4634361  88.1172006  10.0476941  17.9578439  88.1406844
   9.5020859  16.5466329  88.0889574  18.9850648   9.8545113  77.4799962
  18.0976503  10.1394763  77.2620157  19.4004637   9.6938876  76.6327239
  22.3365184   9.8791634  81.1954301  23.1125574  10.3688086  81.4678918
  21.6113318  10.3049688  81.6526171  24.7737743  10.5919253  82.2528242
  25.3682233  10.3514989  81.5421550  24.8464326   9.8726384  82.8801778
   6.9934898  24.4352864  82.5671407   6.8589366  23.6753265  82.0009405
   6.5766961  25.1593764  82.1000195  18.1293861  19.6189787  71.5747982
  18.8329711  19.8239790  72.1905637  17.4056510  20.1866549  71.8397065
  18.9591672  15.3699649  77.6950252  18.9026873  15.8268200  76.8557884
  19.5120014  14.6090333  77.5173095  22.7696478  11.1589381  78.5200372
  22.5133412  10.7586016  79.3508579  22.1449346  11.8733175  78.3950511
  27.0808815  13.8985454  81.0271663  26.5208373  13.9678643  81.8003225
  26.4752319  13.7226438  80.3071159  10.1504024  25.3322181  82.7789849
  10.0336408  26.2767613  82.6768539   9.3296471  25.0295743  83.1675648
  20.0380559  20.0572317  73.6246442  20.8726163  19.6253515  73.4423917
  19.8764902  19.8854330  74.5523336  19.6926451  16.5604430  74.9902781
  19.6375255  16.3948701  74.0491225  19.0672506  17.2680463  75.1464971
  17.0072358  18.8653342  94.3156344  17.8763518  19.0393994  93.9542979
  16.5279110  19.6847759  94.1932073  11.1758538  25.9850443  85.9945778
  12.0785785  26.0174053  86.3112273  10.9495908  25.0550894  86.0092113
  12.9312140  24.7381429  82.6555856  11.9807771  24.7383291  82.5420229
  13.2344627  23.9914164  82.1391891  28.6664834  30.5741968  83.7201619
  29.3043244  30.4548715  83.0164959  28.5485677  31.5222812  83.7789571
  25.4754540  30.5269396  83.6563143  25.1373052  30.4110461  82.7683678
  26.3444308  30.1260561  83.6364150  21.3341356  32.3804872  79.6460034
  20.7706221  32.2894809  78.8776322  21.2193751  31.5604777  80.1262527
  25.9574323  31.6804248  89.6149349  25.9462964  31.2857046  88.7429853
  26.1194963  30.9470320  90.2083120  18.8805788  33.8756064  82.4844255
  19.6727080  33.5346889  82.0690554  19.1202438  33.9851039  83.4046408
  26.9140915  36.0475840  74.9574499  26.2628894  36.6329920  74.5708513
  27.7085277  36.5782035  75.0169537  20.8396542  33.1364977  75.3561634
  21.6127418  32.5893964  75.2174509  21.1921941  34.0009226  75.5676095
  22.6781584  34.4641359  88.5628533  22.3871450  35.3686990  88.4475199
  23.3138569  34.5057887  89.2772602  23.6037791  31.8418208  85.1529893
  24.2001363  31.6174230  84.4386855  23.6612763  31.1002953  85.7555340
  23.1762820  29.2957643  72.9880083  23.4288340  28.7739165  72.2263546
  22.2387379  29.1323789  73.0906767  28.2206102  28.2993422  80.7954827
  29.0069192  27.8812845  80.4445244  28.4844807  29.2039514  80.9636475
  28.3916180  33.7366272  75.4943484  27.7562013  33.8100898  76.2064388
  28.0613586  34.3259871  74.8162563  22.8959108  31.1985749  75.1904458
  22.7795366  30.5230653  75.8585543  23.0061368  30.7118123  74.3736611
  25.2390649  30.6595896  78.8951148  24.8748856  30.1326517  79.6064069
  26.0957765  30.2694365  78.7217633  31.1439950  21.9490229  86.1582414
  30.8123275  22.8185640  85.9343629  30.5485563  21.6326513  86.8376444
  24.8796136  25.6885796  73.8912496  25.0470539  26.5566032  74.2582967
  24.6893305  25.8513078  72.9673785  27.6371469  34.1502775  85.5578327
  27.3372192  35.0527814  85.4494134  27.2922529  33.8834958  86.4099479
  21.0883951  30.6016572  81.5915031  20.1634447  30.4692786  81.7992723
  21.3368364  31.3810791  82.0884973  31.0368613  26.6685315  83.2375764
  30.1285490  26.6000724  82.9434525  30.9856209  27.1457260  84.0657589
  24.8585357  28.1443454  74.8759163  24.7384982  28.5900504  75.7144643
  24.1637945  28.4928771  74.3172701  18.4492762  30.2449845  82.4258820
  18.5785143  30.4984324  83.3398232  17.7690213  30.8377553  82.1063475
  22.6192249  40.9147095  78.5249294  22.5416279  41.8654920  78.6037775
  22.0153893  40.5692968  79.1824221  25.1109479  28.0874961  91.1810661
  24.3342813  28.6468881  91.1713526  25.7500042  28.5731744  91.7025531
  32.9030260  24.8701754  85.0153638  32.2604640  25.1634287  84.3693432
  32.3985188  24.7554674  85.8206834  30.5570423  28.6164927  75.7039497
  31.4688279  28.8492313  75.5287195  30.0480070  29.2001971  75.1414576
  23.3655851  30.8960414  90.7428628  24.1070536  31.4345458  90.4663452
  22.6592837  31.5226703  90.9000180  28.8411191  33.0389555  89.3400790
  29.2494547  32.5971965  88.5955422  28.1188452  32.4642182  89.5934983
  25.1942261  27.9762161  86.7134347  26.0403456  28.4001575  86.8568996
  25.1340899  27.3195786  87.4072910  29.1640006  33.5990745  83.0953079
  28.5348868  33.7636459  82.3929146  28.7765668  34.0132355  83.8664043
  33.0429237  34.5345183  80.4497442  32.3580276  34.9144084  79.8994476
  33.1273087  35.1440510  81.1829390  28.3441706  25.6366530  88.3715520
  28.1002638  26.3908590  87.8349796  28.6201637  26.0151877  89.2062767
  30.2980169  32.1805142  87.0492786  30.5097064  32.8236902  86.3727167
  30.2509917  31.3467459  86.5814716  27.9006398  24.7922963  83.9529358
  27.0390877  25.0904216  84.2446096  27.9268833  25.0093362  83.0210391
  24.7167967  33.3365153  80.3603164  25.1806313  33.6152856  79.5707786
  24.4524766  32.4348598  80.1776254  21.6092048  32.8836635  83.2982927
  22.1793406  33.3123903  82.6600411  22.2000160  32.6019220  83.9967113
  23.6536853  29.4588306  77.1692729  24.3560897  29.9109349  77.6366655
  23.3217482  28.8172124  77.7972622  22.1017215  28.0500062  91.5443938
  21.4715876  28.7316343  91.7779335  21.9953303  27.9383144  90.5997076
  17.3962187  27.7171858  82.4709862  16.6061241  27.9729387  81.9949973
  17.8873435  28.5320196  82.5761903  31.4125997  35.0577097  85.2215143
  32.2343441  34.6557285  84.9397825  31.4088400  34.9545332  86.1731259
  19.3476933  28.0816438  79.4293339  18.5508096  28.1935132  79.9476835
  19.1202525  28.4203090  78.5634230  25.1782600  34.6061141  87.3775854
  25.2427033  35.0681548  88.2134025  24.4693524  33.9758506  87.5058164
  15.6799890  27.9702349  84.9024853  15.9307929  28.8549359  85.1682429
  16.2159439  27.7906950  84.1299945  24.8930618  36.2729248  77.2454834
  24.7576293  37.1180784  77.6739682  25.4340431  36.4748526  76.4820768
  21.3797958  22.3520828  93.9069189  20.9864903  21.7987027  94.5816833
  22.1964098  22.6631407  94.2975707  18.3460015  33.7904686  77.8182759
  18.8584536  34.5847937  77.9688324  18.9982728  33.0930977  77.7516361
  20.1554900  36.9070443  79.9005512  20.3321529  37.8288407  79.7126496
  20.9511734  36.5928862  80.3299892  24.2965919  23.7678707  91.4989446
  25.0375632  24.3685860  91.4193908  24.5283842  23.0256345  90.9407488
  19.4407257  28.9535074  89.7767675  19.3260772  28.0520332  90.0774774
  18.5851774  29.1998771  89.4252492  26.5199094  36.8952815  91.3755176
  26.0762949  36.1089193  91.0576081  27.1816308  37.0831965  90.7099067
  21.2786216  38.4248616  85.9015855  21.8293641  38.2965680  85.1292849
  20.4397692  38.7243505  85.5510747  28.6180333  37.1755615  89.4036577
  28.5998808  37.9964496  88.9116847  29.5400253  37.0509690  89.6286719
  25.0753387  34.6899744  90.2460086  25.6081723  33.9288032  90.0159394
  24.5467468  34.3973396  90.9884240  28.2423082  19.7959810  85.7753727
  27.8987351  20.6861452  85.6992838  28.6102044  19.6061468  84.9123312
  16.3108932  32.1193341  78.5942330  17.1484154  32.5290349  78.3776037
  16.4887200  31.1792783  78.5642523  28.2073364  29.7868421  74.2826163
  27.6919988  30.5573026  74.5214550  27.9350673  29.1133557  74.9059224
  25.7920475  24.6318122  79.3411401  24.9362072  24.2424972  79.1617040
  26.2047427  24.7110083  78.4811186  27.3219622  22.1664465  83.7402961
  26.8184418  22.1294600  82.9270766  27.6150229  23.0757208  83.7999617
  23.5662508  22.2503195  82.7469142  24.4315505  22.0546004  82.3875032
  23.6340017  22.0213547  83.6738499  33.1807639  32.5400776  76.2179336
  32.4037081  32.2011935  75.7734498  33.8599119  32.5453399  75.5434301
  27.9959668  27.6595513  76.1085944  27.6909803  27.9741663  76.9596087
  28.9490110  27.7376933  76.1513277  26.4406099  33.8185737  77.7578898
  25.9127461  33.0838496  77.4452135  25.9393602  34.5960413  77.5118866
  31.4198945  32.0134757  82.8745944  30.7622620  32.7034019  82.9626073
  32.2239345  32.4031189  83.2179930  21.1724827  24.4805403  80.1185509
  21.7468579  24.2580584  79.3858702  21.7595809  24.5494097  80.8714111
  30.2304404  30.3679130  80.9249886  30.7436286  31.0009122  81.4271596
  30.8805628  29.7680325  80.5593246  21.4994414  26.5109864  74.1381395
  20.6631726  26.8484551  74.4590669  21.3599184  26.3758844  73.2008531
  23.4747495  21.3546652  78.8460579  22.8211907  21.0395669  78.2217193
  23.4327969  20.7322392  79.5720402  24.5858700  31.6365947  70.7613871
  23.6785761  31.4055200  70.9605020  25.0829732  30.8403566  70.9487852
  27.4926778  40.3463454  73.6810557  26.8188477  40.6495151  74.2895515
  27.8792600  41.1492534  73.3316014  26.7085235  27.8428585  83.1708226
  25.7907796  28.0643532  83.0129914  27.1245379  27.9174896  82.3119934
  27.4920283  29.2420001  78.3010907  28.2392102  29.7541398  77.9918029
  27.7611872  28.9204054  79.1615300  25.7646933  31.7378542  75.2837861
  24.8558152  31.4537575  75.3810331  25.7942017  32.1577620  74.4241168
  30.9966200  35.3485131  79.0529028  30.5428528  34.5076041  79.1094219
  30.3660167  35.9846530  79.3903809  29.9399120  26.2777117  80.2829696
  29.2021877  25.7654504  80.6139938  30.1925894  25.8377499  79.4712973
  29.4399140  37.1861628  79.9878847  29.7322114  37.7466685  79.2691212
  29.9497760  37.4790189  80.7432006  30.0410747  19.0553369  80.8771465
  30.3469624  18.1950733  80.5897380  30.7663352  19.6470990  80.6770459
  16.3335103  29.4584056  79.2653063  16.1359503  28.8653417  78.5404130
  15.7781767  29.1536266  79.9829002  24.3131827  29.3507162  81.3847656
  24.3680437  28.3980999  81.3090133  23.5023029  29.5066601  81.8688955
  25.4623021  33.2787285  72.6225939  25.0242451  32.5623144  72.1631577
  26.2033462  33.5063400  72.0611031  22.2524187  27.9684222  79.1438035
  21.4392053  28.2678393  79.5503227  22.7483181  27.5739911  79.8612517
  24.4032765  37.9641979  81.0772300  24.3608944  38.1902825  80.1480832
  25.3195464  37.7305354  81.2258101  27.8498399  28.4326047  87.9752929
  28.2047786  28.6597520  88.8347395  28.4970530  28.7644423  87.3530184
  33.5796136  31.5544482  78.6802258  33.4414034  31.7446078  77.7523447
  33.2232354  32.3163865  79.1370309  21.7438262  25.5402578  84.7599270
  22.3837641  25.3991337  84.0622233  20.9115792  25.2537091  84.3837872
  33.6065515  33.6221009  83.6913529  34.0402022  33.5296299  84.5396584
  34.3197096  33.5978510  83.0533545  22.5198566  34.8405008  80.8734262
  23.3139164  34.3455328  80.6716837  21.8090258  34.3122871  80.5101968
  27.3393410  37.2223104  85.2246630  27.3930432  37.7914040  85.9924346
  26.4708191  37.3924989  84.8600667  18.8281329  28.9848090  76.9494015
  17.8978917  28.9232545  77.1663977  18.9238801  28.4624043  76.1530656
  18.7466878  25.5102903  79.5372257  19.0073695  26.4248236  79.4281417
  19.5684050  25.0427345  79.6868870  20.2191803  26.9240660  86.7071081
  20.8914857  26.7158022  86.0583730  19.3921590  26.7262746  86.2676314
  34.4681065  33.6644710  86.2246415  34.6616955  34.5690521  86.4705690
  34.3681683  33.2052129  87.0585000  26.1217375  23.5502601  88.7236742
  25.4745291  24.2492550  88.6301219  26.8918391  23.9838745  89.0912990
  29.5296173  33.8151453  91.7987296  29.3781680  33.5862005  90.8817379
  29.5200853  34.7722054  91.8118641  26.2981510  31.3883366  86.7833562
  27.2273570  31.5394525  86.6102529  25.8772540  31.4767386  85.9282208
  25.0969842  35.4134030  84.5532100  24.9580927  35.0452814  85.4258038
  24.3084438  35.9281669  84.3816057  26.6475057  34.7915633  81.9420937
  26.3124889  34.7516403  82.8378587  26.1479002  34.1260349  81.4691348
  20.6219301  30.1983263  87.4673519  20.4839099  29.4663502  88.0685058
  21.5324224  30.1092163  87.1857706  29.5834248  32.1371667  72.2157997
  28.9663419  31.4118495  72.1191050  29.1150737  32.8981027  71.8725071
  23.2501601  29.9103222  86.9557198  23.9601220  29.2696414  86.9143817
  23.2070910  30.1616117  87.8783379  31.2388380  36.8470575  89.8763777
  31.1800926  36.1629796  89.2094360  31.6407898  37.5889565  89.4244403
  21.9630535  26.8968440  88.7752838  21.4267892  26.4459178  89.4274434
  21.3747244  27.0314349  88.0323302  20.2579079  43.6632489  82.6697496
  20.4975677  44.2951013  83.3476515  19.4148275  43.3120529  82.9562856
  21.3732794  26.3557091  71.3379301  20.4962261  26.2345892  70.9741548
  21.8490547  25.5643170  71.0858190  31.2405787  34.8110159  88.1077757
  30.3532566  34.4736081  88.2304156  31.8104338  34.0793191  88.3446522
  12.8934934  31.1434251  81.4320808  13.5805974  30.8295981  80.8441824
  12.7383063  32.0475616  81.1588060  17.6969657  26.0324448  85.8605832
  17.6127845  25.4250117  85.1256242  16.8752363  26.5233466  85.8615328
  24.7706941  39.4711612  85.0739000  24.6977112  40.2766583  85.5858305
  24.3284334  39.6703578  84.2487022  24.5596720  38.7083382  78.5841822
  23.7764242  39.2505062  78.6780046  25.2589466  39.2257361  78.9836063
  27.8693370  24.5178011  81.2276027  28.3662070  23.7647974  80.9077097
  27.0980352  24.5542328  80.6619237  35.7223128  30.2218377  82.8694319
  35.7113004  31.1043092  82.4988252  34.8540507  29.8689928  82.6748856
  27.2305624  39.3698446  87.2297159  27.9433596  40.0045911  87.1573060
  26.7395653  39.4662312  86.4137161  28.9523151  33.2749698  78.8014451
  28.0179430  33.3951161  78.6319155  29.1299820  32.3722165  78.5374460
  24.4528339  26.6595394  80.9547712  24.0826127  26.1066435  81.6428617
  24.9487432  26.0553528  80.4022712  22.2817538  37.1192889  88.0502730
  22.9826997  37.7529372  88.2032124  21.8112653  37.4607621  87.2898369
  30.4071934  35.4610839  76.3350637  30.6831778  35.3467434  77.2444511
  29.5376432  35.0628324  76.2962810  30.3112365  21.4847605  83.3755386
  29.3975445  21.7151832  83.5437593  30.7405467  21.5686049  84.2269418
  30.0818824  29.6737497  85.8755280  29.4290274  29.9213404  85.2207733
  30.4599204  28.8601635  85.5417757  27.3768163  38.6365375  77.2398499
  27.9055930  38.1257830  76.6268661  27.6396383  38.3207905  78.1044032
  26.1306397  30.4157308  92.3621317  25.4547034  30.3151437  93.0323692
  26.9534031  30.2596521  92.8257314  17.8785256  36.6529244  84.9833832
  18.4638693  35.9072932  85.1161737  17.6810094  36.9633201  85.8670496
  20.7323911  39.6880492  79.9996275  20.0634286  40.1726619  79.5160315
  20.5936781  39.9349712  80.9139653  12.4702911  29.2234844  83.7038276
  12.5087010  28.6898435  84.4975394  11.9643203  28.6970050  83.0849253
  24.8729180  41.7224235  86.5978933  25.4247488  41.8855857  87.3628018
  25.2135373  42.3128673  85.9258958  19.8493673  24.0699385  87.2000818
  19.9134999  24.9314216  86.7878216  19.7860793  23.4573387  86.4673176
  19.3245945  26.1422518  90.8473852  19.9517984  25.7599595  91.4611376
  18.4673864  25.9236719  91.2129545  29.7240054  36.5485493  92.4527588
  30.2679958  37.1615451  91.9582542  29.1426899  37.1065071  92.9694601
  16.1011488  27.9498947  76.7792207  16.3964929  27.0409625  76.7259261
  15.1999524  27.9286686  76.4573209  28.0097567  39.6706211  83.5842615
  27.8848706  38.8695951  83.0753561  28.6676658  40.1652404  83.0956585
  19.6305735  26.0254943  82.7619756  18.9092321  26.6390911  82.6227229
  20.4198991  26.5612708  82.6836401  30.0732475  37.4715231  85.2122165
  29.1262811  37.3520582  85.1400492  30.4215248  36.5837729  85.2948427
  22.4332049  23.3609370  89.0360407  22.9566451  23.6071666  89.7986717
  22.2144382  24.1929405  88.6163545  17.8299330  25.6313044  76.9031532
  17.5012036  24.7510423  76.7206638  18.1838700  25.5760713  77.7907921
  27.0778909  37.2667947  81.4126518  26.9303871  36.3384654  81.5934088
  27.9032402  37.2888038  80.9283593  20.9441153  25.9186014  77.2707010
  21.2837225  26.4471935  76.5485618  21.3913273  26.2566420  78.0465576
  30.6813030  38.0896506  82.4991390  31.6059578  37.8839367  82.3615842
  30.5128334  37.8412907  83.4080732  23.6384594  24.3023065  86.7210078
  23.2981414  23.5030878  87.1230758  22.9323600  24.6024776  86.1486911
  24.2901066  21.3872377  85.1737401  25.1127135  20.9132855  85.0516291
  24.5339129  22.1662861  85.6736087  22.9309300  24.4160636  75.4700303
  23.6517663  24.7941888  74.9664019  22.3074604  25.1349513  75.5735280
  27.0740423  25.1205785  76.4058635  27.2904037  26.0030423  76.1047463
  26.5934490  24.7291998  75.6764277  21.8139644  28.0791498  82.9829379
  21.6684225  28.3931801  83.8753661  21.3364848  28.6976398  82.4300278
  23.6736027  25.0694046  83.0310269  23.6597596  24.1735139  82.6942567
  24.3908455  25.0764710  83.6648555  25.5262158  25.5031386  85.0763396
  25.2679936  26.4248457  85.0747727  24.9947198  25.1061821  85.7663861
  30.4708347  38.6082173  77.8553482  30.6445224  38.0428596  77.1027334
  30.9637238  39.4083068  77.6732972  16.2885306  30.6196842  85.9217041
  15.7438775  31.3956650  86.0537315  17.1664656  30.9667647  85.7636162
  23.0772923  23.9508426  78.2997839  23.1988834  23.0225072  78.4988727
  22.7874966  23.9647112  77.3876155  25.9464114  21.6363337  81.4364559
  25.9685810  21.7002670  80.4816539  26.3632173  20.7967845  81.6305065
  31.4583519  37.9248938  74.9550380  32.1534424  38.5455630  75.1737695
  31.8006669  37.0744289  75.2302758  17.0751328  29.7466739  88.8147198
  16.3333064  29.8949374  89.4011828  16.7544073  30.0075004  87.9513947
  33.3574942  35.3748643  76.4837711  33.8826266  35.7135916  75.7587031
  33.2697295  34.4395658  76.3000846  25.0194991  39.2882717  88.6127588
  25.3282117  39.0431864  89.4850287  25.8170473  39.4929355  88.1246458
  17.5207942  37.6332167  80.8457592  18.3465962  37.3335939  80.4656236
  17.1701994  36.8639790  81.2947381  22.4889475  36.9858636  82.9155266
  21.8669484  36.3229341  82.6157494  23.1594342  37.0119767  82.2328914
  15.7216547  35.5518494  81.8046526  14.8848455  35.1240668  81.6230527
  15.6940192  35.7450937  82.7417317  22.5614003  25.4640424  92.5087772
  22.6102158  26.3402546  92.1265541  23.1036517  24.9217817  91.9359415
  33.0468848  36.0081547  91.7888909  32.2564392  35.9905686  91.2493408
  32.8102203  36.5469840  92.5437945  33.1666723  32.8574013  89.1021637
  33.2164728  32.6924021  90.0437160  33.0580647  31.9901272  88.7119518
  22.0502982  35.5362559  76.3913726  22.1991102  36.2198023  75.7380399
  22.8569426  35.5167649  76.9063182  30.4570486  28.8404941  90.4180944
  31.3580349  28.7011406  90.1264942  30.5318460  29.0059396  91.3579122
  24.7913291  26.2171796  89.2634130  23.9216601  26.5105362  88.9916719
  25.0272771  26.8012241  89.9841394  34.6684920  35.2770955  89.3463659
  34.3769729  35.6400935  90.1827120  34.0557052  34.5637963  89.1676991
  35.8680603  32.8423834  81.8666229  36.7027494  33.2813639  82.0303790
  36.0039731  32.3662488  81.0474475  32.9172108  30.4003569  87.8143717
  33.3926230  30.5931216  87.0062568  31.9937674  30.4562755  87.5687101
  19.8055615  31.5627736  77.3974795  19.5601657  30.6590066  77.5955005
  19.9751530  31.5644887  76.4554273  27.4952325  22.4351413  86.7799551
  28.0134269  23.1712440  86.4546039  27.1407458  22.7415406  87.6146310
  19.0751263  27.2956094  74.8960957  18.3820508  27.3700449  74.2400993
  18.8303015  26.5316438  75.4182474  27.7464919  18.8551695  82.3000447
  28.0266673  18.1874884  82.9260874  28.5315526  19.0480791  81.7875111
  25.5498388  38.0310689  73.8625474  24.9772355  38.6500876  73.4095946
  26.1231181  38.5810051  74.3965396  31.6173777  27.2769329  86.0472023
  32.5691200  27.3767427  86.0684247  31.4477228  26.4847598  86.5570107
  29.6388157  24.3624913  86.2331423  29.0438089  24.6429925  85.5377912
  29.3537854  24.8518814  87.0048165  28.7695647  38.3147839  74.9934056
  29.7026321  38.2493401  75.1966932  28.6818860  39.1504106  74.5348589
  31.3983664  37.6313710  71.9538004  31.3197296  37.2973573  72.8473761
  32.2193331  38.1235478  71.9529476  34.0961855  30.4975449  85.1614322
  34.0638175  29.5591450  85.3474006  34.7062479  30.5759486  84.4280147
  25.9345186  29.3671502  71.2041526  26.8804291  29.2377710  71.2729944
  25.5559431  28.6286164  71.6810954  34.2456344  27.2886493  85.2072605
  33.7295392  26.5044949  85.0202534  35.1296292  26.9605209  85.3719125
  31.9067071  21.0327508  81.1668418  31.7091892  20.7242596  82.0511750
  32.5166776  21.7589147  81.2966348  37.9953702  29.6999318  84.8994810
  37.2686866  29.5655283  84.2911302  37.5800989  30.0076147  85.7051528
  25.8183879  33.4189248  92.6642183  26.7386888  33.5967847  92.8582230
  25.7833462  32.4745294  92.5121882  24.1188103  27.2921478  71.1396411
  23.2119559  26.9954591  71.2159125  24.3964084  26.9951297  70.2730698
  15.0366044  28.6127842  81.5895458  14.7168828  27.7593150  81.2969832
  14.4899472  28.8276420  82.3453425  18.8145951  31.3290283  85.3064964
  19.0331961  32.2607391  85.3252998  19.2271725  30.9698257  86.0919768
  25.7350169  21.8358368  77.2940653  24.9250897  21.4905453  77.6695899
  26.4234586  21.5265912  77.8828264  27.6640717  20.9136415  78.9164949
  28.2171756  21.3331868  79.5754972  27.9010804  19.9872163  78.9587905
  23.6873817  26.9023489  94.6967713  23.5870543  27.8517846  94.6279804
  23.4695359  26.5741727  93.8243783  22.8886888  24.1508414  71.2808391
  23.7506052  24.4763312  71.5404208  23.0737232  23.3639910  70.7681456
  14.9054304  32.2330753  83.5588579  14.2117775  31.8184706  83.0458534
  15.6527295  32.2751290  82.9621998  31.0419524  23.0236940  78.4243614
  30.4618193  23.6821744  78.0421666  30.7755457  22.2014285  78.0131031
  29.4923091  22.4241998  80.6264934  29.9922869  22.5358532  79.8179253
  30.1358699  22.1203051  81.2665742  23.5505087  30.3320627  93.5132775
  23.0672168  31.1320988  93.7196664  23.6366026  30.3428572  92.5600219
  16.8191046  32.1649007  81.4354594  16.7961734  32.2636694  80.4836477
  17.1291683  33.0114158  81.7571760  19.4778424  34.2225162  85.5501209
  20.4321678  34.1909104  85.4831140  19.2790948  33.7615786  86.3651435
  20.0677806  32.7926278  88.1172006  20.8870695  33.2870357  88.1406844
  20.3414614  31.8758246  88.0889574  29.8244402  25.1837030  77.4799962
  28.9370257  25.4686681  77.2620157  30.2398391  25.0230794  76.6327239
  33.1758939  25.2083551  81.1954301  33.9519329  25.6980004  81.4678918
  32.4507073  25.6341606  81.6526171  17.8328653  39.7644782  82.5671407
  17.6983121  39.0045183  82.0009405  17.4160715  40.4885681  82.1000195
  28.9687616  34.9481705  71.5747982  29.6723466  35.1531708  72.1905637
  28.2450265  35.5158467  71.8397065  29.7985426  30.6991566  77.6950252
  29.7420628  31.1560118  76.8557884  30.3513769  29.9382251  77.5173095
  20.9897779  40.6614099  82.7789849  20.8730163  41.6059531  82.6768539
  20.1690225  40.3587660  83.1675648  30.8774313  35.3864234  73.6246442
  31.7119917  34.9545433  73.4423917  30.7158656  35.2146248  74.5523336
  30.5320205  31.8896348  74.9902781  30.4769009  31.7240619  74.0491225
  29.9066261  32.5972381  75.1464971  15.3212720  27.1264412  88.8164203
  15.9671584  26.6163366  89.3051429  15.1129872  27.8633094  89.3907629
  27.8466113  34.1945260  94.3156344  28.7157272  34.3685912  93.9542979
  27.3672864  35.0139676  94.1932073  23.8416331  21.3904457  74.5688100
  23.8295001  22.3346297  74.7256370  24.7339753  21.2074602  74.2747561
  22.0152293  41.3142361  85.9945778  22.9179540  41.3465971  86.3112273
  21.7889663  40.3842811  86.0092113  23.7705895  40.0673347  82.6555856
  22.8201526  40.0675209  82.5420229  24.0738381  39.3206082  82.1391891
  27.6568450  17.9847233  78.8234036  26.8900846  17.4305720  78.9690719
  28.0679155  18.0569102  79.6848188  19.6610211  24.2732029  92.9139218
  20.5241673  23.9168834  93.1242542  19.0875622  23.9345924  93.6014622
  35.9503233  43.4166878  91.1810661  35.1736567  43.9760799  91.1713526
  36.5893796  43.9023661  91.7025531  34.2049606  46.2252332  90.7428628
  34.9464290  46.7637376  90.4663452  33.4986591  46.8518621  90.9000180
  32.9410969  43.3791980  91.5443938  32.3109630  44.0608261  91.7779335
  32.8347057  43.2675062  90.5997076  32.2191712  37.6812746  93.9069189
  31.8258658  37.1278944  94.5816833  33.0357853  37.9923324  94.2975707
  35.1359673  39.0970625  91.4989446  35.8769387  39.6977778  91.4193908
  35.3677596  38.3548263  90.9407488  30.2801011  44.2826992  89.7767675
  30.1654526  43.3812249  90.0774774  29.4245529  44.5290689  89.4252492
  39.0816836  35.1251728  85.7753727  38.7381106  36.0153369  85.6992838
  39.4495799  34.9353385  84.9123312  36.6314230  39.9610040  79.3411401
  35.7755826  39.5716890  79.1617040  37.0441182  40.0402001  78.4811186
  38.1613377  37.4956383  83.7402961  37.6578172  37.4586518  82.9270766
  38.4543983  38.4049126  83.7999617  34.4056262  37.5795113  82.7469142
  35.2709259  37.3837921  82.3875032  34.4733771  37.3505464  83.6738499
  34.3141249  36.6838570  78.8460579  33.6605662  36.3687587  78.2217193
  34.2721723  36.0614310  79.5720402  36.9611130  38.8794518  88.7236742
  36.3139045  39.5784468  88.6301219  37.7312145  39.3130662  89.0912990
  31.4613055  45.5275180  87.4673519  31.3232853  44.7955419  88.0685058
  32.3717979  45.4384081  87.1857706  32.8024290  42.2260358  88.7752838
  32.2661647  41.7751096  89.4274434  32.2140998  42.3606267  88.0323302
  28.5363411  41.3616365  85.8605832  28.4521600  40.7542035  85.1256242
  27.7146118  41.8525384  85.8615328  38.7087125  39.8469929  81.2276027
  39.2055825  39.0939891  80.9077097  37.9374106  39.8834246  80.6619237
  36.9700151  45.7449225  92.3621317  36.2940788  45.6443355  93.0323692
  37.7927785  45.5888439  92.8257314  30.6887427  39.3991303  87.2000818
  30.7528754  40.2606134  86.7878216  30.6254548  38.7865304  86.4673176
  30.1639700  41.4714435  90.8473852  30.7911739  41.0891513  91.4611376
  29.3067619  41.2528637  91.2129545  33.2725803  38.6901287  89.0360407
  33.7960205  38.9363584  89.7986717  33.0538136  39.5221322  88.6163545
  34.4778348  39.6314983  86.7210078  34.1375169  38.8322796  87.1230758
  33.7717355  39.9316693  86.1486911  35.1294820  36.7164295  85.1737401
  35.9520889  36.2424773  85.0516291  35.3732884  37.4954779  85.6736087
  37.9134177  40.4497702  76.4058635  38.1297792  41.3322340  76.1047463
  37.4328245  40.0583916  75.6764277  36.3655912  40.8323304  85.0763396
  36.1073690  41.7540374  85.0747727  35.8340953  40.4353738  85.7663861
  33.9166678  39.2800344  78.2997839  34.0382589  38.3516990  78.4988727
  33.6268720  39.2939030  77.3876155  36.7857868  36.9655254  81.4364559
  36.8079565  37.0294587  80.4816539  37.2025927  36.1259763  81.6305065
  27.9145083  45.0758656  88.8147198  27.1726819  45.2241292  89.4011828
  27.5937827  45.3366922  87.9513947  33.4007757  40.7932341  92.5087772
  33.4495913  41.6694464  92.1265541  33.9430271  40.2509734  91.9359415
  35.6307046  41.5463714  89.2634130  34.7610355  41.8397280  88.9916719
  35.8666526  42.1304159  89.9841394  38.3346079  37.7643331  86.7799551
  38.8528023  38.5004357  86.4546039  37.9801212  38.0707324  87.6146310
  36.5743923  37.1650286  77.2940653  35.7644652  36.8197371  77.6695899
  37.2628340  36.8557830  77.8828264  38.5034472  36.2428333  78.9164949
  39.0565510  36.6623786  79.5754972  38.7404558  35.3164081  78.9587905
  34.5267571  42.2315406  94.6967713  34.4264298  43.1809763  94.6279804
  34.3089113  41.9033645  93.8243783  33.7280642  39.4800331  71.2808391
  34.5899806  39.8055230  71.5404208  33.9130987  38.6931827  70.7681456
  41.8813279  38.3528858  78.4243614  41.3011948  39.0113662  78.0421666
  41.6149212  37.5306202  78.0131031  40.3316845  37.7533916  80.6264934
  40.8316624  37.8650450  79.8179253  40.9752453  37.4494968  81.2665742
  34.3898841  45.6612545  93.5132775  33.9065923  46.4612905  93.7196664
  34.4759780  45.6720490  92.5600219  26.1606475  42.4556330  88.8164203
  26.8065339  41.9455284  89.3051429  25.9523626  43.1925011  89.3907629
  34.6810085  36.7196374  74.5688100  34.6688755  37.6638214  74.7256370
  35.5733507  36.5366520  74.2747561  30.5003966  39.6023947  92.9139218
  31.3635427  39.2460752  93.1242542  29.9269377  39.2637842  93.6014622
  40.5593297  64.5339899  82.4844255  41.3514589  64.1930724  82.0690554
  40.7989947  64.6434874  83.4046408  48.5928424  66.7059675  74.9574499
  47.9416403  67.2913756  74.5708513  49.3872786  67.2365870  75.0169537
  44.3569093  65.1225195  88.5628533  44.0658959  66.0270826  88.4475199
  44.9926078  65.1641722  89.2772602  50.0703689  64.3950107  75.4943484
  49.4349522  64.4684734  76.2064388  49.7401095  64.9843706  74.8162563
  44.2979758  71.5730931  78.5249294  44.2203788  72.5238756  78.6037775
  43.6941402  71.2276803  79.1824221  54.7216746  65.1929018  80.4497442
  54.0367785  65.5727920  79.8994476  54.8060596  65.8024345  81.1829390
  46.8570109  65.2644976  87.3775854  46.9214542  65.7265383  88.2134025
  46.1481033  64.6342341  87.5058164  61.1819499  62.0599681  81.5700115
  60.4283207  61.4907079  81.4144119  61.3167040  62.0262346  82.5170749
  46.5718127  66.9313084  77.2454834  46.4363802  67.7764619  77.6739682
  47.1127940  67.1332361  76.4820768  41.8342409  67.5654278  79.9005512
  42.0109037  68.4872243  79.7126496  42.6299243  67.2512697  80.3299892
  48.1986603  67.5536650  91.3755176  47.7550458  66.7673029  91.0576081
  48.8603817  67.7415801  90.7099067  42.9573725  69.0832452  85.9015855
  43.5081150  68.9549515  85.1292849  42.1185201  69.3827341  85.5510747
  50.2967842  67.8339450  89.4036577  50.2786317  68.6548331  88.9116847
  51.2187762  67.7093525  89.6286719  46.7540896  65.3483580  90.2460086
  47.2869232  64.5871868  90.0159394  46.2254977  65.0557231  90.9884240
  49.1714287  71.0047289  73.6810557  48.4975986  71.3078986  74.2895515
  49.5580109  71.8076370  73.3316014  52.6753709  66.0068967  79.0529028
  52.2216037  65.1659877  79.1094219  52.0447676  66.6430365  79.3903809
  51.1186649  67.8445463  79.9878847  51.4109623  68.4050520  79.2691212
  51.6285269  68.1374024  80.7432006  46.0820274  68.6225814  81.0772300
  46.0396453  68.8486661  80.1480832  46.9982973  68.3889189  81.2258101
  49.0180919  67.8806939  85.2246630  49.0717941  68.4497875  85.9924346
  48.1495700  68.0508824  84.8600667  51.2083682  64.4735288  91.7987296
  51.0569189  64.2445840  90.8817379  51.1988362  65.4305890  91.8118641
  46.7757351  66.0717865  84.5532100  46.6368436  65.7036650  85.4258038
  45.9871947  66.5865505  84.3816057  47.3705503  71.1726962  75.8957636
  47.5457258  70.7015005  76.7103259  46.6838291  71.7992728  76.1238897
  52.9175889  67.5054411  89.8763777  52.8588435  66.8213631  89.2094360
  53.3195407  68.2473401  89.4244403  41.9366588  74.3216325  82.6697496
  42.1763186  74.9534849  83.3476515  41.0935784  73.9704365  82.9562856
  46.4494450  70.1295447  85.0739000  46.3764621  70.9350419  85.5858305
  46.0071843  70.3287413  84.2487022  46.2384229  69.3667217  78.5841822
  45.4551751  69.9088897  78.6780046  46.9376975  69.8841197  78.9836063
  48.9093133  70.0282281  87.2297159  49.6221105  70.6629746  87.1573060
  48.4183162  70.1246147  86.4137161  43.9605047  67.7776725  88.0502730
  44.6614506  68.4113208  88.2032124  43.4900162  68.1191456  87.2898369
  52.0859443  66.1194674  76.3350637  52.3619287  66.0051269  77.2444511
  51.2163941  65.7212159  76.2962810  48.7213507  70.3681025  79.9783450
  48.9035901  69.5502681  80.4411203  49.5446493  70.5848717  79.5408340
  49.0555672  69.2949210  77.2398499  49.5843439  68.7841665  76.6268661
  49.3183892  68.9791741  78.1044032  39.5572765  67.3113080  84.9833832
  40.1426202  66.5656768  85.1161737  39.3597603  67.6217036  85.8670496
  42.4111420  70.3464327  79.9996275  41.7421795  70.8310455  79.5160315
  42.2724290  70.5933547  80.9139653  46.5516689  72.3808071  86.5978933
  47.1034997  72.5439692  87.3628018  46.8922882  72.9712508  85.9258958
  51.4027563  67.2069328  92.4527588  51.9467467  67.8199286  91.9582542
  50.8214408  67.7648906  92.9694601  49.6885076  70.3290046  83.5842615
  49.5636215  69.5279786  83.0753561  50.3464167  70.8236239  83.0956585
  51.7519984  68.1299066  85.2122165  50.8050320  68.0104417  85.1400492
  52.1002757  67.2421564  85.2948427  48.7566418  67.9251782  81.4126518
  48.6091380  66.9968490  81.5934088  49.5819911  67.9471873  80.9283593
  52.3600539  68.7480341  82.4991390  53.2847087  68.5423202  82.3615842
  52.1915843  68.4996742  83.4080732  52.1495856  69.2666009  77.8553482
  52.3232733  68.7012431  77.1027334  52.6424747  70.0666903  77.6732972
  53.1371028  68.5832773  74.9550380  53.8321933  69.2039466  75.1737695
  53.4794178  67.7328124  75.2302758  46.6982500  69.9466552  88.6127588
  47.0069626  69.7015699  89.4850287  47.4957982  70.1513191  88.1246458
  46.7203112  72.1004462  80.8432964  46.2808102  71.6080840  81.5365821
  47.4711229  71.5577429  80.6025039  39.1995451  68.2916003  80.8457592
  40.0253471  67.9919774  80.4656236  38.8489503  67.5223625  81.2947381
  44.1676984  67.6442471  82.9155266  43.5456993  66.9813176  82.6157494
  44.8381851  67.6703603  82.2328914  54.7256357  66.6665382  91.7888909
  53.9351901  66.6489521  91.2493408  54.4889712  67.2053676  92.5437945
  47.2285897  68.6894525  73.8625474  46.6559864  69.3084712  73.4095946
  47.8018690  69.2393886  74.3965396  50.4483156  68.9731675  74.9934056
  51.3813830  68.9077236  75.1966932  50.3606369  69.8087942  74.5348589
  53.0771173  68.2897545  71.9538004  52.9984805  67.9557409  72.8473761
  53.8980840  68.7819313  71.9529476  47.4971388  64.0773084  92.6642183
  48.4174397  64.2551683  92.8582230  47.4620971  63.1329129  92.5121882
  39.5116162  70.4228617  82.5671407  39.3770630  69.6629018  82.0009405
  39.0948224  71.1469517  82.1000195  42.6685288  71.3197934  82.7789849
  42.5517672  72.2643366  82.6768539  41.8477734  71.0171496  83.1675648
  49.5253622  64.8529095  94.3156344  50.3944781  65.0269747  93.9542979
  49.0460373  65.6723512  94.1932073  43.6939802  71.9726196  85.9945778
  44.5967049  72.0049806  86.3112273  43.4677172  71.0426647  86.0092113
  45.4493404  70.7257182  82.6555856  44.4989035  70.7259044  82.5420229
  45.7525890  69.9789917  82.1391891  53.8522619  78.3680625  79.6460034
  53.2887484  78.2770562  78.8776322  53.7375014  77.5480530  80.1262527
  51.3987051  79.8631817  82.4844255  52.1908343  79.5222642  82.0690554
  51.6383701  79.9726792  83.4046408  55.1962848  80.4517112  88.5628533
  54.9052714  81.3562743  88.4475199  55.8319832  80.4933640  89.2772602
  57.7571913  76.6471649  78.8951148  57.3930120  76.1202270  79.6064069
  58.6139029  76.2570118  78.7217633  53.6065214  76.5892325  81.5915031
  52.6815711  76.4568539  81.7992723  53.8549628  77.3686544  82.0884973
  50.9674025  76.2325598  82.4258820  51.0966407  76.4860077  83.3398232
  50.2871477  76.8253306  82.1063475  55.1373513  86.9022848  78.5249294
  55.0597542  87.8530673  78.6037775  54.5335156  86.5568721  79.1824221
  57.6290742  74.0750714  91.1810661  56.8524076  74.6344634  91.1713526
  58.2681305  74.5607497  91.7025531  55.8837115  76.8836167  90.7428628
  56.6251799  77.4221211  90.4663452  55.1774100  77.5102456  90.9000180
  61.3592454  79.0265308  89.3400790  61.7675810  78.5847718  88.5955422
  60.6369716  78.4517935  89.5934983  54.1273312  78.8712388  83.2982927
  54.6974669  79.2999656  82.6600411  54.7181424  78.5894973  83.9967113
  54.6198478  74.0375815  91.5443938  53.9897139  74.7192096  91.7779335
  54.5134566  73.9258897  90.5997076  49.9143451  73.7047611  82.4709862
  49.1242505  73.9605140  81.9949973  50.4054698  74.5195949  82.5761903
  51.8658196  74.0692191  79.4293339  51.0689360  74.1810885  79.9476835
  51.6383788  74.4078843  78.5634230  57.6963864  80.5936894  87.3775854
  57.7608296  81.0557301  88.2134025  56.9874788  79.9634259  87.5058164
  48.1981154  73.9578102  84.9024853  48.4489192  74.8425112  85.1682429
  48.7340702  73.7782703  84.1299945  53.8979221  68.3396581  93.9069189
  53.5046167  67.7862780  94.5816833  54.7145362  68.6507160  94.2975707
  50.8641279  79.7780439  77.8182759  51.3765800  80.5723690  77.9688324
  51.5163992  79.0806730  77.7516361  52.6736164  82.8946196  79.9005512
  52.8502792  83.8164160  79.7126496  53.4692997  82.5804615  80.3299892
  51.9588520  74.9410827  89.7767675  51.8442035  74.0396085  90.0774774
  51.1033038  75.1874524  89.4252492  59.0380358  82.8828568  91.3755176
  58.5944212  82.0964946  91.0576081  59.6997572  83.0707718  90.7099067
  53.7967479  84.4124369  85.9015855  54.3474904  84.2841433  85.1292849
  52.9578955  84.7119258  85.5510747  61.1361596  83.1631368  89.4036577
  61.1180071  83.9840249  88.9116847  62.0581516  83.0385443  89.6286719
  57.5934650  80.6775497  90.2460086  58.1262987  79.9163785  90.0159394
  57.0648731  80.3849149  90.9884240  48.8290196  78.1069094  78.5942330
  49.6665418  78.5166102  78.3776037  49.0068463  77.1668536  78.5642523
  58.3101739  70.6193875  79.3411401  57.4543335  70.2300725  79.1617040
  58.7228691  70.6985836  78.4811186  56.0843771  68.2378948  82.7469142
  56.9496768  68.0421757  82.3875032  56.1521280  68.0089300  83.6738499
  53.6906090  70.4681156  80.1185509  54.2649842  70.2456337  79.3858702
  54.2777073  70.5369850  80.8714111  55.9928758  67.3422405  78.8460579
  55.3393171  67.0271422  78.2217193  55.9509232  66.7198145  79.5720402
  48.8516367  75.4459809  79.2653063  48.6540767  74.8529170  78.5404130
  48.2963031  75.1412019  79.9829002  56.8313091  75.3382915  81.3847656
  56.8861700  74.3856752  81.3090133  56.0204293  75.4942355  81.8688955
  54.7705450  73.9559975  79.1438035  53.9573316  74.2554146  79.5503227
  55.2664445  73.5615664  79.8612517  56.9214028  83.9517732  81.0772300
  56.8790207  84.1778578  80.1480832  57.8376727  83.7181107  81.2258101
  54.2619525  71.5278331  84.7599270  54.9018905  71.3867090  84.0622233
  53.4297056  71.2412844  84.3837872  55.0379829  80.8280761  80.8734262
  55.8320428  80.3331081  80.6716837  54.3271521  80.2998624  80.5101968
  51.3462593  74.9723843  76.9494015  50.4160181  74.9108298  77.1663977
  51.4420065  74.4499796  76.1530656  51.2648142  71.4978656  79.5372257
  51.5254959  72.4123989  79.4281417  52.0865314  71.0303098  79.6868870
  52.7373067  72.9116413  86.7071081  53.4096120  72.7033775  86.0583730
  51.9102853  72.7138499  86.2676314  62.0477437  79.8027206  91.7987296
  61.8962943  79.5737758  90.8817379  62.0382116  80.7597807  91.8118641
  57.6151105  81.4009783  84.5532100  57.4762191  81.0328567  85.4258038
  56.8265701  81.9157423  84.3816057  53.1400564  76.1859016  87.4673519
  53.0020362  75.4539255  88.0685058  54.0505488  76.0967916  87.1857706
  54.4811799  72.8844193  88.7752838  53.9449156  72.4334931  89.4274434
  53.8928507  73.0190102  88.0323302  52.7760342  89.6508242  82.6697496
  53.0156941  90.2826766  83.3476515  51.9329539  89.2996282  82.9562856
  45.4116198  77.1310004  81.4320808  46.0987238  76.8171734  80.8441824
  45.2564327  78.0351369  81.1588060  50.2150920  72.0200201  85.8605832
  50.1309109  71.4125870  85.1256242  49.3933626  72.5109219  85.8615328
  60.3874634  70.5053764  81.2276027  60.8843333  69.7523727  80.9077097
  59.6161615  70.5418081  80.6619237  56.9709603  72.6471147  80.9547712
  56.6007390  72.0942188  81.6428617  57.4668695  72.0429281  80.4022712
  54.7998801  83.1068642  88.0502730  55.5008261  83.7405125  88.2032124
  54.3293916  83.4483374  87.2898369  59.5607261  85.6972943  79.9783450
  59.7429656  84.8794599  80.4411203  60.3840247  85.9140635  79.5408340
  58.6487660  76.4033061  92.3621317  57.9728297  76.3027190  93.0323692
  59.4715294  76.2472275  92.8257314  50.3966519  82.6404997  84.9833832
  50.9819956  81.8948685  85.1161737  50.1991358  82.9508954  85.8670496
  53.2505175  85.6756245  79.9996275  52.5815550  86.1602372  79.5160315
  53.1118044  85.9225465  80.9139653  44.9884174  75.2110598  83.7038276
  45.0268274  74.6774188  84.4975394  44.4824467  74.6845803  83.0849253
  52.3674936  70.0575138  87.2000818  52.4316263  70.9189969  86.7878216
  52.3042057  69.4449140  86.4673176  51.8427209  72.1298271  90.8473852
  52.4699248  71.7475348  91.4611376  50.9855128  71.9112473  91.2129545
  62.2421317  82.5361246  92.4527588  62.7861221  83.1491204  91.9582542
  61.6608162  83.0940824  92.9694601  48.6192752  73.9374700  76.7792207
  48.9146193  73.0285378  76.7259261  47.7180787  73.9162439  76.4573209
  52.1486999  72.0130696  82.7619756  51.4273584  72.6266664  82.6227229
  52.9380254  72.5488461  82.6836401  54.9513312  69.3485123  89.0360407
  55.4747714  69.5947419  89.7986717  54.7325645  70.1805158  88.6163545
  50.3480593  71.6188797  76.9031532  50.0193299  70.7386176  76.7206638
  50.7019964  71.5636466  77.7907921  53.4622416  71.9061767  77.2707010
  53.8018489  72.4347688  76.5485618  53.9094537  72.2442173  78.0465576
  55.4490564  70.4036389  75.4700303  56.1698926  70.7817642  74.9664019
  54.8255868  71.1225266  75.5735280  54.3320908  74.0667251  82.9829379
  54.1865489  74.3807554  83.8753661  53.8546111  74.6852151  82.4300278
  56.1917291  71.0569799  83.0310269  56.1778859  70.1610892  82.6942567
  56.9089719  71.0640463  83.6648555  48.8066570  76.6072595  85.9217041
  48.2620038  77.3832403  86.0537315  49.6845920  76.9543400  85.7636162
  55.5954187  69.9384179  78.2997839  55.7170098  69.0100825  78.4988727
  55.3056229  69.9522865  77.3876155  58.4645377  67.6239090  81.4364559
  58.4867074  67.6878423  80.4816539  58.8813436  66.7843598  81.6305065
  49.5932592  75.7342492  88.8147198  48.8514328  75.8825127  89.4011828
  49.2725336  75.9950757  87.9513947  57.5596867  87.4296379  80.8432964
  57.1201857  86.9372758  81.5365821  58.3104983  86.8869347  80.6025039
  50.0389205  83.6207920  80.8457592  50.8647225  83.3211692  80.4656236
  49.6883257  82.8515543  81.2947381  55.0070739  82.9734389  82.9155266
  54.3850748  82.3105094  82.6157494  55.6775606  82.9995520  82.2328914
  48.2397811  81.5394247  81.8046526  47.4029719  81.1116421  81.6230527
  48.2121456  81.7326690  82.7417317  55.0795266  71.4516177  92.5087772
  55.1283422  72.3278299  92.1265541  55.6217780  70.9093570  91.9359415
  57.3094555  72.2047549  89.2634130  56.4397864  72.4981115  88.9916719
  57.5454035  72.7887994  89.9841394  52.3236879  77.5503490  77.3974795
  52.0782920  76.6465820  77.5955005  52.4932793  77.5520640  76.4554273
  51.5932526  73.2831847  74.8960957  50.9001771  73.3576202  74.2400993
  51.3484278  72.5192191  75.4182474  58.3365142  79.4065001  92.6642183
  59.2568152  79.5843600  92.8582230  58.3014725  78.4621047  92.5121882
  47.5547307  74.6003595  81.5895458  47.2350091  73.7468903  81.2969832
  47.0080735  74.8152173  82.3453425  51.3327215  77.3166036  85.3064964
  51.5513224  78.2483144  85.3252998  51.7452988  76.9574010  86.0919768
  56.2055080  72.8899242  94.6967713  56.1051807  73.8393599  94.6279804
  55.9876622  72.5617481  93.8243783  47.4235567  78.2206506  83.5588579
  46.7299039  77.8060459  83.0458534  48.1708558  78.2627043  82.9621998
  56.0686350  76.3196380  93.5132775  55.5853432  77.1196741  93.7196664
  56.1547289  76.3304325  92.5600219  49.3372310  78.1524760  81.4354594
  49.3142998  78.2512447  80.4836477  49.6472946  78.9989911  81.7571760
  51.9959688  80.2100915  85.5501209  52.9502941  80.1784858  85.4831140
  51.7972211  79.7491539  86.3651435  52.5859070  78.7802031  88.1172006
  53.4051959  79.2746110  88.1406844  52.8595877  77.8633999  88.0889574
  50.3509916  85.7520535  82.5671407  50.2164384  84.9920936  82.0009405
  49.9341979  86.4761435  82.1000195  53.5079042  86.6489852  82.7789849
  53.3911426  87.5935284  82.6768539  52.6871488  86.3463413  83.1675648
  47.8393984  73.1140165  88.8164203  48.4852848  72.6039119  89.3051429
  47.6311135  73.8508847  89.3907629  60.3647376  80.1821013  94.3156344
  61.2338536  80.3561665  93.9542979  59.8854128  81.0015429  94.1932073
  54.5333556  87.3018114  85.9945778  55.4360803  87.3341724  86.3112273
  54.3070926  86.3718565  86.0092113  56.2887158  86.0549100  82.6555856
  55.3382789  86.0550962  82.5420229  56.5919644  85.3081835  82.1391891
  52.1791475  70.2607782  92.9139218  53.0422936  69.9044587  93.1242542
  51.6056886  69.9221677  93.6014622  62.2380806  95.1923735  82.4844255
  63.0302098  94.8514559  82.0690554  62.4777456  95.3018710  83.4046408
  68.2160375  89.4611124  74.8759163  68.0960000  89.9068175  75.7144643
  67.5212963  89.8096442  74.3172701  61.8067780  91.5617516  82.4258820
  61.9360161  91.8151995  83.3398232  61.1265231  92.1545224  82.1063475
  60.7537205  89.0339529  82.4709862  59.9636259  89.2897058  81.9949973
  61.2448453  89.8487867  82.5761903  64.7372976  83.6688499  93.9069189
  64.3439921  83.1154697  94.5816833  65.5539116  83.9799077  94.2975707
  63.5129918  98.2238113  79.9005512  63.6896546  99.1456078  79.7126496
  64.3086752  97.9096532  80.3299892  62.7982275  90.2702745  89.7767675
  62.6835790  89.3688002  90.0774774  61.9426792  90.5166442  89.4252492
  59.6683950  93.4361011  78.5942330  60.5059172  93.8458020  78.3776037
  59.8462218  92.4960453  78.5642523  59.6910121  90.7751727  79.2653063
  59.4934521  90.1821087  78.5404130  59.1356785  90.4703937  79.9829002
  56.2509952  92.4601922  81.4320808  56.9380992  92.1463652  80.8441824
  56.0958081  93.3643286  81.1588060  55.8277929  90.5402515  83.7038276
  55.8662028  90.0066106  84.4975394  55.3218221  90.0137721  83.0849253
  62.6820963  87.4590188  90.8473852  63.3093002  87.0767266  91.4611376
  61.8248882  87.2404390  91.2129545  59.6460324  91.9364513  85.9217041
  59.1013793  92.7124321  86.0537315  60.5239674  92.2835317  85.7636162
  79.6822756  92.6886267  79.4743782  80.1253902  91.9393592  79.0762905
  78.8049266  92.6796403  79.0917514  60.4326346  91.0634409  88.8147198
  59.6908082  91.2117045  89.4011828  60.1119091  91.3242675  87.9513947
  60.8782960  98.9499838  80.8457592  61.7040980  98.6503610  80.4656236
  60.5277012  98.1807460  81.2947381  74.9748795  88.5937000  86.0472023
  75.9266218  88.6935098  86.0684247  74.8052246  87.8015269  86.5570107
  58.3941062  89.9295513  81.5895458  58.0743846  89.0760821  81.2969832
  57.8474490  90.1444091  82.3453425  58.2629322  93.5498424  83.5588579
  57.5692793  93.1352377  83.0458534  59.0102313  93.5918961  82.9621998
  60.1766064  93.4816678  81.4354594  60.1536752  93.5804365  80.4836477
  60.4866701  94.3281829  81.7571760  63.0185229  85.5899700  92.9139218
  63.8816691  85.2336505  93.1242542  62.4450640  85.2513595  93.6014622
  87.0999032 101.5161342  85.0153638  86.4573412 101.8093875  84.3693432
  86.5953961 101.4014262  85.8206834  84.2379520  95.7012958  80.8771465
  84.5438397  94.8410321  80.5897380  84.9632125  96.2930578  80.6770459
  84.5081138  98.1307193  83.3755386  83.5944218  98.3611420  83.5437593
  84.9374239  98.2145637  84.2269418  81.9433692  95.5011284  82.3000447
  82.2235445  94.8334473  82.9260874  82.7284299  95.6940379  81.7875111
  88.4425116 103.9346081  85.2072605  87.9264165 103.1504538  85.0202534
  89.3265065 103.6064798  85.3719125  86.1035843  97.6787096  81.1668418
  85.9060664  97.3702185  82.0511750  86.7135549  98.4048735  81.2966348
  92.1922475 106.3458907  84.8994810  91.4655638 106.2114872  84.2911302
  91.7769762 106.6535735  85.7051528  83.6891863  99.0701586  80.6264934
  84.1891642  99.1818121  79.8179253  84.3327471  98.7662639  81.2665742
  87.3727711 101.8543140  81.1954301  88.1488101 102.3439592  81.4678918
  86.6475845 102.2801194  81.6526171  81.8537223  94.6306822  78.8234036
  81.0869619  94.0765308  78.9690719  82.2647928  94.7028690  79.6848188
  93.7027361 122.5493474  83.7201619  94.3405771 122.4300221  83.0164959
  93.5848204 123.4974318  83.7789571  90.5117067 122.5020902  83.6563143
  90.1735579 122.3861967  82.7683678  91.3806835 122.1012067  83.6364150
  86.3703883 124.3556378  79.6460034  85.8068748 124.2646315  78.8776322
  86.2556278 123.5356283  80.1262527  90.9936850 123.6555754  89.6149349
  90.9825491 123.2608552  88.7429853  91.1557490 122.9221826  90.2083120
  83.9168315 125.8507570  82.4844255  84.7089607 125.5098395  82.0690554
  84.1564965 125.9602545  83.4046408  91.9503442 128.0227346  74.9574499
  91.2991421 128.6081426  74.5708513  92.7447804 128.5533541  75.0169537
  85.8759069 125.1116483  75.3561634  86.6489945 124.5645470  75.2174509
  86.2284468 125.9760733  75.5676095  87.7144111 126.4392865  88.5628533
  87.4233977 127.3438496  88.4475199  88.3501096 126.4809393  89.2772602
  88.6400318 123.8169714  85.1529893  89.2363890 123.5925736  84.4386855
  88.6975290 123.0754459  85.7555340  93.4278707 125.7117778  75.4943484
  92.7924540 125.7852405  76.2064388  93.0976113 126.3011377  74.8162563
  98.6577056 120.2120161  81.6987805  99.3902228 119.6419378  81.9325635
  97.9016412 119.8241761  82.1394311  87.9321635 123.1737255  75.1904458
  87.8157893 122.4982159  75.8585543  88.0423895 122.6869629  74.3736611
  90.2753176 122.6347402  78.8951148  89.9111383 122.1078023  79.6064069
  91.1320292 122.2445871  78.7217633  96.1802477 113.9241735  86.1582414
  95.8485802 114.7937146  85.9343629  95.5848090 113.6078019  86.8376444
  92.6733996 126.1254281  85.5578327  92.3734719 127.0279320  85.4494134
  92.3285056 125.8586464  86.4099479  86.1246478 122.5768078  81.5915031
  85.1996974 122.4444292  81.7992723  86.3730891 123.3562297  82.0884973
  96.0731140 118.6436821  83.2375764  95.1648017 118.5752230  82.9434525
  96.0218736 119.1208766  84.0657589  87.6554776 132.8898601  78.5249294
  87.5778806 133.8406426  78.6037775  87.0516420 132.5444474  79.1824221
  97.9392786 116.8453260  85.0153638  97.2967167 117.1385793  84.3693432
  97.4347715 116.7306180  85.8206834  88.4018378 122.8711920  90.7428628
  89.1433063 123.4096964  90.4663452  87.6955364 123.4978209  90.9000180
  93.8773718 125.0141061  89.3400790  94.2857074 124.5723471  88.5955422
  93.1550979 124.4393688  89.5934983  94.2002532 125.5742251  83.0953079
  93.5711395 125.7387965  82.3929146  93.8128195 125.9883861  83.8664043
  98.0791764 126.5096689  80.4497442  97.3942803 126.8895590  79.8994476
  98.1635614 127.1192016  81.1829390  95.3342696 124.1556648  87.0492786
  95.5459591 124.7988408  86.3727167  95.2872444 123.3218965  86.5814716
  92.9368925 116.7674469  83.9529358  92.0753404 117.0655722  84.2446096
  92.9631360 116.9844868  83.0210391  89.7530494 125.3116659  80.3603164
  90.2168840 125.5904362  79.5707786  89.4887292 124.4100104  80.1776254
  86.6454575 124.8588141  83.2982927  87.2155932 125.2875409  82.6600411
  87.2362687 124.5770726  83.9967113  96.4488524 127.0328604  85.2215143
  97.2705968 126.6308791  84.9397825  96.4450927 126.9296838  86.1731259
  90.2145127 126.5812647  87.3775854  90.2789560 127.0433054  88.2134025
  89.5056051 125.9510012  87.5058164 104.5394517 123.3767352  81.5700115
 103.7858225 122.8074750  81.4144119 104.6742058 123.3430017  82.5170749
  89.9293145 128.2480754  77.2454834  89.7938820 129.0932290  77.6739682
  90.4702958 128.4500032  76.4820768  85.1917427 128.8821949  79.9005512
  85.3684055 129.8039913  79.7126496  85.9874261 128.5680368  80.3299892
  84.4769784 120.9286581  89.7767675  84.3623299 120.0271838  90.0774774
  83.6214301 121.1750277  89.4252492  91.5561621 128.8704321  91.3755176
  91.1125476 128.0840699  91.0576081  92.2178835 129.0583471  90.7099067
  86.3148743 130.4000122  85.9015855  86.8656168 130.2717186  85.1292849
  85.4760218 130.6995011  85.5510747  93.6542859 129.1507121  89.4036577
  93.6361335 129.9716002  88.9116847  94.5762780 129.0261196  89.6286719
  90.1115914 126.6651250  90.2460086  90.6444250 125.9039538  90.0159394
  89.5829995 126.3724902  90.9884240  92.3582149 114.1415971  83.7402961
  91.8546945 114.1046107  82.9270766  92.6512756 115.0508714  83.7999617
  98.2170165 124.5152282  76.2179336  97.4399608 124.1763441  75.7734498
  98.8961646 124.5204905  75.5434301  91.4768626 125.7937243  77.7578898
  90.9489988 125.0590002  77.4452135  90.9756129 126.5711919  77.5118866
  96.4561472 123.9886263  82.8745944  95.7985147 124.6785525  82.9626073
  97.2601872 124.3782695  83.2179930  95.2666931 122.3430636  80.9249886
  95.7798813 122.9760628  81.4271596  95.9168155 121.7431831  80.5593246
  89.6221227 123.6117453  70.7613871  88.7148288 123.3806706  70.9605020
  90.1192258 122.8155072  70.9487852  92.5289305 132.3214960  73.6810557
  91.8551004 132.6246657  74.2895515  92.9155127 133.1244041  73.3316014
  91.7447762 119.8180091  83.1708226  90.8270323 120.0395038  83.0129914
  92.1607906 119.8926402  82.3119934  96.0328727 127.3236637  79.0529028
  95.5791054 126.4827547  79.1094219  95.4022694 127.9598036  79.3903809
  94.4761667 129.1613134  79.9878847  94.7684641 129.7218191  79.2691212
  94.9860287 129.4541695  80.7432006  89.3494354 121.3258668  81.3847656
  89.4042964 120.3732505  81.3090133  88.5385556 121.4818108  81.8688955
  90.4985548 125.2538792  72.6225939  90.0604978 124.5374650  72.1631577
  91.2395989 125.4814906  72.0611031  89.4395292 129.9393485  81.0772300
  89.3971471 130.1654331  80.1480832  90.3557991 129.7056860  81.2258101
  92.8860926 120.4077553  87.9752929  93.2410313 120.6349026  88.8347395
  93.5333057 120.7395929  87.3530184  98.6158663 123.5295989  78.6802258
  98.4776561 123.7197585  77.7523447  98.2594881 124.2915371  79.1370309
  98.6428042 125.5972516  83.6913529  99.0764549 125.5047805  84.5396584
  99.3559623 125.5730016  83.0533545  87.5561093 126.8156514  80.8734262
  88.3501691 126.3206834  80.6716837  86.8452785 126.2874377  80.5101968
  92.3755937 129.1974610  85.2246630  92.4292959 129.7665546  85.9924346
  91.5070718 129.3676495  84.8600667  99.5043592 125.6396216  86.2246415
  99.6979482 126.5442027  86.4705690  99.4044210 125.1803635  87.0585000
  94.5658700 125.7902959  91.7987296  94.4144207 125.5613511  90.8817379
  94.5563380 126.7473560  91.8118641  91.3344037 123.3634872  86.7833562
  92.2636097 123.5146031  86.6102529  90.9135067 123.4518892  85.9282208
  90.1332369 127.3885536  84.5532100  89.9943454 127.0204321  85.4258038
  89.3446965 127.9033176  84.3816057  90.7280521 132.4894633  75.8957636
  90.9032276 132.0182676  76.7103259  90.0413309 133.1160399  76.1238897
  91.6837584 126.7667139  81.9420937  91.3487416 126.7267909  82.8378587
  91.1841529 126.1011855  81.4691348  85.6581828 122.1734769  87.4673519
  85.5201626 121.4415008  88.0685058  86.5686751 122.0843669  87.1857706
  94.6196775 124.1123173  72.2157997  94.0025946 123.3870001  72.1191050
  94.1513264 124.8732533  71.8725071  88.2864128 121.8854728  86.9557198
  88.9963747 121.2447920  86.9143817  88.2433436 122.1367623  87.8783379
  96.2750907 128.8222082  89.8763777  96.2163453 128.1381302  89.2094360
  96.6770425 129.5641072  89.4244403  85.2941606 135.6383995  82.6697496
  85.5338204 136.2702520  83.3476515  84.4510802 135.2872035  82.9562856
  96.2768314 126.7861665  88.1077757  95.3895093 126.4487587  88.2304156
  96.8466865 126.0544697  88.3446522  89.8069468 131.4463118  85.0739000
  89.7339639 132.2518089  85.5858305  89.3646861 131.6455084  84.2487022
  89.5959247 130.6834888  78.5841822  88.8126769 131.2256568  78.6780046
  90.2951992 131.2008867  78.9836063 100.7585655 122.1969883  82.8694319
 100.7475531 123.0794598  82.4988252  99.8903034 121.8441434  82.6748856
  92.2668151 131.3449952  87.2297159  92.9796123 131.9797417  87.1573060
  91.7758180 131.4413818  86.4137161  93.9885678 125.2501205  78.8014451
  93.0541957 125.3702667  78.6319155  94.1662347 124.3473671  78.5374460
  87.3180065 129.0944395  88.0502730  88.0189524 129.7280878  88.2032124
  86.8475180 129.4359127  87.2898369  95.4434461 127.4362345  76.3350637
  95.7194304 127.3218940  77.2444511  94.5738959 127.0379830  76.2962810
  95.3474892 113.4599111  83.3755386  94.4337972 113.6903338  83.5437593
  95.7767994 113.5437555  84.2269418  95.1181351 121.6489003  85.8755280
  94.4652801 121.8964910  85.2207733  95.4961731 120.8353141  85.5417757
  92.0788525 131.6848696  79.9783450  92.2610919 130.8670352  80.4411203
  92.9021511 131.9016388  79.5408340  92.4130690 130.6116881  77.2398499
  92.9418457 130.1009336  76.6268661  92.6758910 130.2959411  78.1044032
  91.1668924 122.3908814  92.3621317  90.4909561 122.2902943  93.0323692
  91.9896558 122.2348028  92.8257314  82.9147783 128.6280750  84.9833832
  83.5001220 127.8824438  85.1161737  82.7172621 128.9384707  85.8670496
  85.7686438 131.6631998  79.9996275  85.0996813 132.1478125  79.5160315
  85.6299308 131.9101218  80.9139653  77.5065438 121.1986351  83.7038276
  77.5449537 120.6649941  84.4975394  77.0005730 120.6721556  83.0849253
  89.9091707 133.6975741  86.5978933  90.4610015 133.8607363  87.3628018
  90.2497900 134.2880179  85.9258958  94.7602581 128.5236999  92.4527588
  95.3042485 129.1366957  91.9582542  94.1789426 129.0816577  92.9694601
  93.0460094 131.6457717  83.5842615  92.9211233 130.8447457  83.0753561
  93.7039185 132.1403910  83.0956585  95.1095002 129.4466737  85.2122165
  94.1625338 129.3272088  85.1400492  95.4577775 128.5589235  85.2948427
  92.1141436 129.2419453  81.4126518  91.9666398 128.3136160  81.5934088
  92.9394929 129.2639544  80.9283593  95.7175557 130.0648012  82.4991390
  96.6422105 129.8590873  82.3615842  95.5490861 129.8164413  83.4080732
  95.5070874 130.5833679  77.8553482  95.6807751 130.0180102  77.1027334
  95.9999765 131.3834574  77.6732972  81.3247833 122.5948348  85.9217041
  80.7801301 123.3708156  86.0537315  82.2027183 122.9419153  85.7636162
 101.3610265 123.3470102  79.4743782 101.8041411 122.5977427  79.0762905
 100.4836775 123.3380239  79.0917514  96.4946046 129.9000444  74.9550380
  97.1896951 130.5207136  75.1737695  96.8369196 129.0495795  75.2302758
  82.1113855 121.7218245  88.8147198  81.3695591 121.8700880  89.4011828
  81.7906600 121.9826510  87.9513947  98.3937469 127.3500149  76.4837711
  98.9188793 127.6887422  75.7587031  98.3059822 126.4147165  76.3000846
  90.0557518 131.2634223  88.6127588  90.3644644 131.0183370  89.4850287
  90.8533000 131.4680861  88.1246458  90.0778130 133.4172132  80.8432964
  89.6383120 132.9248511  81.5365821  90.8286247 132.8745100  80.6025039
  82.5570469 129.6083673  80.8457592  83.3828489 129.3087445  80.4656236
  82.2064521 128.8391296  81.2947381  87.5252002 128.9610142  82.9155266
  86.9032011 128.2980847  82.6157494  88.1956869 128.9871273  82.2328914
  80.7579074 127.5270000  81.8046526  79.9210982 127.0992174  81.6230527
  80.7302719 127.7202443  82.7417317  98.0831375 127.9833053  91.7888909
  97.2926919 127.9657192  91.2493408  97.8464730 128.5221347  92.5437945
  98.2029250 124.8325519  89.1021637  98.2527255 124.6675527  90.0437160
  98.0943174 123.9652778  88.7119518  87.0865509 127.5114065  76.3913726
  87.2353629 128.1949529  75.7380399  87.8931952 127.4919155  76.9063182
  95.4933013 120.8156447  90.4180944  96.3942875 120.6762912  90.1264942
  95.5680987 120.9810902  91.3579122  99.7047447 127.2522461  89.3463659
  99.4132255 127.6152441  90.1827120  99.0919578 126.5389469  89.1676991
 100.9043129 124.8175341  81.8666229 101.7390021 125.2565145  82.0303790
 101.0402258 124.3413994  81.0474475  97.9534635 122.3755075  87.8143717
  98.4288757 122.5682722  87.0062568  97.0300201 122.4314261  87.5687101
  92.7827446 110.8303201  82.3000447  93.0629200 110.1626391  82.9260874
  93.5678053 111.0232297  81.7875111  90.5860915 130.0062195  73.8625474
  90.0134882 130.6252382  73.4095946  91.1593708 130.5561557  74.3965396
  96.6536304 119.2520835  86.0472023  97.6053727 119.3518933  86.0684247
  96.4839755 118.4599104  86.5570107  93.8058174 130.2899345  74.9934056
  94.7388848 130.2244907  75.1966932  93.7181387 131.1255612  74.5348589
  96.4346191 129.6065216  71.9538004  96.3559823 129.2725079  72.8473761
  97.2555858 130.0986984  71.9529476  99.1324382 122.4726955  85.1614322
  99.1000702 121.5342956  85.3474006  99.7425006 122.5510992  84.4280147
  99.2818871 119.2637999  85.2072605  98.7657919 118.4796455  85.0202534
 100.1658819 118.9356715  85.3719125 104.9500932 123.5342962  84.3020359
 105.6804321 123.2728250  84.8628062 104.3407878 122.7971684  84.3422427
 103.0316229 121.6750825  84.8994810 102.3049393 121.5406789  84.2911302
 102.6163516 121.9827653  85.7051528  90.8546406 125.3940754  92.6642183
  91.7749415 125.5719353  92.8582230  90.8195989 124.4496800  92.5121882
  83.8508478 123.3041789  85.3064964  84.0694488 124.2358897  85.3252998
  84.2634252 122.9449763  86.0919768  88.5867614 122.3072133  93.5132775
  88.1034695 123.1072494  93.7196664  88.6728553 122.3180078  92.5600219
  84.5140951 126.1976668  85.5501209  85.4684205 126.1660611  85.4831140
  84.3153475 125.7367292  86.3651435  85.1040333 124.7677784  88.1172006
  85.9233222 125.2621863  88.1406844  85.3777141 123.8509752  88.0889574
  98.2121465 117.1835058  81.1954301  98.9881856 117.6731510  81.4678918
  97.4869600 117.6093112  81.6526171 100.6494024 117.8962677  82.2528242
 101.2438515 117.6558413  81.5421550 100.7220608 117.1769807  82.8801778
  82.8691180 131.7396288  82.5671407  82.7345648 130.9796689  82.0009405
  82.4523242 132.4637188  82.1000195  94.0050143 126.9233211  71.5747982
  94.7085993 127.1283214  72.1905637  93.2812792 127.4909973  71.8397065
 102.9565097 121.2028878  81.0271663 102.3964655 121.2722067  81.8003225
 102.3508600 121.0269862  80.3071159  86.0260306 132.6365605  82.7789849
  85.9092690 133.5811037  82.6768539  85.2052752 132.3339166  83.1675648
  95.9136840 127.3615740  73.6246442  96.7482444 126.9296939  73.4423917
  95.7521183 127.1897754  74.5523336  92.8828640 126.1696766  94.3156344
  93.7519799 126.3437418  93.9542979  92.4035391 126.9891182  94.1932073
  87.0514820 133.2893867  85.9945778  87.9542066 133.3217477  86.3112273
  86.8252190 132.3594318  86.0092113  88.8068422 132.0424853  82.6555856
  87.8564053 132.0426715  82.5420229  89.1100908 131.2957588  82.1391891
 104.5421115 137.8785392  83.7201619 105.1799525 137.7592139  83.0164959
 104.4241958 138.8266235  83.7789571 101.3510822 137.8312820  83.6563143
 101.0129333 137.7153884  82.7683678 102.2200590 137.4303985  83.6364150
  97.2097637 139.6848296  79.6460034  96.6462502 139.5938233  78.8776322
  97.0950032 138.8648201  80.1262527 101.8330605 138.9847671  89.6149349
 101.8219245 138.5900470  88.7429853 101.9951244 138.2513744  90.2083120
  94.7562069 141.1799488  82.4844255  95.5483361 140.8390312  82.0690554
  94.9958719 141.2894463  83.4046408  96.7152823 140.4408401  75.3561634
  97.4883699 139.8937388  75.2174509  97.0678222 141.3052650  75.5676095
  98.5537866 141.7684783  88.5628533  98.2627732 142.6730414  88.4475199
  99.1894850 141.8101311  89.2772602  99.4794073 139.1461632  85.1529893
 100.0757645 138.9217654  84.4386855  99.5369044 138.4046377  85.7555340
  99.0519101 136.6001067  72.9880083  99.3044622 136.0782588  72.2263546
  98.1143660 136.4367212  73.0906767 104.0962384 135.6036845  80.7954827
 104.8825473 135.1856269  80.4445244 104.3601088 136.5082938  80.9636475
 109.4970811 135.5412079  81.6987805 110.2295983 134.9711295  81.9325635
 108.7410167 135.1533679  82.1394311  98.7715390 138.5029173  75.1904458
  98.6551648 137.8274076  75.8585543  98.8817650 138.0161547  74.3736611
 101.1146931 137.9639320  78.8951148 100.7505138 137.4369941  79.6064069
 101.9714047 137.5737789  78.7217633 107.0196231 129.2533653  86.1582414
 106.6879556 130.1229064  85.9343629 106.4241845 128.9369937  86.8376444
 100.7552418 132.9929220  73.8912496 100.9226820 133.8609456  74.2582967
 100.5649587 133.1556501  72.9673785  96.9640232 137.9059996  81.5915031
  96.0390729 137.7736210  81.7992723  97.2124645 138.6854215  82.0884973
 106.9124895 133.9728739  83.2375764 106.0041772 133.9044147  82.9434525
 106.8612490 134.4500684  84.0657589 100.7341638 135.4486877  74.8759163
 100.6141264 135.8943928  75.7144643 100.0394227 135.7972195  74.3172701
  94.3249043 137.5493269  82.4258820  94.4541424 137.8027748  83.3398232
  93.6446495 138.1420977  82.1063475 100.9865760 135.3918384  91.1810661
 100.2099094 135.9512305  91.1713526 101.6256323 135.8775167  91.7025531
 108.7786541 132.1745177  85.0153638 108.1360921 132.4677710  84.3693432
 108.2741470 132.0598098  85.8206834 106.4326705 135.9208350  75.7039497
 107.3444561 136.1535737  75.5287195 105.9236352 136.5045395  75.1414576
  99.2412133 138.2003838  90.7428628  99.9826817 138.7388882  90.4663452
  98.5349118 138.8270127  90.9000180 104.7167472 140.3432978  89.3400790
 105.1250828 139.9015389  88.5955422 103.9944734 139.7685606  89.5934983
 101.0698542 135.2805585  86.7134347 101.9159738 135.7044999  86.8568996
 101.0097180 134.6239209  87.4072910 104.2197988 132.9409953  88.3715520
 103.9758920 133.6952014  87.8349796 104.4957918 133.3195301  89.2062767
 103.7762679 132.0966386  83.9529358 102.9147158 132.3947640  84.2446096
 103.8025114 132.3136785  83.0210391 100.5924249 140.6408577  80.3603164
 101.0562594 140.9196280  79.5707786 100.3281047 139.7392022  80.1776254
  97.4848330 140.1880059  83.2982927  98.0549687 140.6167327  82.6600411
  98.0756442 139.9062643  83.9967113  99.5293135 136.7631729  77.1692729
 100.2317178 137.2152773  77.6366655  99.1973763 136.1215548  77.7972622
  97.9773496 135.3543486  91.5443938  97.3472157 136.0359767  91.7779335
  97.8709584 135.2426568  90.5997076  93.2718469 135.0215282  82.4709862
  92.4817523 135.2772811  81.9949973  93.7629716 135.8363620  82.5761903
  95.2233214 135.3859861  79.4293339  94.4264378 135.4978556  79.9476835
  94.9958806 135.7246513  78.5634230 101.0538882 141.9104565  87.3775854
 101.1183314 142.3724972  88.2134025 100.3449806 141.2801929  87.5058164
  91.5556172 135.2745772  84.9024853  91.8064210 136.1592782  85.1682429
  92.0915720 135.0950374  84.1299945  97.2554239 129.6564252  93.9069189
  96.8621185 129.1030450  94.5816833  98.0720379 129.9674830  94.2975707
  94.2216297 141.0948110  77.8182759  94.7340817 141.8891360  77.9688324
  94.8739010 140.3974400  77.7516361  96.0311182 144.2113866  79.9005512
  96.2077810 145.1331831  79.7126496  96.8268015 143.8972286  80.3299892
 100.1722200 131.0722131  91.4989446 100.9131914 131.6729284  91.4193908
 100.4040123 130.3299769  90.9407488  95.3163538 136.2578498  89.7767675
  95.2017053 135.3563755  90.0774774  94.4608056 136.5042195  89.4252492
  97.1542497 145.7292040  85.9015855  97.7049922 145.6009103  85.1292849
  96.3153973 146.0286929  85.5510747 100.9509668 141.9943168  90.2460086
 101.4838005 141.2331456  90.0159394 100.4223749 141.7016820  90.9884240
 104.1179363 127.1003234  85.7753727 103.7743632 127.9904876  85.6992838
 104.4858326 126.9104892  84.9123312  92.1865214 139.4236764  78.5942330
  93.0240436 139.8333773  78.3776037  92.3643481 138.4836206  78.5642523
 104.0829646 137.0911845  74.2826163 103.5676269 137.8616450  74.5214550
 103.8106954 136.4176981  74.9059224 101.6676757 131.9361546  79.3411401
 100.8118353 131.5468396  79.1617040 102.0803709 132.0153507  78.4811186
 103.1975903 129.4707889  83.7402961 102.6940699 129.4338024  82.9270766
 103.4906510 130.3800632  83.7999617  99.4418789 129.5546619  82.7469142
 100.3071786 129.3589427  82.3875032  99.5096298 129.3256971  83.6738499
 103.8715949 134.9638937  76.1085944 103.5666085 135.2785086  76.9596087
 104.8246391 135.0420357  76.1513277 102.3162381 141.1229160  77.7578898
 101.7883742 140.3881920  77.4452135 101.8149884 141.9003837  77.5118866
  97.0481108 131.7848827  80.1185509  97.6224860 131.5624008  79.3858702
  97.6352091 131.8537521  80.8714111 106.1060686 137.6722554  80.9249886
 106.6192567 138.3052545  81.4271596 106.7561910 137.0723749  80.5593246
  97.3750696 133.8153288  74.1381395  96.5388008 134.1527974  74.4590669
  97.2355465 133.6802267  73.2008531  99.3503776 128.6590076  78.8460579
  98.6968188 128.3439093  78.2217193  99.3084250 128.0365816  79.5720402
 100.4614981 138.9409371  70.7613871  99.5542043 138.7098624  70.9605020
 100.9586013 138.1446990  70.9487852 102.5841516 135.1472009  83.1708226
 101.6664078 135.3686956  83.0129914 103.0001660 135.2218320  82.3119934
 103.3676564 136.5463425  78.3010907 104.1148383 137.0584822  77.9918029
 103.6368154 136.2247478  79.1615300 101.6403214 139.0421966  75.2837861
 100.7314434 138.7580998  75.3810331 101.6698298 139.4621044  74.4241168
 105.8155401 133.5820541  80.2829696 105.0778158 133.0697927  80.6139938
 106.0682175 133.1420923  79.4712973 105.9167029 126.3596793  80.8771465
 106.2225906 125.4994156  80.5897380 106.6419634 126.9514413  80.6770459
  92.2091385 136.7627480  79.2653063  92.0115785 136.1696840  78.5404130
  91.6538049 136.4579690  79.9829002 100.1888108 136.6550586  81.3847656
 100.2436718 135.7024423  81.3090133  99.3779311 136.8110025  81.8688955
 101.3379302 140.5830709  72.6225939 100.8998732 139.8666568  72.1631577
 102.0789743 140.8106824  72.0611031  98.1280468 135.2727646  79.1438035
  97.3148334 135.5721816  79.5503227  98.6239463 134.8783335  79.8612517
 103.7254680 135.7369470  87.9752929 104.0804068 135.9640943  88.8347395
 104.3726811 136.0687847  87.3530184  97.6194543 132.8446001  84.7599270
  98.2593922 132.7034760  84.0622233  96.7872074 132.5580515  84.3837872
  98.3954847 142.1448432  80.8734262  99.1895446 141.6498752  80.6716837
  97.6846539 141.6166295  80.5101968  94.7037611 136.2891514  76.9494015
  93.7735199 136.2275969  77.1663977  94.7995083 135.7667466  76.1530656
  94.6223160 132.8146326  79.5372257  94.8829977 133.7291660  79.4281417
  95.4440332 132.3470769  79.6868870  96.0948085 134.2284084  86.7071081
  96.7671138 134.0201446  86.0583730  95.2677871 134.0306170  86.2676314
 101.9973657 130.8546024  88.7236742 101.3501572 131.5535974  88.6301219
 102.7674672 131.2882168  89.0912990 102.1737791 138.6926789  86.7833562
 103.1029851 138.8437949  86.6102529 101.7528821 138.7810810  85.9282208
 100.9726123 142.7177454  84.5532100 100.8337209 142.3496238  85.4258038
 100.1840719 143.2325093  84.3816057 102.5231338 142.0959056  81.9420937
 102.1881171 142.0559826  82.8378587 102.0235284 141.4303772  81.4691348
  96.4975582 137.5026687  87.4673519  96.3595380 136.7706925  88.0685058
  97.4080506 137.4135587  87.1857706 105.4590530 139.4415091  72.2157997
 104.8419700 138.7161919  72.1191050 104.9907018 140.2024451  71.8725071
  99.1257883 137.2146646  86.9557198  99.8357501 136.5739838  86.9143817
  99.0827191 137.4659541  87.8783379  97.8386817 134.2011864  88.7752838
  97.3024174 133.7502602  89.4274434  97.2503525 134.3357773  88.0323302
  97.2489076 133.6600515  71.3379301  96.3718542 133.5389316  70.9741548
  97.7246829 132.8686593  71.0858190  88.7691216 138.4477675  81.4320808
  89.4562256 138.1339405  80.8441824  88.6139345 139.3519040  81.1588060
  93.5725938 133.3367871  85.8605832  93.4884127 132.7293541  85.1256242
  92.7508644 133.8276890  85.8615328 103.7449652 131.8221435  81.2276027
 104.2418351 131.0691397  80.9077097 102.9736633 131.8585752  80.6619237
 104.8279433 140.5793122  78.8014451 103.8935711 140.6994585  78.6319155
 105.0056101 139.6765589  78.5374460 100.3284621 133.9638818  80.9547712
  99.9582408 133.4109858  81.6428617 100.8243713 133.3596951  80.4022712
 108.2151984 136.4210441  79.3364485 108.6812436 137.2538433  79.2624787
 108.6659484 135.9555423  80.0409743 106.1868647 128.7891028  83.3755386
 105.2731726 129.0195255  83.5437593 106.6161748 128.8729473  84.2269418
 105.9575105 136.9780920  85.8755280 105.3046555 137.2256828  85.2207733
 106.3355485 136.1645059  85.5417757 102.0062678 137.7200731  92.3621317
 101.3303315 137.6194861  93.0323692 102.8290312 137.5639945  92.8257314
  93.7541537 143.9572668  84.9833832  94.3394974 143.2116356  85.1161737
  93.5566376 144.2676625  85.8670496  88.3459192 136.5278268  83.7038276
  88.3843292 135.9941859  84.4975394  87.8399485 136.0013474  83.0849253
  95.7249954 131.3742809  87.2000818  95.7891281 132.2357640  86.7878216
  95.6617075 130.7616810  86.4673176  95.2002227 133.4465941  90.8473852
  95.8274266 133.0643019  91.4611376  94.3430146 133.2280143  91.2129545
  91.9767770 135.2542370  76.7792207  92.2721211 134.3453049  76.7259261
  91.0755805 135.2330110  76.4573209  95.5062017 133.3298367  82.7619756
  94.7848602 133.9434335  82.6227229  96.2955272 133.8656132  82.6836401
  98.3088330 130.6652793  89.0360407  98.8322732 130.9115090  89.7986717
  98.0900663 131.4972828  88.6163545  93.7055611 132.9356468  76.9031532
  93.3768317 132.0553847  76.7206638  94.0594982 132.8804137  77.7907921
  96.8197434 133.2229438  77.2707010  97.1593507 133.7515359  76.5485618
  97.2669555 133.5609844  78.0465576  99.5140875 131.6066489  86.7210078
  99.1737696 130.8074302  87.1230758  98.8079881 131.9068199  86.1486911
 100.1657347 128.6915801  85.1737401 100.9883416 128.2176279  85.0516291
 100.4095411 129.4706285  85.6736087  98.8065581 131.7204059  75.4700303
  99.5273944 132.0985312  74.9664019  98.1830886 132.4392936  75.5735280
 102.9496704 132.4249208  76.4058635 103.1660319 133.3073846  76.1047463
 102.4690772 132.0335422  75.6764277  97.6895926 135.3834922  82.9829379
  97.5440506 135.6975225  83.8753661  97.2121129 136.0019822  82.4300278
  99.5492309 132.3737470  83.0310269  99.5353877 131.4778563  82.6942567
 100.2664737 132.3808133  83.6648555 101.4018439 132.8074810  85.0763396
 101.1436217 133.7291880  85.0747727 100.8703480 132.4105244  85.7663861
  92.1641588 137.9240266  85.9217041  91.6195056 138.7000074  86.0537315
  93.0420938 138.2711070  85.7636162  98.9529205 131.2551850  78.2997839
  99.0745116 130.3268496  78.4988727  98.6631247 131.2690536  77.3876155
 101.8220395 128.9406760  81.4364559 101.8442092 129.0046093  80.4816539
 102.2388454 128.1011269  81.6305065  92.9507610 137.0510162  88.8147198
  92.2089346 137.1992798  89.4011828  92.6300354 137.3118428  87.9513947
  93.3964223 144.9375591  80.8457592  94.2222243 144.6379363  80.4656236
  93.0458275 144.1683213  81.2947381  98.3645757 144.2902059  82.9155266
  97.7425766 143.6272764  82.6157494  99.0350624 144.3163191  82.2328914
  91.5972828 142.8561917  81.8046526  90.7604737 142.4284092  81.6230527
  91.5696474 143.0494361  82.7417317  98.4370284 132.7683847  92.5087772
  98.4858440 133.6445970  92.1265541  98.9792798 132.2261240  91.9359415
  97.9259264 142.8405983  76.3913726  98.0747384 143.5241447  75.7380399
  98.7325707 142.8211073  76.9063182 106.3326767 136.1448365  90.4180944
 107.2336630 136.0054830  90.1264942 106.4074742 136.3102820  91.3579122
 100.6669573 133.5215220  89.2634130  99.7972882 133.8148786  88.9916719
 100.9029053 134.1055665  89.9841394  95.6811897 138.8671160  77.3974795
  95.4357938 137.9633490  77.5955005  95.8507811 138.8688311  76.4554273
 103.3708606 129.7394837  86.7799551 103.8890550 130.4755864  86.4546039
 103.0163739 130.0458830  87.6146310  94.9507544 134.5999518  74.8960957
  94.2576789 134.6743873  74.2400993  94.7059296 133.8359861  75.4182474
 103.6221201 126.1595119  82.3000447 103.9022954 125.4918308  82.9260874
 104.4071807 126.3524215  81.7875111 107.4930059 134.5812753  86.0472023
 108.4447482 134.6810851  86.0684247 107.3233509 133.7891022  86.5570107
 105.5144438 131.6668336  86.2331423 104.9194370 131.9473349  85.5377912
 105.2294135 132.1562237  87.0048165 101.8101468 136.6714926  71.2041526
 102.7560572 136.5421134  71.2729944 101.4315713 135.9329588  71.6810954
 110.1212625 134.5929916  85.2072605 109.6051674 133.8088373  85.0202534
 111.0052574 134.2648633  85.3719125 107.7823352 128.3370932  81.1668418
 107.5848173 128.0286020  82.0511750 108.3923058 129.0632571  81.2966348
 101.6940160 140.7232672  92.6642183 102.6143170 140.9011271  92.8582230
 101.6589743 139.7788717  92.5121882  99.9944385 134.5964902  71.1396411
  99.0875840 134.2998015  71.2159125 100.2720366 134.2994720  70.2730698
  90.9122325 135.9171266  81.5895458  90.5925109 135.0636574  81.2969832
  90.3655753 136.1319844  82.3453425  94.6902233 138.6333707  85.3064964
  94.9088242 139.5650814  85.3252998  95.1028006 138.2741681  86.0919768
 101.6106450 129.1401792  77.2940653 100.8007179 128.7948877  77.6695899
 102.2990867 128.8309336  77.8828264 103.5396999 128.2179839  78.9164949
 104.0928037 128.6375292  79.5754972 103.7767085 127.2915587  78.9587905
  99.5630098 134.2066912  94.6967713  99.4626825 135.1561269  94.6279804
  99.3451640 133.8785151  93.8243783  98.7643169 131.4551837  71.2808391
  99.6262333 131.7806736  71.5404208  98.9493513 130.6683333  70.7681456
  90.7810585 139.5374177  83.5588579  90.0874057 139.1228130  83.0458534
  91.5283576 139.5794714  82.9621998 106.9175806 130.3280364  78.4243614
 106.3374475 130.9865168  78.0421666 106.6511738 129.5057708  78.0131031
 105.3679372 129.7285422  80.6264934 105.8679151 129.8401956  79.8179253
 106.0114980 129.4246474  81.2665742  99.4261368 137.6364051  93.5132775
  98.9428450 138.4364411  93.7196664  99.5122307 137.6471996  92.5600219
  92.6947328 139.4692431  81.4354594  92.6718016 139.5680118  80.4836477
  93.0047964 140.3157582  81.7571760  95.3534705 141.5268586  85.5501209
  96.3077959 141.4952528  85.4831140  95.1547229 141.0659210  86.3651435
  95.9434088 140.0969702  88.1172006  96.7626977 140.5913781  88.1406844
  96.2170895 139.1801670  88.0889574 105.7000684 132.4880454  77.4799962
 104.8126539 132.7730105  77.2620157 106.1154673 132.3274218  76.6327239
 109.0515220 132.5126975  81.1954301 109.8275610 133.0023428  81.4678918
 108.3263354 132.9385029  81.6526171 111.4887779 133.2254594  82.2528242
 112.0832269 132.9850330  81.5421550 111.5614362 132.5061725  82.8801778
  93.7084934 147.0688205  82.5671407  93.5739402 146.3088606  82.0009405
  93.2916997 147.7929105  82.1000195 105.6741708 138.0034990  77.6950252
 105.6176909 138.4603542  76.8557884 106.2270050 137.2425675  77.5173095
 109.4846513 133.7924722  78.5200372 109.2283448 133.3921358  79.3508579
 108.8599382 134.5068516  78.3950511 106.4076487 139.1939771  74.9902781
 106.3525291 139.0284043  74.0491225 105.7822542 139.9015804  75.1464971
  91.1969002 134.4307836  88.8164203  91.8427865 133.9206790  89.3051429
  90.9886153 135.1676517  89.3907629  99.7172612 128.6947880  74.5688100
  99.7051282 129.6389720  74.7256370 100.6096034 128.5118026  74.2747561
 103.5324732 125.2890657  78.8234036 102.7657128 124.7349144  78.9690719
 103.9435437 125.3612526  79.6848188  95.5366493 131.5775453  92.9139218
  96.3997954 131.2212258  93.1242542  94.9631904 131.2389348  93.6014622
  28.6664835   7.5804090  70.4446925  29.3043245   7.4610838  69.7410265
  28.5485678   8.5284934  70.5034877  25.4754541   7.5331519  70.3808450
  25.1373053   7.4172583  69.4928985  26.3444310   7.1322684  70.3609456
  21.3341357   9.3866995  66.3705341  20.7706222   9.2956932  65.6021629
  21.2193752   8.5666899  66.8507833  25.9574324   8.6866370  76.3394656
  25.9462965   8.2919169  75.4675159  26.1194964   7.9532443  76.9328427
  18.8805789  10.8818187  69.2089561  19.6727081  10.5409011  68.7935861
  19.1202439  10.9913162  70.1291715  26.9140916  13.0537963  61.6819806
  26.2628896  13.6392043  61.2953820  27.7085279  13.5844158  61.7414843
  20.8396543  10.1427100  62.0806940  21.6127419   9.5956087  61.9419816
  21.1921942  11.0071349  62.2921402  22.6781586  11.4703482  75.2873840
  22.3871452  12.3749113  75.1720506  23.3138570  11.5120010  76.0017909
  23.6037792   8.8480331  71.8775199  24.2001365   8.6236353  71.1632162
  23.6612764   8.1065076  72.4800647  23.1762821   6.3019766  59.7125390
  23.4288341   5.7801287  58.9508853  22.2387380   6.1385911  59.8152074
  28.2206104   5.3055544  67.5200133  29.0069193   4.8874967  67.1690550
  28.4844808   6.2101636  67.6881782  28.3916181  10.7428395  62.2188790
  27.7562014  10.8163021  62.9309695  28.0613587  11.3321993  61.5407869
  33.6214531   5.2430777  68.4233112  34.3539703   4.6729994  68.6570941
  32.8653886   4.8552378  68.8639617  22.8959110   8.2047872  61.9149765
  22.7795368   7.5292775  62.5830849  23.0061369   7.7180246  61.0981918
  25.2390650   7.6658019  65.6196454  24.8748858   7.1388640  66.3309376
  26.0957766   7.2756488  65.4462940  27.6371471  11.1564898  72.2823633
  27.3372194  12.0589936  72.1739440  27.2922530  10.8897081  73.1344786
  21.0883952   7.6078694  68.3160338  20.1634449   7.4754908  68.5238029
  21.3368365   8.3872914  68.8130280  31.0368614   3.6747438  69.9621071
  30.1285492   3.6062846  69.6679831  30.9856210   4.1519383  70.7902896
  24.8585358   5.1505576  61.6004470  24.7384984   5.5962627  62.4389950
  24.1637947   5.4990894  61.0418008  22.6192250  17.9209218  65.2494601
  22.5416280  18.8717043  65.3283081  22.0153894  17.5755090  65.9069527
  25.1109480   5.0937083  77.9055968  24.3342814   5.6531003  77.8958832
  25.7500043   5.5793866  78.4270838  32.9030261   1.8763876  71.7398944
  32.2604641   2.1696409  71.0938739  32.3985189   1.7616796  72.5452141
  30.5570424   5.6227049  62.4284804  31.4688281   5.8554436  62.2532501
  30.0480072   6.2064094  61.8659882  23.3655853   7.9022537  77.4673935
  24.1070537   8.4407581  77.1908758  22.6592838   8.5288825  77.6245487
  28.8411192  10.0451677  76.0646096  29.2494548   9.6034088  75.3200729
  28.1188454   9.4704305  76.3180289  25.1942262   4.9824284  73.4379653
  26.0403457   5.4063697  73.5814302  25.1340900   4.3257908  74.1318216
  29.1640007  10.6052868  69.8198385  28.5348869  10.7698582  69.1174453
  28.7765669  11.0194477  70.5909349  33.0429239  11.5407306  67.1742749
  32.3580277  11.9206207  66.6239782  33.1273088  12.1502632  67.9074697
  28.3441708   2.6428652  75.0960827  28.1002639   3.3970713  74.5595103
  28.6201638   3.0214000  75.9308074  30.2980170   9.1867265  73.7738092
  30.5097066   9.8299025  73.0972474  30.2509919   8.3529581  73.3060023
  27.9006399   1.7985085  70.6774665  27.0390878   2.0966339  70.9691402
  27.9268834   2.0155484  69.7455697  24.7167969  10.3427276  67.0848470
  25.1806314  10.6214979  66.2953093  24.4524767   9.4410720  66.9021561
  21.6092050   9.8898757  70.0228234  22.1793407  10.3186026  69.3845718
  22.2000162   9.6081342  70.7212419  23.6536855   6.4650428  63.8938035
  24.3560898   6.9171472  64.3611962  23.3217483   5.8234247  64.5217929
  31.4125998  12.0639220  71.9460450  32.2343442  11.6619407  71.6643131
  31.4088401  11.9607454  72.8976566  25.1782602  11.6123263  74.1021160
  25.2427034  12.0743671  74.9379332  24.4693526  10.9820628  74.2303470
  39.5031991   8.4077969  68.2945421  38.7495700   7.8385367  68.1389426
  39.6379533   8.3740633  69.2416056  24.8930619  13.2791371  63.9700141
  24.7576294  14.1242907  64.3984988  25.4340432  13.4810648  63.2066074
  18.3460017  10.7966809  64.5428066  18.8584537  11.5910059  64.6933630
  18.9982730  10.0993099  64.4761667  20.1554901  13.9132565  66.6250819
  20.3321530  14.8350530  66.4371803  20.9511735  13.5990984  67.0545199
  26.5199096  13.9014937  78.1000483  26.0762950  13.1151316  77.7821387
  27.1816309  14.0894088  77.4344373  21.2786217  15.4310739  72.6261161
  21.8293642  15.3027802  71.8538155  20.4397693  15.7305628  72.2756054
  28.6180334  14.1817737  76.1281884  28.5998809  15.0026618  75.6362153
  29.5400254  14.0571813  76.3532025  25.0753388  11.6961867  76.9705392
  25.6081725  10.9350155  76.7404700  24.5467469  11.4035519  77.7129547
  28.2073366   6.7930544  61.0071469  27.6919989   7.5635148  61.2459857
  27.9350674   6.1195680  61.6304531  33.1807640   9.5462898  62.9424643
  32.4037083   9.2074058  62.4979805  33.8599121   9.5515522  62.2679608
  27.9959669   4.6657636  62.8331250  27.6909804   4.9803785  63.6841394
  28.9490111   4.7439056  62.8758583  26.4406101  10.8247859  64.4824204
  25.9127462  10.0900619  64.1697442  25.9393603  11.6022536  64.2364173
  31.4198947   9.0196880  69.5991251  30.7622621   9.7096141  69.6871379
  32.2239346   9.4093312  69.9425237  30.2304405   7.3741252  67.6495192
  30.7436287   8.0071244  68.1516902  30.8805629   6.7742448  67.2838552
  24.5858701   8.6428070  57.4859177  23.6785763   8.4117323  57.6850326
  25.0829733   7.8465689  57.6733159  27.4926780  17.3525577  60.4055864
  26.8188478  17.6557273  61.0140821  27.8792602  18.1554657  60.0561321
  26.7085236   4.8490708  69.8953533  25.7907798   5.0705655  69.7375221
  27.1245380   4.9237018  69.0365240  27.4920284   6.2482124  65.0256213
  28.2392103   6.7603521  64.7163335  27.7611874   5.9266176  65.8860607
  25.7646934   8.7440664  62.0083167  24.8558154   8.4599697  62.1055637
  25.7942018   9.1639743  61.1486474  30.9966202  12.3547254  65.7774335
  30.5428529  11.5138164  65.8339526  30.3660168  12.9908652  66.1149115
  29.9399121   3.2839240  67.0075002  29.2021878   2.7716626  67.3385245
  30.1925895   2.8439622  66.1958279  29.4399141  14.1923751  66.7124153
  29.7322115  14.7528808  65.9936519  29.9497761  14.4852312  67.4677312
  24.3131828   6.3569285  68.1092963  24.3680438   5.4043121  68.0335439
  23.5023030   6.5128724  68.5934261  25.4623022  10.2849408  59.3471246
  25.0242452   9.5685267  58.8876883  26.2033463  10.5125523  58.7856337
  24.4032766  14.9704102  67.8017606  24.3608945  15.1964948  66.8726138
  25.3195465  14.7367476  67.9503408  27.8498400   5.4388169  74.6998236
  28.2047788   5.6659642  75.5592701  28.4970531   5.7706546  74.0775491
  33.5796137   8.5606605  65.4047565  33.4414035   8.7508201  64.4768754
  33.2232356   9.3225988  65.8615616  33.6065516  10.6283132  70.4158836
  34.0402023  10.5358421  71.2641890  34.3197097  10.6040633  69.7778852
  22.5198567  11.8467131  67.5979569  23.3139165  11.3517451  67.3962144
  21.8090259  11.3184994  67.2347275  27.3393411  14.2285226  71.9491937
  27.3930434  14.7976163  72.7169653  26.4708193  14.3987111  71.5845974
  34.4681066  10.6706833  72.9491722  34.6616956  11.5752643  73.1950996
  34.3681684  10.2114252  73.7830307  29.5296175  10.8213576  78.5232602
  29.3781681  10.5924127  77.6062686  29.5200854  11.7784177  78.5363947
  26.2981511   8.3945488  73.5078869  27.2273571   8.5456648  73.3347836
  25.8772541   8.4829509  72.6527515  25.0969843  12.4196153  71.2777406
  24.9580929  12.0514937  72.1503344  24.3084439  12.9343792  71.1061364
  25.6917995  17.5205249  62.6202943  25.8669751  17.0493292  63.4348565
  25.0050783  18.1471015  62.8484203  26.6475058  11.7977755  68.6666244
  26.3124891  11.7578525  69.5623894  26.1479004  11.1322471  68.1936654
  20.6219302   7.2045385  74.1918825  20.4839100   6.4725624  74.7930364
  21.5324225   7.1154285  73.9103013  29.5834250   9.1433790  58.9403304
  28.9663420   8.4180618  58.8436356  29.1150738   9.9043150  58.5970378
  23.2501603   6.9165345  73.6802505  23.9601221   6.2758537  73.6389123
  23.2070911   7.1678240  74.6028686  31.2388381  13.8532698  76.6009084
  31.1800927  13.1691918  75.9339667  31.6407900  14.5951688  76.1489710
  20.2579080  20.6694612  69.3942803  20.4975678  21.3013136  70.0721821
  19.4148277  20.3182652  69.6808162  31.2405789  11.8172282  74.8323064
  30.3532567  11.4798204  74.9549463  31.8104340  11.0855313  75.0691829
  24.7706942  16.4773734  71.7984307  24.6977113  17.2828706  72.3103611
  24.3284335  16.6765700  70.9732328  24.5596722  15.7145504  65.3087128
  23.7764244  16.2567185  65.4025353  25.2589467  16.2319484  65.7081370
  35.7223129   7.2280499  69.5939625  35.7113005   8.1105215  69.2233558
  34.8540509   6.8752050  69.3994162  27.2305626  16.3760568  73.9542466
  27.9433598  17.0108033  73.8818367  26.7395654  16.4724434  73.1382467
  28.9523152  10.2811821  65.5259757  28.0179431  10.4013284  65.3564462
  29.1299821   9.3784288  65.2619767  32.3395704   6.1229140  66.0609791
  32.8056156   6.9557132  65.9870094  32.7903204   5.6574122  66.7655050
  22.2817539  14.1255012  74.7748036  22.9826999  14.7591495  74.9277431
  21.8112654  14.4669743  74.0143676  30.4071935  12.4672962  63.0595943
  30.6831779  12.3529556  63.9689817  29.5376434  12.0690446  63.0208116
  30.0818825   6.6799619  72.6000587  29.4290275   6.9275527  71.9453039
  30.4599205   5.8663757  72.2663064  27.0425999  16.7159312  66.7028757
  27.2248393  15.8980968  67.1656509  27.8658985  16.9327005  66.2653647
  27.3768164  15.6427498  63.9643805  27.9055931  15.1319952  63.3513968
  27.6396384  15.3270028  64.8289339  26.1306398   7.4219430  79.0866624
  25.4547035   7.3213560  79.7568999  26.9534032   7.2658644  79.5502621
  17.8785257  13.6591367  71.7079139  18.4638694  12.9135055  71.8407043
  17.6810096  13.9695324  72.5915803  20.7323912  16.6942614  66.7241581
  20.0634288  17.1788742  66.2405621  20.5936782  16.9411835  67.6384960
  24.8729181  18.7286358  73.3224240  25.4247489  18.8917979  74.0873325
  25.2135374  19.3190796  72.6504265  29.7240055  13.5547615  79.1772894
  30.2679959  14.1677574  78.6827849  29.1426900  14.1127194  79.6939907
  28.0097568  16.6768333  70.3087922  27.8848708  15.8758073  69.7998867
  28.6676659  17.1714527  69.8201892  30.0732477  14.4777353  71.9367472
  29.1262812  14.3582705  71.8645799  30.4215250  13.5899851  72.0193733
  27.0778910  14.2730070  68.1371824  26.9303872  13.3446777  68.3179394
  27.9032403  14.2950160  67.6528900  30.6813032  15.0958628  69.2236697
  31.6059579  14.8901490  69.0861148  30.5128335  14.8475030  70.1326039
  30.4708348  15.6144296  64.5798788  30.6445225  15.0490718  63.8272641
  30.9637239  16.4145191  64.3978278  36.3247739   8.3780719  66.1989088
  36.7678885   7.6288044  65.8008211  35.4474249   8.3690855  65.8162820
  31.4583520  14.9311060  61.6795687  32.1534425  15.5517753  61.8983001
  31.8006671  14.0806411  61.9548065  33.3574944  12.3810766  63.2083018
  33.8826268  12.7198038  62.4832338  33.2697296  11.4457781  63.0246152
  25.0194992  16.2944839  75.3372894  25.3282119  16.0493986  76.2095594
  25.8170474  16.4991478  74.8491764  25.0415604  18.4482749  67.5678271
  24.6020595  17.9559128  68.2611127  25.7923721  17.9055717  67.3270346
  17.5207943  14.6394290  67.5702899  18.3465963  14.3398062  67.1901542
  17.1701995  13.8701912  68.0192687  22.4889476  13.9920758  69.6400572
  21.8669486  13.3291463  69.3402800  23.1594343  14.0181890  68.9574220
  15.7216548  12.5580616  68.5291832  14.8848457  12.1302791  68.3475834
  15.6940194  12.7513060  69.4662624  33.0468850  13.0143669  78.5134215
  32.2564393  12.9967808  77.9738715  32.8102204  13.5531963  79.2683252
  33.1666725   9.8636136  75.8266944  33.2164730   9.6986143  76.7682467
  33.0580648   8.9963395  75.4364825  22.0502983  12.5424681  63.1159033
  22.1991104  13.2260146  62.4625706  22.8569427  12.5229772  63.6308489
  30.4570487   5.8467064  77.1426251  31.3580350   5.7073529  76.8510249
  30.5318462   6.0121519  78.0824428  34.6684921  12.2833077  76.0708966
  34.3769730  12.6463058  76.9072427  34.0557053  11.5700086  75.8922298
  35.8680604   9.8485957  68.5911536  36.7027495  10.2875761  68.7549096
  36.0039733   9.3724610  67.7719782  32.9172110   7.4065692  74.5389024
  33.3926231   7.5993338  73.7307875  31.9937675   7.4624878  74.2932407
  19.8055616   8.5689859  64.1220102  19.5601658   7.6652189  64.3200312
  19.9751531   8.5707010  63.1799580  25.5498389  15.0372812  60.5870780
  24.9772356  15.6562999  60.1341252  26.1231183  15.5872174  61.1210702
  31.6173779   4.2831452  72.7717329  32.5691202   4.3829550  72.7929553
  31.4477229   3.4909721  73.2815414  29.6388158   1.3687035  72.9576730
  29.0438090   1.6492048  72.2623219  29.3537855   1.8580936  73.7293471
  28.7695649  15.3209962  61.7179363  29.7026322  15.2555524  61.9212238
  28.6818861  16.1566229  61.2593895  31.3983665  14.6375832  58.6783310
  31.3197297  14.3035696  59.5719068  32.2193332  15.1297600  58.6774783
  34.0961857   7.5037572  71.8859629  34.0638177   6.5653572  72.0719313
  34.7062480   7.5821608  71.1525454  25.9345187   6.3733625  57.9286833
  26.8804292   6.2439833  57.9975251  25.5559432   5.6348287  58.4056261
  34.2456345   4.2948615  71.9317912  33.7295394   3.5107072  71.7447841
  35.1296294   3.9667332  72.0964431  39.9138406   8.5653579  71.0265666
  40.6441795   8.3038867  71.5873369  39.3045352   7.8282300  71.0667734
  37.9953703   6.7061441  71.6240117  37.2686867   6.5717406  71.0156608
  37.5800990   7.0138270  72.4296835  25.8183880  10.4251371  79.3887490
  26.7386889  10.6029970  79.5827536  25.7833463   9.4807416  79.2367189
  18.8145952   8.3352405  72.0310271  19.0331962   9.2669513  72.0498305
  19.2271726   7.9760380  72.8165075  31.0419526   0.0299063  65.1488920
  30.4618195   0.6883867  64.7666973  30.7755458  -0.7923593  64.7376338
  23.5505088   7.3382750  80.2378082  23.0672170   8.1383110  80.4441971
  23.6366027   7.3490695  79.2845526  16.8191047   9.1711130  68.1599901
  16.7961736   9.2698817  67.2081784  17.1291684  10.0176281  68.4817067
  19.4778425  11.2287285  72.2746515  20.4321679  11.1971227  72.2076447
  19.2790949  10.7677908  73.0896741  20.0677807   9.7988401  74.8417313
  20.8870696  10.2932479  74.8652150  20.3414615   8.8820369  74.8134881
  29.8244404   2.1899153  64.2045269  28.9370259   2.4748804  63.9865463
  30.2398393   2.0292916  63.3572545  33.1758940   2.2145674  67.9199608
  33.9519330   2.7042127  68.1924225  32.4507074   2.6403728  68.3771477
  35.6131498   2.9273293  68.9773548  36.2075989   2.6869029  68.2666857
  35.6858082   2.2080424  69.6047085  17.8328654  16.7706904  69.2916713
  17.6983122  16.0107305  68.7254711  17.4160716  17.4947804  68.8245502
  28.9687617  11.9543828  58.2993289  29.6723467  12.1593830  58.9150944
  28.2450266  12.5220590  58.5642372  29.7985427   7.7053689  64.4195559
  29.7420629   8.1622240  63.5803191  30.3513770   6.9444374  64.2418401
  33.6090233   3.4943421  65.2445678  33.3527168   3.0940057  66.0753886
  32.9843101   4.2087215  65.1195817  37.9202571   6.2339494  67.7516970
  37.3602129   6.3032683  68.5248532  37.3146075   6.0580479  67.0316466
  20.9897780  17.6676221  69.5035156  20.8730164  18.6121654  69.4013846
  20.1690226  17.3649783  69.8920955  30.8774315  12.3926357  60.3491749
  31.7119918  11.9607555  60.1669223  30.7158657  12.2208371  61.2768643
  30.5320207   8.8958470  61.7148088  30.4769011   8.7302742  60.7736532
  29.9066262   9.6034503  61.8710278  27.8466114  11.2007382  81.0401651
  28.7157274  11.3748034  80.6788286  27.3672865  12.0201799  80.9177380
  22.0152294  18.3204483  72.7191084  22.9179541  18.3528093  73.0357579
  21.7889664  17.3904934  72.7337420  23.7705896  17.0735470  69.3801163
  22.8201527  17.0737331  69.2665535  24.0738382  16.3268204  68.8637198
  32.1735112  24.7158913  66.3705341  31.6099977  24.6248850  65.6021629
  32.0587507  23.8958817  66.8507833  29.7199544  26.2110104  69.2089561
  30.5120835  25.8700929  68.7935861  29.9596194  26.3205079  70.1291715
  37.7534670  28.3829880  61.6819806  37.1022650  28.9683961  61.2953820
  38.5479033  28.9136075  61.7414843  31.6790297  25.4719017  62.0806940
  32.4521173  24.9248005  61.9419816  32.0315696  26.3363267  62.2921402
  34.4431547  24.1772248  71.8775199  35.0395119  23.9528271  71.1632162
  34.5006518  23.4356994  72.4800647  34.0156575  21.6311684  59.7125390
  34.2682096  21.1093205  58.9508853  33.0781134  21.4677829  59.8152074
  39.0599858  20.6347462  67.5200133  39.8462947  20.2166885  67.1690550
  39.3238562  21.5393554  67.6881782  39.2309935  26.0720312  62.2188790
  38.5955768  26.1454939  62.9309695  38.9007342  26.6613911  61.5407869
  33.7352864  23.5339790  61.9149765  33.6189122  22.8584693  62.5830849
  33.8455124  23.0472163  61.0981918  36.0784405  22.9949937  65.6196454
  35.7142612  22.4680558  66.3309376  36.9351521  22.6048406  65.4462940
  35.7189892  18.0239836  60.6157803  35.8864294  18.8920073  60.9828274
  35.5287061  18.1867118  59.6919092  31.9277707  22.9370612  68.3160338
  31.0028203  22.8046826  68.5238029  32.1762120  23.7164831  68.8130280
  35.6979113  20.4797494  61.6004470  35.5778738  20.9254545  62.4389950
  35.0031701  20.8282811  61.0418008  29.2886518  22.5803886  69.1504127
  29.4178899  22.8338365  70.0643538  28.6083969  23.1731594  68.8308782
  33.4586005  33.2501136  65.2494601  33.3810035  34.2008961  65.3283081
  32.8547649  32.9047008  65.9069527  41.3964179  20.9518967  62.4284804
  42.3082035  21.1846354  62.2532501  40.8873826  21.5356011  61.8659882
  34.2049607  23.2314454  77.4673935  34.9464291  23.7699498  77.1908758
  33.4986592  23.8580743  77.6245487  35.5561723  25.6719194  67.0848470
  36.0200069  25.9506897  66.2953093  35.2918521  24.7702638  66.9021561
  32.4485804  25.2190675  70.0228234  33.0187161  25.6477943  69.3845718
  33.0393916  24.9373260  70.7212419  34.4930609  21.7942346  63.8938035
  35.1954653  22.2463390  64.3611962  34.1611238  21.1526165  64.5217929
  32.9410971  20.3854103  78.2689245  32.3109631  21.0670383  78.5024642
  32.8347059  20.2737184  77.3242383  28.2355943  20.0525899  69.1955169
  27.4454997  20.3083427  68.7195280  28.7267191  20.8674236  69.3007210
  30.1870689  20.4170478  66.1538646  29.3901852  20.5289172  66.6722141
  29.9596281  20.7557130  65.2879536  26.5193646  20.3056389  71.6270160
  26.7701685  21.1903399  71.8927736  27.0553195  20.1260991  70.8545252
  35.7324374  28.6083289  63.9700141  35.5970049  29.4534824  64.3984988
  36.2734186  28.8102566  63.2066074  32.2191713  14.6874868  80.6314496
  31.8258659  14.1341067  81.3062140  33.0357854  14.9985447  81.0221013
  29.1853771  26.1258727  64.5428066  29.6978292  26.9201977  64.6933630
  29.8376484  25.4285017  64.4761667  30.9948656  29.2424483  66.6250819
  31.1715284  30.1642448  66.4371803  31.7905489  28.9282902  67.0545199
  30.2801012  21.2889115  76.5012982  30.1654528  20.3874372  76.8020081
  29.4245530  21.5352811  76.1497799  32.1179971  30.7602657  72.6261161
  32.6687397  30.6319720  71.8538155  31.2791447  31.0597546  72.2756054
  39.0816837  12.1313850  72.4999034  38.7381107  13.0215492  72.4238145
  39.4495800  11.9415508  71.6368619  27.1502688  24.4547381  65.3187636
  27.9877910  24.8644389  65.1021344  27.3280956  23.5146823  65.2887830
  39.0467120  22.1222462  61.0071469  38.5313744  22.8927066  61.2459857
  38.7744429  21.4487598  61.6304531  36.6314231  16.9672162  66.0656708
  35.7755827  16.5779013  65.8862346  37.0441183  17.0464123  65.2056493
  34.4056264  14.5857235  69.4714449  35.2709260  14.3900044  69.1120339
  34.4733773  14.3567587  70.3983806  38.8353423  19.9949554  62.8331250
  38.5303559  20.3095703  63.6841394  39.7883865  20.0730974  62.8758583
  37.2799855  26.1539777  64.4824204  36.7521217  25.4192537  64.1697442
  36.7787358  26.9314453  64.2364173  32.0118583  16.8159443  66.8430816
  32.5862335  16.5934625  66.1104009  32.5989565  16.8848138  67.5959417
  32.3388170  18.8463904  60.8626701  31.5025482  19.1838591  61.1835976
  32.1992940  18.7112884  59.9253838  34.3141250  13.6900692  65.5705885
  33.6605663  13.3749709  64.9462500  34.2721725  13.0676433  66.2965708
  35.4252455  23.9719987  57.4859177  34.5179517  23.7409241  57.6850326
  35.9223487  23.1757606  57.6733159  38.3320534  32.6817494  60.4055864
  37.6582233  32.9849191  61.0140821  38.7186356  33.4846575  60.0561321
  38.3314039  21.5774041  65.0256213  39.0785858  22.0895439  64.7163335
  38.6005628  21.2558094  65.8860607  36.6040689  24.0732582  62.0083167
  35.6951908  23.7891615  62.1055637  36.6335773  24.4931661  61.1486474
  40.2792895  29.5215668  66.7124153  40.5715870  30.0820725  65.9936519
  40.7891516  29.8144229  67.4677312  27.1728859  21.7938096  65.9898370
  26.9753259  21.2007457  65.2649436  26.6175523  21.4890306  66.7074308
  35.1525583  21.6861203  68.1092963  35.2074193  20.7335039  68.0335439
  34.3416785  21.8420642  68.5934261  36.3016777  25.6141326  59.3471246
  35.8636206  24.8977185  58.8876883  37.0427217  25.8417441  58.7856337
  33.0917943  20.3038262  65.8683342  32.2785808  20.6032433  66.2748534
  33.5876937  19.9093951  66.5857824  35.2426521  30.2996019  67.8017606
  35.2002699  30.5256866  66.8726138  36.1589219  30.0659394  67.9503408
  32.5832017  17.8756618  71.4844577  33.2231397  17.7345377  70.7867540
  31.7509548  17.5891131  71.1083179  33.3592321  27.1759048  67.5979569
  34.1532920  26.6809368  67.3962144  32.6484014  26.6476911  67.2347275
  38.1787166  29.5577144  71.9491937  38.2324188  30.1268080  72.7169653
  37.3101947  29.7279029  71.5845974  29.6675085  21.3202130  63.6739322
  28.7372673  21.2586586  63.8909284  29.7632557  20.7978083  62.8775963
  29.5860634  17.8456943  66.2617563  29.8467451  18.7602276  66.1526724
  30.4077806  17.3781385  66.4114176  31.0585559  19.2594700  73.4316388
  31.7308613  19.0512062  72.7829037  30.2315346  19.0616786  72.9921620
  35.9363597  27.7488070  71.2777406  35.7974683  27.3806855  72.1503344
  35.1478194  28.2635710  71.1061364  36.5311749  32.8497167  62.6202943
  36.7063505  32.3785210  63.4348565  35.8444537  33.4762933  62.8484203
  37.4868813  27.1269673  68.6666244  37.1518645  27.0870443  69.5623894
  36.9872758  26.4614389  68.1936654  31.4613056  22.5337303  74.1918825
  31.3232854  21.8017542  74.7930364  32.3717980  22.4446203  73.9103013
  40.4228004  24.4725707  58.9403304  39.8057175  23.7472536  58.8436356
  39.9544493  25.2335068  58.5970378  31.0972835  35.9986530  69.3942803
  31.3369433  36.6305054  70.0721821  30.2542031  35.6474570  69.6808162
  32.2126550  18.6911132  58.0624608  31.3356016  18.5699932  57.6986855
  32.6884303  17.8997210  57.8103497  23.7328690  23.4788291  68.1566115
  24.4199730  23.1650021  67.5687130  23.5776819  24.3829656  67.8833366
  28.5363412  18.3678488  72.5851139  28.4521601  17.7604158  71.8501549
  27.7146119  18.8587506  72.5860635  35.6100697  31.8065652  71.7984307
  35.5370868  32.6120624  72.3103611  35.1678090  32.0057618  70.9732328
  35.3990476  31.0437422  65.3087128  34.6157998  31.5859102  65.4025353
  36.0983221  31.5611402  65.7081370  38.0699380  31.7052486  73.9542466
  38.7827352  32.3399951  73.8818367  37.5789409  31.8016352  73.1382467
  39.7916907  25.6103739  65.5259757  38.8573186  25.7305201  65.3564462
  39.9693575  24.7076205  65.2619767  35.2922095  18.9949434  67.6793018
  34.9219883  18.4420475  68.3673924  35.7881187  18.3907568  67.1268018
  33.1211294  29.4546930  74.7748036  33.8220753  30.0883412  74.9277431
  32.6506409  29.7961661  74.0143676  41.2465689  27.7964879  63.0595943
  41.5225533  27.6821474  63.9689817  40.3770188  27.3982364  63.0208116
  37.8819753  32.0451230  66.7028757  38.0642148  31.2272886  67.1656509
  38.7052739  32.2618922  66.2653647  38.2161919  30.9719415  63.9643805
  38.7449685  30.4611870  63.3513968  38.4790138  30.6561945  64.8289339
  28.7179012  28.9883285  71.7079139  29.3032448  28.2426972  71.8407043
  28.5203850  29.2987241  72.5915803  31.5717667  32.0234532  66.7241581
  30.9028042  32.5080660  66.2405621  31.4330537  32.2703752  67.6384960
  23.3096666  21.5588885  70.4283582  23.3480766  21.0252475  71.2220700
  22.8036959  21.0324090  69.8094559  35.7122935  34.0578275  73.3224240
  36.2641243  34.2209897  74.0873325  36.0529129  34.6482713  72.6504265
  30.6887429  16.4053425  73.9246124  30.7528755  17.2668256  73.5123522
  30.6254549  15.7927427  73.1918483  30.1639701  18.4776558  77.5719159
  30.7911740  18.0953635  78.1856683  29.3067620  18.2590760  77.9374851
  26.9405244  20.2852987  63.5037514  27.2358685  19.3763665  63.4504567
  26.0393280  20.2640726  63.1818516  38.8491323  32.0060251  70.3087922
  38.7242462  31.2049991  69.7998867  39.5070414  32.5006444  69.8201892
  30.4699491  18.3608983  69.4865062  29.7486077  18.9744951  69.3472535
  31.2592747  18.8966748  69.4081708  33.2725804  15.6963410  75.7605714
  33.7960206  15.9425707  76.5232023  33.0538138  16.5283445  75.3408851
  28.6693086  17.9667085  63.6276839  28.3405792  17.0864464  63.4451945
  29.0232456  17.9114753  64.5153228  37.9172664  29.6021987  68.1371824
  37.7697627  28.6738695  68.3179394  38.7426158  29.6242078  67.6528900
  31.7834909  18.2540054  63.9952316  32.1230981  18.7825976  63.2730925
  32.2307029  18.5920461  64.7710883  35.1294821  13.7226418  71.8982707
  35.9520891  13.2486896  71.7761598  35.3732885  14.5016901  72.3981394
  33.7703056  16.7514676  62.1945609  34.4911418  17.1295929  61.6909326
  33.1468360  17.4703553  62.2980587  37.9134179  17.4559825  63.1303942
  38.1297793  18.3384463  62.8292770  37.4328246  17.0646038  62.4009583
  32.6533400  20.4145538  69.7074686  32.5077981  20.7285841  70.5998968
  32.1758604  21.0330438  69.1545585  34.5129783  17.4048086  69.7555576
  34.4991352  16.5089179  69.4187874  35.2302211  17.4118750  70.3893862
  41.3102102  30.9436213  64.5798788  41.4838980  30.3782636  63.8272641
  41.8030994  31.7437108  64.3978278  27.1279062  22.9550883  72.6462347
  26.5832530  23.7310691  72.7782622  28.0058412  23.3021687  72.4881469
  33.9166679  16.2862466  65.0243146  34.0382590  15.3579113  65.2234033
  33.6268721  16.3001152  64.1121461  42.2977275  30.2602978  61.6795687
  42.9928180  30.8809671  61.8983001  42.6400425  29.4098329  61.9548065
  27.9145084  22.0820779  75.5392504  27.1726820  22.2303414  76.1257135
  27.5937828  22.3429044  74.6759254  35.8588747  31.6236757  75.3372894
  36.1675873  31.3785904  76.2095594  36.6564229  31.8283396  74.8491764
  35.8809359  33.7774667  67.5678271  35.4414349  33.2851045  68.2611127
  36.6317476  33.2347634  67.3270346  28.3601698  29.9686208  67.5702899
  29.1859718  29.6689979  67.1901542  28.0095750  29.1993830  68.0192687
  33.3283231  29.3212676  69.6400572  32.7063240  28.6583381  69.3402800
  33.9988098  29.3473808  68.9574220  26.5610303  27.8872534  68.5291832
  25.7242211  27.4594708  68.3475834  26.5333948  28.0804977  69.4662624
  33.4007758  17.7994464  79.2333078  33.4495914  18.6756587  78.8510848
  33.9430273  17.2571857  78.6604722  32.8896738  27.8716599  63.1159033
  33.0384858  28.5552064  62.4625706  33.6963181  27.8521689  63.6308489
  30.6449371  23.8981777  64.1220102  30.3995413  22.9944107  64.3200312
  30.8145285  23.8998927  63.1799580  29.9145018  19.6310134  61.6206263
  29.2214263  19.7054489  60.9646299  29.6696770  18.8670478  62.1427780
  36.3892143  30.3664730  60.5870780  35.8166110  30.9854917  60.1341252
  36.9624937  30.9164091  61.1210702  39.6089403  30.6501880  61.7179363
  40.5420076  30.5847441  61.9212238  39.5212616  31.4858147  61.2593895
  42.2377420  29.9667750  58.6783310  42.1591051  29.6327614  59.5719068
  43.0587087  30.4589518  58.6774783  36.7738942  21.7025542  57.9286833
  37.7198047  21.5731750  57.9975251  36.3953187  20.9640204  58.4056261
  34.9581859  19.6275519  57.8641718  34.0513314  19.3308631  57.9404432
  35.2357840  19.3305337  56.9976004  25.8759799  20.9481882  68.3140764
  25.5562584  20.0947190  68.0215138  25.3293228  21.1630460  69.0698732
  29.6539707  23.6644323  72.0310271  29.8725717  24.5961431  72.0498305
  30.0665481  23.3052298  72.8165075  36.5743925  14.1712408  64.0185959
  35.7644653  13.8259493  64.3941205  37.2628342  13.8619952  64.6073571
  34.5267572  19.2377529  81.4213020  34.4264299  20.1871886  81.3525111
  34.3089114  18.9095768  80.5489090  33.7280644  16.4862454  58.0053697
  34.5899808  16.8117352  58.2649515  33.9130988  15.6993950  57.4926763
  25.7448059  24.5684794  70.2833886  25.0511531  24.1538746  69.7703840
  26.4921050  24.6105330  69.6867305  34.3898842  22.6674668  80.2378082
  33.9065924  23.4675028  80.4441971  34.4759781  22.6782613  79.2845526
  27.6584802  24.5003047  68.1599901  27.6355490  24.5990735  67.2081784
  27.9685438  25.3468198  68.4817067  30.3172180  26.5579202  72.2746515
  31.2715433  26.5263145  72.2076447  30.1184703  26.0969826  73.0896741
  30.9071562  25.1280318  74.8417313  31.7264451  25.6224397  74.8652150
  31.1808370  24.2112287  74.8134881  40.6638158  17.5191071  64.2045269
  39.7764013  17.8040721  63.9865463  41.0792147  17.3584834  63.3572545
  28.6722409  32.0998822  69.2916713  28.5376877  31.3399223  68.7254711
  28.2554471  32.8239722  68.8245502  39.8081372  27.2835745  58.2993289
  40.5117222  27.4885748  58.9150944  39.0844020  27.8512507  58.5642372
  40.6379182  23.0345607  64.4195559  40.5814383  23.4914158  63.5803191
  41.1907524  22.2736291  64.2418401  31.8291534  32.9968139  69.5035156
  31.7123919  33.9413571  69.4013846  31.0083981  32.6941700  69.8920955
  41.7168069  27.7218275  60.3491749  42.5513673  27.2899473  60.1669223
  41.5552412  27.5500288  61.2768643  41.3713961  24.2250388  61.7148088
  41.3162765  24.0594659  60.7736532  40.7460016  24.9326421  61.8710278
  26.1606476  19.4618452  75.5409510  26.8065340  18.9517406  76.0296735
  25.9523627  20.1987134  76.1152935  34.6810087  13.7258497  61.2933406
  34.6688756  14.6700337  61.4501677  35.5733509  13.5428642  60.9992867
  32.8546049  33.6496401  72.7191084  33.7573295  33.6820011  73.0357579
  32.6283419  32.7196852  72.7337420  34.6099651  32.4027387  69.3801163
  33.6595282  32.4029249  69.2665535  34.9132137  31.6560122  68.8637198
  38.4962206  10.3201274  65.5479343  37.7294602   9.7659760  65.6936025
  38.9072911  10.3923142  66.4093495  30.5003967  16.6086069  79.6384524
  31.3635429  16.2522874  79.8487849  29.9269378  16.2699964  80.3259929
  43.0128866  40.0450830  66.3705341  42.4493731  39.9540767  65.6021629
  42.8981261  39.2250735  66.8507833  40.5593298  41.5402022  69.2089561
  41.3514590  41.1992847  68.7935861  40.7989948  41.6496997  70.1291715
  48.5928425  43.7121798  61.6819806  47.9416405  44.2975878  61.2953820
  49.3872788  44.2427993  61.7414843  42.5184052  40.8010935  62.0806940
  43.2914928  40.2539922  61.9419816  42.8709451  41.6655184  62.2921402
  44.8550330  36.9603601  59.7125390  45.1075850  36.4385123  58.9508853
  43.9174889  36.7969747  59.8152074  44.5746619  38.8631707  61.9149765
  44.4582877  38.1876611  62.5830849  44.6848878  38.3764081  61.0981918
  46.5583646  33.3531754  60.6157803  46.7258049  34.2211990  60.9828274
  46.3680815  33.5159036  59.6919092  46.5372867  35.8089411  61.6004470
  46.4172493  36.2546462  62.4389950  45.8425456  36.1574729  61.0418008
  45.3324364  37.1234264  63.8938035  46.0348407  37.5755307  64.3611962
  45.0004992  36.4818082  64.5217929  39.0749698  35.3817816  69.1955169
  38.2848752  35.6375345  68.7195280  39.5660945  36.1966154  69.3007210
  41.0264443  35.7462395  66.1538646  40.2295606  35.8581090  66.6722141
  40.7990035  36.0849048  65.2879536  37.3587401  35.6348307  71.6270160
  37.6095439  36.5195317  71.8927736  37.8946949  35.4552908  70.8545252
  46.5718128  43.9375206  63.9700141  46.4363803  44.7826742  64.3984988
  47.1127941  44.1394484  63.2066074  40.0247526  41.4550644  64.5428066
  40.5372046  42.2493894  64.6933630  40.6770239  40.7576935  64.4761667
  41.1194767  36.6181032  76.5012982  41.0048282  35.7166290  76.8020081
  40.2639285  36.8644729  76.1497799  37.9896442  39.7839299  65.3187636
  38.8271664  40.1936307  65.1021344  38.1674710  38.8438741  65.2887830
  49.8860875  37.4514379  61.0071469  49.3707498  38.2218984  61.2459857
  49.6138183  36.7779515  61.6304531  42.8512337  32.1451361  66.8430816
  43.4256089  31.9226542  66.1104009  43.4383320  32.2140055  67.5959417
  43.1781924  34.1755822  60.8626701  42.3419237  34.5130508  61.1835976
  43.0386694  34.0404802  59.9253838  46.2646210  39.3011905  57.4859177
  45.3573272  39.0701158  57.6850326  46.7617242  38.5049524  57.6733159
  49.1714289  48.0109412  60.4055864  48.4975987  48.3141109  61.0140821
  49.5580111  48.8138492  60.0561321  51.1186650  44.8507586  66.7124153
  51.4109624  45.4112643  65.9936519  51.6285270  45.1436147  67.4677312
  38.0122614  37.1230014  65.9898370  37.8147013  36.5299375  65.2649436
  37.4569278  36.8182224  66.7074308  47.1410531  40.9433243  59.3471246
  46.7029961  40.2269102  58.8876883  47.8820972  41.1709358  58.7856337
  43.9311697  35.6330180  65.8683342  43.1179563  35.9324351  66.2748534
  44.4270691  35.2385869  66.5857824  44.1986076  42.5050966  67.5979569
  44.9926674  42.0101286  67.3962144  43.4877768  41.9768829  67.2347275
  40.5068839  36.6494048  63.6739322  39.5766427  36.5878503  63.8909284
  40.6026311  36.1270001  62.8775963  40.4254388  33.1748861  66.2617563
  40.6861206  34.0894194  66.1526724  41.2471561  32.7073303  66.4114176
  51.2621759  39.8017625  58.9403304  50.6450929  39.0764453  58.8436356
  50.7938247  40.5626985  58.5970378  43.0520305  34.0203049  58.0624608
  42.1749771  33.8991850  57.6986855  43.5278058  33.2289128  57.8103497
  34.5722445  38.8080209  68.1566115  35.2593485  38.4941939  67.5687130
  34.4170573  39.7121574  67.8833366  49.0555673  46.3011333  63.9643805
  49.5843440  45.7903788  63.3513968  49.3183893  45.9853863  64.8289339
  34.1490421  36.8880802  70.4283582  34.1874520  36.3544393  71.2220700
  33.6430714  36.3616008  69.8094559  37.7798998  35.6144905  63.5037514
  38.0752440  34.7055583  63.4504567  36.8787034  35.5932644  63.1818516
  41.3093245  33.6900901  69.4865062  40.5879831  34.3036869  69.3472535
  42.0986501  34.2258666  69.4081708  39.5086840  33.2959002  63.6276839
  39.1799546  32.4156381  63.4451945  39.8626211  33.2406671  64.5153228
  48.7566419  44.9313905  68.1371824  48.6091381  44.0030612  68.3179394
  49.5819912  44.9533996  67.6528900  42.6228663  33.5831972  63.9952316
  42.9624736  34.1117893  63.2730925  43.0700784  33.9212378  64.7710883
  44.6096810  32.0806594  62.1945609  45.3305173  32.4587846  61.6909326
  43.9862114  32.7995470  62.2980587  52.1495857  46.2728131  64.5798788
  52.3232734  45.7074554  63.8272641  52.6424748  47.0729026  64.3978278
  37.9672817  38.2842800  72.6462347  37.4226285  39.0602608  72.7782622
  38.8452167  38.6313605  72.4881469  44.7560433  31.6154384  65.0243146
  44.8776345  30.6871030  65.2234033  44.4662476  31.6293070  64.1121461
  53.1371029  45.5894896  61.6795687  53.8321934  46.2101588  61.8983001
  53.4794180  44.7390247  61.9548065  38.7538839  37.4112697  75.5392504
  38.0120575  37.5595332  76.1257135  38.4331583  37.6720962  74.6759254
  43.7290492  43.2008517  63.1159033  43.8778613  43.8843981  62.4625706
  44.5356936  43.1813607  63.6308489  41.4843125  39.2273694  64.1220102
  41.2389167  38.3236024  64.3200312  41.6539040  39.2290845  63.1799580
  40.7538773  34.9602052  61.6206263  40.0608018  35.0346407  60.9646299
  40.5090525  34.1962396  62.1427780  47.2285898  45.6956647  60.5870780
  46.6559865  46.3146834  60.1341252  47.8018692  46.2456009  61.1210702
  50.4483158  45.9793797  61.7179363  51.3813831  45.9139359  61.9212238
  50.3606370  46.8150064  61.2593895  53.0771174  45.2959668  58.6783310
  52.9984806  44.9619531  59.5719068  53.8980841  45.7881436  58.6774783
  47.6132696  37.0317460  57.9286833  48.5591801  36.9023668  57.9975251
  47.2346941  36.2932122  58.4056261  45.7975614  34.9567436  57.8641718
  44.8907069  34.6600549  57.9404432  46.0751595  34.6597254  56.9976004
  36.7153554  36.2773800  68.3140764  36.3956338  35.4239108  68.0215138
  36.1686982  36.4922378  69.0698732  44.5674398  31.8154372  58.0053697
  45.4293562  32.1409270  58.2649515  44.7524742  31.0285868  57.4926763
  36.5841814  39.8976711  70.2833886  35.8905285  39.4830664  69.7703840
  37.3314805  39.9397248  69.6867305  38.4978556  39.8294965  68.1599901
  38.4749245  39.9282652  67.2081784  38.8079193  40.6760116  68.4817067
  50.6475126  42.6127663  58.2993289  51.3510976  42.8177666  58.9150944
  49.9237775  43.1804425  58.5642372  52.5561824  43.0510192  60.3491749
  53.3907427  42.6191391  60.1669223  52.3946166  42.8792206  61.2768643
  37.0000231  34.7910370  75.5409510  37.6459094  34.2809324  76.0296735
  36.7917382  35.5279052  76.1152935  55.1373514  63.9084971  65.2494601
  55.0597544  64.8592796  65.3283081  54.5335157  63.5630843  65.9069527
  53.6906092  47.4743279  66.8430816  54.2649844  47.2518460  66.1104009
  54.2777074  47.5431973  67.5959417  55.9928759  44.3484527  65.5705885
  55.3393172  44.0333545  64.9462500  55.9509234  43.7260268  66.2965708
  57.1039964  54.6303823  57.4859177  56.1967026  54.3993076  57.6850326
  57.6010996  53.8341442  57.6733159  57.9804286  56.2725161  59.3471246
  57.5423715  55.5561020  58.8876883  58.7214726  56.5001276  58.7856337
  51.2648143  48.5040778  66.2617563  51.5254960  49.4186112  66.1526724
  52.0865315  48.0365221  66.4114176  58.2099258  63.5081002  62.6202943
  58.3851014  63.0369045  63.4348565  57.5232046  64.1346768  62.8484203
  52.7760344  66.6570365  69.3942803  53.0156942  67.2888889  70.0721821
  51.9329540  66.3058405  69.6808162  53.8914059  49.3494967  58.0624608
  53.0143525  49.2283768  57.6986855  54.3671812  48.5581045  57.8103497
  57.0777985  61.7021257  65.3087128  56.2945507  62.2442938  65.4025353
  57.7770730  62.2195237  65.7081370  53.2505176  62.6818367  66.7241581
  52.5815551  63.1664495  66.2405621  53.1118046  62.9287588  67.6384960
  53.4622418  48.9123890  63.9952316  53.8018490  49.4409811  63.2730925
  53.9094538  49.2504296  64.7710883  55.5954188  46.9446302  65.0243146
  55.7170099  46.0162948  65.2234033  55.3056230  46.9584988  64.1121461
  50.0389207  60.6270043  67.5702899  50.8647227  60.3273815  67.1901542
  49.6883259  59.8577665  68.0192687  58.0679652  61.0248565  60.5870780
  57.4953619  61.6438752  60.1341252  58.6412446  61.5747927  61.1210702
  58.2531434  44.8296244  64.0185959  57.4432162  44.4843329  64.3941205
  58.9415851  44.5203788  64.6073571  60.1821982  43.9074291  65.6410256
  60.7353021  44.3269744  66.3000279  60.4192068  42.9810039  65.6833212
  55.4068153  47.1446289  58.0053697  56.2687317  47.4701188  58.2649515
  55.5918497  46.3577785  57.4926763  53.5079043  63.6551974  69.5035156
  53.3911428  64.5997407  69.4013846  52.6871490  63.3525536  69.8920955
  56.3597596  44.3842332  61.2933406  56.3476265  45.3284172  61.4501677
  57.2521018  44.2012478  60.9992867  60.1749715  40.9785109  65.5479343
  59.4082111  40.4243596  65.6936025  60.5860420  41.0506978  66.4093495
  59.6910123  67.7813849  65.9898370  59.4934522  67.1883210  65.2649436
  59.1356787  67.4766059  66.7074308  59.4586507  66.2728740  63.5037514
  59.7539948  65.3639418  63.4504567  58.5574543  66.2516479  63.1818516
  83.0379965  86.6911266  76.0646096  83.4463321  86.2493676  75.3200729
  82.3157226  86.1163893  76.3180289  85.6094771  88.7098808  71.9460450
  86.4312214  88.3078996  71.6643131  85.6057174  88.6067043  72.8976566
  80.7167868  90.5474526  78.1000483  80.2731722  89.7610904  77.7821387
  81.3785082  90.7353676  77.4344373  82.8149106  90.8277326  76.1281884
  82.7967582  91.6486207  75.6362153  83.7369026  90.7031401  76.3532025
  85.4357154  90.4992286  76.6009084  85.3769700  89.8151507  75.9339667
  85.8376672  91.2411276  76.1489710  85.4374561  88.4631870  74.8323064
  84.5501340  88.1257792  74.9549463  86.0073112  87.7314902  75.0691829
  87.2437622  89.6603258  78.5134215  86.4533166  89.6427397  77.9738715
  87.0070977  90.1991551  79.2683252  84.6539260  82.4926652  77.1426251
  85.5549122  82.3533117  76.8510249  84.7287234  82.6581107  78.0824428
  77.0855662  77.8030125  58.0053697  77.9474826  78.1285023  58.2649515
  77.2706006  77.0161621  57.4926763  87.1379743  97.0313691  78.2689245
  86.5078404  97.7129972  78.5024642  87.0315831  96.9196773  77.3242383
  98.2170167 101.5214405  62.9424643  97.4399609 101.1825564  62.4979805
  98.8961648 101.5267028  62.2679608  94.6196777 101.1185296  58.9403304
  94.0025947 100.3932124  58.8436356  94.1513265 101.8794656  58.5970378
  84.3608474  95.1236146  77.5719159  84.9880512  94.7413224  78.1856683
  83.5036392  94.9050348  77.9374851  87.5976531  94.4454052  79.2333078
  87.6464686  95.3216175  78.8510848  88.1399045  93.9031445  78.6604722
  96.4346192 106.6127338  58.6783310  96.3559824 106.2787202  59.5719068
  97.2555859 107.1049106  58.6774783  88.7236345  95.8837117  81.4213020
  88.6233072  96.8331474  81.3525111  88.5057887  95.5555356  80.5489090
  88.5867615  99.3134256  80.2378082  88.1034696 100.1134616  80.4441971
  88.6728554  99.3242201  79.2845526  94.0050144 103.9295334  58.2993289
  94.7085994 104.1345336  58.9150944  93.2812793 104.4972096  58.5642372
  95.9136841 104.3677863  60.3491749  96.7482445 103.9359062  60.1669223
  95.7521184 104.1959877  61.2768643  95.5682734 100.8709976  61.7148088
  95.5131537 100.7054248  60.7736532  94.9428789 101.5786009  61.8710278
  80.3575249  96.1078041  75.5409510  81.0034112  95.5976995  76.0296735
  80.1492400  96.8446722  76.1152935  84.6972740  93.2545658  79.6384524
  85.5604201  92.8982463  79.8487849  84.1238150  92.9159553  80.3259929
  98.5537867 118.7746906  75.2873840  98.2627733 119.6792537  75.1720506
  99.1894851 118.8163433  76.0017909 109.4970812 112.5474201  68.4233112
 110.2295984 111.9773418  68.6570941 108.7410168 112.1595802  68.8639617
 100.7552419 109.9991342  60.6157803 100.9226821 110.8671579  60.9828274
 100.5649588 110.1618624  59.6919092 106.9124896 110.9790861  69.9621071
 106.0041773 110.9106270  69.6679831 106.8612492 111.4562806  70.7902896
 100.7341640 112.4549000  61.6004470 100.6141265 112.9006051  62.4389950
 100.0394228 112.8034318  61.0418008  98.4948532 125.2252642  65.2494601
  98.4172562 126.1760467  65.3283081  97.8910175 124.8798514  65.9069527
 108.7786542 109.1807300  71.7398944 108.1360922 109.4739833  71.0938739
 108.2741471 109.0660220  72.5452141 105.0396288 117.9096292  69.8198385
 104.4105151 118.0742006  69.1174453 104.6521950 118.3237901  70.5909349
 108.9185520 118.8450729  67.1742749 108.2336558 119.2249631  66.6239782
 109.0029369 119.4546056  67.9074697 107.2882280 119.3682644  71.9460450
 108.1099723 118.9662831  71.6643131 107.2844683 119.2650878  72.8976566
 101.0538883 118.9166687  74.1021160 101.1183316 119.3787094  74.9379332
 100.3449807 118.2864052  74.2303470 115.3788273 115.7121392  68.2945421
 114.6251981 115.1428790  68.1389426 115.5135814 115.6784057  69.2416056
  94.2216298 118.1010233  64.5428066  94.7340819 118.8953483  64.6933630
  94.8739011 117.4036523  64.4761667  96.0311183 121.2175989  66.6250819
  96.2077811 122.1393954  66.4371803  96.8268016 120.9034408  67.0545199
 102.3955377 121.2058361  78.1000483 101.9519231 120.4194740  77.7821387
 103.0572591 121.3937512  77.4344373  97.1542498 122.7354163  72.6261161
  97.7049923 122.6071226  71.8538155  96.3153974 123.0349052  72.2756054
 104.4936615 121.4861161  76.1281884 104.4755091 122.3070042  75.6362153
 105.4156535 121.3615236  76.3532025 100.9509669 119.0005291  76.9705392
 101.4838006 118.2393579  76.7404700 100.4223750 118.7078942  77.7129547
 104.0829647 114.0973968  61.0071469 103.5676270 114.8678572  61.2459857
 103.8106956 113.4239104  61.6304531 109.0563921 116.8506322  62.9424643
 108.2793364 116.5117482  62.4979805 109.7355402 116.8558945  62.2679608
 107.2955228 116.3240303  69.5991251 106.6378903 117.0139565  69.6871379
 108.0995627 116.7136735  69.9425237  97.3750697 110.8215410  60.8626701
  96.5388009 111.1590097  61.1835976  97.2355466 110.6864390  59.9253838
 100.4614982 115.9471493  57.4859177  99.5542044 115.7160747  57.6850326
 100.9586014 115.1509113  57.6733159 103.3683061 124.6569000  60.4055864
 102.6944760 124.9600697  61.0140821 103.7548883 125.4598081  60.0561321
 106.8722483 119.6590678  65.7774335 106.4184810 118.8181588  65.8339526
 106.2416450 120.2952076  66.1149115 105.3155422 121.4967174  66.7124153
 105.6078397 122.0572231  65.9936519 105.8254043 121.7895735  67.4677312
 109.4552418 115.8650029  65.4047565 109.3170317 116.0551625  64.4768754
 109.0988637 116.6269412  65.8615616 109.4821798 117.9326556  70.4158836
 109.9158305 117.8401845  71.2641890 110.1953379 117.9084056  69.7778852
 103.2149693 121.5328650  71.9491937 103.2686715 122.1019586  72.7169653
 102.3464474 121.7030535  71.5845974 110.3437347 117.9750256  72.9491722
 110.5373238 118.8796067  73.1950996 110.2437966 117.5157676  73.7830307
 100.9726124 119.7239576  71.2777406 100.8337210 119.3558361  72.1503344
 100.1840721 120.2387216  71.1061364 101.5674276 124.8248673  62.6202943
 101.7426032 124.3536716  63.4348565 100.8807064 125.4514439  62.8484203
 105.4590531 116.4477213  58.9403304 104.8419702 115.7224042  58.8436356
 104.9907020 117.2086574  58.5970378 107.1144663 121.1576122  76.6009084
 107.0557209 120.4735342  75.9339667 107.5164181 121.8995112  76.1489710
  96.1335362 127.9738036  69.3942803  96.3731960 128.6056560  70.0721821
  95.2904558 127.6226076  69.6808162  97.2489077 110.6662638  58.0624608
  96.3718543 110.5451439  57.6986855  97.7246830 109.8748716  57.8103497
 107.1162070 119.1215706  74.8323064 106.2288849 118.7841628  74.9549463
 107.6860621 118.3898737  75.0691829 100.6463223 123.7817158  71.7984307
 100.5733395 124.5872130  72.3103611 100.2040617 123.9809124  70.9732328
 111.5979411 114.5323923  69.5939625 111.5869287 115.4148639  69.2233558
 110.7296790 114.1795474  69.3994162 103.1061907 123.6803992  73.9542466
 103.8189879 124.3151457  73.8818367 102.6151936 123.7767858  73.1382467
  98.1573820 121.4298436  74.7748036  98.8583280 122.0634919  74.9277431
  97.6868935 121.7713167  74.0143676 106.2828216 119.7716385  63.0595943
 106.5588060 119.6572980  63.9689817 105.4132715 119.3733870  63.0208116
 102.9182280 124.0202736  66.7028757 103.1004675 123.2024392  67.1656509
 103.7415266 124.2370428  66.2653647 103.2524446 122.9470921  63.9643805
 103.7812212 122.4363376  63.3513968 103.5152665 122.6313452  64.8289339
  96.6080194 123.9986038  66.7241581  95.9390569 124.4832166  66.2405621
  96.4693063 124.2455258  67.6384960 100.7485462 126.0329782  73.3224240
 101.3003770 126.1961403  74.0873325 101.0891656 126.6234219  72.6504265
 105.5996337 120.8591039  79.1772894 106.1436241 121.4720997  78.6827849
 105.0183182 121.4170617  79.6939907 103.8853850 123.9811757  70.3087922
 103.7604989 123.1801497  69.7998867 104.5432941 124.4757950  69.8201892
 105.9488758 121.7820777  71.9367472 105.0019094 121.6626128  71.8645799
 106.2971531 120.8943275  72.0193733 106.5569313 122.4002052  69.2236697
 107.4815861 122.1944913  69.0861148 106.3884617 122.1518453  70.1326039
 106.3464629 122.9187720  64.5798788 106.5201507 122.3534142  63.8272641
 106.8393521 123.7188614  64.3978278 112.2004021 115.6824142  66.1989088
 112.6435167 114.9331468  65.8008211 111.3230531 115.6734279  65.8162820
 107.3339802 122.2354484  61.6795687 108.0290706 122.8561177  61.8983001
 107.6762952 121.3849835  61.9548065 109.2331225 119.6854189  63.2083018
 109.7582549 120.0241462  62.4832338 109.1453578 118.7501205  63.0246152
 100.8951274 123.5988263  75.3372894 101.2038400 123.3537410  76.2095594
 101.6926756 123.8034902  74.8491764 100.9171886 125.7526173  67.5678271
 100.4776876 125.2602551  68.2611127 101.6680003 125.2099140  67.3270346
  93.3964225 121.9437714  67.5702899  94.2222245 121.6441485  67.1901542
  93.0458277 121.1745336  68.0192687  98.3645758 121.2964182  69.6400572
  97.7425767 120.6334887  69.3402800  99.0350625 121.3225314  68.9574220
 108.9225131 120.3187093  78.5134215 108.1320675 120.3011232  77.9738715
 108.6858486 120.8575387  79.2683252 110.5441203 119.5876501  76.0708966
 110.2526011 119.9506482  76.9072427 109.9313334 118.8743509  75.8922298
 111.7436885 117.1529381  68.5911536 112.5783777 117.5919185  68.7549096
 111.8796014 116.6768034  67.7719782 108.7928391 114.7109116  74.5389024
 109.2682513 114.9036762  73.7307875 107.8693957 114.7668301  74.2932407
 104.6451930 122.6253386  61.7179363 105.5782603 122.5598947  61.9212238
 104.5575143 123.4609653  61.2593895 107.2739947 121.9419256  58.6783310
 107.1953578 121.6079120  59.5719068 108.0949614 122.4341024  58.6774783
 109.9718138 114.8080995  71.8859629 109.9394458 113.8696996  72.0719313
 110.5818762 114.8865032  71.1525454 101.8101469 113.6777048  57.9286833
 102.7560574 113.5483256  57.9975251 101.4315714 112.9391710  58.4056261
 110.1212626 111.5992039  71.9317912 109.6051675 110.8150495  71.7447841
 111.0052575 111.2710755  72.0964431 115.7894688 115.8697002  71.0265666
 116.5198076 115.6082290  71.5873369 115.1801633 115.1325724  71.0667734
 113.8709985 114.0104865  71.6240117 113.1443149 113.8760830  71.0156608
 113.4557272 114.3181693  72.4296835  99.9944386 111.6027025  57.8641718
  99.0875841 111.3060137  57.9404432 100.2720367 111.3056843  56.9976004
  98.7643171 108.4613960  58.0053697  99.6262335 108.7868858  58.2649515
  98.9493515 107.6745456  57.4926763  95.3534707 118.5330708  72.2746515
  96.3077960 118.5014651  72.2076447  95.1547230 118.0721332  73.0896741
 109.0515221 109.5189098  67.9199608 109.8275611 110.0085550  68.1924225
 108.3263355 109.9447152  68.3771477 111.4887780 110.2316717  68.9773548
 112.0832271 109.9912453  68.2666857 111.5614364 109.5123848  69.6047085
  93.7084936 124.0750328  69.2916713  93.5739403 123.3150729  68.7254711
  93.2916998 124.7991228  68.8245502 104.8443899 119.2587251  58.2993289
 105.5479749 119.4637254  58.9150944 104.1206547 119.8264013  58.5642372
 109.4846515 110.7986845  65.2445678 109.2283449 110.3983480  66.0753886
 108.8599383 111.5130639  65.1195817 113.7958853 113.5382918  67.7516970
 113.2358411 113.6076107  68.5248532 113.1902356 113.3623902  67.0316466
  96.8654061 124.9719645  69.5035156  96.7486446 125.9165077  69.4013846
  96.0446508 124.6693207  69.8920955 106.7530596 119.6969781  60.3491749
 107.5876200 119.2650979  60.1669223 106.5914939 119.5251794  61.2768643
  97.8908576 125.6247907  72.7191084  98.7935822 125.6571517  73.0357579
  97.6645946 124.6948358  72.7337420  99.6462178 124.3778893  69.3801163
  98.6957809 124.3780755  69.2665535  99.9494664 123.6311628  68.8637198
 115.3814871 130.2139432  70.4446925 116.0193281 130.0946179  69.7410265
 115.2635714 131.1620276  70.5034877 112.1904577 130.1666860  70.3808450
 111.8523089 130.0507925  69.4928985 113.0594346 129.7658025  70.3609456
 108.0491393 132.0202336  66.3705341 107.4856258 131.9292273  65.6021629
 107.9343788 131.2002241  66.8507833 112.6724360 131.3201712  76.3394656
 112.6613001 130.9254510  75.4675159 112.8345000 130.5867784  76.9328427
 105.5955825 133.5153528  69.2089561 106.3877117 133.1744353  68.7935861
 105.8352475 133.6248503  70.1291715 107.5546579 132.7762441  62.0806940
 108.3277455 132.2291428  61.9419816 107.9071978 133.6406691  62.2921402
 109.3931621 134.1038823  75.2873840 109.1021487 135.0084454  75.1720506
 110.0288606 134.1455351  76.0017909 110.3187828 131.4815672  71.8775199
 110.9151401 131.2571694  71.1632162 110.3762800 130.7400417  72.4800647
 109.8912857 128.9355107  59.7125390 110.1438377 128.4136629  58.9508853
 108.9537416 128.7721253  59.8152074 114.9356140 127.9390886  67.5200133
 115.7219229 127.5210309  67.1690550 115.1994844 128.8436978  67.6881782
 120.3364567 127.8766119  68.4233112 121.0689739 127.3065336  68.6570941
 119.5803922 127.4887719  68.8639617 109.6109145 130.8383213  61.9149765
 109.4945404 130.1628117  62.5830849 109.7211405 130.3515587  61.0981918
 111.9540686 130.2993360  65.6196454 111.5898894 129.7723981  66.3309376
 112.8107802 129.9091829  65.4462940 117.8589987 121.5887693  72.8827720
 117.5273312 122.4583104  72.6588935 117.2635600 121.2723977  73.5621751
 111.5946173 125.3283260  60.6157803 111.7620576 126.1963496  60.9828274
 111.4043342 125.4910542  59.6919092 107.8033988 130.2414036  68.3160338
 106.8784484 130.1090250  68.5238029 108.0518401 131.0208255  68.8130280
 117.7518650 126.3082779  69.9621071 116.8435528 126.2398188  69.6679831
 117.7006246 126.7854724  70.7902896 111.5735394 127.7840918  61.6004470
 111.4535019 128.2297968  62.4389950 110.8787983 128.1326235  61.0418008
 105.1642799 129.8847309  69.1504127 105.2935180 130.1381788  70.0643538
 104.4840250 130.4775017  68.8308782 111.8259516 127.7272425  77.9055968
 111.0492850 128.2866345  77.8958832 112.4650079 128.2129208  78.4270838
 119.6180297 124.5099218  71.7398944 118.9754677 124.8031751  71.0938739
 119.1135225 124.3952138  72.5452141 117.2720460 128.2562391  62.4284804
 118.1838317 128.4889777  62.2532501 116.7630107 128.8399435  61.8659882
 110.0805888 130.5357878  77.4673935 110.8220573 131.0742922  77.1908758
 109.3742874 131.1624167  77.6245487 115.5561228 132.6787019  76.0646096
 115.9644584 132.2369429  75.3200729 114.8338490 132.1039646  76.3180289
 111.9092298 127.6159625  73.4379653 112.7553493 128.0399039  73.5814302
 111.8490936 126.9593250  74.1318216 115.0591743 125.2763994  75.0960827
 114.8152675 126.0306054  74.5595103 115.3351674 125.6549341  75.9308074
 114.6156435 124.4320427  70.6774665 113.7540914 124.7301680  70.9691402
 114.6418870 124.6490826  69.7455697 111.4318005 132.9762617  67.0848470
 111.8956350 133.2550320  66.2953093 111.1674803 132.0746062  66.9021561
 108.3242086 132.5234099  70.0228234 108.8943443 132.9521367  69.3845718
 108.9150197 132.2416684  70.7212419 110.3686891 129.0985770  63.8938035
 111.0710934 129.5506813  64.3611962 110.0367519 128.4569589  64.5217929
 108.8167252 127.6897526  78.2689245 108.1865913 128.3713807  78.5024642
 108.7103340 127.5780608  77.3242383 104.1112225 127.3569322  69.1955169
 103.3211279 127.6126851  68.7195280 104.6023472 128.1717660  69.3007210
 106.0626970 127.7213902  66.1538646 105.2658133 127.8332596  66.6722141
 105.8352562 128.0600554  65.2879536 111.8932638 134.2458605  74.1021160
 111.9577070 134.7079012  74.9379332 111.1843561 133.6155970  74.2303470
 102.3949928 127.6099813  71.6270160 102.6457966 128.4946823  71.8927736
 102.9309476 127.4304414  70.8545252 108.0947995 121.9918292  80.6314496
 107.7014940 121.4384491  81.3062140 108.9114135 122.3028871  81.0221013
 105.0610053 133.4302150  64.5428066 105.5734573 134.2245401  64.6933630
 105.7132765 132.7328441  64.4761667 106.8704937 136.5467907  66.6250819
 107.0471566 137.4685871  66.4371803 107.6661771 136.2326326  67.0545199
 111.0115956 123.4076171  78.2234752 111.7525669 124.0083324  78.1439215
 111.2433879 122.6653809  77.6652795 106.1557294 128.5932538  76.5012982
 106.0410809 127.6917796  76.8020081 105.3001812 128.8396235  76.1497799
 107.9936253 138.0646080  72.6261161 108.5443678 137.9363144  71.8538155
 107.1547729 138.3640969  72.2756054 111.7903424 134.3297208  76.9705392
 112.3231761 133.5685496  76.7404700 111.2617505 134.0370860  77.7129547
 114.9573119 119.4357274  72.4999034 114.6137388 120.3258916  72.4238145
 115.3252081 119.2458932  71.6368619 103.0258969 131.7590805  65.3187636
 103.8634191 132.1687813  65.1021344 103.2037237 130.8190247  65.2887830
 114.9223402 129.4265885  61.0071469 114.4070025 130.1970490  61.2459857
 114.6500710 128.7531021  61.6304531 112.5070513 124.2715586  66.0656708
 111.6512109 123.8822436  65.8862346 112.9197464 124.3507547  65.2056493
 114.0369659 121.8061929  70.4648267 113.5334455 121.7692064  69.6516073
 114.3300266 122.7154672  70.5244924 110.2812545 121.8900659  69.4714449
 111.1465542 121.6943468  69.1120339 110.3490054 121.6611011  70.3983806
 114.7109705 127.2992977  62.8331250 114.4059840 127.6139127  63.6841394
 115.6640147 127.3774397  62.8758583 113.1556137 133.4583201  64.4824204
 112.6277498 132.7235960  64.1697442 112.6543639 134.2357877  64.2364173
 107.8874864 124.1202867  66.8430816 108.4618616 123.8978048  66.1104009
 108.4745847 124.1891561  67.5959417 116.9454441 130.0076594  67.6495192
 117.4586323 130.6406586  68.1516902 117.5955665 129.4077789  67.2838552
 108.2144451 126.1507328  60.8626701 107.3781764 126.4882015  61.1835976
 108.0749221 126.0156308  59.9253838 110.1897532 120.9944116  65.5705885
 109.5361944 120.6793133  64.9462500 110.1478006 120.3719856  66.2965708
 111.3008737 131.2763411  57.4859177 110.3935798 131.0452664  57.6850326
 111.7979769 130.4801030  57.6733159 113.4235272 127.4826049  69.8953533
 112.5057834 127.7040996  69.7375221 113.8395416 127.5572360  69.0365240
 114.2070320 128.8817465  65.0256213 114.9542139 129.3938862  64.7163335
 114.4761910 128.5601518  65.8860607 112.4796970 131.3776006  62.0083167
 111.5708189 131.0935039  62.1055637 112.5092054 131.7975084  61.1486474
 116.6549157 125.9174581  67.0075002 115.9171914 125.4051968  67.3385245
 116.9075931 125.4774963  66.1958279 116.7560784 118.6950833  67.6016772
 117.0619661 117.8348197  67.3142687 117.4813389 119.2868454  67.4015766
 103.0485141 129.0981520  65.9898370 102.8509540 128.5050881  65.2649436
 102.4931805 128.7933730  66.7074308 111.0281864 128.9904626  68.1092963
 111.0830474 128.0378463  68.0335439 110.2173066 129.1464065  68.5934261
 112.1773058 132.9184749  59.3471246 111.7392488 132.2020608  58.8876883
 112.9183499 133.1460864  58.7856337 108.9674224 127.6081686  65.8683342
 108.1542090 127.9075857  66.2748534 109.4633218 127.2137375  66.5857824
 114.5648436 128.0723511  74.6998236 114.9197824 128.2994984  75.5592701
 115.2120567 128.4041887  74.0775491 108.4588299 125.1800042  71.4844577
 109.0987678 125.0388801  70.7867540 107.6265829 124.8934555  71.1083179
 109.2348603 134.4802472  67.5979569 110.0289201 133.9852792  67.3962144
 108.5240295 133.9520335  67.2347275 105.5431366 128.6245554  63.6739322
 104.6128954 128.5630009  63.8909284 105.6388838 128.1021507  62.8775963
 105.4616915 125.1500367  66.2617563 105.7223733 126.0645700  66.1526724
 106.2834088 124.6824809  66.4114176 106.9341841 126.5638124  73.4316388
 107.6064894 126.3555486  72.7829037 106.1071627 126.3660210  72.9921620
 112.8367413 123.1900065  75.4482049 112.1895328 123.8890014  75.3546525
 113.6068428 123.6236209  75.8158297 113.0131547 131.0280830  73.5078869
 113.9423607 131.1791989  73.3347836 112.5922577 131.1164850  72.6527515
 111.8119879 135.0531494  71.2777406 111.6730964 134.6850278  72.1503344
 111.0234475 135.5679133  71.1061364 113.3625094 134.4313097  68.6666244
 113.0274927 134.3913867  69.5623894 112.8629040 133.7657813  68.1936654
 107.3369338 129.8380727  74.1918825 107.1989136 129.1060966  74.7930364
 108.2474261 129.7489627  73.9103013 116.2984286 131.7769131  58.9403304
 115.6813456 131.0515959  58.8436356 115.8300774 132.5378491  58.5970378
 109.9651639 129.5500686  73.6802505 110.6751257 128.9093878  73.6389123
 109.9220947 129.8013581  74.6028686 108.6780573 126.5365904  75.4998144
 108.1417930 126.0856642  76.1519741 108.0897281 126.6711813  74.7568609
 108.0882832 125.9954555  58.0624608 107.2112298 125.8743356  57.6986855
 108.5640585 125.2040634  57.8103497  99.6084972 130.7831715  68.1566115
 100.2956011 130.4693445  67.5687130  99.4533100 131.6873080  67.8833366
 104.4119694 125.6721912  72.5851139 104.3277883 125.0647581  71.8501549
 103.5902400 126.1630930  72.5860635 114.5843408 124.1575475  67.9521334
 115.0812107 123.4045438  67.6322404 113.8130389 124.1939792  67.3864543
 115.6673188 132.9147162  65.5259757 114.7329467 133.0348625  65.3564462
 115.8449857 132.0119629  65.2619767 111.1678376 126.2992858  67.6793018
 110.7976164 125.7463899  68.3673924 111.6637469 125.6950992  67.1268018
 119.0545740 128.7564482  66.0609791 119.5206192 129.5892473  65.9870094
 119.5053240 128.2909463  66.7655050 117.0262402 121.1245069  70.1000693
 116.1125482 121.3549296  70.2682900 117.4555504 121.2083513  70.9514725
 116.7968861 129.3134961  72.6000587 116.1440311 129.5610868  71.9453039
 117.1749241 128.4999099  72.2663064 112.8456434 130.0554772  79.0866624
 112.1697071 129.9548901  79.7568999 113.6684068 129.8993985  79.5502621
 104.5935293 136.2926708  71.7079139 105.1788730 135.5470396  71.8407043
 104.3960131 136.6030665  72.5915803  99.1852948 128.8632309  70.4283582
  99.2237047 128.3295899  71.2220700  98.6793241 128.3367514  69.8094559
 106.5643710 123.7096849  73.9246124 106.6285037 124.5711680  73.5123522
 106.5010830 123.0970851  73.1918483 106.0395983 125.7819982  77.5719159
 106.6668021 125.3997059  78.1856683 105.1823901 125.5634183  77.9374851
 102.8161525 127.5896411  63.5037514 103.1114966 126.6807089  63.4504567
 101.9149561 127.5684150  63.1818516 106.3455772 125.6652407  69.4865062
 105.6242358 126.2788375  69.3472535 107.1349028 126.2010172  69.4081708
 109.1482086 123.0006834  75.7605714 109.6716488 123.2469130  76.5232023
 108.9294419 123.8326869  75.3408851 104.5449367 125.2710508  63.6276839
 104.2162073 124.3907887  63.4451945 104.8988738 125.2158177  64.5153228
 107.6591190 125.5583478  63.9952316 107.9987263 126.0869399  63.2730925
 108.1063311 125.8963884  64.7710883 110.3534631 123.9420529  73.4455384
 110.0131451 123.1428342  73.8476064 109.6473637 124.2422240  72.8732218
 111.0051103 121.0269841  71.8982707 111.8277172 120.5530319  71.7761598
 111.2489166 121.8060325  72.3981394 109.6459337 124.0558100  62.1945609
 110.3667700 124.4339352  61.6909326 109.0224641 124.7746977  62.2980587
 113.7890460 124.7603249  63.1303942 114.0054075 125.6427887  62.8292770
 113.3084527 124.3689462  62.4009583 108.5289682 127.7188962  69.7074686
 108.3834262 128.0329265  70.5998968 108.0514885 128.3373862  69.1545585
 110.3886064 124.7091510  69.7555576 110.3747633 123.8132603  69.4187874
 111.1058492 124.7162174  70.3893862 112.2412195 125.1428850  71.8008703
 111.9829973 126.0645921  71.7993034 111.7097235 124.7459285  72.4909167
 103.0035344 130.2594306  72.6462347 102.4588812 131.0354114  72.7782622
 103.8814694 130.6065111  72.4881469 109.7922960 123.5905890  65.0243146
 109.9138872 122.6622536  65.2234033 109.5025003 123.6044576  64.1121461
 112.6614151 121.2760801  68.1609866 112.6835848 121.3400134  67.2061845
 113.0782210 120.4365309  68.3550372 103.7901366 129.3864203  75.5392504
 103.0483102 129.5346838  76.1257135 103.4694110 129.6472468  74.6759254
 104.2357979 137.2729631  67.5702899 105.0615999 136.9733403  67.1901542
 103.8852031 136.5037254  68.0192687 109.2039512 136.6256100  69.6400572
 108.5819522 135.9626805  69.3402800 109.8744379 136.6517231  68.9574220
 102.4366584 135.1915958  68.5291832 101.5998493 134.7638132  68.3475834
 102.4090230 135.3848401  69.4662624 109.2764040 125.1037888  79.2333078
 109.3252195 125.9800010  78.8510848 109.8186554 124.5615281  78.6604722
 108.7653019 135.1760023  63.1159033 108.9141140 135.8595487  62.4625706
 109.5719463 135.1565113  63.6308489 117.1720523 128.4802405  77.1426251
 118.0730386 128.3408870  76.8510249 117.2468497 128.6456860  78.0824428
 111.5063328 125.8569260  75.9879437 110.6366638 126.1502826  75.7162026
 111.7422809 126.4409705  76.7086701 106.5205652 131.2025200  64.1220102
 106.2751694 130.2987530  64.3200312 106.6901567 131.2042351  63.1799580
 114.2102362 122.0748877  73.5044857 114.7284306 122.8109904  73.1791346
 113.8557495 122.3812870  74.3391617 105.7901300 126.9353558  61.6206263
 105.0970545 127.0097913  60.9646299 105.5453052 126.1713902  62.1427780
 114.4614956 118.4949159  69.0245754 114.7416710 117.8272348  69.6506181
 115.2465563 118.6878255  68.5120418 118.3323815 126.9166793  72.7717329
 119.2841238 127.0164891  72.7929553 118.1627265 126.1245062  73.2815414
 116.3538194 124.0022377  72.9576730 115.7588126 124.2827389  72.2623219
 116.0687891 124.4916278  73.7293471 112.6495223 129.0068966  57.9286833
 113.5954328 128.8775174  57.9975251 112.2709468 128.2683628  58.4056261
 120.9606381 126.9283957  71.9317912 120.4445430 126.1442413  71.7447841
 121.8446329 126.6002673  72.0964431 118.6217108 120.6724972  67.8913725
 118.4241929 120.3640060  68.7757057 119.2316813 121.3986611  68.0211655
 112.5333916 133.0586712  79.3887490 113.4536925 133.2365311  79.5827536
 112.4983499 132.1142758  79.2367189 110.8338140 126.9318942  57.8641718
 109.9269596 126.6352055  57.9404432 111.1114121 126.6348761  56.9976004
 101.7516081 128.2525306  68.3140764 101.4318865 127.3990614  68.0215138
 101.2049509 128.4673884  69.0698732 105.5295988 130.9687747  72.0310271
 105.7481998 131.9004855  72.0498305 105.9421762 130.6095721  72.8165075
 112.4500206 121.4755832  64.0185959 111.6400934 121.1302917  64.3941205
 113.1384623 121.1663376  64.6073571 114.3790754 120.5533879  65.6410256
 114.9321793 120.9729332  66.3000279 114.6160841 119.6269627  65.6833212
 110.4023854 126.5420953  81.4213020 110.3020581 127.4915310  81.3525111
 110.1845396 126.2139192  80.5489090 109.6036925 123.7905878  58.0053697
 110.4656089 124.1160776  58.2649515 109.7887269 123.0037374  57.4926763
 101.6204341 131.8728217  70.2833886 100.9267812 131.4582170  69.7703840
 102.3677332 131.9148754  69.6867305 117.7569562 122.6634404  65.1488920
 117.1768231 123.3219208  64.7666973 117.4905494 121.8411749  64.7376338
 116.2073128 122.0639462  67.3510241 116.7072906 122.1755996  66.5424559
 116.8508736 121.7600515  67.9911049 110.2655124 129.9718091  80.2378082
 109.7822205 130.7718452  80.4441971 110.3516063 129.9826036  79.2845526
 103.5341083 131.8046471  68.1599901 103.5111771 131.9034158  67.2081784
 103.8441720 132.6511622  68.4817067 106.1928461 133.8622626  72.2746515
 107.1471715 133.8306568  72.2076447 105.9940985 133.4013250  73.0896741
 106.7827843 132.4323742  74.8417313 107.6020732 132.9267821  74.8652150
 107.0564651 131.5155710  74.8134881 116.5394440 124.8234495  64.2045269
 115.6520295 125.1084145  63.9865463 116.9548429 124.6628258  63.3572545
 119.8908976 124.8481015  67.9199608 120.6669366 125.3377468  68.1924225
 119.1657110 125.2739070  68.3771477 122.3281534 125.5608635  68.9773548
 122.9226025 125.3204371  68.2666857 122.4008118 124.8415765  69.6047085
 104.5478690 139.4042246  69.2916713 104.4133158 138.6442647  68.7254711
 104.1310752 140.1283146  68.8245502 116.5135463 130.3389030  64.4195559
 116.4570665 130.7957582  63.5803191 117.0663806 129.5779715  64.2418401
 120.3240269 126.1278762  65.2445678 120.0677203 125.7275398  66.0753886
 119.6993137 126.8422556  65.1195817 117.2470243 131.5293812  61.7148088
 117.1919046 131.3638083  60.7736532 116.6216298 132.2369845  61.8710278
 102.0362758 126.7661876  75.5409510 102.6821621 126.2560830  76.0296735
 101.8279909 127.5030558  76.1152935 110.5566368 121.0301921  61.2933406
 110.5445038 121.9743761  61.4501677 111.4489790 120.8472066  60.9992867
 114.3718488 117.6244697  65.5479343 113.6050883 117.0703184  65.6936025
 114.7829193 117.6966566  66.4093495 106.3760249 123.9129493  79.6384524
 107.2391710 123.5566298  79.8487849 105.8025659 123.5743388  80.3259929
  39.5058591  -0.0841869  57.1692232  40.1437001  -0.2035122  56.4655572
  39.3879434   0.8638975  57.2280184  36.3148297  -0.1314441  57.1053757
  35.9766809  -0.2473377  56.2174292  37.1838065  -0.5323276  57.0854763
  32.1735113   1.7221035  53.0950648  31.6099978   1.6310972  52.3266935
  32.0587508   0.9020940  53.5753140  36.7968080   1.0220411  63.0639962
  36.7856721   0.6273209  62.1920466  36.9588720   0.2886483  63.6573734
  29.7199545   3.2172227  55.9334868  30.5120837   2.8763051  55.5181167
  29.9596195   3.3267202  56.8537021  37.7534672   5.3892003  48.4065113
  37.1022651   5.9746083  48.0199126  38.5479034   5.9198198  48.4660150
  31.6790299   2.4781140  48.8052247  32.4521175   1.9310127  48.6665123
  32.0315698   3.3425389  49.0166708  33.5175341   3.8057522  62.0119146
  33.2265207   4.7103153  61.8965812  34.1532326   3.8474050  62.7263216
  34.4431548   1.1834371  58.6020506  35.0395120   0.9590393  57.8877469
  34.5006520   0.4419116  59.2045954  34.0156577  -1.3626194  46.4370697
  34.2682097  -1.8844673  45.6754160  33.0781136  -1.5260048  46.5397380
  39.0599859  -2.3590415  54.2445440  39.8462949  -2.7770992  53.8935857
  39.3238564  -1.4544323  54.4127088  39.2309937   3.0782435  48.9434097
  38.5955770   3.1517061  49.6555001  38.9007343   3.6676034  48.2653176
  44.4608287  -2.4215182  55.1478419  45.1933458  -2.9915965  55.3816248
  43.7047642  -2.8093582  55.5884924  33.7352865   0.5401912  48.6395072
  33.6189123  -0.1353185  49.3076156  33.8455125   0.0534286  47.8227225
  36.0784406   0.0012059  52.3441761  35.7142613  -0.5257320  53.0554682
  36.9351522  -0.3889472  52.1708246  38.4765226   3.4918938  59.0068940
  38.1765949   4.3943977  58.8984747  38.1316286   3.2251121  59.8590093
  31.9277708  -0.0567265  55.0405644  31.0028204  -0.1891051  55.2483336
  32.1762121   0.7226954  55.5375587  41.8762370  -3.9898522  56.6866377
  40.9679248  -4.0583114  56.3925138  41.8249966  -3.5126577  57.5148203
  35.6979114  -2.5140384  48.3249776  35.5778739  -2.0683333  49.1635257
  35.0031702  -2.1655066  47.7663314  33.4586006  10.2563258  51.9739908
  33.3810036  11.2071083  52.0528388  32.8547650   9.9109131  52.6314834
  35.9503236  -2.5708876  64.6301274  35.1736570  -2.0114956  64.6204139
  36.5893799  -2.0852093  65.1516145  43.7424017  -5.7882084  58.4644251
  43.0998397  -5.4949550  57.8184046  43.2378945  -5.9029163  59.2697448
  41.3964180  -2.0418910  49.1530110  42.3082036  -1.8091524  48.9777808
  40.8873827  -1.4581866  48.5905189  34.2049608   0.2376577  64.1919241
  34.9464293   0.7761621  63.9154065  33.4986594   0.8642866  64.3490793
  39.6804948   2.3805717  62.7891403  40.0888304   1.9388128  62.0446035
  38.9582209   1.8058345  63.0425596  36.0336018  -2.6821676  60.1624960
  36.8797213  -2.2582262  60.3059609  35.9734656  -3.3388051  60.8563523
  40.0033763   2.9406908  56.5443692  39.3742625   3.1052622  55.8419760
  39.6159425   3.3548518  57.3154656  43.8822994   3.8761346  53.8988056
  43.1974033   4.2560247  53.3485089  43.9666844   4.4856673  54.6320003
  39.1835463  -5.0217307  61.8206134  38.9396395  -4.2675247  61.2840409
  39.4595394  -4.6431960  62.6553381  41.1373926   1.5221305  60.4983399
  41.3490821   2.1653065  59.8217780  41.0903674   0.6883621  60.0305329
  38.7400155  -5.8660874  57.4019971  37.8784634  -5.5679621  57.6936709
  38.7662590  -5.6490476  56.4701004  35.5561724   2.6781316  53.8093777
  36.0200070   2.9569019  53.0198399  35.2918523   1.7764761  53.6266868
  32.4485805   2.2252798  56.7473540  33.0187163   2.6540066  56.1091025
  33.0393917   1.9435382  57.4457726  34.4930610  -1.1995531  50.6183342
  35.1954654  -0.7474488  51.0857268  34.1611239  -1.8411713  51.2463235
  42.2519754   4.3993260  58.6705756  43.0737198   3.9973448  58.3888438
  42.2482157   4.2961495  59.6221872  36.0176357   3.9477304  60.8266467
  36.0820790   4.4097711  61.6624639  35.3087281   3.3174669  60.9548777
  50.3425747   0.7432009  55.0190728  49.5889455   0.1739407  54.8634732
  50.4773288   0.7094673  55.9661363  35.7324375   5.6145411  50.6945447
  35.5970050   6.4596947  51.1230295  36.2734188   5.8164689  49.9311381
  29.1853772   3.1320849  51.2673372  29.6978293   3.9264099  51.4178937
  29.8376485   2.4347140  51.2006974  30.9948657   6.2486605  53.3496126
  31.1715286   7.1704570  53.1617109  31.7905491   5.9345025  53.7790505
  37.3592851   6.2368978  64.8245789  36.9156706   5.4505356  64.5066694
  38.0210065   6.4248128  64.1589680  32.1179973   7.7664779  59.3506468
  32.6687398   7.6381843  58.5783462  31.2791449   8.0659668  59.0001361
  39.4574090   6.5171778  62.8527191  39.4392565   7.3380659  62.3607460
  40.3794010   6.3925853  63.0777332  35.9147144   4.0315907  63.6950699
  36.4475480   3.2704195  63.4650007  35.3861225   3.7389559  64.4374853
  39.0467121  -0.8715416  47.7316776  38.5313745  -0.1010811  47.9705163
  38.7744430  -1.5450280  48.3549837  44.0201396   1.8816939  49.6669949
  43.2430838   1.5428098  49.2225111  44.6992876   1.8869562  48.9924914
  38.8353425  -2.9988324  49.5576557  38.5303560  -2.6842175  50.4086700
  39.7883867  -2.9206904  49.6003890  37.2799856   3.1601900  51.2069511
  36.7521218   2.4254659  50.8942748  36.7787359   3.9376576  50.9609479
  42.2592702   1.3550920  56.3236557  41.6016377   2.0450181  56.4116686
  43.0633102   1.7447352  56.6670544  41.0698161  -0.2904707  54.3740499
  41.5830043   0.3425285  54.8762209  41.7199385  -0.8903512  54.0083859
  35.4252457   0.9782110  44.2104484  34.5179518   0.7471363  44.4095633
  35.9223489   0.1819729  44.3978466  38.3320535   9.6879617  47.1301170
  37.6582234   9.9911314  47.7386128  38.7186357  10.4908697  46.7806627
  37.5478992  -2.8155252  56.6198840  36.6301553  -2.5940305  56.4620528
  37.9639136  -2.7408941  55.7610547  38.3314040  -1.4163836  51.7501520
  39.0785859  -0.9042439  51.4408642  38.6005629  -1.7379783  52.6105913
  36.6040690   1.0794705  48.7328474  35.6951909   0.7953737  48.8300944
  36.6335774   1.4993783  47.8731781  41.8359957   4.6901294  52.5019642
  41.3822285   3.8492204  52.5584832  41.2053924   5.3262693  52.8394422
  40.7792877  -4.3806720  53.7320309  40.0415634  -4.8929334  54.0630552
  41.0319651  -4.8206338  52.9203586  40.2792897   6.5277791  53.4369460
  40.5715871   7.0882848  52.7181825  40.7891517   6.8206352  54.1922619
  35.1525584  -1.3076675  54.8338269  35.2074194  -2.2602838  54.7580746
  34.3416786  -1.1517236  55.3179568  36.3016778   2.6203448  46.0716553
  35.8636208   1.9039307  45.6122190  37.0427219   2.8479563  45.5101644
  35.2426522   7.3058142  54.5262913  35.2002701   7.5318988  53.5971445
  36.1589221   7.0721517  54.6748714  38.6892156  -2.2257791  61.4243542
  39.0441543  -1.9986317  62.2838008  39.3364287  -1.8939414  60.8020798
  44.4189893   0.8960645  52.1292871  44.2807791   1.0862241  51.2014060
  44.0626111   1.6580028  52.5860922  44.4459272   2.9637172  57.1404143
  44.8795779   2.8712461  57.9887197  45.1590853   2.9394673  56.5024159
  33.3592323   4.1821171  54.3224876  34.1532921   3.6871491  54.1207451
  32.6484015   3.6539034  53.9592581  38.1787167   6.5639266  58.6737243
  38.2324189   7.1330203  59.4414959  37.3101948   6.7341152  58.3091281
  45.3074822   3.0060873  59.6737028  45.5010712   3.9106684  59.9196303
  45.2075440   2.5468292  60.5075613  40.3689930   3.1567616  65.2477909
  40.2175437   2.9278167  64.3307992  40.3594610   4.1138217  65.2609254
  37.1375267   0.7299529  60.2324175  38.0667327   0.8810688  60.0593143
  36.7166297   0.8183549  59.3772822  35.9363599   4.7550193  58.0022713
  35.7974684   4.3868977  58.8748651  35.1478195   5.2697832  57.8306671
  36.5311751   9.8559289  49.3448249  36.7063506   9.3847333  50.1593872
  35.8444539  10.4825056  49.5729510  37.4868814   4.1331796  55.3911551
  37.1518646   4.0932566  56.2869201  36.9872759   3.4676512  54.9181961
  31.4613058  -0.4600574  60.9164132  31.3232856  -1.1920336  61.5175671
  32.3717981  -0.5491674  60.6348320  40.4228005   1.4787830  45.6648610
  39.8057176   0.7534658  45.5681663  39.9544494   2.2397190  45.3215685
  34.0895358  -0.7480615  60.4047811  34.7994977  -1.3887423  60.3634430
  34.0464667  -0.4967720  61.3273992  42.0782137   6.1886738  63.3254391
  42.0194683   5.5045958  62.6584974  42.4801655   6.9305728  62.8735017
  31.0972836  13.0048652  56.1188110  31.3369434  13.6367176  56.7967128
  30.2542032  12.6536692  56.4053469  42.0799544   4.1526322  61.5568370
  41.1926323   3.8152244  61.6794769  42.6498095   3.4209353  61.7937136
  35.6100698   8.8127775  58.5229614  35.5370869   9.6182746  59.0348918
  35.1678091   9.0119740  57.6977635  35.3990477   8.0499545  52.0332435
  34.6157999   8.5921225  52.1270660  36.0983223   8.5673524  52.4326676
  46.5616885  -0.4365460  56.3184932  46.5506761   0.4459255  55.9478865
  45.6934264  -0.7893910  56.1239469  38.0699381   8.7114609  60.6787772
  38.7827353   9.3462073  60.6063674  37.5789410   8.8078475  59.8627774
  39.7916908   2.6165861  52.2505064  38.8573187   2.7367324  52.0809768
  39.9693577   1.7138328  51.9865074  43.1789460  -1.5416819  52.7855098
  43.6449912  -0.7088828  52.7115401  43.6296960  -2.0071838  53.4900356
  33.1211295   6.4609052  61.4993343  33.8220754   7.0945535  61.6522737
  32.6506410   6.8023784  60.7388982  41.2465691   4.8027002  49.7841250
  41.5225535   4.6883596  50.6935124  40.3770189   4.4044487  49.7453423
  40.9212581  -0.9846340  59.3245893  40.2684031  -0.7370433  58.6698346
  41.2992961  -1.7982202  58.9908371  37.8819755   9.0513353  53.4274064
  38.0642149   8.2335009  53.8901816  38.7052741   9.2681045  52.9898954
  38.2161920   7.9781538  50.6889112  38.7449687   7.4673992  50.0759274
  38.4790140   7.6624068  51.5534645  36.9700154  -0.2426529  65.8111930
  36.2940791  -0.3432400  66.4814306  37.7927788  -0.3987316  66.2747928
  28.7179013   5.9945407  58.4324446  29.3032450   5.2489095  58.5652350
  28.5203851   6.3049364  59.3161110  31.5717668   9.0296655  53.4486888
  30.9028043   9.5142782  52.9650928  31.4330538   9.2765875  54.3630267
  35.7122937  11.0640398  60.0469546  36.2641245  11.2272020  60.8118632
  36.0529130  11.6544836  59.3749571  40.5633811   5.8901656  65.9018201
  41.1073715   6.5031614  65.4073156  39.9820656   6.4481234  66.4185214
  38.8491324   9.0122374  57.0333229  38.7242463   8.2112113  56.5244174
  39.5070415   9.5068567  56.5447199  40.9126232   6.8131394  58.6612779
  39.9656568   6.6936745  58.5891105  41.2609005   5.9253892  58.7439040
  37.9172666   6.6084110  54.8617131  37.7697628   5.6800817  55.0424701
  38.7426159   6.6304201  54.3774206  41.5206787   7.4312669  55.9482004
  42.4453335   7.2255530  55.8106455  41.3522091   7.1829070  56.8571345
  41.3102104   7.9498336  51.3044095  41.4838981   7.3844759  50.5517948
  41.8030995   8.7499231  51.1223585  47.1641495   0.7134759  52.9234395
  47.6072641  -0.0357916  52.5253518  46.2868005   0.7044895  52.5408127
  42.2977276   7.2665100  48.4040993  42.9928181   7.8871793  48.6228308
  42.6400426   6.4160452  48.6793371  44.1968699   4.7164806  49.9328324
  44.7220023   5.0552079  49.2077644  44.1091052   3.7811821  49.7491459
  35.8588748   8.6298880  62.0618201  36.1675874   8.3848026  62.9340900
  36.6564230   8.8345518  61.5737071  35.8809360  10.7836789  54.2923577
  35.4414350  10.2913168  54.9856434  36.6317477  10.2409757  54.0515653
  28.3601699   6.9748330  54.2948205  29.1859719   6.6752102  53.9146849
  28.0095751   6.2055953  54.7437994  33.3283232   6.3274798  56.3645879
  32.7063241   5.6645503  56.0648107  33.9988099   6.3535930  55.6819527
  26.5610304   4.8934657  55.2537139  25.7242212   4.4656831  55.0721140
  26.5333950   5.0867100  56.1907930  43.8862605   5.3497710  65.2379522
  43.0958149   5.3321848  64.6984022  43.6495960   5.8886003  65.9928559
  44.0060480   2.1990176  62.5512251  44.0558485   2.0340183  63.4927773
  43.8974404   1.3317435  62.1610131  32.8896739   4.8778722  49.8404340
  33.0384859   5.5614186  49.1871012  33.6963183   4.8583812  50.3553795
  41.2964243  -1.8178896  63.8671557  42.1974106  -1.9572431  63.5755555
  41.3712217  -1.6524441  64.8069735  45.5078677   4.6187118  62.7954272
  45.2163486   4.9817098  63.6317733  44.8950809   3.9054126  62.6167604
  46.7074360   2.1839997  55.3156842  47.5421251   2.6229801  55.4794403
  46.8433488   1.7078651  54.4965088  43.7565865  -0.2580268  61.2634330
  44.2319987  -0.0652622  60.4553182  42.8331431  -0.2021082  61.0177714
  30.6449372   0.9043899  50.8465408  30.3995414   0.0006229  51.0445619
  30.8145287   0.9061050  49.9044886  36.3892145   7.3726852  47.3116087
  35.8166112   7.9917039  46.8586559  36.9624938   7.9226214  47.8456009
  42.4567534  -3.3814508  59.4962636  43.4084957  -3.2816410  59.5174860
  42.2870985  -4.1736239  60.0060720  40.4781914  -6.2958925  59.6822037
  39.8831846  -6.0153912  58.9868525  40.1931611  -5.8065024  60.4538778
  39.6089404   7.6564002  48.4424669  40.5420078   7.5909564  48.6457545
  39.5212617   8.4920269  47.9839202  42.2377421   6.9729873  45.4028617
  42.1591053   6.6389736  46.2964375  43.0587088   7.4651641  45.4020089
  44.9355612  -0.1608388  58.6104935  44.9031932  -1.0992387  58.7964619
  45.5456236  -0.0824351  57.8770760  36.7738943  -1.2912335  44.6532139
  37.7198048  -1.4206127  44.7220558  36.3953188  -2.0297673  45.1301568
  45.0850101  -3.3697345  58.6563219  44.5689149  -4.1538888  58.4693147
  45.9690049  -3.6978628  58.8209738  50.7532162   0.9007619  57.7510972
  51.4835551   0.6392907  58.3118676  50.1439108   0.1636341  57.7913040
  48.8347459  -0.9584519  58.3485423  48.1080623  -1.0928554  57.7401915
  48.4194746  -0.6507690  59.1542141  36.6577636   2.7605411  66.1132796
  37.5780645   2.9384010  66.3072843  36.6227219   1.8161456  65.9612496
  29.6539708   0.6706446  58.7555578  29.8725718   1.6023554  58.7743611
  30.0665482   0.3114420  59.5410381  41.8813281  -7.6346897  51.8734227
  41.3011950  -6.9762093  51.4912279  41.6149214  -8.4569552  51.4621644
  34.3898844  -0.3263210  66.9623388  33.9065925   0.4737150  67.1687277
  34.4759783  -0.3155265  66.0090832  27.6584803   1.5065170  54.8845208
  27.6355491   1.6052857  53.9327091  27.9685440   2.3530321  55.2062374
  30.3172181   3.5641325  58.9991822  31.2715435   3.5325267  58.9321754
  30.1184705   3.1031949  59.8142048  30.9071563   2.1342441  61.5662620
  31.7264452   2.6286520  61.5897457  31.1808371   1.2174409  61.5380187
  40.6638159  -5.4746807  50.9290575  39.7764014  -5.1897156  50.7110770
  41.0792148  -5.6353043  50.0817852  44.0152696  -5.4500286  54.6444914
  44.7913086  -4.9603833  54.9169531  43.2900830  -5.0242231  55.1016784
  46.4525254  -4.7372666  55.7018855  47.0469745  -4.9776930  54.9912163
  46.5251838  -5.4565536  56.3292391  28.6722410   9.1060945  56.0162020
  28.5376878   8.3461345  55.4500018  28.2554472   9.8301844  55.5490809
  39.8081373   4.2897868  45.0238595  40.5117223   4.4947871  45.6396251
  39.0844022   4.8574630  45.2887679  40.6379183   0.0407729  51.1440865
  40.5814385   0.4976281  50.3048498  41.1907526  -0.7201586  50.9663708
  44.4483989  -4.1702539  51.9690985  44.1920923  -4.5705903  52.7999193
  43.8236857  -3.4558745  51.8441124  48.7596327  -1.4306466  54.4762276
  48.1995885  -1.3613276  55.2493838  48.1539830  -1.6065481  53.7561772
  31.8291536  10.0030262  56.2280463  31.7123920  10.9475694  56.1259153
  31.0083982   9.7003823  56.6166262  41.7168070   4.7280397  47.0737055
  42.5513674   4.2961596  46.8914530  41.5552413   4.5562411  48.0013950
  41.3713962   1.2312511  48.4393395  41.3162766   1.0656782  47.4981839
  40.7460018   1.9388543  48.5955584  38.6859870   3.5361422  67.7646957
  39.5551029   3.7102075  67.4033592  38.2066621   4.3555839  67.6422687
  32.8546050  10.6558523  59.4436391  33.7573297  10.6882134  59.7602886
  32.6283420   9.7258974  59.4582727  34.6099652   9.4089510  56.1046470
  33.6595283   9.4091372  55.9910842  34.9132138   8.6622245  55.5882504
  50.3452345  15.2450048  57.1692232  50.9830755  15.1256796  56.4655572
  50.2273188  16.1930892  57.2280184  47.1542052  15.1977476  57.1053757
  46.8160563  15.0818541  56.2174292  48.0231820  14.7968642  57.0854763
  43.0128867  17.0512953  53.0950648  42.4493732  16.9602890  52.3266935
  42.8981262  16.2312857  53.5753140  40.5593299  18.5464144  55.9334868
  41.3514591  18.2054969  55.5181167  40.7989949  18.6559120  56.8537021
  48.5928426  20.7183921  48.4065113  47.9416406  21.3038001  48.0199126
  49.3872789  21.2490115  48.4660150  42.5184053  17.8073058  48.8052247
  43.2914929  17.2602045  48.6665123  42.8709452  18.6717307  49.0166708
  45.2825303  16.5126289  58.6020506  45.8788875  16.2882311  57.8877469
  45.3400274  15.7711034  59.2045954  44.8550331  13.9665724  46.4370697
  45.1075852  13.4447245  45.6754160  43.9174890  13.8031869  46.5397380
  49.8993614  12.9701502  54.2445440  50.6856703  12.5520925  53.8935857
  50.1632318  13.8747594  54.4127088  50.0703691  18.4074353  48.9434097
  49.4349524  18.4808979  49.6555001  49.7401098  18.9967951  48.2653176
  55.3002041  12.9076735  55.1478419  56.0327213  12.3375952  55.3816248
  54.5441397  12.5198336  55.5884924  44.5746620  15.8693830  48.6395072
  44.4582878  15.1938733  49.3076156  44.6848880  15.3826204  47.8227225
  46.9178161  15.3303977  52.3441761  46.5536368  14.8034598  53.0554682
  47.7745277  14.9402446  52.1708246  52.8227461   6.6198310  59.6073027
  52.4910786   7.4893720  59.3834242  52.2273075   6.3034594  60.2867058
  46.5583648  10.3593877  47.3403109  46.7258050  11.2274113  47.7073581
  46.3680817  10.5221158  46.4164399  49.3158981  18.8210855  59.0068940
  49.0159704  19.7235894  58.8984747  48.9710040  18.5543039  59.8590093
  42.7671462  15.2724652  55.0405644  41.8421959  15.1400866  55.2483336
  43.0155876  16.0518872  55.5375587  52.7156125  11.3393396  56.6866377
  51.8073002  11.2708804  56.3925138  52.6643720  11.8165341  57.5148203
  46.5372869  12.8151534  48.3249776  46.4172494  13.2608585  49.1635257
  45.8425457  13.1636852  47.7663314  40.1280273  14.9157926  55.8749433
  40.2572655  15.1692405  56.7888845  39.4477725  15.5085634  55.5554088
  44.2979761  25.5855176  51.9739908  44.2203790  26.5363001  52.0528388
  43.6941404  25.2401048  52.6314834  54.5817771   9.5409834  58.4644251
  53.9392151   9.8342367  57.8184046  54.0772700   9.4262754  59.2697448
  52.2357935  13.2873007  49.1530110  53.1475791  13.5200394  48.9777808
  51.7267582  13.8710051  48.5905189  50.8427517  18.2698826  56.5443692
  50.2136379  18.4344540  55.8419760  50.4553179  18.6840435  57.3154656
  54.7216749  19.2053264  53.8988056  54.0367787  19.5852165  53.3485089
  54.8060598  19.8148590  54.6320003  49.5793909   9.4631043  57.4019971
  48.7178389   9.7612297  57.6936709  49.6056344   9.6801442  56.4701004
  46.3955479  18.0073234  53.8093777  46.8593824  18.2860937  53.0198399
  46.1312277  17.1056678  53.6266868  43.2879560  17.5544715  56.7473540
  43.8580917  17.9831984  56.1091025  43.8787672  17.2727300  57.4457726
  45.3324365  14.1296386  50.6183342  46.0348408  14.5817430  51.0857268
  45.0004993  13.4880205  51.2463235  39.0749699  12.3879939  55.9200476
  38.2848753  12.6437467  55.4440586  39.5660946  13.2028277  56.0252516
  53.0913508  19.7285178  58.6705756  53.9130952  19.3265365  58.3888438
  53.0875911  19.6253412  59.6221872  41.0264444  12.7524518  52.8783952
  40.2295608  12.8643212  53.3967448  40.7990036  13.0911170  52.0124843
  46.8570112  19.2769221  60.8266467  46.9214544  19.7389629  61.6624639
  46.1481036  18.6466586  60.9548777  37.3587402  12.6410429  58.3515466
  37.6095440  13.5257439  58.6173042  37.8946950  12.4615031  57.5790558
  61.1819502  16.0723926  55.0190728  60.4283210  15.5031325  54.8634732
  61.3167043  16.0386591  55.9661363  46.5718130  20.9437329  50.6945447
  46.4363804  21.7888865  51.1230295  47.1127942  21.1456606  49.9311381
  43.0585469   7.0228909  67.3559802  42.6652415   6.4695107  68.0307447
  43.8751610   7.3339487  67.7466320  40.0247527  18.4612767  51.2673372
  40.5372048  19.2556017  51.4178937  40.6770240  17.7639057  51.2006974
  41.8342412  21.5778523  53.3496126  42.0109040  22.4996488  53.1617109
  42.6299245  21.2636942  53.7790505  45.9753430   8.4386788  64.9480059
  46.7163144   9.0393941  64.8684522  46.2071353   7.6964426  64.3898102
  42.9573727  23.0956697  59.3506468  43.5081152  22.9673760  58.5783462
  42.1185203  23.3951586  59.0001361  49.9210593   4.4667891  59.2244341
  49.5774863   5.3569532  59.1483451  50.2889556   4.2769548  58.3613926
  37.9896444  16.7901421  52.0432943  38.8271666  17.1998430  51.8266651
  38.1674711  15.8500863  52.0133137  49.8860876  14.4576502  47.7316776
  49.3707499  15.2281106  47.9705163  49.6138184  13.7841638  48.3549837
  47.4707987   9.3026203  52.7902014  46.6149583   8.9133053  52.6107653
  47.8834939   9.3818163  51.9301800  49.0007134   6.8372546  57.1893574
  48.4971929   6.8002681  56.3761379  49.2937740   7.7465289  57.2490231
  45.2450019   6.9211276  56.1959756  46.1103016   6.7254084  55.8365645
  45.3127528   6.6921627  57.1229112  54.8595150  17.2108856  49.6669949
  54.0824593  16.8720016  49.2225111  55.5386631  17.2161480  48.9924914
  49.6747179  12.3303594  49.5576557  49.3697315  12.6449743  50.4086700
  50.6277621  12.4085014  49.6003890  48.1193611  18.4893817  51.2069511
  47.5914972  17.7546577  50.8942748  47.6181114  19.2668494  50.9609479
  53.0986457  16.6842838  56.3236557  52.4410131  17.3742099  56.4116686
  53.9026856  17.0739270  56.6670544  42.8512338   9.1513483  53.5676123
  43.4256090   8.9288665  52.8349315  43.4383321   9.2202178  54.3204724
  51.9091916  15.0387210  54.3740499  52.4223797  15.6717202  54.8762209
  52.5593140  14.4388406  54.0083859  43.1781926  11.1817945  47.5872008
  42.3419238  11.5192631  47.9081283  43.0386695  11.0466924  46.6499145
  45.1535006   6.0254732  52.2951192  44.4999419   5.7103750  51.6707807
  45.1115480   5.4030473  53.0211015  46.2646211  16.3074027  44.2104484
  45.3573273  16.0763281  44.4095633  46.7617243  15.5111647  44.3978466
  49.1714290  25.0171535  47.1301170  48.4975989  25.3203231  47.7386128
  49.5580112  25.8200615  46.7806627  48.3872747  12.5136666  56.6198840
  47.4695308  12.7351613  56.4620528  48.8032890  12.5882976  55.7610547
  49.1707794  13.9128082  51.7501520  49.9179613  14.4249479  51.4408642
  49.4399384  13.5912134  52.6105913  47.4434445  16.4086622  48.7328474
  46.5345664  16.1245655  48.8300944  47.4729528  16.8285701  47.8731781
  52.6753712  20.0193212  52.5019642  52.2216039  19.1784122  52.5584832
  52.0447679  20.6554610  52.8394422  51.6186631  10.9485198  53.7320309
  50.8809388  10.4362584  54.0630552  51.8713405  10.5085579  52.9203586
  51.1186651  21.8569709  53.4369460  51.4109626  22.4174766  52.7181825
  51.6285272  22.1498270  54.1922619  51.7198259   3.7261450  54.3262078
  52.0257136   2.8658813  54.0387993  52.4450864   4.3179070  54.1261072
  38.0122615  14.1292136  52.7143676  37.8147015  13.5361497  51.9894743
  37.4569279  13.8244347  53.4319615  45.9919339  14.0215243  54.8338269
  46.0467948  13.0689079  54.7580746  45.1810541  14.1774682  55.3179568
  47.1410532  17.9495366  46.0716553  46.7029962  17.2331225  45.6122190
  47.8820973  18.1771481  45.5101644  43.9311698  12.6392303  52.5928648
  43.1179564  12.9386473  52.9993840  44.4270693  12.2447991  53.3103131
  46.0820276  22.6350060  54.5262913  46.0396455  22.8610906  53.5971445
  46.9982975  22.4013434  54.6748714  55.2583647  16.2252563  52.1292871
  55.1201546  16.4154159  51.2014060  54.9019866  16.9871946  52.5860922
  43.4225773  10.2110658  58.2089883  44.0625153  10.0699417  57.5112847
  42.5903304   9.9245172  57.8328485  55.2853027  18.2929090  57.1404143
  55.7189533  18.2004379  57.9887197  55.9984607  18.2686591  56.5024159
  44.1986077  19.5113089  54.3224876  44.9926676  19.0163409  54.1207451
  43.4877770  18.9830952  53.9592581  49.0180922  21.8931184  58.6737243
  49.0717944  22.4622120  59.4414959  48.1495703  22.0633069  58.3091281
  40.5068841  13.6556170  50.3984628  39.5766429  13.5940626  50.6154591
  40.6026313  13.1332123  49.6021270  40.4254390  10.1810983  52.9862870
  40.6861207  11.0956316  52.8772031  41.2471562   9.7135426  53.1359483
  56.1468576  18.3352791  59.6737028  56.3404466  19.2398601  59.9196303
  56.0469194  17.8760210  60.5075613  46.7757353  20.0842111  58.0022713
  46.6368439  19.7160895  58.8748651  45.9871949  20.5989750  57.8306671
  47.3705505  25.1851207  49.3448249  47.5457261  24.7139250  50.1593872
  46.6838293  25.8116973  49.5729510  48.3262568  19.4623713  55.3911551
  47.9912401  19.4224483  56.2869201  47.8266514  18.7968429  54.9181961
  51.2621760  16.8079748  45.6648610  50.6450931  16.0826576  45.5681663
  50.7938248  17.5689108  45.3215685  41.9366590  28.3340570  56.1188110
  42.1763189  28.9659094  56.7967128  41.0935787  27.9828610  56.4053469
  43.0520306  11.0265172  44.7869915  42.1749772  10.9053973  44.4232161
  43.5278059  10.2351250  44.5348803  34.5722446  15.8142332  54.8811422
  35.2593486  15.5004062  54.2932437  34.4170575  16.7183696  54.6078673
  39.3757168  10.7032528  59.3096445  39.2915357  10.0958198  58.5746855
  38.5539875  11.1941547  59.3105942  46.4494452  24.1419692  58.5229614
  46.3764624  24.9474664  59.0348918  46.0071845  24.3411658  57.6977635
  46.2384232  23.3791462  52.0332435  45.4551754  23.9213143  52.1270660
  46.9376977  23.8965442  52.4326676  49.5480882   9.1886092  54.6766640
  50.0449582   8.4356054  54.3567711  48.7767863   9.2250408  54.1109850
  57.4010639  14.8926457  56.3184932  57.3900516  15.7751173  55.9478865
  56.5328019  14.5398008  56.1239469  48.9093136  24.0406526  60.6787772
  49.6221108  24.6753991  60.6063674  48.4183164  24.1370392  59.8627774
  50.6310663  17.9457779  52.2505064  49.6966941  18.0659241  52.0809768
  50.8087331  17.0430246  51.9865074  46.1315851  11.3303475  54.4038325
  45.7613638  10.7774515  55.0919231  46.6274943  10.7261608  53.8513325
  54.0183214  13.7875098  52.7855098  54.4843666  14.6203090  52.7115401
  54.4690715  13.3220080  53.4900356  43.9605049  21.7900970  61.4993343
  44.6614509  22.4237453  61.6522737  43.4900164  22.1315701  60.7388982
  52.0859445  20.1318920  49.7841250  52.3619289  20.0175514  50.6935124
  51.2163944  19.7336404  49.7453423  51.9899877   6.1555685  56.8245999
  51.0762957   6.3859912  56.9928206  52.4192978   6.2394129  57.6760032
  48.7213509  24.3805270  53.4274064  48.9035904  23.5626926  53.8901816
  49.5446495  24.5972963  52.9898954  49.0555675  23.3073456  50.6889112
  49.5843441  22.7965910  50.0759274  49.3183894  22.9915986  51.5534645
  39.5572767  21.3237325  58.4324446  40.1426204  20.5781013  58.5652350
  39.3597606  21.6341282  59.3161110  42.4111423  24.3588572  53.4486888
  41.7421798  24.8434700  52.9650928  42.2724292  24.6057793  54.3630267
  34.1490422  13.8942925  57.1528889  34.1874522  13.3606516  57.9466007
  33.6430715  13.3678131  56.5339866  46.5516691  26.3932316  60.0469546
  47.1034999  26.5563937  60.8118632  46.8922885  26.9836754  59.3749571
  41.5281184   8.7407466  60.6491431  41.5922511   9.6022296  60.2368829
  41.4648305   8.1281467  59.9163790  41.0033457  10.8130598  64.2964465
  41.6305496  10.4307675  64.9101990  40.1461376  10.5944800  64.6620158
  37.7799000  12.6207027  50.2282820  38.0752441  11.7117706  50.1749874
  36.8787035  12.5994767  49.9063823  49.6885078  24.3414291  57.0333229
  49.5636218  23.5404031  56.5244174  50.3464170  24.8360485  56.5447199
  41.3093247  10.6963024  56.2110369  40.5879832  11.3098991  56.0717842
  42.0986502  11.2320789  56.1327015  51.7519987  22.1423311  58.6612779
  50.8050322  22.0228663  58.5891105  52.1002760  21.2545809  58.7439040
  44.1119560   8.0317450  62.4851021  44.6353962   8.2779747  63.2477330
  43.8931893   8.8637485  62.0654158  39.5086841  10.3021125  50.3522145
  39.1799547   9.4218504  50.1697251  39.8626212  10.2468794  51.2398535
  48.7566420  21.9376028  54.8617131  48.6091383  21.0092735  55.0424701
  49.5819914  21.9596118  54.3774206  42.6228664  10.5894095  50.7197623
  42.9624737  11.1180016  49.9976231  43.0700785  10.9274501  51.4956190
  52.3600542  22.7604586  55.9482004  53.2847089  22.5547448  55.8106455
  52.1915845  22.5120987  56.8571345  45.3172105   8.9731145  60.1700691
  44.9768926   8.1738958  60.5721371  44.6111112   9.2732856  59.5977524
  45.9688577   6.0580458  58.6228014  46.7914646   5.5840936  58.5006904
  46.2126641   6.8370942  59.1226700  44.6096812   9.0868716  48.9190916
  45.3305174   9.4649969  48.4154633  43.9862116   9.8057593  49.0225894
  48.7527934   9.7913865  49.8549248  48.9691549  10.6738503  49.5538076
  48.2722002   9.4000079  49.1254890  43.4927156  12.7499578  56.4319993
  43.3471737  13.0639882  57.3244274  43.0152359  13.3684479  55.8790891
  45.3523539   9.7402126  56.4800882  45.3385107   8.8443220  56.1433180
  46.0695967   9.7472790  57.1139168  52.1495858  23.2790254  51.3044095
  52.3232736  22.7136676  50.5517948  52.6424749  24.0791149  51.1223585
  37.9672818  15.2904923  59.3707654  37.4226286  16.0664731  59.5027928
  38.8452168  15.6375727  59.2126775  44.7560435   8.6216507  51.7488452
  44.8776346   7.6933153  51.9479340  44.4662477   8.6355193  50.8366768
  47.6251625   6.3071417  54.8855172  47.6473322   6.3710750  53.9307152
  48.0419684   5.4675926  55.0795678  58.0035249  16.0426677  52.9234395
  58.4466395  15.2934002  52.5253518  57.1261760  16.0336813  52.5408127
  53.1371031  22.5957018  48.4040993  53.8321935  23.2163711  48.6228308
  53.4794181  21.7452369  48.6793371  38.7538840  14.4174819  62.2637811
  38.0120576  14.5657454  62.8502441  38.4331584  14.6783085  61.4004560
  55.0362454  20.0456724  49.9328324  55.5613778  20.3843996  49.2077644
  54.9484806  19.1103739  49.7491459  46.7203115  26.1128707  54.2923577
  46.2808105  25.6205086  54.9856434  47.4711231  25.5701675  54.0515653
  39.1995454  22.3040248  54.2948205  40.0253473  22.0044020  53.9146849
  38.8489506  21.5347870  54.7437994  44.1676987  21.6566716  56.3645879
  43.5456996  20.9937421  56.0648107  44.8381854  21.6827848  55.6819527
  37.4004059  20.2226574  55.2537139  36.5635967  19.7948749  55.0721140
  37.3727704  20.4159018  56.1907930  44.2401514  10.1348504  65.9578385
  44.2889670  11.0110627  65.5756155  44.7824028   9.5925897  65.3850028
  43.7290494  20.2070639  49.8404340  43.8778614  20.8906104  49.1871012
  44.5356937  20.1875729  50.3553795  57.5468114  17.5131915  55.3156842
  58.3815005  17.9521719  55.4794403  57.6827243  17.0370568  54.4965088
  41.4843127  16.2335817  50.8465408  41.2389169  15.3298147  51.0445619
  41.6539041  16.2352967  49.9044886  49.1739836   7.1059493  60.2290164
  49.6921780   7.8420520  59.9036653  48.8194969   7.4123487  61.0636923
  40.7538774  11.9664175  48.3451570  40.0608019  12.0408530  47.6891606
  40.5090526  11.2024518  48.8673087  49.4252431   3.5259776  55.7491061
  49.7054184   2.8582965  56.3751487  50.2103038   3.7188872  55.2365725
  47.2285899  22.7018770  47.3116087  46.6559866  23.3208957  46.8586559
  47.8018693  23.2518132  47.8456009  51.3175668   9.0332993  59.6822037
  50.7225601   9.3138006  58.9868525  51.0325365   9.5226894  60.4538778
  50.4483159  22.9855920  48.4424669  51.3813832  22.9201482  48.6457545
  50.3606372  23.8212187  47.9839202  53.0771176  22.3021790  45.4028617
  52.9984807  21.9681654  46.2964375  53.8980842  22.7943558  45.4020089
  55.7749367  15.1683530  58.6104935  55.7425687  14.2299530  58.7964619
  56.3849990  15.2467566  57.8770760  47.6132698  14.0379583  44.6532139
  48.5591802  13.9085791  44.7220558  47.2346943  13.2994244  45.1301568
  55.9243855  11.9594573  58.6563219  55.4082904  11.1753030  58.4693147
  56.8083804  11.6313290  58.8209738  53.5854582   5.7035589  54.6159031
  53.3879403   5.3950677  55.5002363  54.1954288   6.4297228  54.7456961
  61.5925917  16.2299536  57.7510972  62.3229305  15.9684825  58.3118676
  60.9832862  15.4928258  57.7913040  59.6741214  14.3707399  58.3485423
  58.9474377  14.2363364  57.7401915  59.2588501  14.6784228  59.1542141
  45.7975615  11.9629559  44.5887025  44.8907070  11.6662672  44.6649738
  46.0751596  11.6659377  43.7221311  36.7153555  13.2835922  55.0386071
  36.3956340  12.4301231  54.7460445  36.1686983  13.4984501  55.7944038
  40.4933463  15.9998363  58.7555578  40.7119472  16.9315471  58.7743611
  40.9059237  15.6406338  59.5410381  47.4137680   6.5066449  50.7431266
  46.6038409   6.1613534  51.1186512  48.1022097   6.1973992  51.3318878
  49.3428229   5.5844496  52.3655563  49.8959267   6.0039949  53.0245586
  49.5798315   4.6580244  52.4078519  44.5674399   8.8216494  44.7299004
  45.4293563   9.1471393  44.9894821  44.7524744   8.0347990  44.2172070
  36.5841815  16.9038834  57.0079193  35.8905287  16.4892787  56.4949147
  37.3314806  16.9459370  56.4112612  52.7207036   7.6945021  51.8734227
  52.1405705   8.3529825  51.4912279  52.4542969   6.8722365  51.4621644
  51.1710602   7.0950078  54.0755547  51.6710381   7.2066613  53.2669866
  51.8146210   6.7911131  54.7156356  38.4978558  16.8357088  54.8845208
  38.4749246  16.9344775  53.9327091  38.8079194  17.6822238  55.2062374
  41.1565936  18.8933243  58.9991822  42.1109189  18.8617185  58.9321754
  40.9578459  18.4323866  59.8142048  51.5031914   9.8545111  50.9290575
  50.6157769  10.1394762  50.7110770  51.9185903   9.6938874  50.0817852
  54.8546450   9.8791632  54.6444914  55.6306840  10.3688084  54.9169531
  54.1294584  10.3049686  55.1016784  57.2919009  10.5919251  55.7018855
  57.8863499  10.3514987  54.9912163  57.3645592   9.8726382  56.3292391
  39.5116164  24.4352862  56.0162020  39.3770632  23.6753263  55.4500018
  39.0948227  25.1593762  55.5490809  50.6475127  19.6189786  45.0238595
  51.3510977  19.8239788  45.6396251  49.9237776  20.1866548  45.2887679
  51.4772938  15.3699647  51.1440865  51.4208139  15.8268198  50.3048498
  52.0301280  14.6090332  50.9663708  55.2877744  11.1589379  51.9690985
  55.0314678  10.7586015  52.7999193  54.6630612  11.8733173  51.8441124
  59.5990081  13.8985452  54.4762276  59.0389639  13.9678641  55.2493838
  58.9933585  13.7226437  53.7561772  42.6685290  25.3322179  56.2280463
  42.5517674  26.2767612  56.1259153  41.8477736  25.0295741  56.6166262
  52.5561825  20.0572315  47.0737055  53.3907429  19.6253513  46.8914530
  52.3946168  19.8854329  48.0013950  52.2107717  16.5604428  48.4393395
  52.1556521  16.3948700  47.4981839  51.5853772  17.2680461  48.5955584
  37.0000232  11.7972493  62.2654817  37.6459096  11.2871447  62.7542042
  36.7917383  12.5341174  62.8398242  45.5203842   6.0612537  48.0178713
  45.5082512   7.0054377  48.1746984  46.4127264   5.8782683  47.7238174
  43.6939804  25.9850441  59.4436391  44.5967051  26.0174051  59.7602886
  43.4677174  25.0550892  59.4582727  45.4493406  24.7381428  56.1046470
  44.4989037  24.7383289  55.9910842  45.7525893  23.9914162  55.5882504
  49.3355962   2.6555314  52.2724650  48.5688358   2.1013801  52.4181332
  49.7466667   2.7277183  53.1338801  41.3397723   8.9440110  66.3629831
  42.2029184   8.5876915  66.5733156  40.7663134   8.6054004  67.0505235
  61.1846100  30.5741966  57.1692232  61.8224510  30.4548713  56.4655572
  61.0666943  31.5222810  57.2280184  57.9935806  30.5269394  57.1053757
  57.6554318  30.4110459  56.2174292  58.8625574  30.1260559  57.0854763
  53.8522622  32.3804871  53.0950648  53.2887487  32.2894807  52.3266935
  53.7375017  31.5604775  53.5753140  58.4755589  31.6804246  63.0639962
  58.4644230  31.2857044  62.1920466  58.6376229  30.9470318  63.6573734
  51.3987054  33.8756062  55.9334868  52.1908346  33.5346887  55.5181167
  51.6383704  33.9851037  56.8537021  59.4322181  36.0475838  48.4065113
  58.7810160  36.6329919  48.0199126  60.2266543  36.5782033  48.4660150
  53.3577808  33.1364975  48.8052247  54.1308684  32.5893962  48.6665123
  53.7103207  34.0009225  49.0166708  55.1962850  34.4641358  62.0119146
  54.9052716  35.3686989  61.8965812  55.8319835  34.5057885  62.7263216
  56.1219057  31.8418206  58.6020506  56.7182629  31.6174229  57.8877469
  56.1794029  31.1002952  59.2045954  55.6944086  29.2957642  46.4370697
  55.9469606  28.7739163  45.6754160  54.7568645  29.1323787  46.5397380
  60.7387368  28.2993420  54.2445440  61.5250458  27.8812843  53.8935857
  61.0026073  29.2039512  54.4127088  60.9097446  33.7366270  48.9434097
  60.2743279  33.8100897  49.6555001  60.5794852  34.3259869  48.2653176
  66.1395795  28.2368653  55.1478419  66.8720967  27.6667870  55.3816248
  65.3835151  27.8490254  55.5884924  55.4140374  31.1985747  48.6395072
  55.2976632  30.5230651  49.3076156  55.5242634  30.7118121  47.8227225
  57.7571915  30.6595895  52.3441761  57.3930122  30.1326516  53.0554682
  58.6139031  30.2694364  52.1708246  63.6621216  21.9490227  59.6073027
  63.3304541  22.8185638  59.3834242  63.0666829  21.6326511  60.2867058
  57.3977402  25.6885794  47.3403109  57.5651805  26.5566031  47.7073581
  57.2074571  25.8513076  46.4164399  60.1552735  34.1502773  59.0068940
  59.8553458  35.0527812  58.8984747  59.8103795  33.8834956  59.8590093
  53.6065217  30.6016570  55.0405644  52.6815713  30.4692784  55.2483336
  53.8549630  31.3810789  55.5375587  63.5549879  26.6685313  56.6866377
  62.6466756  26.6000722  56.3925138  63.5037475  27.1457258  57.5148203
  57.3766623  28.1443452  48.3249776  57.2566248  28.5900503  49.1635257
  56.6819211  28.4928769  47.7663314  50.9674028  30.2449844  55.8749433
  51.0966409  30.4984322  56.7888845  50.2871479  30.8377552  55.5554088
  55.1373515  40.9147094  51.9739908  55.0597545  41.8654919  52.0528388
  54.5335159  40.5692966  52.6314834  65.4211526  24.8701752  58.4644251
  64.7785906  25.1634285  57.8184046  64.9166454  24.7554672  59.2697448
  63.0751689  28.6164925  49.1530110  63.9869545  28.8492312  48.9777808
  62.5661336  29.2001969  48.5905189  61.3592457  33.0389553  62.7891403
  61.7675813  32.5971963  62.0446035  60.6369718  32.4642180  63.0425596
  57.7123527  27.9762160  60.1624960  58.5584722  28.4001573  60.3059609
  57.6522165  27.3195784  60.8563523  61.6821272  33.5990743  56.5443692
  61.0530134  33.7636458  55.8419760  61.2946934  34.0132353  57.3154656
  65.5610503  34.5345181  53.8988056  64.8761542  34.9144083  53.3485089
  65.6454353  35.1440508  54.6320003  60.8622972  25.6366528  61.8206134
  60.6183904  26.3908588  61.2840409  61.1382903  26.0151876  62.6553381
  62.8161435  32.1805140  60.4983399  63.0278330  32.8236900  59.8217780
  62.7691183  31.3467457  60.0305329  60.4187664  24.7922961  57.4019971
  59.5572143  25.0904214  57.6936709  60.4450099  25.0093360  56.4701004
  57.2349233  33.3365151  53.8093777  57.6987579  33.6152854  53.0198399
  56.9706031  32.4348596  53.6266868  54.1273314  32.8836633  56.7473540
  54.6974672  33.3123901  56.1091025  54.7181426  32.6019218  57.4457726
  56.1718119  29.4588304  50.6183342  56.8742163  29.9109348  51.0857268
  55.8398748  28.8172123  51.2463235  49.9143453  27.7171857  55.9200476
  49.1242507  27.9729385  55.4440586  50.4054701  28.5320194  56.0252516
  63.9307263  35.0577096  58.6705756  64.7524707  34.6557283  58.3888438
  63.9269666  34.9545330  59.6221872  51.8658199  28.0816436  52.8783952
  51.0689362  28.1935130  53.3967448  51.6383791  28.4203088  52.0124843
  57.6963866  34.6061139  60.8266467  57.7608299  35.0681546  61.6624639
  56.9874790  33.9758504  60.9548777  48.1981156  27.9702347  58.3515466
  48.4489195  28.8549357  58.6173042  48.7340705  27.7906948  57.5790558
  72.0213256  31.4015844  55.0190728  71.2676964  30.8323242  54.8634732
  72.1560797  31.3678509  55.9661363  57.4111884  36.2729246  50.6945447
  57.2757559  37.1180782  51.1230295  57.9521697  36.4748524  49.9311381
  50.8641281  33.7904685  51.2673372  51.3765802  34.5847935  51.4178937
  51.5163994  33.0930975  51.2006974  52.6736166  36.9070441  53.3496126
  52.8502794  37.8288405  53.1617109  53.4693000  36.5928860  53.7790505
  59.0380360  36.8952813  64.8245789  58.5944215  36.1089192  64.5066694
  59.6997574  37.0831963  64.1589680  53.7967482  38.4248615  59.3506468
  54.3474907  38.2965678  58.5783462  52.9578958  38.7243504  59.0001361
  61.1361599  37.1755613  62.8527191  61.1180074  37.9964494  62.3607460
  62.0581519  37.0509688  63.0777332  57.5934653  34.6899742  63.6950699
  58.1262989  33.9288031  63.4650007  57.0648734  34.3973394  64.4374853
  60.7604348  19.7959808  59.2244341  60.4168617  20.6861450  59.1483451
  61.1283310  19.6061466  58.3613926  48.8290198  32.1193339  52.0432943
  49.6665420  32.5290347  51.8266651  49.0068466  31.1792781  52.0133137
  60.7254630  29.7868419  47.7316776  60.2101254  30.5573024  47.9705163
  60.4531939  29.1133556  48.3549837  58.3101741  24.6318120  52.7902014
  57.4543338  24.2424971  52.6107653  58.7228693  24.7110081  51.9301800
  59.8400888  22.1664464  57.1893574  59.3365684  22.1294599  56.3761379
  60.1331495  23.0757206  57.2490231  56.0843774  22.2503193  56.1959756
  56.9496771  22.0546002  55.8365645  56.1521283  22.0213545  57.1229112
  65.6988904  32.5400774  49.6669949  64.9218347  32.2011934  49.2225111
  66.3780385  32.5453397  48.9924914  60.5140934  27.6595512  49.5576557
  60.2091069  27.9741661  50.4086700  61.4671376  27.7376931  49.6003890
  58.9587365  33.8185735  51.2069511  58.4308727  33.0838494  50.8942748
  58.4574868  34.5960411  50.9609479  63.9380211  32.0134755  56.3236557
  63.2803886  32.7034017  56.4116686  64.7420611  32.4031187  56.6670544
  53.6906093  24.4805401  53.5676123  54.2649845  24.2580583  52.8349315
  54.2777075  24.5494096  54.3204724  62.7485670  30.3679128  54.3740499
  63.2617552  31.0009120  54.8762209  63.3986894  29.7680324  54.0083859
  54.0175680  26.5109862  47.5872008  53.1812992  26.8484549  47.9081283
  53.8780450  26.3758842  46.6499145  55.9928761  21.3546650  52.2951192
  55.3393173  21.0395667  51.6707807  55.9509235  20.7322391  53.0211015
  57.1039966  31.6365945  44.2104484  56.1967027  31.4055199  44.4095633
  57.6010998  30.8403564  44.3978466  60.0108044  40.3463452  47.1301170
  59.3369743  40.6495149  47.7386128  60.3973866  41.1492533  46.7806627
  59.2266501  27.8428584  56.6198840  58.3089062  28.0643531  56.4620528
  59.6426645  27.9174894  55.7610547  60.0101549  29.2419999  51.7501520
  60.7573368  29.7541397  51.4408642  60.2793138  28.9204052  52.6105913
  58.2828199  31.7378540  48.7328474  57.3739418  31.4537573  48.8300944
  58.3123283  32.1577619  47.8731781  63.5147466  35.3485130  52.5019642
  63.0609794  34.5076039  52.5584832  62.8841433  35.9846528  52.8394422
  62.4580386  26.2777116  53.7320309  61.7203143  25.7654502  54.0630552
  62.7107160  25.8377497  52.9203586  61.9580406  37.1861626  53.4369460
  62.2503380  37.7466683  52.7181825  62.4679026  37.4790187  54.1922619
  62.5592013  19.0553368  54.3262078  62.8650890  18.1950731  54.0387993
  63.2844618  19.6470988  54.1261072  48.8516369  29.4584054  52.7143676
  48.6540769  28.8653415  51.9894743  48.2963033  29.1536264  53.4319615
  56.8313093  29.3507161  54.8338269  56.8861703  28.3980997  54.7580746
  56.0204295  29.5066600  55.3179568  57.9804287  33.2787284  46.0716553
  57.5423717  32.5623143  45.6122190  58.7214728  33.5063399  45.5101644
  54.7705453  27.9684220  52.5928648  53.9573318  28.2678391  52.9993840
  55.2664447  27.5739909  53.3103131  56.9214031  37.9641977  54.5262913
  56.8790210  38.1902824  53.5971445  57.8376730  37.7305352  54.6748714
  60.3679665  28.4326045  61.4243542  60.7229052  28.6597518  62.2838008
  61.0151796  28.7644422  60.8020798  66.0977402  31.5544481  52.1292871
  65.9595300  31.7446077  51.2014060  65.7413620  32.3163864  52.5860922
  54.2619528  25.5402576  58.2089883  54.9018907  25.3991335  57.5112847
  53.4297058  25.2537089  57.8328485  66.1246781  33.6221008  57.1404143
  66.5583288  33.5296297  57.9887197  66.8378362  33.5978508  56.5024159
  55.0379832  34.8405006  54.3224876  55.8320430  34.3455326  54.1207451
  54.3271524  34.3122869  53.9592581  59.8574676  37.2223102  58.6737243
  59.9111698  37.7914038  59.4414959  58.9889457  37.3924987  58.3091281
  51.3462595  28.9848088  50.3984628  50.4160183  28.9232544  50.6154591
  51.4420067  28.4624041  49.6021270  51.2648144  25.5102901  52.9862870
  51.5254961  26.4248234  52.8772031  52.0865316  25.0427343  53.1359483
  52.7373069  26.9240658  60.1561695  53.4096123  26.7158020  59.5074344
  51.9102856  26.7262744  59.7166927  66.9862331  33.6644708  59.6737028
  67.1798221  34.5690519  59.9196303  66.8862949  33.2052127  60.5075613
  62.0477439  33.8151451  65.2477909  61.8962946  33.5862003  64.3307992
  62.0382119  34.7722053  65.2609254  58.8162776  31.3883364  60.2324175
  59.7454836  31.5394523  60.0593143  58.3953806  31.4767385  59.3772822
  57.6151108  35.4134028  58.0022713  57.4762193  35.0452813  58.8748651
  56.8265704  35.9281668  57.8306671  58.2099260  40.5143125  49.3448249
  58.3851015  40.0431168  50.1593872  57.5232048  41.1408891  49.5729510
  59.1656323  34.7915631  55.3911551  58.8306155  34.7516401  56.2869201
  58.6660268  34.1260347  54.9181961  53.1400567  30.1983261  60.9164132
  53.0020365  29.4663500  61.5175671  54.0505490  30.1092161  60.6348320
  62.1015514  32.1371665  45.6648610  61.4844685  31.4118493  45.5681663
  61.6332003  32.8981026  45.3215685  55.7682867  29.9103220  60.4047811
  56.4782486  29.2696413  60.3634430  55.7252176  30.1616115  61.3273992
  63.7569646  36.8470574  63.3254391  63.6982192  36.1629794  62.6584974
  64.1589164  37.5889564  62.8735017  52.7760345  43.6632488  56.1188110
  53.0156943  44.2951012  56.7967128  51.9329541  43.3120528  56.4053469
  53.8914060  26.3557090  44.7869915  53.0143527  26.2345890  44.4232161
  54.3671813  25.5643168  44.5348803  63.7587053  34.8110158  61.5568370
  62.8713832  34.4736079  61.6794769  64.3285604  34.0793189  61.7937136
  45.4116200  31.1434249  54.8811422  46.0987240  30.8295979  54.2932437
  45.2564329  32.0475614  54.6078673  50.2150923  26.0324446  59.3096445
  50.1309111  25.4250115  58.5746855  49.3933629  26.5233464  59.3105942
  57.2888207  39.4711610  58.5229614  57.2158378  40.2766581  59.0348918
  56.8465600  39.6703576  57.6977635  57.0777986  38.7083380  52.0332435
  56.2945508  39.2505060  52.1270660  57.7770732  39.2257360  52.4326676
  60.3874636  24.5178009  54.6766640  60.8843336  23.7647972  54.3567711
  59.6161618  24.5542326  54.1109850  68.2404394  30.2218375  56.3184932
  68.2294270  31.1043090  55.9478865  67.3721773  29.8689926  56.1239469
  59.7486890  39.3698444  60.6787772  60.4614862  40.0045909  60.6063674
  59.2576919  39.4662310  59.8627774  61.4704417  33.2749697  52.2505064
  60.5360696  33.3951159  52.0809768  61.6481086  32.3722163  51.9865074
  56.9709605  26.6595392  54.4038325  56.6007393  26.1066433  55.0919231
  57.4668698  26.0553526  53.8513325  64.8576969  29.1167016  52.7855098
  65.3237421  29.9495008  52.7115401  65.3084469  28.6511998  53.4900356
  54.7998804  37.1192887  61.4993343  55.5008263  37.7529370  61.6522737
  54.3293919  37.4607619  60.7388982  62.9253200  35.4610837  49.7841250
  63.2013044  35.3467432  50.6935124  62.0557698  35.0628322  49.7453423
  62.8293631  21.4847603  56.8245999  61.9156711  21.7151830  56.9928206
  63.2586733  21.5686047  57.6760032  62.6000090  29.6737495  59.3245893
  61.9471540  29.9213402  58.6698346  62.9780470  28.8601633  58.9908371
  59.5607264  39.7097188  53.4274064  59.7429658  38.8918844  53.8901816
  60.3840250  39.9264880  52.9898954  59.8949429  38.6365373  50.6889112
  60.4237196  38.1257828  50.0759274  60.1577649  38.3207903  51.5534645
  50.3966522  36.6529242  58.4324446  50.9819959  35.9072930  58.5652350
  50.1991360  36.9633199  59.3161110  53.2505177  39.6880490  53.4486888
  52.5815552  40.1726618  52.9650928  53.1118047  39.9349710  54.3630267
  44.9884177  29.2234843  57.1528889  45.0268276  28.6898433  57.9466007
  44.4824469  28.6970048  56.5339866  57.3910446  41.7224233  60.0469546
  57.9428754  41.8855855  60.8118632  57.7316639  42.3128671  59.3749571
  52.3674939  24.0699383  60.6491431  52.4316265  24.9314214  60.2368829
  52.3042059  23.4573385  59.9163790  48.6192754  27.9498945  50.2282820
  48.9146195  27.0409623  50.1749874  47.7180790  27.9286684  49.9063823
  60.5278833  39.6706209  57.0333229  60.4029972  38.8695949  56.5244174
  61.1857924  40.1652402  56.5447199  52.1487001  26.0254941  56.2110369
  51.4273587  26.6390909  56.0717842  52.9380257  26.5612706  56.1327015
  50.3480596  25.6313043  50.3522145  50.0193302  24.7510421  50.1697251
  50.7019966  25.5760711  51.2398535  59.5960175  37.2667945  54.8617131
  59.4485137  36.3384653  55.0424701  60.4213668  37.2888036  54.3774206
  53.4622419  25.9186012  50.7197623  53.8018491  26.4471934  49.9976231
  53.9094539  26.2566418  51.4956190  56.1565860  24.3023063  60.1700691
  55.8162680  23.5030876  60.5721371  55.4504866  24.6024774  59.5977524
  56.8082332  21.3872375  58.6228014  57.6308401  20.9132854  58.5006904
  57.0520395  22.1662859  59.1226700  55.4490566  24.4160634  48.9190916
  56.1698929  24.7941887  48.4154633  54.8255870  25.1349511  49.0225894
  59.5921689  25.1205783  49.8549248  59.8085303  26.0030421  49.5538076
  59.1115756  24.7291996  49.1254890  54.3320910  28.0791496  56.4319993
  54.1865491  28.3931799  57.3244274  53.8546114  28.6976396  55.8790891
  56.1917293  25.0694044  56.4800882  56.1778862  24.1735137  56.1433180
  56.9089721  25.0764708  57.1139168  58.0443424  25.5031384  58.5254010
  57.7861202  26.4248455  58.5238340  57.5128464  25.1061819  59.2154474
  62.9889613  38.6082171  51.3044095  63.1626490  38.0428594  50.5517948
  63.4818504  39.4083066  51.1223585  48.8066572  30.6196841  59.3707654
  48.2620041  31.3956648  59.5027928  49.6845922  30.9667645  59.2126775
  55.5954189  23.9508424  51.7488452  55.7170100  23.0225071  51.9479340
  55.3056231  23.9647110  50.8366768  58.4645380  21.6363335  54.8855172
  58.4867076  21.7002668  53.9307152  58.8813439  20.7967843  55.0795678
  68.8429004  31.3718594  52.9234395  69.2860150  30.6225920  52.5253518
  67.9655514  31.3628731  52.5408127  63.9764785  37.9248936  48.4040993
  64.6715690  38.5455629  48.6228308  64.3187935  37.0744287  48.6793371
  65.8756208  35.3748641  49.9328324  66.4007532  35.7135914  49.2077644
  65.7878561  34.4395657  49.7491459  57.5376257  39.2882715  62.0618201
  57.8463383  39.0431862  62.9340900  58.3351739  39.4929353  61.5737071
  57.5596869  41.4420625  54.2923577  57.1201859  40.9497003  54.9856434
  58.3104986  40.8993592  54.0515653  50.0389208  37.6332165  54.2948205
  50.8647228  37.3335937  53.9146849  49.6883260  36.8639788  54.7437994
  55.0070741  36.9858634  56.3645879  54.3850750  36.3229339  56.0648107
  55.6775608  37.0119766  55.6819527  48.2397813  35.5518492  55.2537139
  47.4029721  35.1240666  55.0721140  48.2121458  35.7450935  56.1907930
  65.6847989  32.8574011  62.5512251  65.7345994  32.6924019  63.4927773
  65.5761913  31.9901270  62.1610131  54.5684248  35.5362557  49.8404340
  54.7172368  36.2198021  49.1871012  55.3750692  35.5167647  50.3553795
  62.9751752  28.8404939  63.8671557  63.8761615  28.7011404  63.5755555
  63.0499726  29.0059394  64.8069735  67.1866186  35.2770953  62.7954272
  66.8950995  35.6400933  63.6317733  66.5738318  34.5637961  62.6167604
  68.3861869  32.8423833  55.3156842  69.2208760  33.2813637  55.4794403
  68.5220997  32.3662486  54.4965088  65.4353374  30.4003568  61.2634330
  65.9107496  30.5931214  60.4553182  64.5118940  30.4562753  61.0177714
  52.3236881  31.5627735  50.8465408  52.0782923  30.6590065  51.0445619
  52.4932796  31.5644885  49.9044886  60.0133591  22.4351411  60.2290164
  60.5315535  23.1712438  59.9036653  59.6588724  22.7415404  61.0636923
  51.5932529  27.2956092  48.3451570  50.9001774  27.3700447  47.6891606
  51.3484281  26.5316436  48.8673087  60.2646185  18.8551694  55.7491061
  60.5447939  18.1874883  56.3751487  61.0496792  19.0480789  55.2365725
  58.0679654  38.0310688  47.3116087  57.4953621  38.6500875  46.8586559
  58.6412447  38.5810049  47.8456009  64.1355043  27.2769328  59.4962636
  65.0872466  27.3767425  59.5174860  63.9658494  26.4847596  60.0060720
  62.1569423  24.3624911  59.6822037  61.5619355  24.6429924  58.9868525
  61.8719120  24.8518812  60.4538778  61.2876913  38.3147838  48.4424669
  62.2207587  38.2493399  48.6457545  61.2000126  39.1504104  47.9839202
  63.9164930  37.6313708  45.4028617  63.8378562  37.2973572  46.2964375
  64.7374597  38.1235476  45.4020089  66.6143121  30.4975447  58.6104935
  66.5819441  29.5591448  58.7964619  67.2243745  30.5759484  57.8770760
  58.4526452  29.3671500  44.6532139  59.3985557  29.2377708  44.7220558
  58.0740697  28.6286162  45.1301568  66.7637610  27.2886491  58.6563219
  66.2476658  26.5044947  58.4693147  67.6477558  26.9605207  58.8209738
  64.4248337  21.0327506  54.6159031  64.2273158  20.7242594  55.5002363
  65.0348042  21.7589145  54.7456961  72.4319671  31.5591454  57.7510972
  73.1623060  31.2976742  58.3118676  71.8226617  30.8220176  57.7913040
  70.5134968  29.6999317  58.3485423  69.7868132  29.5655282  57.7401915
  70.0982255  30.0076145  59.1542141  56.6369369  27.2921477  44.5887025
  55.7300825  26.9954589  44.6649738  56.9145350  26.9951295  43.7221311
  47.5547310  28.6127840  55.0386071  47.2350094  27.7593148  54.7460445
  47.0080738  28.8276418  55.7944038  51.3327217  31.3290281  58.7555578
  51.5513227  32.2607389  58.7743611  51.7452991  30.9698255  59.5410381
  58.2531435  21.8358366  50.7431266  57.4432163  21.4905451  51.1186512
  58.9415852  21.5265910  51.3318878  60.1821983  20.9136413  52.3655563
  60.7353022  21.3331867  53.0245586  60.4192070  19.9872161  52.4078519
  55.4068154  24.1508412  44.7299004  56.2687318  24.4763310  44.9894821
  55.5918498  23.3639908  44.2172070  47.4235570  32.2330752  57.0079193
  46.7299041  31.8184704  56.4949147  48.1708561  32.2751288  56.4112612
  63.5600790  23.0236938  51.8734227  62.9799459  23.6821742  51.4912279
  63.2936723  22.2014283  51.4621644  62.0104357  22.4241996  54.0755547
  62.5104135  22.5358531  53.2669866  62.6539965  22.1203049  54.7156356
  49.3372312  32.1649005  54.8845208  49.3143000  32.2636693  53.9327091
  49.6472949  33.0114156  55.2062374  51.9959690  34.2225160  58.9991822
  52.9502944  34.1909103  58.9321754  51.7972214  33.7615784  59.8142048
  52.5859072  32.7926276  61.5662620  53.4051961  33.2870355  61.5897457
  52.8595880  31.8758245  61.5380187  62.3425668  25.1837029  50.9290575
  61.4551523  25.4686679  50.7110770  62.7579657  25.0230792  50.0817852
  65.6940205  25.2083550  54.6444914  66.4700595  25.6980002  54.9169531
  64.9688339  25.6341604  55.1016784  68.1312763  25.9211169  55.7018855
  68.7257254  25.6806905  54.9912163  68.2039347  25.2018299  56.3292391
  50.3509919  39.7644780  56.0162020  50.2164387  39.0045181  55.4500018
  49.9341981  40.4885680  55.5490809  61.4868882  34.9481703  45.0238595
  62.1904732  35.1531706  45.6396251  60.7631531  35.5158465  45.2887679
  62.3166692  30.6991565  51.1440865  62.2601894  31.1560116  50.3048498
  62.8695035  29.9382249  50.9663708  66.1271498  26.4881297  51.9690985
  65.8708432  26.0877932  52.7999193  65.5024366  27.2025090  51.8441124
  70.4383836  29.2277370  54.4762276  69.8783394  29.2970559  55.2493838
  69.8327339  29.0518354  53.7561772  53.5079045  40.6614097  56.2280463
  53.3911429  41.6059529  56.1259153  52.6871491  40.3587658  56.6166262
  63.3955579  35.3864233  47.0737055  64.2301183  34.9545431  46.8914530
  63.2339922  35.2146246  48.0013950  63.0501471  31.8896346  48.4393395
  62.9950275  31.7240617  47.4981839  62.4247527  32.5972379  48.5955584
  56.3597597  21.3904455  48.0178713  56.3476267  22.3346295  48.1746984
  57.2521019  21.2074600  47.7238174  54.5333559  41.3142359  59.4436391
  55.4360806  41.3465969  59.7602886  54.3070929  40.3842810  59.4582727
  56.2887161  40.0673345  56.1046470  55.3382792  40.0675207  55.9910842
  56.5919647  39.3206080  55.5882504  60.1749716  17.9847232  52.2724650
  59.4082112  17.4305718  52.4181332  60.5860421  18.0569100  53.1338801
  64.6916376  47.7096788  53.0950648  64.1281241  47.6186725  52.3266935
  64.5768771  46.8896693  53.5753140  62.2380808  49.2047980  55.9334868
  63.0302100  48.8638804  55.5181167  62.4777458  49.3142955  56.8537021
  64.1971562  48.4656893  48.8052247  64.9702438  47.9185880  48.6665123
  64.5496961  49.3301142  49.0166708  66.5337840  44.6249559  46.4370697
  66.7863361  44.1031080  45.6754160  65.5962399  44.4615705  46.5397380
  76.9789550  43.5660571  55.1478419  77.7114722  42.9959788  55.3816248
  76.2228906  43.1782171  55.5884924  66.2534129  46.5277665  48.6395072
  66.1370387  45.8522569  49.3076156  66.3636389  46.0410039  47.8227225
  68.5965670  45.9887812  52.3441761  68.2323877  45.4618433  53.0554682
  69.4532786  45.5986281  52.1708246  68.2371157  41.0177712  47.3403109
  68.4045559  41.8857948  47.7073581  68.0468326  41.1804994  46.4164399
  68.2160378  43.4735369  48.3249776  68.0960003  43.9192420  49.1635257
  67.5212966  43.8220687  47.7663314  61.8067782  45.5741761  55.8749433
  61.9360164  45.8276240  56.7888845  61.1265234  46.1669469  55.5554088
  73.9145444  43.9456843  49.1530110  74.8263300  44.1784229  48.9777808
  73.4055091  44.5293887  48.5905189  67.0111874  44.7880222  50.6183342
  67.7135917  45.2401265  51.0857268  66.6792502  44.1464040  51.2463235
  60.7537208  43.0463774  55.9200476  59.9636262  43.3021303  55.4440586
  61.2448455  43.8612112  56.0252516  62.7051953  43.4108353  52.8783952
  61.9083117  43.5227048  53.3967448  62.4777545  43.7495006  52.0124843
  59.0374911  43.2994265  58.3515466  59.2882949  44.1841275  58.6173042
  59.5734459  43.1198866  57.5790558  82.8607011  46.7307762  55.0190728
  82.1070719  46.1615160  54.8634732  82.9954552  46.6970426  55.9661363
  61.7035036  49.1196602  51.2673372  62.2159557  49.9139852  51.4178937
  62.3557749  48.4222893  51.2006974  63.5129921  52.2362358  53.3496126
  63.6896549  53.1580323  53.1617109  64.3086754  51.9220778  53.7790505
  59.6683953  47.4485256  52.0432943  60.5059175  47.8582265  51.8266651
  59.8462220  46.5084699  52.0133137  71.5648385  45.1160337  47.7316776
  71.0495008  45.8864942  47.9705163  71.2925693  44.4425473  48.3549837
  76.5382659  47.8692692  49.6669949  75.7612102  47.5303851  49.2225111
  77.2174140  47.8745315  48.9924914  71.3534688  42.9887429  49.5576557
  71.0484824  43.3033578  50.4086700  72.3065130  43.0668849  49.6003890
  74.7773966  47.3426673  56.3236557  74.1197640  48.0325934  56.4116686
  75.5814365  47.7323105  56.6670544  64.8569435  41.8401780  47.5872008
  64.0206747  42.1776466  47.9081283  64.7174204  41.7050760  46.6499145
  66.8322515  36.6838568  52.2951192  66.1786928  36.3687585  51.6707807
  66.7902989  36.0614308  53.0211015  67.9433720  46.9657863  44.2104484
  67.0360782  46.7347116  44.4095633  68.4404752  46.1695482  44.3978466
  69.1221953  47.0670458  48.7328474  68.2133173  46.7829491  48.8300944
  69.1517037  47.4869536  47.8731781  73.3985768  34.3845285  54.3262078
  73.7044645  33.5242649  54.0387993  74.1238373  34.9762905  54.1261072
  59.6910124  44.7875972  52.7143676  59.4934524  44.1945333  51.9894743
  59.1356788  44.4828182  53.4319615  65.6099207  43.2976138  52.5928648
  64.7967073  43.5970309  52.9993840  66.1058202  42.9031827  53.3103131
  76.9371156  46.8836398  52.1292871  76.7989055  47.0737994  51.2014060
  76.5807375  47.6455781  52.5860922  65.8773586  50.1696924  54.3224876
  66.6714185  49.6747244  54.1207451  65.1665278  49.6414787  53.9592581
  62.1856350  44.3140006  50.3984628  61.2553938  44.2524461  50.6154591
  62.2813822  43.7915958  49.6021270  62.1041899  40.8394819  52.9862870
  62.3648716  41.7540152  52.8772031  62.9259071  40.3719261  53.1359483
  64.7307815  41.6849007  44.7869915  63.8537281  41.5637808  44.4232161
  65.2065568  40.8935086  44.5348803  56.2509955  46.4726167  54.8811422
  56.9380995  46.1587897  54.2932437  56.0958084  47.3767532  54.6078673
  79.0798148  45.5510293  56.3184932  79.0688025  46.4335008  55.9478865
  78.2115528  45.1981843  56.1239469  75.6970723  44.4458934  52.7855098
  76.1631175  45.2786925  52.7115401  76.1478223  43.9803915  53.4900356
  73.6687386  36.8139521  56.8245999  72.7550466  37.0443747  56.9928206
  74.0980487  36.8977965  57.6760032  61.2360276  51.9821160  58.4324446
  61.8213713  51.2364848  58.5652350  61.0385115  52.2925117  59.3161110
  55.8277931  44.5526760  57.1528889  55.8662031  44.0190351  57.9466007
  55.3218224  44.0261966  56.5339866  59.4586509  43.2790863  50.2282820
  59.7539950  42.3701541  50.1749874  58.5574544  43.2578602  49.9063823
  61.1874350  40.9604960  50.3522145  60.8587056  40.0802339  50.1697251
  61.5413721  40.9052629  51.2398535  64.3016173  41.2477930  50.7197623
  64.6412246  41.7763851  49.9976231  64.7488294  41.5858336  51.4956190
  66.2884321  39.7452552  48.9190916  67.0092683  40.1233804  48.4154633
  65.6649625  40.4641428  49.0225894  70.4315443  40.4497701  49.8549248
  70.6479058  41.3322338  49.5538076  69.9509511  40.0583914  49.1254890
  59.6460327  45.9488758  59.3707654  59.1013795  46.7248566  59.5027928
  60.5239677  46.2959563  59.2126775  66.4347944  39.2800342  51.7488452
  66.5563855  38.3516988  51.9479340  66.1449986  39.2939028  50.8366768
  79.6822758  46.7010512  52.9234395  80.1253904  45.9517837  52.5253518
  78.8049269  46.6920648  52.5408127  59.0791568  50.8810410  55.2537139
  58.2423476  50.4532584  55.0721140  59.0515213  51.0742853  56.1907930
  79.2255623  48.1715750  55.3156842  80.0602514  48.6105554  55.4794403
  79.3614752  47.6954404  54.4965088  63.1630636  46.8919652  50.8465408
  62.9176677  45.9881982  51.0445619  63.3326550  46.8936803  49.9044886
  62.4326283  42.6248010  48.3451570  61.7395528  42.6992365  47.6891606
  62.1878035  41.8608354  48.8673087  71.1039940  34.1843611  55.7491061
  71.3841693  33.5166800  56.3751487  71.8890547  34.3772707  55.2365725
  77.4536876  45.8267365  58.6104935  77.4213196  44.8883366  58.7964619
  78.0637499  45.9051402  57.8770760  69.2920207  44.6963418  44.6532139
  70.2379311  44.5669626  44.7220558  68.9134452  43.9578080  45.1301568
  75.2642091  36.3619424  54.6159031  75.0666912  36.0534512  55.5002363
  75.8741797  37.0881063  54.7456961  83.2713426  46.8883372  57.7510972
  84.0016814  46.6268660  58.3118676  82.6620371  46.1512094  57.7913040
  81.3528723  45.0291234  58.3485423  80.6261886  44.8947199  57.7401915
  80.9376010  45.3368063  59.1542141  67.4763124  42.6213394  44.5887025
  66.5694579  42.3246507  44.6649738  67.7539105  42.3243212  43.7221311
  58.3941064  43.9419758  55.0386071  58.0743848  43.0885066  54.7460445
  57.8474492  44.1568336  55.7944038  69.0925189  37.1650284  50.7431266
  68.2825918  36.8197369  51.1186512  69.7809606  36.8557828  51.3318878
  71.0215738  36.2428331  52.3655563  71.5746776  36.6623784  53.0245586
  71.2585824  35.3164079  52.4078519  66.2461908  39.4800330  44.7299004
  67.1081072  39.8055228  44.9894821  66.4312253  38.6931825  44.2172070
  58.2629324  47.5622669  57.0079193  57.5692796  47.1476622  56.4949147
  59.0102315  47.6043206  56.4112612  74.3994545  38.3528856  51.8734227
  73.8193214  39.0113660  51.4912279  74.1330478  37.5306201  51.4621644
  60.1766067  47.4940923  54.8845208  60.1536755  47.5928610  53.9327091
  60.4866703  48.3406074  55.2062374  73.1819423  40.5128946  50.9290575
  72.2945278  40.7978597  50.7110770  73.5973412  40.3522710  50.0817852
  76.5333959  40.5375467  54.6444914  77.3094349  41.0271920  54.9169531
  75.8082093  40.9633522  55.1016784  78.9706518  41.2503087  55.7018855
  79.5651008  41.0098823  54.9912163  79.0433101  40.5310217  56.3292391
  73.1560447  46.0283482  51.1440865  73.0995648  46.4852034  50.3048498
  73.7088789  45.2674167  50.9663708  76.9665253  41.8173214  51.9690985
  76.7102187  41.4169850  52.7999193  76.3418121  42.5317008  51.8441124
  81.2777590  44.5569287  54.4762276  80.7177148  44.6262477  55.2493838
  80.6721094  44.3810272  53.7561772  73.8895226  47.2188264  48.4393395
  73.8344030  47.0532535  47.4981839  73.2641281  47.9264296  48.5955584
  58.6787741  42.4556328  62.2654817  59.3246605  41.9455282  62.7542042
  58.4704892  43.1925010  62.8398242  67.1991351  36.7196373  48.0178713
  67.1870021  37.6638212  48.1746984  68.0914773  36.5366518  47.7238174
  71.0143471  33.3139149  52.2724650  70.2475867  32.7597636  52.4181332
  71.4254176  33.3861018  53.1338801  79.0764911  56.3469630  47.3403109
  79.2439314  57.2149866  47.7073581  78.8862080  56.5096911  46.4164399
  84.7539198  59.2748760  49.1530110  85.6657054  59.5076147  48.9777808
  84.2448845  59.8585805  48.5905189  82.4042139  60.4452255  47.7316776
  81.8888763  61.2156859  47.9705163  82.1319448  59.7717391  48.3549837
  81.5188397  52.8248299  57.1893574  81.0153193  52.7878434  56.3761379
  81.8119004  53.7341042  57.2490231  82.1928443  58.3179347  49.5576557
  81.8878578  58.6325496  50.4086700  83.1458885  58.3960767  49.6003890
  84.2379522  49.7137203  54.3262078  84.5438399  48.8534566  54.0387993
  84.9632127  50.3054823  54.1261072  83.7803023  62.7955501  45.6648610
  83.1632194  62.0702329  45.5681663  83.3119512  63.5564861  45.3215685
  81.2709198  55.7789618  49.8549248  81.4872812  56.6614256  49.5538076
  80.7903265  55.3875832  49.1254890  80.1432888  52.2947170  54.8855172
  80.1654585  52.3586503  53.9307152  80.5600948  51.4551679  55.0795678
  81.9433694  49.5135529  55.7491061  82.2235448  48.8458718  56.3751487
  82.7284301  49.7064625  55.2365725  79.9318944  52.4942202  50.7431266
  79.1219672  52.1489287  51.1186512  80.6203361  52.1849745  51.3318878
  81.8609492  51.5720249  52.3655563  82.4140531  51.9915702  53.0245586
  82.0979579  50.6455997  52.4078519  77.0855663  54.8092247  44.7299004
  77.9474827  55.1347146  44.9894821  77.2706007  54.0223743  44.2172070
  85.2388299  53.6820774  51.8734227  84.6586968  54.3405578  51.4912279
  84.9724232  52.8598118  51.4621644  83.6891866  53.0825831  54.0755547
  84.1891644  53.1942366  53.2669866  84.3327474  52.7786884  54.7156356
  84.0213177  55.8420864  50.9290575  83.1339032  56.1270515  50.7110770
  84.4367166  55.6814627  50.0817852  78.0385106  52.0488290  48.0178713
  78.0263776  52.9930130  48.1746984  78.9308528  51.8658436  47.7238174
  81.8537225  48.6431067  52.2724650  81.0869621  48.0889554  52.4181332
  82.2647930  48.7152936  53.1338801  89.9158666  71.6761547  47.3403109
  90.0833068  72.5441784  47.7073581  89.7255835  71.8388829  46.4164399
  81.3471462  78.1069092  52.0432943  82.1846684  78.5166100  51.8266651
  81.5249729  77.1668534  52.0133137  86.5356944  72.4985615  47.5872008
  85.6994256  72.8360302  47.9081283  86.3961713  72.3634595  46.6499145
  89.6221229  77.6241698  44.2104484  88.7148291  77.3930952  44.4095633
  90.1192261  76.8279317  44.3978466  86.4095324  72.3432843  44.7869915
  85.5324790  72.2221643  44.4232161  86.8853077  71.5518921  44.5348803
  81.1374018  73.9374698  50.2282820  81.4327459  73.0285376  50.1749874
  80.2362053  73.9162437  49.9063823  84.1113792  73.2831845  48.3451570
  83.4183037  73.3576200  47.6891606  83.8665544  72.5192189  48.8673087
  90.9707716  75.3547253  44.6532139  91.9166820  75.2253461  44.7220558
  90.5921961  74.6161915  45.1301568  89.1550633  73.2797230  44.5887025
  88.2482088  72.9830342  44.6649738  89.4326614  72.9827048  43.7221311
  87.9249417  70.1384165  44.7299004  88.7868581  70.4639063  44.9894821
  88.1099762  69.3515661  44.2172070 104.5421118  91.8909637  57.1692232
 105.1799528  91.7716384  56.4655572 104.4241961  92.8390481  57.2280184
 101.3510824  91.8437065  57.1053757 101.0129336  91.7278130  56.2174292
 102.2200592  91.4428230  57.0854763 104.0962386  89.6161091  54.2445440
 104.8825476  89.1980514  53.8935857 104.3601091  90.5207183  54.4127088
 103.5127753  95.4670444  59.0068940 103.2128476  96.3695483  58.8984747
 103.1678813  95.2002627  59.8590093 106.9124897  87.9852984  56.6866377
 106.0041774  87.9168392  56.3925138 106.8612493  88.4624929  57.5148203
  98.4948533 102.2314764  51.9739908  98.4172563 103.1822589  52.0528388
  97.8910177 101.8860637  52.6314834 104.7167475  94.3557223  62.7891403
 105.1250831  93.9139634  62.0446035 103.9944736  93.7809851  63.0425596
 101.0698545  89.2929830  60.1624960 101.9159740  89.7169244  60.3059609
 101.0097183  88.6363455  60.8563523 105.0396289  94.9158414  56.5443692
 104.4105152  95.0804128  55.8419760 104.6521952  95.3300024  57.3154656
 108.9185521  95.8512852  53.8988056 108.2336560  96.2311753  53.3485089
 109.0029371  96.4608179  54.6320003 106.1736453  93.4972811  60.4983399
 106.3853348  94.1404571  59.8217780 106.1266201  92.6635128  60.0305329
 107.2882281  96.3744766  58.6705756 108.1099725  95.9724954  58.3888438
 107.2844684  96.2713001  59.6221872 115.3788274  92.7183515  55.0190728
 114.6251982  92.1490913  54.8634732 115.5135815  92.6846179  55.9661363
 104.4936616  98.4923284  62.8527191 104.4755092  99.3132165  62.3607460
 105.4156537  98.3677359  63.0777332 109.0563922  93.8568445  49.6669949
 108.2793365  93.5179604  49.2225111 109.7355403  93.8621068  48.9924914
 107.2955229  93.3302426  56.3236557 106.6378904  94.0201687  56.4116686
 108.0995629  93.7198858  56.6670544 106.1060688  91.6846799  54.3740499
 106.6192570  92.3176791  54.8762209 106.7561912  91.0847994  54.0083859
 103.3683062 101.6631123  47.1301170 102.6944761 101.9662820  47.7386128
 103.7548884 102.4660203  46.7806627 102.5841519  89.1596254  56.6198840
 101.6664080  89.3811201  56.4620528 103.0001663  89.2342565  55.7610547
 106.8722484  96.6652800  52.5019642 106.4184811  95.8243710  52.5584832
 106.2416451  97.3014199  52.8394422 105.3155424  98.5029297  53.4369460
 105.6078398  99.0634354  52.7181825 105.8254044  98.7957858  54.1922619
 100.2789049  99.2809648  54.5262913 100.2365228  99.5070494  53.5971445
 101.1951748  99.0473023  54.6748714 109.4552420  92.8712151  52.1292871
 109.3170318  93.0613747  51.2014060 109.0988638  93.6331534  52.5860922
 109.4821799  94.9388678  57.1404143 109.9158306  94.8463968  57.9887197
 110.1953380  94.9146179  56.5024159 103.2149694  98.5390773  58.6737243
 103.2686716  99.1081709  59.4414959 102.3464475  98.7092658  58.3091281
 110.3437349  94.9812379  59.6737028 110.5373239  95.8858190  59.9196303
 110.2437967  94.5219798  60.5075613 102.1737794  92.7051035  60.2324175
 103.1029854  92.8562194  60.0593143 101.7528824  92.7935055  59.3772822
 100.9726126  96.7301699  58.0022713 100.8337211  96.3620483  58.8748651
 100.1840722  97.2449338  57.8306671 101.5674278 101.8310795  49.3448249
 101.7426033 101.3598839  50.1593872 100.8807066 102.4576562  49.5729510
 102.5231341  96.1083302  55.3911551 102.1881173  96.0684072  56.2869201
 102.0235286  95.4428018  54.9181961 107.1144664  98.1638244  63.3254391
 107.0557210  97.4797465  62.6584974 107.5164182  98.9057234  62.8735017
  96.1335363 104.9800158  56.1188110  96.3731961 105.6118682  56.7967128
  95.2904559 104.6288198  56.4053469 107.1162071  96.1277828  61.5568370
 106.2288850  95.7903750  61.6794769 107.6860622  95.3960860  61.7937136
 100.6463225 100.7879281  58.5229614 100.5733396 101.5934252  59.0348918
 100.2040618 100.9871246  57.6977635 100.4353004 100.0251051  52.0332435
  99.6520526 100.5672731  52.1270660 101.1345749 100.5425030  52.4326676
 111.5979412  91.5386046  56.3184932 111.5869288  92.4210761  55.9478865
 110.7296791  91.1857597  56.1239469 103.1061908 100.6866115  60.6787772
 103.8189880 101.3213580  60.6063674 102.6151937 100.7829981  59.8627774
 102.9182282 101.0264859  53.4274064 103.1004676 100.2086515  53.8901816
 103.7415268 101.2432551  52.9898954 103.2524447  99.9533044  50.6889112
 103.7812214  99.4425499  50.0759274 103.5152667  99.6375574  51.5534645
  93.7541540  97.9696913  58.4324446  94.3394977  97.2240601  58.5652350
  93.5566378  98.2800870  59.3161110  96.6080195 101.0048161  53.4486888
  95.9390570 101.4894288  52.9650928  96.4693065 101.2517381  54.3630267
 100.7485464 103.0391904  60.0469546 101.3003772 103.2023526  60.8118632
 101.0891657 103.6296342  59.3749571 103.8853851 100.9873880  57.0333229
 103.7604990 100.1863619  56.5244174 104.5432942 101.4820073  56.5447199
 105.9488759  98.7882900  58.6612779 105.0019095  98.6688251  58.5891105
 106.2971532  97.9005398  58.7439040 102.9535193  98.5835616  54.8617131
 102.8060155  97.6552323  55.0424701 103.7788686  98.6055707  54.3774206
 106.5569314  99.4064175  55.9482004 107.4815862  99.2007036  55.8106455
 106.3884618  99.1580576  56.8571345 106.3464631  99.9249842  51.3044095
 106.5201508  99.3596265  50.5517948 106.8393522 100.7250737  51.1223585
 112.2004022  92.6886265  52.9234395 112.6435168  91.9393590  52.5253518
 111.3230532  92.6796401  52.5408127 107.3339803  99.2416607  48.4040993
 108.0290708  99.8623299  48.6228308 107.6762953  98.3911958  48.6793371
 109.2331226  96.6916312  49.9328324 109.7582550  97.0303585  49.2077644
 109.1453579  95.7563327  49.7491459 100.9171887 102.7588295  54.2923577
 100.4776877 102.2664674  54.9856434 101.6680004 102.2161263  54.0515653
  98.3645759  98.3026304  56.3645879  97.7425768  97.6397009  56.0648107
  99.0350626  98.3287436  55.6819527 108.9225132  97.3249216  65.2379522
 108.1320676  97.3073355  64.6984022 108.6858487  97.8637509  65.9928559
 109.0423007  94.1741682  62.5512251 109.0921012  94.0091690  63.4927773
 108.9336931  93.3068941  62.1610131 110.5441204  96.5938624  62.7954272
 110.2526012  96.9568604  63.6317733 109.9313335  95.8805632  62.6167604
 111.7436886  94.1591503  55.3156842 112.5783778  94.5981307  55.4794403
 111.8796015  93.6830157  54.4965088 108.7928392  91.7171238  61.2634330
 109.2682514  91.9098885  60.4553182 107.8693958  91.7730424  61.0177714
 104.6451931  99.6315508  48.4424669 105.5782605  99.5661070  48.6457545
 104.5575144 100.4671775  47.9839202 107.2739948  98.9481379  45.4028617
 107.1953580  98.6141242  46.2964375 108.0949615  99.4403147  45.4020089
 115.7894689  92.8759125  57.7510972 116.5198078  92.6144413  58.3118676
 115.1801635  92.1387847  57.7913040 113.7958854  90.5445040  54.4762276
 113.2358412  90.6138230  55.2493838 113.1902357  90.3686025  53.7561772
  96.8654063 101.9781768  56.2280463  96.7486447 102.9227200  56.1259153
  96.0446509 101.6755329  56.6166262  97.8908577 102.6310029  59.4436391
  98.7935824 102.6633640  59.7602886  97.6645947 101.7010480  59.4582727
  99.6462179 101.3841016  56.1046470  98.6957810 101.3842878  55.9910842
  99.9494665 100.6373751  55.5882504 115.3814872 107.2201554  57.1692232
 116.0193282 107.1008302  56.4655572 115.2635715 108.1682398  57.2280184
 112.1904579 107.1728983  57.1053757 111.8523090 107.0570047  56.2174292
 113.0594347 106.7720148  57.0854763 108.0491394 109.0264459  53.0950648
 107.4856259 108.9354396  52.3266935 107.9343789 108.2064363  53.5753140
 112.6724362 108.3263834  63.0639962 112.6613002 107.9316633  62.1920466
 112.8345001 107.5929907  63.6573734 105.5955826 110.5215651  55.9334868
 106.3877118 110.1806475  55.5181167 105.8352476 110.6310626  56.8537021
 113.6290953 112.6935427  48.4065113 112.9778933 113.2789507  48.0199126
 114.4235316 113.2241622  48.4660150 107.5546580 109.7824564  48.8052247
 108.3277456 109.2353551  48.6665123 107.9071979 110.6468813  49.0166708
 109.3931623 111.1100946  62.0119146 109.1021489 112.0146577  61.8965812
 110.0288607 111.1517474  62.7263216 110.3187830 108.4877795  58.6020506
 110.9151402 108.2633817  57.8877469 110.3762801 107.7462540  59.2045954
 109.8912858 105.9417230  46.4370697 110.1438379 105.4198751  45.6754160
 108.9537417 105.7783375  46.5397380 114.9356141 104.9453008  54.2445440
 115.7219230 104.5272431  53.8935857 115.1994845 105.8499100  54.4127088
 115.1066218 110.3825859  48.9434097 114.4712051 110.4560485  49.6555001
 114.7763625 110.9719457  48.2653176 120.3364568 104.8828241  55.1478419
 121.0689740 104.3127458  55.3816248 119.5803924 104.4949842  55.5884924
 109.6109147 107.8445336  48.6395072 109.4945405 107.1690239  49.3076156
 109.7211407 107.3577710  47.8227225 111.9540688 107.3055483  52.3441761
 111.5898895 106.7786104  53.0554682 112.8107804 106.9153952  52.1708246
 117.8589988  98.5949816  59.6073027 117.5273313  99.4645227  59.3834242
 117.2635602  98.2786100  60.2867058 111.5946175 102.3345383  47.3403109
 111.7620577 103.2025619  47.7073581 111.4043344 102.4972664  46.4164399
 114.3521508 110.7962362  59.0068940 114.0522231 111.6987400  58.8984747
 114.0072567 110.5294545  59.8590093 107.8033989 107.2476158  55.0405644
 106.8784486 107.1152373  55.2483336 108.0518402 108.0270378  55.5375587
 117.7518652 103.3144902  56.6866377 116.8435529 103.2460310  56.3925138
 117.7006247 103.7916847  57.5148203 111.5735395 104.7903040  48.3249776
 111.4535021 105.2360091  49.1635257 110.8787984 105.1388358  47.7663314
 105.1642800 106.8909432  55.8749433 105.2935181 107.1443911  56.7888845
 104.4840252 107.4837140  55.5554088 109.3342288 117.5606682  51.9739908
 109.2566317 118.5114507  52.0528388 108.7303931 117.2152554  52.6314834
 111.8259517 104.7334547  64.6301274 111.0492851 105.2928467  64.6204139
 112.4650080 105.2191330  65.1516145 119.6180298 101.5161340  58.4644251
 118.9754678 101.8093873  57.8184046 119.1135227 101.4014260  59.2697448
 117.2720462 105.2624513  49.1530110 118.1838318 105.4951900  48.9777808
 116.7630109 105.8461558  48.5905189 110.0805890 107.5420001  64.1919241
 110.8220574 108.0805045  63.9154065 109.3742875 108.1686289  64.3490793
 115.5561229 109.6849141  62.7891403 115.9644585 109.2431552  62.0446035
 114.8338491 109.1101769  63.0425596 111.9092299 104.6221748  60.1624960
 112.7553495 105.0461161  60.3059609 111.8490937 103.9655372  60.8563523
 115.8790044 110.2450332  56.5443692 115.2498906 110.4096046  55.8419760
 115.4915706 110.6591941  57.3154656 119.7579276 111.1804770  53.8988056
 119.0730314 111.5603671  53.3485089 119.8423125 111.7900096  54.6320003
 115.0591745 102.2826116  61.8206134 114.8152677 103.0368177  61.2840409
 115.3351675 102.6611464  62.6553381 117.0130207 108.8264729  60.4983399
 117.2247103 109.4696489  59.8217780 116.9659956 107.9927045  60.0305329
 114.6156436 101.4382549  57.4019971 113.7540915 101.7363803  57.6936709
 114.6418871 101.6552948  56.4701004 111.4318006 109.9824740  53.8093777
 111.8956351 110.2612443  53.0198399 111.1674804 109.0808184  53.6266868
 108.3242087 109.5296221  56.7473540 108.8943444 109.9583490  56.1091025
 108.9150199 109.2478806  57.4457726 110.3686892 106.1047892  50.6183342
 111.0710935 106.5568936  51.0857268 110.0367520 105.4631711  51.2463235
 108.8167253 104.6959649  64.9934551 108.1865914 105.3775930  65.2269948
 108.7103341 104.5842730  64.0487690 104.1112226 104.3631445  55.9200476
 103.3211280 104.6188973  55.4440586 104.6023473 105.1779783  56.0252516
 118.1276035 111.7036684  58.6705756 118.9493479 111.3016871  58.3888438
 118.1238438 111.6004918  59.6221872 106.0626971 104.7276024  52.8783952
 105.2658135 104.8394718  53.3967448 105.8352563 105.0662676  52.0124843
 111.8932639 111.2520727  60.8266467 111.9577071 111.7141135  61.6624639
 111.1843563 110.6218092  60.9548777 102.3949929 104.6161935  58.3515466
 102.6457967 105.5008945  58.6173042 102.9309477 104.4366537  57.5790558
 126.2182028 108.0475433  55.0190728 125.4645737 107.4782831  54.8634732
 126.3529570 108.0138097  55.9661363 111.6080657 112.9188835  50.6945447
 111.4726331 113.7640371  51.1230295 112.1490469 113.1208113  49.9311381
 105.0610054 110.4364273  51.2673372 105.5734574 111.2307523  51.4178937
 105.7132767 109.7390563  51.2006974 106.8704939 113.5530029  53.3496126
 107.0471567 114.4747994  53.1617109 107.6661772 113.2388448  53.7790505
 111.0115957 100.4138294  64.9480059 111.7525671 101.0145447  64.8684522
 111.2433880  99.6715932  64.3898102 106.1557295 105.5994661  63.2258289
 106.0410810 104.6979918  63.5265388 105.3001813 105.8458358  62.8743105
 113.2349133 113.5412401  64.8245789 112.7912987 112.7548780  64.5066694
 113.8966346 113.7291552  64.1589680 107.9936254 115.0708203  59.3506468
 108.5443679 114.9425266  58.5783462 107.1547730 115.3703092  59.0001361
 115.3330371 113.8215201  62.8527191 115.3148846 114.6424082  62.3607460
 116.2550291 113.6969277  63.0777332 111.7903425 111.3359331  63.6950699
 112.3231762 110.5747619  63.4650007 111.2617506 111.0432983  64.4374853
 114.9573120  96.4419397  59.2244341 114.6137389  97.3321038  59.1483451
 115.3252083  96.2521054  58.3613926 103.0258971 108.7652927  52.0432943
 103.8634193 109.1749936  51.8266651 103.2037238 107.8252369  52.0133137
 114.9223403 106.4328008  47.7316776 114.4070026 107.2032612  47.9705163
 114.6500711 105.7593144  48.3549837 112.5070514 101.2777709  52.7902014
 111.6512110 100.8884559  52.6107653 112.9197466 101.3569669  51.9301800
 114.0369660  98.8124052  57.1893574 113.5334456  98.7754187  56.3761379
 114.3300267  99.7216795  57.2490231 110.2812546  98.8962782  56.1959756
 111.1465543  98.7005590  55.8365645 110.3490055  98.6673133  57.1229112
 119.8957677 109.1860362  49.6669949 119.1187120 108.8471522  49.2225111
 120.5749158 109.1912986  48.9924914 114.7109706 104.3055100  49.5576557
 114.4059842 104.6201249  50.4086700 115.6640148 104.3836520  49.6003890
 113.1556138 110.4645323  51.2069511 112.6277499 109.7298083  50.8942748
 112.6543641 111.2420000  50.9609479 118.1348984 108.6594344  56.3236557
 117.4772658 109.3493605  56.4116686 118.9389383 109.0490776  56.6670544
 107.8874865 101.1264990  53.5676123 108.4618617 100.9040171  52.8349315
 108.4745848 101.1953684  54.3204724 116.9454443 107.0138716  54.3740499
 117.4586324 107.6468708  54.8762209 117.5955667 106.4139912  54.0083859
 108.2144453 103.1569451  47.5872008 107.3781765 103.4944137  47.9081283
 108.0749222 103.0218430  46.6499145 110.1897533  98.0006238  52.2951192
 109.5361945  97.6855256  51.6707807 110.1478007  97.3781979  53.0211015
 111.3008738 108.2825534  44.2104484 110.3935800 108.0514787  44.4095633
 111.7979770 107.4863153  44.3978466 114.2076817 116.9923041  47.1301170
 113.5338516 117.2954737  47.7386128 114.5942639 117.7952121  46.7806627
 113.4235274 104.4888172  56.6198840 112.5057835 104.7103119  56.4620528
 113.8395417 104.5634482  55.7610547 114.2070321 105.8879588  51.7501520
 114.9542140 106.4000985  51.4408642 114.4761911 105.5663640  52.6105913
 112.4796971 108.3838128  48.7328474 111.5708191 108.0997161  48.8300944
 112.5092055 108.8037207  47.8731781 117.7116239 111.9944718  52.5019642
 117.2578566 111.1535628  52.5584832 117.0810206 112.6306116  52.8394422
 116.6549158 102.9236704  53.7320309 115.9171915 102.4114090  54.0630552
 116.9075932 102.4837086  52.9203586 116.1549178 113.8321215  53.4369460
 116.4472152 114.3926272  52.7181825 116.6647799 114.1249776  54.1922619
 116.7560786  95.7012956  54.3262078 117.0619663  94.8410319  54.0387993
 117.4813391  96.2930576  54.1261072 103.0485142 106.1043643  52.7143676
 102.8509542 105.5113003  51.9894743 102.4931806 105.7995853  53.4319615
 111.0281865 105.9966749  54.8338269 111.0830475 105.0440585  54.7580746
 110.2173068 106.1526188  55.3179568 112.1773059 109.9246872  46.0716553
 111.7392489 109.2082731  45.6122190 112.9183500 110.1522987  45.5101644
 108.9674225 104.6143809  52.5928648 108.1542091 104.9137979  52.9993840
 109.4633220 104.2199498  53.3103131 111.1182803 114.6101566  54.5262913
 111.0758982 114.8362412  53.5971445 112.0345502 114.3764940  54.6748714
 114.5648437 105.0785633  61.4243542 114.9197825 105.3057106  62.2838008
 115.2120568 105.4104010  60.8020798 120.2946174 108.2004069  52.1292871
 120.1564073 108.3905665  51.2014060 119.9382393 108.9623452  52.5860922
 108.4588300 102.1862164  58.2089883 109.0987679 102.0450923  57.5112847
 107.6265831 101.8996678  57.8328485 120.3215554 110.2680596  57.1404143
 120.7552060 110.1755885  57.9887197 121.0347134 110.2438097  56.5024159
 109.2348604 111.4864595  54.3224876 110.0289203 110.9914915  54.1207451
 108.5240296 110.9582458  53.9592581 114.0543449 113.8682690  58.6737243
 114.1080471 114.4373627  59.4414959 113.1858230 114.0384575  58.3091281
 105.5431368 105.6307676  50.3984628 104.6128956 105.5692132  50.6154591
 105.6388840 105.1083629  49.6021270 105.4616917 102.1562489  52.9862870
 105.7223734 103.0707823  52.8772031 106.2834089 101.6886932  53.1359483
 106.9341842 103.5700246  60.1561695 107.6064895 103.3617609  59.5074344
 106.1071628 103.3722332  59.7166927 121.1831103 110.3104297  59.6737028
 121.3766993 111.2150107  59.9196303 121.0831721 109.8511716  60.5075613
 112.8367414 100.1962187  62.1727356 112.1895329 100.8952137  62.0791832
 113.6068429 100.6298331  62.5403604 116.2446212 110.4611040  65.2477909
 116.0931718 110.2321591  64.3307992 116.2350891 111.4181641  65.2609254
 113.0131548 108.0342952  60.2324175 113.9423608 108.1854112  60.0593143
 112.5922578 108.1226973  59.3772822 111.8119880 112.0593617  58.0022713
 111.6730966 111.6912401  58.8748651 111.0234476 112.5741256  57.8306671
 112.4068032 117.1602713  49.3448249 112.5819788 116.6890756  50.1593872
 111.7200820 117.7868479  49.5729510 113.3625095 111.4375219  55.3911551
 113.0274928 111.3975989  56.2869201 112.8629041 110.7719935  54.9181961
 107.3369339 106.8442849  60.9164132 107.1989137 106.1123088  61.5175671
 108.2474263 106.7551750  60.6348320 116.2984287 108.7831254  45.6648610
 115.6813457 108.0578082  45.5681663 115.8300775 109.5440614  45.3215685
 109.9651640 106.5562809  60.4047811 110.6751258 105.9156001  60.3634430
 109.9220948 106.8075704  61.3273992 117.9538419 113.4930162  63.3254391
 117.8950965 112.8089382  62.6584974 118.3557937 114.2349152  62.8735017
 108.6780574 103.5428027  62.2243451 108.1417931 103.0918765  62.8765047
 108.0897282 103.6773935  61.4813915 106.9729117 120.3092076  56.1188110
 107.2125716 120.9410600  56.7967128 106.1298314 119.9580116  56.4053469
 108.0882833 103.0016678  44.7869915 107.2112299 102.8805479  44.4232161
 108.5640586 102.2102756  44.5348803 117.9555826 111.4569746  61.5568370
 117.0682605 111.1195668  61.6794769 118.5254377 110.7252777  61.7937136
  99.6084973 107.7893838  54.8811422 100.2956013 107.4755568  54.2932437
  99.4533102 108.6935202  54.6078673 104.4119695 102.6784034  59.3096445
 104.3277884 102.0709704  58.5746855 103.5902401 103.1693053  59.3105942
 111.4856979 116.1171198  58.5229614 111.4127151 116.9226170  59.0348918
 111.0434372 116.3163164  57.6977635 111.2746759 115.3542968  52.0332435
 110.4914281 115.8964649  52.1270660 111.9739504 115.8716948  52.4326676
 114.5843409 101.1637598  54.6766640 115.0812108 100.4107560  54.3567711
 113.8130390 101.2001914  54.1109850 122.4373166 106.8677963  56.3184932
 122.4263043 107.7502679  55.9478865 121.5690546 106.5149514  56.1239469
 113.9455663 116.0158032  60.6787772 114.6583635 116.6505497  60.6063674
 113.4545691 116.1121898  59.8627774 115.6673190 109.9209285  52.2505064
 114.7329468 110.0410748  52.0809768 115.8449858 109.0181752  51.9865074
 111.1678378 103.3054981  54.4038325 110.7976165 102.7526021  55.0919231
 111.6637470 102.7013114  53.8513325 119.0545741 105.7626604  52.7855098
 119.5206193 106.5954596  52.7115401 119.5053241 105.2971586  53.4900356
 108.9967576 113.7652476  61.4993343 109.6977036 114.3988959  61.6522737
 108.5262691 114.1067207  60.7388982 117.1221972 112.1070426  49.7841250
 117.3981816 111.9927020  50.6935124 116.2526471 111.7087910  49.7453423
 117.0262404  98.1307191  56.8245999 116.1125483  98.3611418  56.9928206
 117.4555505  98.2145635  57.6760032 116.7968862 106.3197083  59.3245893
 116.1440312 106.5672991  58.6698346 117.1749242 105.5061221  58.9908371
 113.7576036 116.3556776  53.4274064 113.9398431 115.5378432  53.8901816
 114.5809022 116.5724469  52.9898954 114.0918202 115.2824962  50.6889112
 114.6205968 114.7717416  50.0759274 114.3546421 114.9667492  51.5534645
 112.8456435 107.0616894  65.8111930 112.1697072 106.9611024  66.4814306
 113.6684069 106.9056108  66.2747928 104.5935294 113.2988831  58.4324446
 105.1788731 112.5532519  58.5652350 104.3960133 113.6092788  59.3161110
 107.4473950 116.3340078  53.4486888 106.7784325 116.8186206  52.9650928
 107.3086819 116.5809299  54.3630267  99.1852949 105.8694431  57.1528889
  99.2237049 105.3358022  57.9466007  98.6793242 105.3429637  56.5339866
 111.5879218 118.3683822  60.0469546 112.1397526 118.5315443  60.8118632
 111.9285412 118.9588260  59.3749571 106.5643711 100.7158972  60.6491431
 106.6285038 101.5773803  60.2368829 106.5010832 100.1032973  59.9163790
 106.0395984 102.7882104  64.2964465 106.6668023 102.4059181  64.9101990
 105.1823903 102.5696306  64.6620158 116.4390092 113.1945079  65.9018201
 116.9829996 113.8075038  65.4073156 115.8576937 113.7524658  66.4185214
 102.8161527 104.5958533  50.2282820 103.1114968 103.6869212  50.1749874
 101.9149562 104.5746273  49.9063823 114.7247605 116.3165797  57.0333229
 114.5998745 115.5155537  56.5244174 115.3826696 116.8111991  56.5447199
 106.3455774 102.6714530  56.2110369 105.6242359 103.2850498  56.0717842
 107.1349029 103.2072295  56.1327015 116.7882514 114.1174817  58.6612779
 115.8412849 113.9980169  58.5891105 117.1365287 113.2297315  58.7439040
 109.1482087 100.0068956  62.4851021 109.6716489 100.2531253  63.2477330
 108.9294420 100.8388991  62.0654158 104.5449368 102.2772631  50.3522145
 104.2162074 101.3970010  50.1697251 104.8988739 102.2220300  51.2398535
 113.7928947 113.9127534  54.8617131 113.6453909 112.9844241  55.0424701
 114.6182441 113.9347624  54.3774206 107.6591191 102.5645601  50.7197623
 107.9987264 103.0931522  49.9976231 108.1063312 102.9026007  51.4956190
 117.3963069 114.7356092  55.9482004 118.3209616 114.5298954  55.8106455
 117.2278372 114.4872494  56.8571345 110.3534632 100.9482651  60.1700691
 110.0131453 100.1490464  60.5721371 109.6473638 101.2484362  59.5977524
 111.0051104  98.0331964  58.6228014 111.8277173  97.5592442  58.5006904
 111.2489168  98.8122448  59.1226700 109.6459338 101.0620222  48.9190916
 110.3667701 101.4401475  48.4154633 109.0224643 101.7809099  49.0225894
 113.7890461 101.7665371  49.8549248 114.0054076 102.6490009  49.5538076
 113.3084529 101.3751585  49.1254890 108.5289683 104.7251085  56.4319993
 108.3834263 105.0391388  57.3244274 108.0514886 105.3435985  55.8790891
 110.3886066 101.7153632  56.4800882 110.3747634 100.8194726  56.1433180
 111.1058494 101.7224296  57.1139168 112.2412196 102.1490973  58.5254010
 111.9829974 103.0708043  58.5238340 111.7097237 101.7521407  59.2154474
 117.1858385 115.2541760  51.3044095 117.3595263 114.6888182  50.5517948
 117.6787276 116.0542655  51.1223585 103.0035345 107.2656429  59.3707654
 102.4588813 108.0416237  59.5027928 103.8814695 107.6127233  59.2126775
 109.7922962 100.5968013  51.7488452 109.9138873  99.6684659  51.9479340
 109.5025004 100.6106699  50.8366768 112.6614152  98.2822923  54.8855172
 112.6835849  98.3462256  53.9307152 113.0782211  97.4427432  55.0795678
 123.0397776 108.0178183  52.9234395 123.4828922 107.2685508  52.5253518
 122.1624287 108.0088319  52.5408127 118.1733558 114.5708524  48.4040993
 118.8684462 115.1915217  48.6228308 118.5156708 113.7203875  48.6793371
 120.0724981 112.0208230  49.9328324 120.5976305 112.3595503  49.2077644
 119.9847333 111.0855245  49.7491459 111.7345029 115.9342303  62.0618201
 112.0432156 115.6891450  62.9340900 112.5320511 116.1388942  61.5737071
 111.7565641 118.0880213  54.2923577 111.3170632 117.5956592  54.9856434
 112.5073758 117.5453181  54.0515653 104.2357980 114.2791754  54.2948205
 105.0616000 113.9795526  53.9146849 103.8852032 113.5099376  54.7437994
 109.2039514 113.6318222  56.3645879 108.5819523 112.9688927  56.0648107
 109.8744381 113.6579354  55.6819527 102.4366586 112.1978080  55.2537139
 101.5998494 111.7700255  55.0721140 102.4090231 112.3910524  56.1907930
 109.2764041 102.1100010  65.9578385 109.3252197 102.9862133  65.5756155
 109.8186555 101.5677403  65.3850028 119.7618887 112.6541133  65.2379522
 118.9714430 112.6365272  64.6984022 119.5252241 113.1929427  65.9928559
 119.8816762 109.5033600  62.5512251 119.9314767 109.3383607  63.4927773
 119.7730685 108.6360859  62.1610131 108.7653021 112.1822145  49.8404340
 108.9141141 112.8657610  49.1871012 109.5719464 112.1627236  50.3553795
 117.1720524 105.4864528  63.8671557 118.0730387 105.3470993  63.5755555
 117.2468499 105.6518983  64.8069735 111.5063330 102.8631383  62.7124744
 110.6366639 103.1564949  62.4407332 111.7422810 103.4471828  63.4332007
 121.3834959 111.9230541  62.7954272 121.0919767 112.2860522  63.6317733
 120.7707090 111.2097550  62.6167604 122.5830641 109.4883421  55.3156842
 123.4177532 109.9273225  55.4794403 122.7189770 109.0122074  54.4965088
 119.6322147 107.0463156  61.2634330 120.1076269 107.2390802  60.4553182
 118.7087712 107.1022342  61.0177714 106.5205654 108.2087323  50.8465408
 106.2751695 107.3049653  51.0445619 106.6901568 108.2104474  49.9044886
 114.2102363  99.0810999  60.2290164 114.7284307  99.8172026  59.9036653
 113.8557496  99.3874993  61.0636923 105.7901301 103.9415681  48.3451570
 105.0970546 104.0160036  47.6891606 105.5453053 103.1776024  48.8673087
 114.4614958  95.5011282  55.7491061 114.7416711  94.8334471  56.3751487
 115.2465564  95.6940378  55.2365725 112.2648426 114.6770276  47.3116087
 111.6922393 115.2960463  46.8586559 112.8381220 115.2269638  47.8456009
 118.3323816 103.9228916  59.4962636 119.2841239 104.0227014  59.5174860
 118.1627266 103.1307185  60.0060720 116.3538195 101.0084499  59.6822037
 115.7588127 101.2889512  58.9868525 116.0687892 101.4978400  60.4538778
 115.4845686 114.9607426  48.4424669 116.4176359 114.8952988  48.6457545
 115.3968899 115.7963693  47.9839202 118.1133703 114.2773296  45.4028617
 118.0347334 113.9433160  46.2964375 118.9343369 114.7695064  45.4020089
 120.8111894 107.1435036  58.6104935 120.7788214 106.2051036  58.7964619
 121.4212517 107.2219072  57.8770760 112.6495225 106.0131089  44.6532139
 113.5954329 105.8837297  44.7220558 112.2709470 105.2745751  45.1301568
 120.9606382 103.9346079  58.6563219 120.4445431 103.1504536  58.4693147
 121.8446331 103.6064796  58.8209738 118.6217109  97.6787095  54.6159031
 118.4241930  97.3702183  55.5002363 119.2316815  98.4048734  54.7456961
 126.6288444 108.2051043  57.7510972 127.3591832 107.9436331  58.3118676
 126.0195389 107.4679764  57.7913040 124.7103741 106.3458905  58.3485423
 123.9836904 106.2114870  57.7401915 124.2951028 106.6535734  59.1542141
 112.5333917 110.0648835  66.1132796 113.4536927 110.2427434  66.3072843
 112.4983500 109.1204880  65.9612496 110.8338142 103.9381065  44.5887025
 109.9269597 103.6414178  44.6649738 111.1114123 103.6410883  43.7221311
 101.7516082 105.2587428  55.0386071 101.4318866 104.4052737  54.7460445
 101.2049510 105.4736007  55.7944038 105.5295990 107.9749869  58.7555578
 105.7481999 108.9066977  58.7743611 105.9421763 107.6157844  59.5410381
 112.4500207  98.4817955  50.7431266 111.6400936  98.1365040  51.1186512
 113.1384624  98.1725498  51.3318878 114.3790756  97.5596002  52.3655563
 114.9321794  97.9791455  53.0245586 114.6160842  96.6331750  52.4078519
 109.6036926 100.7968000  44.7299004 110.4656090 101.1222899  44.9894821
 109.7887270 100.0099496  44.2172070 101.6204342 108.8790340  57.0079193
 100.9267814 108.4644293  56.4949147 102.3677333 108.9210876  56.4112612
 117.7569563  99.6696527  51.8734227 117.1768232 100.3281331  51.4912279
 117.4905495  98.8473871  51.4621644 116.2073129  99.0701584  54.0755547
 116.7072908  99.1818119  53.2669866 116.8508737  98.7662637  54.7156356
 110.2655125 106.9780214  66.9623388 109.7822207 107.7780574  67.1687277
 110.3516064 106.9888159  66.0090832 103.5341085 108.8108594  54.8845208
 103.5111773 108.9096281  53.9327091 103.8441721 109.6573745  55.2062374
 106.1928462 110.8684749  58.9991822 107.1471716 110.8368691  58.9321754
 105.9940986 110.4075372  59.8142048 106.7827845 109.4385865  61.5662620
 107.6020734 109.9329943  61.5897457 107.0564652 108.5217833  61.5380187
 116.5394441 101.8296617  50.9290575 115.6520296 102.1146268  50.7110770
 116.9548430 101.6690380  50.0817852 119.8908977 101.8543138  54.6444914
 120.6669367 102.3439591  54.9169531 119.1657111 102.2801192  55.1016784
 122.3281536 102.5670757  55.7018855 122.9226026 102.3266493  54.9912163
 122.4008119 101.8477888  56.3292391 104.5478691 116.4104368  56.0162020
 104.4133159 115.6504769  55.4500018 104.1310754 117.1345268  55.5490809
 115.6837654 111.5941292  45.0238595 116.3873504 111.7991294  45.6396251
 114.9600303 112.1618054  45.2887679 116.5135465 107.3451153  51.1440865
 116.4570666 107.8019704  50.3048498 117.0663807 106.5841838  50.9663708
 120.3240270 103.1340885  51.9690985 120.0677205 102.7337521  52.7999193
 119.6993139 103.8484679  51.8441124 124.6352608 105.8736958  54.4762276
 124.0752166 105.9430147  55.2493838 124.0296112 105.6977943  53.7561772
 107.7047817 117.3073685  56.2280463 107.5880201 118.2519118  56.1259153
 106.8840263 117.0047247  56.6166262 117.5924352 112.0323821  47.0737055
 118.4269956 111.6005019  46.8914530 117.4308695 111.8605835  48.0013950
 117.2470244 108.5355934  48.4393395 117.1919048 108.3700206  47.4981839
 116.6216299 109.2431967  48.5955584 114.5616151 110.8404846  67.7646957
 115.4307311 111.0145498  67.4033592 114.0822903 111.6599263  67.6422687
 110.5566369  98.0364043  48.0178713 110.5445039  98.9805883  48.1746984
 111.4489791  97.8534189  47.7238174 108.7302331 117.9601947  59.4436391
 109.6329578 117.9925557  59.7602886 108.5039701 117.0302398  59.4582727
 110.4855933 116.7132934  56.1046470 109.5351564 116.7134795  55.9910842
 110.7888419 115.9665668  55.5882504 114.3718489  94.6306820  52.2724650
 113.6050885  94.0765307  52.4181332 114.7829194  94.7028689  53.1338801
 126.2208627 122.5493472  57.1692232 126.8587037 122.4300219  56.4655572
 126.1029470 123.4974316  57.2280184 123.0298333 122.5020900  57.1053757
 122.6916845 122.3861965  56.2174292 123.8988101 122.1012065  57.0854763
 118.8885149 124.3556377  53.0950648 118.3250014 124.2646314  52.3266935
 118.7737544 123.5356281  53.5753140 123.5118116 123.6555752  63.0639962
 123.5006757 123.2608550  62.1920466 123.6738756 122.9221825  63.6573734
 116.4349581 125.8507568  55.9334868 117.2270873 125.5098393  55.5181167
 116.6746231 125.9602543  56.8537021 118.3940335 125.1116481  48.8052247
 119.1671211 124.5645469  48.6665123 118.7465734 125.9760731  49.0166708
 120.2325377 126.4392864  62.0119146 119.9415243 127.3438495  61.8965812
 120.8682362 126.4809391  62.7263216 121.1581584 123.8169712  58.6020506
 121.7545156 123.5925735  57.8877469 121.2156556 123.0754458  59.2045954
 120.7306612 121.2709148  46.4370697 120.9832133 120.7490669  45.6754160
 119.7931172 121.1075293  46.5397380 125.7749895 120.2744926  54.2445440
 126.5612985 119.8564349  53.8935857 126.0388600 121.1791018  54.4127088
 131.1758322 120.2120159  55.1478419 131.9083494 119.6419376  55.3816248
 130.4197678 119.8241760  55.5884924 120.4502901 123.1737254  48.6395072
 120.3339159 122.4982157  49.3076156 120.5605161 122.6869627  47.8227225
 122.7934442 122.6347401  52.3441761 122.4292649 122.1078022  53.0554682
 123.6501558 122.2445870  52.1708246 128.6983743 113.9241733  59.6073027
 128.3667068 114.7937144  59.3834242 128.1029356 113.6078017  60.2867058
 122.4339929 117.6637300  47.3403109 122.6014331 118.5317537  47.7073581
 122.2437098 117.8264582  46.4164399 118.6427744 122.5768076  55.0405644
 117.7178240 122.4444290  55.2483336 118.8912157 123.3562295  55.5375587
 128.5912406 118.6436819  56.6866377 127.6829283 118.5752228  56.3925138
 128.5400002 119.1208764  57.5148203 122.4129150 120.1194958  48.3249776
 122.2928775 120.5652009  49.1635257 121.7181738 120.4680276  47.7663314
 116.0036555 122.2201350  55.8749433 116.1328936 122.4735829  56.7888845
 115.3234006 122.8129058  55.5554088 122.6653272 120.0626465  64.6301274
 121.8886606 120.6220385  64.6204139 123.3043835 120.5483248  65.1516145
 130.4574052 116.8453258  58.4644251 129.8148433 117.1385791  57.8184046
 129.9528981 116.7306178  59.2697448 128.1114216 120.5916431  49.1530110
 129.0232072 120.8243818  48.9777808 127.6023863 121.1753475  48.5905189
 120.9199644 122.8711918  64.1919241 121.6614329 123.4096962  63.9154065
 120.2136630 123.4978207  64.3490793 126.3954984 125.0141059  62.7891403
 126.8038340 124.5723469  62.0446035 125.6732245 124.4393686  63.0425596
 122.7486054 119.9513666  60.1624960 123.5947249 120.3753079  60.3059609
 122.6884692 119.2947290  60.8563523 125.8985499 117.6118034  61.8206134
 125.6546431 118.3660094  61.2840409 126.1745430 117.9903382  62.6553381
 125.4550191 116.7674467  57.4019971 124.5934670 117.0655721  57.6936709
 125.4812626 116.9844866  56.4701004 122.2711760 125.3116658  53.8093777
 122.7350106 125.5904361  53.0198399 122.0068558 124.4100102  53.6266868
 119.1635841 124.8588139  56.7473540 119.7337198 125.2875407  56.1091025
 119.7543953 124.5770724  57.4457726 121.2080646 121.4339810  50.6183342
 121.9104690 121.8860854  51.0857268 120.8761275 120.7923629  51.2463235
 119.6561008 120.0251567  64.9934551 119.0259668 120.7067847  65.2269948
 119.5497096 119.9134648  64.0487690 114.9505980 119.6923363  55.9200476
 114.1605034 119.9480891  55.4440586 115.4417228 120.5071700  56.0252516
 116.9020726 120.0567942  52.8783952 116.1051889 120.1686636  53.3967448
 116.6746318 120.3954594  52.0124843 122.7326393 126.5812645  60.8266467
 122.7970826 127.0433052  61.6624639 122.0237317 125.9510010  60.9548777
 113.2343683 119.9453853  58.3515466 113.4851722 120.8300863  58.6173042
 113.7703232 119.7658455  57.5790558 118.9341751 114.3272332  67.3559802
 118.5408696 113.7738531  68.0307447 119.7507891 114.6382911  67.7466320
 115.9003808 125.7656191  51.2673372 116.4128329 126.5599441  51.4178937
 116.5526521 125.0682481  51.2006974 117.7098693 128.8821947  53.3496126
 117.8865321 129.8039912  53.1617109 118.5055527 128.5680366  53.7790505
 121.8509712 115.7430211  64.9480059 122.5919425 116.3437365  64.8684522
 122.0827634 115.0007849  64.3898102 116.9951050 120.9286579  63.2258289
 116.8804565 120.0271836  63.5265388 116.1395567 121.1750276  62.8743105
 118.8330009 130.4000121  59.3506468 119.3837434 130.2717184  58.5783462
 117.9941484 130.6995010  59.0001361 122.6297180 126.6651248  63.6950699
 123.1625516 125.9039537  63.4650007 122.1011261 126.3724900  64.4374853
 125.7966875 111.7711314  59.2244341 125.4531144 112.6612956  59.1483451
 126.1645837 111.5812972  58.3613926 113.8652725 124.0944845  52.0432943
 114.7027947 124.5041853  51.8266651 114.0430993 123.1544287  52.0133137
 125.7617157 121.7619926  47.7316776 125.2463781 122.5324530  47.9705163
 125.4894466 121.0885062  48.3549837 123.3464268 116.6069626  52.7902014
 122.4905865 116.2176477  52.6107653 123.7591220 116.6861587  51.9301800
 124.8763415 114.1415970  57.1893574 124.3728211 114.1046105  56.3761379
 125.1694022 115.0508712  57.2490231 121.1206301 114.2254699  56.1959756
 121.9859298 114.0297508  55.8365645 121.1883810 113.9965051  57.1229112
 125.5503460 119.6347018  49.5576557 125.2453596 119.9493167  50.4086700
 126.5033903 119.7128438  49.6003890 123.9949892 125.7937241  51.2069511
 123.4671254 125.0590001  50.8942748 123.4937395 126.5711917  50.9609479
 118.7268620 116.4556907  53.5676123 119.3012372 116.2332089  52.8349315
 119.3139602 116.5245602  54.3204724 127.7848197 122.3430634  54.3740499
 128.2980079 122.9760626  54.8762209 128.4349421 121.7431830  54.0083859
 119.0538207 118.4861368  47.5872008 118.2175519 118.8236055  47.9081283
 118.9142977 118.3510348  46.6499145 121.0291288 113.3298156  52.2951192
 120.3755700 113.0147173  51.6707807 120.9871762 112.7073897  53.0211015
 122.1402492 123.6117451  44.2104484 121.2329554 123.3806705  44.4095633
 122.6373524 122.8155070  44.3978466 124.2629028 119.8180090  56.6198840
 123.3451589 120.0395037  56.4620528 124.6789172 119.8926400  55.7610547
 125.0464076 121.2171505  51.7501520 125.7935895 121.7292903  51.4408642
 125.3155665 120.8955558  52.6105913 123.3190726 123.7130046  48.7328474
 122.4101945 123.4289079  48.8300944 123.3485810 124.1329125  47.8731781
 127.4942913 118.2528622  53.7320309 126.7565670 117.7406008  54.0630552
 127.7469686 117.8129003  52.9203586 127.5954540 111.0304874  54.3262078
 127.9013417 110.1702237  54.0387993 128.3207145 111.6222494  54.1261072
 113.8878896 121.4335560  52.7143676 113.6903296 120.8404921  51.9894743
 113.3325560 121.1287770  53.4319615 121.8675620 121.3258667  54.8338269
 121.9224230 120.3732503  54.7580746 121.0566822 121.4818106  55.3179568
 123.0166814 125.2538790  46.0716553 122.5786244 124.5374649  45.6122190
 123.7577255 125.4814905  45.5101644 119.8067980 119.9435726  52.5928648
 118.9935845 120.2429897  52.9993840 120.3026974 119.5491415  53.3103131
 125.4042192 120.4077551  61.4243542 125.7591579 120.6349024  62.2838008
 126.0514323 120.7395928  60.8020798 119.2982055 117.5154082  58.2089883
 119.9381434 117.3742841  57.5112847 118.4659585 117.2288595  57.8328485
 120.0742359 126.8156512  54.3224876 120.8682957 126.3206833  54.1207451
 119.3634051 126.2874375  53.9592581 116.3825122 120.9599594  50.3984628
 115.4522710 120.8984050  50.6154591 116.4782594 120.4375547  49.6021270
 116.3010671 117.4854407  52.9862870 116.5617488 118.3999740  52.8772031
 117.1227843 117.0178849  53.1359483 117.7735596 118.8992164  60.1561695
 118.4458650 118.6909526  59.5074344 116.9465383 118.7014250  59.7166927
 123.6761168 115.5254105  62.1727356 123.0289083 116.2244055  62.0791832
 124.4462184 115.9590249  62.5403604 123.8525303 123.3634870  60.2324175
 124.7817363 123.5146030  60.0593143 123.4316333 123.4518891  59.3772822
 122.6513635 127.3885534  58.0022713 122.5124720 127.0204319  58.8748651
 121.8628231 127.9033174  57.8306671 124.2018850 126.7667137  55.3911551
 123.8668682 126.7267907  56.2869201 123.7022795 126.1011853  54.9181961
 118.1763094 122.1734767  60.9164132 118.0382892 121.4415006  61.5175671
 119.0868017 122.0843667  60.6348320 127.1378041 124.1123171  45.6648610
 126.5207212 123.3870000  45.5681663 126.6694530 124.8732532  45.3215685
 120.8045394 121.8854726  60.4047811 121.5145013 121.2447919  60.3634430
 120.7614702 122.1367621  61.3273992 119.5174328 118.8719944  62.2243451
 118.9811685 118.4210683  62.8765047 118.9291037 119.0065853  61.4813915
 118.9276587 118.3308596  44.7869915 118.0506054 118.2097396  44.4232161
 119.4034340 117.5394674  44.5348803 110.4478727 123.1185755  54.8811422
 111.1349767 122.8047485  54.2932437 110.2926856 124.0227120  54.6078673
 115.2513450 118.0075952  59.3096445 115.1671638 117.4001622  58.5746855
 114.4296156 118.4984970  59.3105942 125.4237163 116.4929516  54.6766640
 125.9205863 115.7399478  54.3567711 124.6524145 116.5293832  54.1109850
 126.5066944 125.2501203  52.2505064 125.5723223 125.3702665  52.0809768
 126.6843613 124.3473670  51.9865074 122.0072132 118.6346899  54.4038325
 121.6369920 118.0817939  55.0919231 122.5031225 118.0305032  53.8513325
 129.8939495 121.0918522  52.7855098 130.3599948 121.9246514  52.7115401
 130.3446996 120.6263504  53.4900356 127.8656158 113.4599109  56.8245999
 126.9519238 113.6903336  56.9928206 128.2949260 113.5437553  57.6760032
 127.6362617 121.6489001  59.3245893 126.9834067 121.8964908  58.6698346
 128.0142997 120.8353139  58.9908371 123.6850190 122.3908812  65.8111930
 123.0090827 122.2902941  66.4814306 124.5077824 122.2348026  66.2747928
 115.4329049 128.6280749  58.4324446 116.0182486 127.8824436  58.5652350
 115.2353887 128.9384705  59.3161110 110.0246704 121.1986349  57.1528889
 110.0630803 120.6649939  57.9466007 109.5186996 120.6721554  56.5339866
 117.4037466 116.0450889  60.6491431 117.4678792 116.9065720  60.2368829
 117.3404586 115.4324891  59.9163790 116.8789738 118.1174022  64.2964465
 117.5061777 117.7351099  64.9101990 116.0217657 117.8988224  64.6620158
 113.6555281 119.9250451  50.2282820 113.9508722 119.0161129  50.1749874
 112.7543317 119.9038190  49.9063823 117.1849528 118.0006447  56.2110369
 116.4636114 118.6142415  56.0717842 117.9742784 118.5364212  56.1327015
 119.9875842 115.3360874  62.4851021 120.5110243 115.5823171  63.2477330
 119.7688175 116.1680909  62.0654158 115.3843123 117.6064549  50.3522145
 115.0555829 116.7261928  50.1697251 115.7382493 117.5512217  51.2398535
 118.4984946 117.8937518  50.7197623 118.8381018 118.4223440  49.9976231
 118.9457066 118.2317925  51.4956190 121.1928387 116.2774569  60.1700691
 120.8525207 115.4782382  60.5721371 120.4867393 116.5776280  59.5977524
 121.8444858 113.3623882  58.6228014 122.6670928 112.8884360  58.5006904
 122.0882922 114.1414365  59.1226700 120.4853093 116.3912140  48.9190916
 121.2061455 116.7693393  48.4154633 119.8618397 117.1101017  49.0225894
 124.6284216 117.0957289  49.8549248 124.8447830 117.9781927  49.5538076
 124.1478283 116.7043502  49.1254890 119.3683437 120.0543002  56.4319993
 119.2228018 120.3683305  57.3244274 118.8908641 120.6727903  55.8790891
 121.2279820 117.0445550  56.4800882 121.2141389 116.1486643  56.1433180
 121.9452248 117.0516214  57.1139168 123.0805951 117.4782890  58.5254010
 122.8223729 118.3999961  58.5238340 122.5490991 117.0813325  59.2154474
 113.8429099 122.5948347  59.3707654 113.2982567 123.3708155  59.5027928
 114.7208449 122.9419151  59.2126775 120.6316716 115.9259930  51.7488452
 120.7532627 114.9976577  51.9479340 120.3418758 115.9398616  50.8366768
 123.5007906 113.6114841  54.8855172 123.5229603 113.6754174  53.9307152
 123.9175965 112.7719350  55.0795678 114.6295121 121.7218243  62.2637811
 113.8876857 121.8700878  62.8502441 114.3087866 121.9826508  61.4004560
 115.0751735 129.6083672  54.2948205 115.9009755 129.3087443  53.9146849
 114.7245787 128.8391294  54.7437994 120.0433268 128.9610140  56.3645879
 119.4213277 128.2980845  56.0648107 120.7138135 128.9871272  55.6819527
 113.2760340 127.5269998  55.2537139 112.4392248 127.0992172  55.0721140
 113.2483985 127.7202441  56.1907930 120.1157796 117.4391928  65.9578385
 120.1645951 118.3154051  65.5756155 120.6580310 116.8969321  65.3850028
 119.6046775 127.5114063  49.8404340 119.7534895 128.1949528  49.1871012
 120.4113218 127.4919153  50.3553795 128.0114279 120.8156445  63.8671557
 128.9124141 120.6762910  63.5755555 128.0862253 120.9810900  64.8069735
 122.3457084 118.1923300  62.7124744 121.4760393 118.4856866  62.4407332
 122.5816564 118.7763745  63.4332007 117.3599408 123.5379241  50.8465408
 117.1145450 122.6341571  51.0445619 117.5295323 123.5396391  49.9044886
 125.0496118 114.4102917  60.2290164 125.5678062 115.1463944  59.9036653
 124.6951251 114.7166910  61.0636923 116.6295056 119.2707598  48.3451570
 115.9364300 119.3451953  47.6891606 116.3846807 118.5067942  48.8673087
 125.3008712 110.8303200  55.7491061 125.5810466 110.1626389  56.3751487
 126.0859319 111.0232295  55.2365725 129.1717570 119.2520834  59.4962636
 130.1234993 119.3518931  59.5174860 129.0021021 118.4599102  60.0060720
 127.1931950 116.3376417  59.6822037 126.5981882 116.6181430  58.9868525
 126.9081647 116.8270318  60.4538778 123.4888979 121.3423006  44.6532139
 124.4348084 121.2129214  44.7220558 123.1103224 120.6037668  45.1301568
 131.8000137 119.2637997  58.6563219 131.2839185 118.4796453  58.4693147
 132.6840085 118.9356713  58.8209738 129.4610864 113.0079012  54.6159031
 129.2635685 112.6994101  55.5002363 130.0710569 113.7340651  54.7456961
 123.3727672 125.3940752  66.1132796 124.2930681 125.5719351  66.3072843
 123.3377255 124.4496798  65.9612496 121.6731896 119.2672983  44.5887025
 120.7663352 118.9706095  44.6649738 121.9507877 118.9702801  43.7221311
 112.5909837 120.5879346  55.0386071 112.2712621 119.7344654  54.7460445
 112.0443265 120.8027924  55.7944038 116.3689744 123.3041787  58.7555578
 116.5875754 124.2358895  58.7743611 116.7815518 122.9449762  59.5410381
 123.2893962 113.8109872  50.7431266 122.4794690 113.4656957  51.1186512
 123.9778379 113.5017416  51.3318878 125.2184510 112.8887919  52.3655563
 125.7715549 113.3083373  53.0245586 125.4554597 111.9623667  52.4078519
 121.2417609 118.8774993  68.1458327 121.1414336 119.8269350  68.0770418
 121.0239151 118.5493232  67.2734397 120.4430681 116.1259918  44.7299004
 121.3049845 116.4514816  44.9894821 120.6281025 115.3391414  44.2172070
 112.4598097 124.2082258  57.0079193 111.7661568 123.7936210  56.4949147
 113.2071088 124.2502794  56.4112612 128.5963317 114.9988444  51.8734227
 128.0161986 115.6573248  51.4912279 128.3299250 114.1765789  51.4621644
 127.0466884 114.3993502  54.0755547 127.5466662 114.5110037  53.2669866
 127.6902492 114.0954555  54.7156356 121.1048880 122.3072132  66.9623388
 120.6215961 123.1072492  67.1687277 121.1909819 122.3180077  66.0090832
 114.3734839 124.1400511  54.8845208 114.3505527 124.2388199  53.9327091
 114.6835476 124.9865662  55.2062374 117.0322217 126.1976666  58.9991822
 117.9865471 126.1660609  58.9321754 116.8334741 125.7367290  59.8142048
 117.6221599 124.7677782  61.5662620 118.4414488 125.2621861  61.5897457
 117.8958407 123.8509751  61.5380187 127.3788195 117.1588535  50.9290575
 126.4914050 117.4438185  50.7110770 127.7942184 116.9982298  50.0817852
 130.7302731 117.1835056  54.6444914 131.5063122 117.6731508  54.9169531
 130.0050866 117.6093110  55.1016784 133.1675290 117.8962675  55.7018855
 133.7619781 117.6558411  54.9912163 133.2401874 117.1769806  56.3292391
 115.3872446 131.7396286  56.0162020 115.2526914 130.9796687  55.4500018
 114.9704508 132.4637186  55.5490809 127.3529219 122.6743071  51.1440865
 127.2964420 123.1311622  50.3048498 127.9057562 121.9133755  50.9663708
 131.1634025 118.4632803  51.9690985 130.9070959 118.0629438  52.7999193
 130.5386893 119.1776597  51.8441124 128.0863998 123.8647852  48.4393395
 128.0312802 123.6992123  47.4981839 127.4610054 124.5723885  48.5955584
 112.8756513 119.1015916  62.2654817 113.5215377 118.5914870  62.7542042
 112.6673664 119.8384598  62.8398242 121.3960124 113.3655961  48.0178713
 121.3838794 114.3097801  48.1746984 122.2883546 113.1826106  47.7238174
 125.2112243 109.9598738  52.2724650 124.4444639 109.4057224  52.4181332
 125.6222948 110.0320606  53.1338801 117.2154004 116.2483533  66.3629831
 118.0785466 115.8920338  66.5733156 116.6419415 115.9097428  67.0505235
  50.3452347  -7.7487829  43.8937539  50.9830757  -7.8681082  43.1900879
  50.2273190  -6.8006985  43.9525491  47.1542053  -7.7960401  43.8299063
  46.8160564  -7.9119336  42.9419598  48.0231821  -8.1969236  43.8100069
  47.6361836  -6.6425549  49.7885269  47.6250477  -7.0372751  48.9165772
  47.7982475  -7.3759477  50.3819040  40.5593301  -4.4473733  42.6580175
  41.3514592  -4.7882908  42.2426474  40.7989951  -4.3378758  43.5782328
  48.5928427  -2.2753957  35.1310419  47.9416407  -1.6899876  34.7444433
  49.3872790  -1.7447762  35.1905457  44.3569097  -3.8588437  48.7364453
  44.0658963  -2.9542807  48.6211119  44.9926081  -3.8171910  49.4508522
  45.2825304  -6.4811589  45.3265812  45.8788876  -6.7055566  44.6122775
  45.3400275  -7.2226843  45.9291260  46.9178162  -7.6633901  39.0687068
  46.5536369  -8.1903280  39.7799989  47.7745278  -8.0535431  38.8953553
  49.3158982  -4.1727022  45.7314246  49.0159705  -3.2701983  45.6230054
  48.9710042  -4.4394839  46.5835399  42.7671464  -7.7213225  41.7650951
  41.8421960  -7.8537011  41.9728643  43.0155877  -6.9419006  42.2620893
  44.2979762   2.5917298  38.6985214  44.2203792   3.5425124  38.7773695
  43.6941406   2.2463171  39.3560140  46.7896992 -10.2354836  51.3546581
  46.0130326  -9.6760916  51.3449446  47.4287555  -9.7498053  51.8761451
  45.0443364  -7.4269383  50.9164548  45.7858048  -6.8884339  50.6399372
  44.3380349  -6.8003094  51.0736100  50.5198704  -5.2840242  49.5136710
  50.9282060  -5.7257832  48.7691342  49.7975965  -5.8587615  49.7670902
  46.8729774 -10.3467636  46.8870267  47.7190969  -9.9228222  47.0304916
  46.8128411 -11.0034011  47.5808830  50.8427518  -4.7239052  43.2688998
  50.2136381  -4.5593338  42.5665066  50.4553180  -4.3097442  44.0399962
  54.7216750  -3.7884614  40.6233362  54.0367788  -3.4085712  40.0730396
  54.8060599  -3.1789287  41.3565310  51.9767682  -6.1424655  47.2228706
  52.1884577  -5.4992895  46.5463087  51.9297430  -6.9762338  46.7550636
  46.3955480  -4.9864644  40.5339084  46.8593826  -4.7076941  39.7443706
  46.1312278  -5.8881199  40.3512174  43.2879561  -5.4393162  43.4718847
  43.8580918  -5.0105894  42.8336331  43.8787673  -5.7210577  44.1703032
  53.0913510  -3.2652699  45.3951063  53.9130953  -3.6672512  45.1133745
  53.0875913  -3.3684465  46.3467179  46.8570113  -3.7168656  47.5511774
  46.9214546  -3.2548249  48.3869945  46.1481037  -4.3471291  47.6794083
  46.5718131  -2.0500549  37.4190754  46.4363806  -1.2049013  37.8475602
  47.1127943  -1.8481271  36.6556688  41.8342413  -1.4159354  40.0741432
  42.0109041  -0.4941390  39.8862416  42.6299246  -1.7300935  40.5035812
  48.1986607  -1.4276982  51.5491096  47.7550461  -2.2140604  51.2312000
  48.8603821  -1.2397832  50.8834987  42.9573728   0.1018819  46.0751774
  43.5081154  -0.0264117  45.3028768  42.1185204   0.4013709  45.7246667
  50.2967845  -1.1474182  49.5772497  50.2786321  -0.3265301  49.0852766
  51.2187765  -1.2720107  49.8022638  46.7540899  -3.6330053  50.4196006
  47.2869236  -4.3941764  50.1895314  46.2254981  -3.9256401  51.1620160
  54.8595151  -5.7829021  36.3915256  54.0824594  -6.1217861  35.9470418
  55.5386632  -5.7776398  35.7170221  48.1193612  -4.5044060  37.9314818
  47.5914974  -5.2391301  37.6188055  47.6181115  -3.7269384  37.6854786
  53.0986458  -6.3095040  43.0481864  52.4410133  -5.6195778  43.1361993
  53.9026857  -5.9198608  43.3915850  51.9091917  -7.9550667  41.0985806
  52.4223799  -7.3220675  41.6007515  52.5593141  -8.5549472  40.7329166
  49.1714291   2.0233657  33.8546477  48.4975990   2.3265354  34.4631435
  49.5580113   2.8262738  33.5051934  48.3872748 -10.4801211  43.3444146
  47.4695309 -10.2586264  43.1865834  48.8032891 -10.4054901  42.4855854
  49.1707796  -9.0809796  38.4746826  49.9179615  -8.5688399  38.1653949
  49.4399385  -9.4025743  39.3351220  52.6753713  -2.9744666  39.2264948
  52.2216040  -3.8153756  39.2830139  52.0447680  -2.3383267  39.5639728
  51.1186652  -1.1368169  40.1614766  51.4109627  -0.5763112  39.4427132
  51.6285273  -0.8439608  40.9167926  45.9919340  -8.9722634  41.5583576
  46.0467950  -9.9248798  41.4826053  45.1810542  -8.8163195  42.0424875
  46.0820278  -0.3587818  41.2508220  46.0396456  -0.1326971  40.3216752
  46.9982976  -0.5924443  41.3994021  49.5285911  -9.8903750  48.1488849
  49.8835299  -9.6632277  49.0083315  50.1758043  -9.5585373  47.5266104
  55.2583648  -6.7685314  38.8538178  55.1201547  -6.5783718  37.9259367
  54.9019867  -6.0065932  39.3106229  55.2853028  -4.7008787  43.8649449
  55.7189535  -4.7933498  44.7132503  55.9984609  -4.7251287  43.2269465
  44.1986078  -3.4824789  41.0470182  44.9926677  -3.9774469  40.8452757
  43.4877771  -4.0106926  40.6837888  49.0180923  -1.1006693  45.3982550
  49.0717945  -0.5315757  46.1660266  48.1495704  -0.9304808  45.0336587
  56.1468578  -4.6585087  46.3982335  56.3404468  -3.7539276  46.6441610
  56.0469196  -5.1177668  47.2320920  51.2083686  -4.5078344  51.9723215
  51.0569193  -4.7367792  51.0553299  51.1988366  -3.5507743  51.9854560
  47.9769023  -6.9346431  46.9569482  48.9061083  -6.7835272  46.7838449
  47.5560053  -6.8462410  46.1018128  46.7757354  -2.9095767  44.7268019
  46.6368440  -3.2776982  45.5993958  45.9871951  -2.3948127  44.5551977
  47.3705506   2.1913330  36.0693556  47.5457262   1.7201373  36.8839179
  46.6838294   2.8179096  36.2974817  48.3262570  -3.5314164  42.1156857
  47.9912402  -3.5713394  43.0114507  47.8266515  -4.1969448  41.6427267
  42.3006813  -8.1246534  47.6409438  42.1626611  -8.8566295  48.2420977
  43.2111737  -8.2137634  47.3593626  44.9289114  -8.4126575  47.1293118
  45.6388733  -9.0533383  47.0879736  44.8858422  -8.1613680  48.0519299
  52.9175893  -1.4759221  50.0499697  52.8588439  -2.1600001  49.3830280
  53.3195411  -0.7340231  49.5980323  41.9366592   5.3402692  42.8433416
  42.1763190   5.9721217  43.5212435  41.0935788   4.9890732  43.1298775
  52.9193300  -3.5119637  48.2813677  52.0320079  -3.8493716  48.4040076
  53.4891851  -4.2436606  48.5182442  46.4494454   1.1481815  45.2474920
  46.3764625   1.9536786  45.7594225  46.0071847   1.3473781  44.4222942
  46.2384233   0.3853585  38.7577742  45.4551755   0.9275265  38.8515966
  46.9376978   0.9027565  39.1571983  48.9093137   1.0468649  47.4033079
  49.6221109   1.6816114  47.3308980  48.4183166   1.1432515  46.5873081
  50.6310664  -5.0480098  38.9750370  49.6966943  -4.9278636  38.8055075
  50.8087332  -5.9507632  38.7110380  43.9605051  -1.2036908  48.2238650
  44.6614510  -0.5700425  48.3768044  43.4900166  -0.8622176  47.4634289
  52.0859446  -2.8618958  36.5086557  52.3619290  -2.9762363  37.4180431
  51.2163945  -3.2601473  36.4698730  51.7606337  -8.6492300  46.0491200
  51.1077787  -8.4016393  45.3943653  52.1386716  -9.4628162  45.7153677
  48.7213510   1.3867393  40.1519370  48.9035905   0.5689049  40.6147123
  49.5446496   1.6035085  39.7144260  49.0555676   0.3135578  37.4134419
  49.5843442  -0.1971967  36.8004581  49.3183895  -0.0021892  38.2779952
  47.8093910  -7.9072489  52.5357237  47.1334547  -8.0078360  53.2059612
  48.6321543  -8.0633275  52.9993234  39.5572769  -1.6700553  45.1569752
  40.1426205  -2.4156865  45.2897657  39.3597607  -1.3596596  46.0406416
  42.4111424   1.3650695  40.1732195  41.7421799   1.8496822  39.6896235
  42.2724294   1.6119915  41.0875573  46.5516692   3.3994438  46.7714853
  47.1035000   3.5626060  47.5363938  46.8922886   3.9898876  46.0994878
  51.4027567  -1.7744304  52.6263507  51.9467471  -1.1614346  52.1318462
  50.8214412  -1.2164726  53.1430521  49.6885080   1.3476414  43.7578535
  49.5636219   0.5466154  43.2489481  50.3464171   1.8422607  43.2692505
  51.7519988  -0.8514566  45.3858085  50.8050324  -0.9709215  45.3136412
  52.1002761  -1.7392068  45.4684347  48.7566421  -1.0561850  41.5862438
  48.6091384  -1.9845142  41.7670008  49.5819915  -1.0341759  41.1019513
  52.3600543  -0.2333291  42.6727310  53.2847091  -0.4390430  42.5351761
  52.1915847  -0.4816890  43.5816652  52.1495859   0.2852376  38.0289402
  52.3232737  -0.2801201  37.2763254  52.6424751   1.0853271  37.8468892
  53.1371032  -0.3980859  35.1286300  53.8321937   0.2225833  35.3473615
  53.4794182  -1.2485508  35.4038678  55.0362455  -2.9481154  36.6573631
  55.5613779  -2.6093881  35.9322951  54.9484808  -3.8834138  36.4736765
  46.6982504   0.9652920  48.7863507  47.0069630   0.7202067  49.6586207
  47.4957986   1.1699558  48.2982378  46.7203116   3.1190830  41.0168884
  46.2808106   2.6267208  41.7101741  47.4711233   2.5763797  40.7760959
  39.1995455  -0.6897630  41.0193512  40.0253475  -0.9893858  40.6392156
  38.8489507  -1.4590007  41.4683301  44.1676988  -1.3371161  43.0891186
  43.5456997  -2.0000456  42.7893414  44.8381855  -1.3110029  42.4064833
  37.4004060  -2.7711303  41.9782446  36.5635968  -3.1989129  41.7966447
  37.3727705  -2.5778860  42.9153237  54.7256361  -2.3148250  51.9624829
  53.9351905  -2.3324111  51.4229328  54.4889716  -1.7759956  52.7173865
  54.8454236  -5.4655784  49.2757557  54.8952241  -5.6305776  50.2173080
  54.7368160  -6.3328525  48.8855438  56.3472433  -3.0458842  49.5199579
  56.0557241  -2.6828862  50.3563040  55.7344564  -3.7591834  49.3412911
  57.5468115  -5.4805962  42.0402149  58.3815007  -5.0416158  42.2039709
  57.6827244  -5.9567309  41.2210395  54.5959621  -7.9226228  47.9879637
  55.0713743  -7.7298581  47.1798488  53.6725187  -7.8667042  47.7423020
  50.4483160  -0.0081957  35.1669976  51.3813833  -0.0736396  35.3702851
  50.3606373   0.8274309  34.7084509  53.0771177  -0.6916087  32.1273923
  52.9984808  -1.0256223  33.0209681  53.8980844  -0.1994319  32.1265396
  47.4971391  -4.9040549  52.8378103  48.4174401  -4.7261950  53.0318150
  47.4620974  -5.8484503  52.6857802  40.4933464  -6.9939514  45.4800884
  40.7119474  -6.0622406  45.4988918  40.9059238  -7.3531540  46.2655688
  45.2292599  -7.9909169  53.6868695  44.7459681  -7.1908809  53.8932584
  45.3153538  -7.9801225  52.7336139  41.1565937  -4.1004635  45.7237129
  42.1109190  -4.1320692  45.6567060  40.9578460  -4.5614011  46.5387355
  41.7465319  -5.5303519  48.2907926  42.5658208  -5.0359440  48.3142764
  42.0202127  -6.4471551  48.2625494  39.5116166   1.4414985  42.7407326
  39.3770634   0.6815386  42.1745325  39.0948228   2.1655885  42.2736115
  51.4772939  -7.6238230  37.8686172  51.4208140  -7.1669679  37.0293804
  52.0301281  -8.3847546  37.6909015  42.6685291   2.3384302  42.9525769
  42.5517676   3.2829734  42.8504459  41.8477738   2.0357863  43.3411568
  52.5561826  -2.9365562  33.7982362  53.3907430  -3.3684364  33.6159837
  52.3946169  -3.1083549  34.7259256  49.5253625  -4.1284537  54.4892264
  50.3944785  -3.9543885  54.1278899  49.0460377  -3.3090120  54.3667993
  43.6939806   2.9912564  46.1681698  44.5967052   3.0236174  46.4848193
  43.4677176   2.0613015  46.1828033  45.4493408   1.7443550  42.8291776
  44.4989039   1.7445412  42.7156148  45.7525894   0.9976285  42.3127811
  61.1846101   7.5804089  43.8937539  61.8224511   7.4610836  43.1900879
  61.0666944   8.5284933  43.9525491  57.9935807   7.5331517  43.8299063
  57.6554319   7.4172581  42.9419598  58.8625576   7.1322682  43.8100069
  53.8522623   9.3866993  39.8195954  53.2887488   9.2956930  39.0512242
  53.7375018   8.5666898  40.2998447  58.4755590   8.6866368  49.7885269
  58.4644231   8.2919167  48.9165772  58.6376230   7.9532441  50.3819040
  51.3987055  10.8818185  42.6580175  52.1908347  10.5409009  42.2426474
  51.6383705  10.9913160  43.5782328  59.4322182  13.0537961  35.1310419
  58.7810162  13.6392041  34.7444433  60.2266545  13.5844156  35.1905457
  53.3577809  10.1427098  35.5297553  54.1308685   9.5956085  35.3910429
  53.7103208  11.0071347  35.7412015  55.1962852  11.4703480  48.7364453
  54.9052718  12.3749111  48.6211119  55.8319836  11.5120008  49.4508522
  56.1219058   8.8480329  45.3265812  56.7182631   8.6236351  44.6122775
  56.1794030   8.1065074  45.9291260  55.6944087   6.3019764  33.1616003
  55.9469607   5.7801285  32.3999466  54.7568646   6.1385910  33.2642687
  60.7387370   5.3055542  40.9690747  61.5250459   4.8874966  40.6181164
  61.0026074   6.2101635  41.1372395  60.9097447  10.7428393  35.6679403
  60.2743280  10.8163019  36.3800308  60.5794853  11.3321992  34.9898483
  66.1395797   5.2430776  41.8723725  66.8720969   4.6729992  42.1061555
  65.3835152   4.8552376  42.3130231  55.4140376   8.2047870  35.3640378
  55.2976634   7.5292773  36.0321463  55.5242635   7.7180244  34.5472531
  57.7571916   7.6658017  39.0687068  57.3930124   7.1388638  39.7799989
  58.6139032   7.2756486  38.8953553  63.6621217  -1.0447650  46.3318334
  63.3304542  -0.1752239  46.1079549  63.0666830  -1.3611366  47.0112364
  57.3977403   2.6947917  34.0648416  57.5651806   3.5628153  34.4318887
  57.2074573   2.8575199  33.1409705  60.1552737  11.1564896  45.7314246
  59.8553460  12.0589935  45.6230054  59.8103796  10.8897079  46.5835399
  53.6065218   7.6078693  41.7650951  52.6815715   7.4754907  41.9728643
  53.8549631   8.3872912  42.2620893  63.5549880   3.6747436  43.4111684
  62.6466758   3.6062844  43.1170445  63.5037476   4.1519381  44.2393509
  57.3766624   5.1505574  35.0495083  57.2566250   5.5962625  35.8880563
  56.6819213   5.4990892  34.4908621  50.9674029   7.2511966  42.5994740
  51.0966410   7.5046445  43.5134152  50.2871480   7.8439674  42.2799395
  55.1373516  17.9209216  38.6985214  55.0597546  18.8717041  38.7773695
  54.5335160  17.5755089  39.3560140  57.6290746   5.0937082  51.3546581
  56.8524080   5.6531002  51.3449446  58.2681309   5.5793865  51.8761451
  65.4211527   1.8763874  45.1889558  64.7785907   2.1696408  44.5429352
  64.9166455   1.7616795  45.9942754  63.0751690   5.6227048  35.8775417
  63.9869547   5.8554434  35.7023115  62.5661338   6.2064092  35.3150496
  55.8837118   7.9022535  50.9164548  56.6251803   8.4407579  50.6399372
  55.1774104   8.5288824  51.0736100  61.3592458  10.0451675  49.5136710
  61.7675814   9.6034086  48.7691342  60.6369720   9.4704303  49.7670902
  57.7123528   4.9824282  46.8870267  58.5584723   5.4063696  47.0304916
  57.6522166   4.3257906  47.5808830  61.6821273  10.6052866  43.2688998
  61.0530135  10.7698580  42.5665066  61.2946935  11.0194476  44.0399962
  65.5610505  11.5407304  40.6233362  64.8761543  11.9206205  40.0730396
  65.6454354  12.1502631  41.3565310  60.8622974   2.6428650  48.5451440
  60.6183905   3.3970711  48.0085716  61.1382904   3.0213998  49.3798687
  62.8161436   9.1867263  47.2228706  63.0278332   9.8299023  46.5463087
  62.7691185   8.3529579  46.7550636  60.4187665   1.7985084  44.1265278
  59.5572144   2.0966337  44.4182015  60.4450100   2.0155482  43.1946311
  57.2349235  10.3427274  40.5339084  57.6987580  10.6214977  39.7443706
  56.9706033   9.4410719  40.3512174  54.1273316   9.8898756  43.4718847
  54.6974673  10.3186024  42.8336331  54.7181428   9.6081340  44.1703032
  56.1718121   6.4650426  37.3428649  56.8742164   6.9171470  37.8102575
  55.8398749   5.8234245  37.9708542  54.6198482   5.0562183  51.7179858
  53.9897143   5.7378464  51.9515255  54.5134570   4.9445265  50.7732996
  49.9143455   4.7233979  42.6445782  49.1242509   4.9791508  42.1685893
  50.4054702   5.5382317  42.7497823  63.9307264  12.0639218  45.3951063
  64.7524708  11.6619406  45.1133745  63.9269667  11.9607452  46.3467179
  51.8658200   5.0878558  39.6029259  51.0689363   5.1997253  40.1212755
  51.6383792   5.4265211  38.7370149  57.6963868  11.6123262  47.5511774
  57.7608300  12.0743669  48.3869945  56.9874792  10.9820627  47.6794083
  48.1981158   4.9764470  45.0760773  48.4489196   5.8611479  45.3418349
  48.7340706   4.7969071  44.3035865  72.0213257   8.4077967  41.7436035
  71.2676966   7.8385365  41.5880039  72.1560798   8.3740631  42.6906669
  57.4111885  13.2791369  37.4190754  57.2757560  14.1242905  37.8475602
  57.9521698  13.4810647  36.6556688  53.8979225  -0.6417051  54.0805109
  53.5046171  -1.1950853  54.7552753  54.7145365  -0.3306473  54.4711627
  50.8641283  10.7966807  37.9918679  51.3765803  11.5910057  38.1424244
  51.5163996  10.0993098  37.9252280  52.6736167  13.9132563  40.0741432
  52.8502796  14.8350528  39.8862416  53.4693001  13.5990983  40.5035812
  56.8147186   0.7740828  51.6725366  57.5556899   1.3747981  51.5929828
  57.0465109   0.0318466  51.1143408  51.9588524   5.9597195  49.9503595
  51.8442039   5.0582453  50.2510694  51.1033042   6.2060892  49.5988412
  59.0380362  13.9014936  51.5491096  58.5944216  13.1151314  51.2312000
  59.6997575  14.0894086  50.8834987  53.7967483  15.4310737  46.0751774
  54.3474908  15.3027801  45.3028768  52.9578959  15.7305626  45.7246667
  61.1361600  14.1817736  49.5772497  61.1180075  15.0026617  49.0852766
  62.0581520  14.0571811  49.8022638  57.5934654  11.6961865  50.4196006
  58.1262991  10.9350153  50.1895314  57.0648735  11.4035517  51.1620160
  60.7604349  -3.1978069  45.9489647  60.4168618  -2.3076427  45.8728758
  61.1283311  -3.3876411  45.0859232  48.8290200   9.1255461  38.7678250
  49.6665422   9.5352470  38.5511957  49.0068467   8.1854904  38.7378443
  60.7254632   6.7930542  34.4562082  60.2101255   7.5635147  34.6950470
  60.4531940   6.1195678  35.0795144  58.3101743   1.6380243  39.5147321
  57.4543339   1.2487093  39.3352960  58.7228694   1.7172204  38.6547106
  59.8400889  -0.8273414  43.9138881  59.3365685  -0.8643279  43.1006686
  60.1331496   0.0819329  43.9735537  56.0843775  -0.7434684  42.9205062
  56.9496772  -0.9391875  42.5610952  56.1521284  -0.9724332  43.8474419
  65.6988906   9.5462897  36.3915256  64.9218349   9.2074056  35.9470418
  66.3780387   9.5515520  35.7170221  60.5140935   4.6657634  36.2821864
  60.2091070   4.9803783  37.1332007  61.4671377   4.7439054  36.3249197
  58.9587367  10.8247857  37.9314818  58.4308728  10.0900617  37.6188055
  58.4574869  11.6022534  37.6854786  63.9380213   9.0196878  43.0481864
  63.2803887   9.7096139  43.1361993  64.7420612   9.4093310  43.3915850
  53.6906094   1.4867524  40.2921429  54.2649846   1.2642705  39.5594622
  54.2777077   1.5556218  41.0450030  62.7485671   7.3741251  41.0985806
  63.2617553   8.0071242  41.6007515  63.3986895   6.7742446  40.7329166
  54.0175681   3.5171985  34.3117314  53.1812994   3.8546671  34.6326589
  53.8780451   3.3820965  33.3744451  55.9928762  -1.6391227  39.0196499
  55.3393174  -1.9542210  38.3953113  55.9509236  -2.2615487  39.7456322
  57.1039967   8.6428068  30.9349791  56.1967029   8.4117321  31.1340940
  57.6010999   7.8465687  31.1223772  60.0108046  17.3525575  33.8546477
  59.3369744  17.6557272  34.4631435  60.3973868  18.1554655  33.5051934
  59.2266502   4.8490706  43.3444146  58.3089064   5.0705653  43.1865834
  59.6426646   4.9237017  42.4855854  60.0101550   6.2482122  38.4746826
  60.7573369   6.7603519  38.1653949  60.2793140   5.9266175  39.3351220
  58.2828200   8.7440663  35.4573781  57.3739420   8.4599695  35.5546251
  58.3123284   9.1639741  34.5977088  63.5147468  12.3547252  39.2264948
  63.0609795  11.5138162  39.2830139  62.8841434  12.9908650  39.5639728
  62.4580387   3.2839238  40.4565616  61.7203144   2.7716624  40.7875858
  62.7107161   2.8439620  39.6448893  61.9580407  14.1923749  40.1614766
  62.2503381  14.7528806  39.4427132  62.4679027  14.4852310  40.9167926
  62.5592015  -3.9384510  41.0507385  62.8650891  -4.7987146  40.7633300
  63.2844619  -3.3466890  40.8506379  48.8516371   6.4646177  39.4388983
  48.6540770   5.8715537  38.7140050  48.2963035   6.1598387  40.1564922
  56.8313094   6.3569283  41.5583576  56.8861704   5.4043120  41.4826053
  56.0204296   6.5128722  42.0424875  57.9804288  10.2849406  32.7961859
  57.5423718   9.5685265  32.3367497  58.7214729  10.5125521  32.2346951
  54.7705454   4.9746343  39.3173955  53.9573320   5.2740514  39.7239147
  55.2664448   4.5802032  40.0348437  56.9214032  14.9704100  41.2508220
  56.8790211  15.1964946  40.3216752  57.8376731  14.7367474  41.3994021
  60.3679666   5.4388167  48.1488849  60.7229054   5.6659641  49.0083315
  61.0151797   5.7706544  47.5266104  66.0977403   8.5606603  38.8538178
  65.9595301   8.7508199  37.9259367  65.7413622   9.3225986  39.3106229
  54.2619529   2.5464698  44.9335190  54.9018908   2.4053458  44.2358153
  53.4297060   2.2599212  44.5573792  66.1246782  10.6283130  43.8649449
  66.5583289  10.5358419  44.7132503  66.8378363  10.6040631  43.2269465
  55.0379833  11.8467129  41.0470182  55.8320431  11.3517449  40.8452757
  54.3271525  11.3184992  40.6837888  59.8574677  14.2285224  45.3982550
  59.9111700  14.7976161  46.1660266  58.9889459  14.3987109  45.0336587
  51.3462596   5.9910211  37.1229935  50.4160184   5.9294666  37.3399897
  51.4420068   5.4686163  36.3266576  51.2648145   2.5165023  39.7108177
  51.5254963   3.4310357  39.6017337  52.0865318   2.0489466  39.8604790
  52.7373071   3.9302781  46.8807001  53.4096124   3.7220143  46.2319650
  51.9102857   3.7324867  46.4412234  66.9862332  10.6706831  46.3982335
  67.1798222  11.5752641  46.6441610  66.8862950  10.2114250  47.2320920
  58.6398643   0.5564722  48.8972662  57.9926558   1.2554671  48.8037139
  59.4099658   0.9900865  49.2648910  62.0477441  10.8213574  51.9723215
  61.8962947  10.5924125  51.0553299  62.0382120  11.7784175  51.9854560
  58.8162777   8.3945486  46.9569482  59.7454837   8.5456646  46.7838449
  58.3953807   8.4829507  46.1018128  57.6151109  12.4196151  44.7268019
  57.4762195  12.0514935  45.5993958  56.8265705  12.9343790  44.5551977
  58.2099261  17.5205247  36.0693556  58.3851017  17.0493291  36.8839179
  57.5232049  18.1471014  36.2974817  59.1656324  11.7977754  42.1156857
  58.8306157  11.7578524  43.0114507  58.6660270  11.1322469  41.6427267
  53.1400568   7.2045384  47.6409438  53.0020366   6.4725622  48.2420977
  54.0505491   7.1154284  47.3593626  62.1015516   9.1433788  32.3893917
  61.4844686   8.4180616  32.2926970  61.6332004   9.9043148  32.0460991
  55.7682869   6.9165343  47.1293118  56.4782487   6.2758535  47.0879736
  55.7252177   7.1678238  48.0519299  63.7569647  13.8532696  50.0499697
  63.6982193  13.1691916  49.3830280  64.1589166  14.5951686  49.5980323
  54.4811803   3.9030561  48.9488758  53.9449160   3.4521299  49.6010354
  53.8928511   4.0376470  48.2059222  52.7760346  20.6694610  42.8433416
  53.0156944  21.3013134  43.5212435  51.9329543  20.3182650  43.1298775
  53.8914062   3.3619212  31.5115221  53.0143528   3.2408013  31.1477468
  54.3671815   2.5705291  31.2594110  63.7587055  11.8172280  48.2813677
  62.8713833  11.4798202  48.4040076  64.3285606  11.0855311  48.5182442
  45.4116202   8.1496372  41.6056728  46.0987242   7.8358102  41.0177744
  45.2564330   9.0537737  41.3323980  50.2150924   3.0386569  46.0341752
  50.1309113   2.4312238  45.2992162  49.3933630   3.5295587  46.0351248
  57.2888208  16.4773733  45.2474920  57.2158379  17.2828704  45.7594225
  56.8465601  16.6765698  44.4222942  57.0777988  15.7145503  38.7577742
  56.2945510  16.2567183  38.8515966  57.7770733  16.2319482  39.1571983
  60.3874638   1.5240132  41.4011947  60.8843337   0.7710094  41.0813017
  59.6161619   1.5604449  40.8355156  68.2404395   7.2280498  43.0430239
  68.2294271   8.1105213  42.6724172  67.3721775   6.8752048  42.8484776
  59.7486892  16.3760567  47.4033079  60.4614864  17.0108031  47.3308980
  59.2576920  16.4724433  46.5873081  61.4704418  10.2811819  38.9750370
  60.5360697  10.4013282  38.8055075  61.6481087   9.3784286  38.7110380
  56.9709606   3.6657515  41.1283632  56.6007394   3.1128555  41.8164537
  57.4668699   3.0615649  40.5758632  64.8576970   6.1229139  39.5100405
  65.3237422   6.9557130  39.4360707  65.3084470   5.6574120  40.2145663
  54.7998805  14.1255010  48.2238650  55.5008265  14.7591493  48.3768044
  54.3293920  14.4669742  47.4634289  62.9253201  12.4672960  36.5086557
  63.2013045  12.3529554  37.4180431  62.0557700  12.0690445  36.4698730
  62.8293633  -1.5090274  43.5491306  61.9156712  -1.2786048  43.7173513
  63.2586734  -1.4251830  44.4005338  62.6000091   6.6799618  46.0491200
  61.9471541   6.9275525  45.3943653  62.9780471   5.8663756  45.7153677
  59.5607265  16.7159311  40.1519370  59.7429659  15.8980967  40.6147123
  60.3840251  16.9327003  39.7144260  59.8949430  15.6427496  37.4134419
  60.4237197  15.1319950  36.8004581  60.1577650  15.3270026  38.2779952
  58.6487664   7.4219429  52.5357237  57.9728301   7.3213558  53.2059612
  59.4715298   7.2658642  52.9993234  50.3966523  13.6591365  45.1569752
  50.9819960  12.9135053  45.2897657  50.1991362  13.9695322  46.0406416
  53.2505178  16.6942612  40.1732195  52.5815554  17.1788740  39.6896235
  53.1118048  16.9411833  41.0875573  44.9884178   6.2296965  43.8774195
  45.0268277   5.6960556  44.6711314  44.4824471   5.7032171  43.2585173
  57.3910447  18.7286356  46.7714853  57.9428755  18.8917978  47.5363938
  57.7316640  19.3190794  46.0994878  52.3674940   1.0761506  47.3736738
  52.4316267   1.9376337  46.9614135  52.3042060   0.4635507  46.6409096
  51.8427213   3.1484638  51.0209772  52.4699251   2.7661716  51.6347296
  50.9855132   2.9298840  51.3865465  62.2421321  13.5547614  52.6263507
  62.7861225  14.1677572  52.1318462  61.6608166  14.1127192  53.1430521
  48.6192755   4.9561067  36.9528127  48.9146197   4.0471746  36.8995181
  47.7180791   4.9348807  36.6309129  60.5278834  16.6768332  43.7578535
  60.4029974  15.8758071  43.2489481  61.1857925  17.1714525  43.2692505
  52.1487002   3.0317064  42.9355675  51.4273588   3.6453032  42.7963149
  52.9380258   3.5674829  42.8572321  62.5913743  14.4777352  45.3858085
  61.6444078  14.3582703  45.3136412  62.9396516  13.5899850  45.4684347
  54.9513316   0.3671491  49.2096327  55.4747718   0.6133787  49.9722637
  54.7325649   1.1991525  48.7899465  50.3480597   2.6375165  37.0767452
  50.0193303   1.7572544  36.8942558  50.7019968   2.5822834  37.9643841
  59.5960176  14.2730068  41.5862438  59.4485138  13.3446775  41.7670008
  60.4213669  14.2950159  41.1019513  53.4622420   2.9248135  37.4442930
  53.8018493   3.4534056  36.7221538  53.9094541   3.2628541  38.2201496
  63.1994298  15.0958627  42.6727310  64.1240845  14.8901488  42.5351761
  63.0309601  14.8475028  43.5816652  56.1565861   1.3085186  46.8945998
  55.8162681   0.5092999  47.2966678  55.4504867   1.6086896  46.3222831
  56.8082333  -1.6065502  45.3473321  57.6308402  -2.0805024  45.2252211
  57.0520396  -0.8275018  45.8472007  55.4490567   1.4222757  35.6436222
  56.1698930   1.8004009  35.1399939  54.8255871   2.1411633  35.7471200
  59.5921690   2.1267905  36.5794555  59.8085305   3.0092543  36.2783383
  59.1115757   1.7354119  35.8500197  54.3320912   5.0853619  43.1565299
  54.1865492   5.3993922  44.0489581  53.8546115   5.7038519  42.6036198
  56.1917294   2.0756167  43.2046189  56.1778863   1.1797260  42.8678487
  56.9089723   2.0826830  43.8384475  58.0443425   2.5093507  45.2499316
  57.7861203   3.4310578  45.2483647  57.5128466   2.1123941  45.9399781
  62.9889614  15.6144294  38.0289402  63.1626491  15.0490717  37.2763254
  63.4818505  16.4145189  37.8468892  48.8066574   7.6258963  46.0952961
  48.2620042   8.4018771  46.2273235  49.6845924   7.9729768  45.9372082
  55.5954190   0.9570547  38.4733759  55.7170102   0.0287193  38.6724647
  55.3056233   0.9709233  37.5612075  58.4645381  -1.3574543  41.6100479
  58.4867078  -1.2935209  40.6552458  58.8813440  -2.1970034  41.8040985
  68.8429005   8.3780717  39.6479701  69.2860151   7.6288042  39.2498825
  67.9655515   8.3690853  39.2653433  63.9764786  14.9311058  35.1286300
  64.6715691  15.5517751  35.3473615  64.3187937  14.0806410  35.4038678
  49.5932596   6.7528859  48.9883117  48.8514332   6.9011495  49.5747748
  49.2725340   7.0137125  48.1249867  65.8756210  12.3810764  36.6573631
  66.4007534  12.7198037  35.9322951  65.7878562  11.4457779  36.4736765
  57.5376258  16.2944838  48.7863507  57.8463385  16.0493984  49.6586207
  58.3351740  16.4991476  48.2982378  57.5596870  18.4482747  41.0168884
  57.1201861  17.9559126  41.7101741  58.3104987  17.9055715  40.7760959
  50.0389209  14.6394288  41.0193512  50.8647229  14.3398060  40.6392156
  49.6883261  13.8701911  41.4683301  55.0070742  13.9920756  43.0891186
  54.3850752  13.3291461  42.7893414  55.6775609  14.0181888  42.4064833
  48.2397814  12.5580615  41.9782446  47.4029723  12.1302789  41.7966447
  48.2121460  12.7513058  42.9153237  55.0795270   2.4702544  52.6823692
  55.1283425   3.3464667  52.3001461  55.6217784   1.9279937  52.1095335
  65.5650116  13.0143668  51.9624829  64.7745659  12.9967806  51.4229328
  65.3283470  13.5531961  52.7173865  65.6847991   9.8636134  49.2757557
  65.7345996   9.6986141  50.2173080  65.5761914   8.9963393  48.8855438
  54.5684249  12.5424680  36.5649646  54.7172370  13.2260144  35.9116319
  55.3750693  12.5229770  37.0799102  62.9751753   5.8467062  50.5916864
  63.8761616   5.7073527  50.3000862  63.0499728   6.0121517  51.5315041
  57.3094558   3.2233917  49.4370050  56.4397868   3.5167483  49.1652639
  57.5454039   3.8074362  50.1577314  67.1866187  12.2833075  49.5199579
  66.8950996  12.6463056  50.3563040  66.5738319  11.5700084  49.3412911
  68.3861870   9.8485955  42.0402149  69.2208761  10.2875759  42.2039709
  68.5220999   9.3724608  41.2210395  65.4353376   7.4065690  47.9879637
  65.9107497   7.5993336  47.1798488  64.5118941   7.4624876  47.7423020
  52.3236882   8.5689857  37.5710715  52.0782924   7.6652187  37.7690925
  52.4932797   8.5707008  36.6290193  60.0133592  -0.5586466  46.9535471
  60.5315536   0.1774561  46.6281959  59.6588725  -0.2522473  47.7882230
  51.5932530   4.3018215  35.0696877  50.9001775   4.3762570  34.4136913
  51.3484282   3.5378559  35.5918393  60.2646186  -4.1386184  42.4736367
  60.5447940  -4.8062995  43.0996794  61.0496793  -3.9457088  41.9611031
  58.0679655  15.0372810  34.0361394  57.4953622  15.6562997  33.5831865
  58.6412449  15.5872172  34.5701316  64.1355045   4.2831450  46.2207942
  65.0872468   4.3829548  46.2420166  63.9658495   3.4909719  46.7306027
  62.1569424   1.3687033  46.4067343  61.5619356   1.6492046  45.7113832
  61.8719121   1.8580934  47.1784084  61.2876915  15.3209960  35.1669976
  62.2207588  15.2555522  35.3702851  61.2000127  16.1566227  34.7084509
  63.9164931  14.6375831  32.1273923  63.8378563  14.3035694  33.0209681
  64.7374598  15.1297598  32.1265396  66.6143123   7.5037570  45.3350242
  66.5819443   6.5653571  45.5209926  67.2243746   7.5821607  44.6016067
  58.4526453   6.3733623  31.3777446  59.3985558   6.2439831  31.4465864
  58.0740698   5.6348285  31.8546874  66.7637611   4.2948613  45.3808525
  66.2476660   3.5107070  45.1938454  67.6477560   3.9667330  45.5455045
  64.4248338  -1.9610371  41.3404338  64.2273159  -2.2695283  42.2247670
  65.0348043  -1.2348732  41.4702268  72.4319672   8.5653577  44.4756279
  73.1623061   8.3038865  45.0363982  71.8226618   7.8282299  44.5158347
  70.5134969   6.7061439  45.0730730  69.7868133   6.5717404  44.4647222
  70.0982256   7.0138268  45.8787448  58.3365146  10.4251369  52.8378103
  59.2568155  10.6029968  53.0318150  58.3014729   9.4807414  52.6857802
  56.6369371   4.2983599  31.3132331  55.7300826   4.0016712  31.3895045
  56.9145352   4.0013417  30.4466618  47.5547311   5.6189963  41.7631378
  47.2350095   4.7655271  41.4705752  47.0080739   5.8338541  42.5189345
  51.3327218   8.3352404  45.4800884  51.5513228   9.2669511  45.4988918
  51.7452992   7.9760378  46.2655688  58.2531436  -1.1579511  37.4676573
  57.4432165  -1.5032426  37.8431819  58.9415853  -1.4671967  38.0564184
  60.1821985  -2.0801464  39.0900869  60.7353023  -1.6606011  39.7490892
  60.4192071  -3.0065716  39.1323825  56.2055084   3.9085609  54.8703633
  56.1051811   4.8579966  54.8015724  55.9876626   3.5803848  53.9979703
  55.4068155   1.1570534  31.4544311  56.2687319   1.4825433  31.7140128
  55.5918499   0.3702030  30.9417376  47.4235571   9.2392874  43.7324499
  46.7299042   8.8246827  43.2194454  48.1708562   9.2813411  43.1357918
  63.5600792   0.0299061  38.5979534  62.9799461   0.6883865  38.2157586
  63.2936724  -0.7923594  38.1866951  62.0104358  -0.5695881  40.8000854
  62.5104136  -0.4579347  39.9915173  62.6539966  -0.8734829  41.4401662
  56.0686354   7.3382748  53.6868695  55.5853436   8.1383108  53.8932584
  56.1547293   7.3490693  52.7336139  49.3372313   9.1711128  41.6090514
  49.3143002   9.2698815  40.6572397  49.6472950  10.0176279  41.9307680
  51.9959691  11.2287283  45.7237129  52.9502945  11.1971225  45.6567060
  51.7972215  10.7677907  46.5387355  52.5859073   9.7988399  48.2907926
  53.4051962  10.2932478  48.3142764  52.8595881   8.8820367  48.2625494
  62.3425670   2.1899151  37.6535882  61.4551525   2.4748802  37.4356077
  62.7579659   2.0292915  36.8063159  65.6940206   2.2145672  41.3690221
  66.4700596   2.7042125  41.6414838  64.9688340   2.6403726  41.8262091
  68.1312764   2.9273292  42.4264162  68.7257255   2.6869027  41.7157470
  68.2039348   2.2080422  43.0537698  50.3509920  16.7706902  42.7407326
  50.2164388  16.0107303  42.1745325  49.9341982  17.4947802  42.2736115
  61.4868883  11.9543826  31.7483902  62.1904733  12.1593828  32.3641557
  60.7631532  12.5220588  32.0132985  62.3166693   7.7053687  37.8686172
  62.2601895   8.1622239  37.0293804  62.8695036   6.9444372  37.6909015
  66.1271499   3.4943419  38.6936291  65.8708434   3.0940055  39.5244499
  65.5024367   4.2087213  38.5686431  70.4383837   6.2339492  41.2007583
  69.8783395   6.3032682  41.9739145  69.8327341   6.0580477  40.4807079
  53.5079046  17.6676219  42.9525769  53.3911430  18.6121652  42.8504459
  52.6871492  17.3649781  43.3411568  63.3955581  12.3926355  33.7982362
  64.2301184  11.9607554  33.6159837  63.2339923  12.2208369  34.7259256
  63.0501473   8.8958468  35.1638701  62.9950276   8.7302740  34.2227145
  62.4247528   9.6034501  35.3200891  47.8393988   4.1326533  48.9900123
  48.4852851   3.6225487  49.4787349  47.6311139   4.8695215  49.5643549
  60.3647380  11.2007380  54.4892264  61.2338540  11.3748033  54.1278899
  59.8854131  12.0201797  54.3667993  56.3597598  -1.6033422  34.7424020
  56.3476268  -0.6591583  34.8992290  57.2521020  -1.7863277  34.4483481
  54.5333560  18.3204481  46.1681698  55.4360807  18.3528092  46.4848193
  54.3070930  17.3904932  46.1828033  56.2887162  17.0735468  42.8291776
  55.3382793  17.0737330  42.7156148  56.5919648  16.3268202  42.3127811
  60.1749718  -5.0090646  38.9969956  59.4082113  -5.5632159  39.1426639
  60.5860423  -4.9368777  39.8584108  52.1791479   1.2794150  53.0875138
  53.0422940   0.9230955  53.2978462  51.6056889   0.9408045  53.7750542
  72.0239856  22.9096006  43.8937539  72.6618266  22.7902754  43.1900879
  71.9060698  23.8576850  43.9525491  68.8329562  22.8623434  43.8299063
  68.4948073  22.7464499  42.9419598  69.7019330  22.4614599  43.8100069
  64.6916378  24.7158911  39.8195954  64.1281243  24.6248848  39.0512242
  64.5768773  23.8958815  40.2998447  69.3149345  24.0158286  49.7885269
  69.3037986  23.6211084  48.9165772  69.4769984  23.2824359  50.3819040
  62.2380810  26.2110102  42.6580175  63.0302101  25.8700927  42.2426474
  62.4777460  26.3205077  43.5782328  70.2715936  28.3829879  35.1310419
  69.6203916  28.9683959  34.7444433  71.0660299  28.9136073  35.1905457
  64.1971563  25.4719016  35.5297553  64.9702439  24.9248003  35.3910429
  64.5496962  26.3363265  35.7412015  66.0356606  26.7995398  48.7364453
  65.7446472  27.7041029  48.6211119  66.6713590  26.8411926  49.4508522
  66.9612813  24.1772246  45.3265812  67.5576385  23.9528269  44.6122775
  67.0187784  23.4356992  45.9291260  66.5337841  21.6311682  33.1616003
  66.7863362  21.1093203  32.3999466  65.5962400  21.4677827  33.2642687
  71.5781124  20.6347460  40.9690747  72.3644213  20.2166883  40.6181164
  71.8419828  21.5393552  41.1372395  71.7491201  26.0720310  35.6679403
  71.1137034  26.1454937  36.3800308  71.4188608  26.6613909  34.9898483
  76.9789551  20.5722693  41.8723725  77.7114723  20.0021910  42.1061555
  76.2228907  20.1844294  42.3130231  66.2534130  23.5339788  35.3640378
  66.1370388  22.8584691  36.0321463  66.3636390  23.0472162  34.5472531
  68.5965671  22.9949935  39.0687068  68.2323878  22.4680556  39.7799989
  69.4532787  22.6048404  38.8953553  74.5014972  14.2844267  46.3318334
  74.1698296  15.1539678  46.1079549  73.9060585  13.9680551  47.0112364
  68.2371158  18.0239835  34.0648416  68.4045560  18.8920071  34.4318887
  68.0468327  18.1867116  33.1409705  70.9946491  26.4856813  45.7314246
  70.6947214  27.3881852  45.6230054  70.6497551  26.2188997  46.5835399
  64.4458973  22.9370610  41.7650951  63.5209469  22.8046824  41.9728643
  64.6943386  23.7164830  42.2620893  74.3943635  19.0039354  43.4111684
  73.4860512  18.9354762  43.1170445  74.3431231  19.4811299  44.2393509
  68.2160379  20.4797492  35.0495083  68.0960004  20.9254543  35.8880563
  67.5212967  20.8282810  34.4908621  61.8067784  22.5803884  42.5994740
  61.9360165  22.8338363  43.5134152  61.1265235  23.1731592  42.2799395
  65.9767271  33.2501134  38.6985214  65.8991301  34.2008959  38.7773695
  65.3728914  32.9047006  39.3560140  68.4684501  20.4228999  51.3546581
  67.6917835  20.9822919  51.3449446  69.1075064  20.9085782  51.8761451
  76.2605281  17.2055792  45.1889558  75.6179662  17.4988325  44.5429352
  75.7560210  17.0908712  45.9942754  73.9145445  20.9518965  35.8775417
  74.8263301  21.1846352  35.7023115  73.4055092  21.5356009  35.3150496
  66.7230873  23.2314453  50.9164548  67.4645557  23.7699497  50.6399372
  66.0167858  23.8580741  51.0736100  72.1986213  25.3743593  49.5136710
  72.6069569  24.9326004  48.7691342  71.4763474  24.7996221  49.7670902
  68.5517283  20.3116200  46.8870267  69.3978478  20.7355613  47.0304916
  68.4915920  19.6549824  47.5808830  72.5215027  25.9344784  43.2688998
  71.8923890  26.0990498  42.5665066  72.1340689  26.3486393  44.0399962
  76.4004259  26.8699222  40.6233362  75.7155297  27.2498123  40.0730396
  76.4848108  27.4794548  41.3565310  71.7016728  17.9720568  48.5451440
  71.4577660  18.7262629  48.0085716  71.9776659  18.3505916  49.3798687
  73.6555191  24.5159181  47.2228706  73.8672086  25.1590940  46.5463087
  73.6084939  23.6821497  46.7550636  71.2581420  17.1277001  44.1265278
  70.3965899  17.4258255  44.4182015  71.2843854  17.3447400  43.1946311
  68.0742989  25.6719192  40.5339084  68.5381335  25.9506895  39.7443706
  67.8099787  24.7702636  40.3512174  64.9667070  25.2190673  43.4718847
  65.5368427  25.6477942  42.8336331  65.5575182  24.9373258  44.1703032
  67.0111875  21.7942344  37.3428649  67.7135919  22.2463388  37.8102575
  66.6792504  21.1526163  37.9708542  65.4592237  20.3854101  51.7179858
  64.8290897  21.0670382  51.9515255  65.3528325  20.2737182  50.7732996
  60.7537209  20.0525897  42.6445782  59.9636263  20.3083425  42.1685893
  61.2448457  20.8674235  42.7497823  74.7701019  27.3931136  45.3951063
  75.5918462  26.9911323  45.1133745  74.7663422  27.2899370  46.3467179
  62.7051955  20.4170476  39.6029259  61.9083118  20.5289170  40.1212755
  62.4777547  20.7557128  38.7370149  68.5357622  26.9415179  47.5511774
  68.6002055  27.4035586  48.3869945  67.8268546  26.3112544  47.6794083
  59.0374912  20.3056387  45.0760773  59.2882951  21.1903397  45.3418349
  59.5734461  20.1260989  44.3035865  82.8607012  23.7369884  41.7436035
  82.1070720  23.1677283  41.5880039  82.9954553  23.7032549  42.6906669
  68.2505640  28.6083287  37.4190754  68.1151315  29.4534822  37.8475602
  68.7915452  28.8102564  36.6556688  64.7372979  14.6874867  54.0805109
  64.3439925  14.1341065  54.7552753  65.5539120  14.9985445  54.4711627
  61.7035037  26.1258725  37.9918679  62.2159558  26.9201975  38.1424244
  62.3557750  25.4285015  37.9252280  63.5129922  29.2424481  40.0741432
  63.6896550  30.1642446  39.8862416  64.3086755  28.9282900  40.5035812
  67.6540940  16.1032746  51.6725366  68.3950654  16.7039899  51.5929828
  67.8858863  15.3610383  51.1143408  62.7982278  21.2889113  49.9503595
  62.6835794  20.3874370  50.2510694  61.9426796  21.5352810  49.5988412
  69.8774116  29.2306853  51.5491096  69.4337970  28.4443232  51.2312000
  70.5391330  29.4186004  50.8834987  64.6361237  30.7602655  46.0751774
  65.1868662  30.6319718  45.3028768  63.7972713  31.0597544  45.7246667
  71.9755354  29.5109653  49.5772497  71.9573830  30.3318534  49.0852766
  72.8975274  29.3863728  49.8022638  68.4328408  27.0253783  50.4196006
  68.9656745  26.2642071  50.1895314  67.9042490  26.7327434  51.1620160
  71.5998103  12.1313849  45.9489647  71.2562373  13.0215490  45.8728758
  71.9677066  11.9415506  45.0859232  59.6683954  24.4547379  38.7678250
  60.5059176  24.8644387  38.5511957  59.8462222  23.5146821  38.7378443
  71.5648386  22.1222460  34.4562082  71.0495010  22.8927064  34.6950470
  71.2925695  21.4487596  35.0795144  69.1495497  16.9672161  39.5147321
  68.2937093  16.5779011  39.3352960  69.5622449  17.0464121  38.6547106
  70.6794644  14.5018504  43.9138881  70.1759439  14.4648639  43.1006686
  70.9725251  15.4111247  43.9735537  66.9237530  14.5857234  42.9205062
  67.7890526  14.3900042  42.5610952  66.9915039  14.3567585  43.8474419
  76.5382660  24.8754814  36.3915256  75.7612103  24.5365974  35.9470418
  77.2174141  24.8807438  35.7170221  71.3534689  19.9949552  36.2821864
  71.0484825  20.3095701  37.1332007  72.3065131  20.0730972  36.3249197
  69.7981121  26.1539775  37.9314818  69.2702483  25.4192535  37.6188055
  69.2968624  26.9314451  37.6854786  74.7773967  24.3488796  43.0481864
  74.1197642  25.0388057  43.1361993  75.5814366  24.7385228  43.3915850
  64.5299849  16.8159441  40.2921429  65.1043601  16.5934623  39.5594622
  65.1170831  16.8848136  41.0450030  73.5879426  22.7033168  41.0985806
  74.1011308  23.3363160  41.6007515  74.2380650  22.1034364  40.7329166
  64.8569436  18.8463902  34.3117314  64.0206748  19.1838589  34.6326589
  64.7174205  18.7112882  33.3744451  66.8322516  13.6900690  39.0196499
  66.1786929  13.3749708  38.3953113  66.7902991  13.0676431  39.7456322
  67.9433721  23.9719985  30.9349791  67.0360783  23.7409239  31.1340940
  68.4404753  23.1757605  31.1223772  70.8501800  32.6817493  33.8546477
  70.1763499  32.9849189  34.4631435  71.2367622  33.4846573  33.5051934
  70.0660257  20.1782624  43.3444146  69.1482818  20.3997571  43.1865834
  70.4820400  20.2528934  42.4855854  70.8495305  21.5774040  38.4746826
  71.5967124  22.0895437  38.1653949  71.1186894  21.2558092  39.3351220
  69.1221955  24.0732580  35.4573781  68.2133174  23.7891613  35.5546251
  69.1517039  24.4931659  34.5977088  74.3541222  27.6839170  39.2264948
  73.9003549  26.8430080  39.2830139  73.7235189  28.3200568  39.5639728
  73.2974142  18.6131156  40.4565616  72.5596899  18.1008542  40.7875858
  73.5500915  18.1731537  39.6448893  72.7974161  29.5215666  40.1614766
  73.0897136  30.0820724  39.4427132  73.3072782  29.8144227  40.9167926
  73.3985769  11.3907408  41.0507385  73.7044646  10.5304771  40.7633300
  74.1238374  11.9825028  40.8506379  59.6910125  21.7938094  39.4388983
  59.4934525  21.2007455  38.7140050  59.1356789  21.4890305  40.1564922
  67.6706849  21.6861201  41.5583576  67.7255459  20.7335037  41.4826053
  66.8598051  21.8420640  42.0424875  68.8198043  25.6141324  32.7961859
  68.3817472  24.8977183  32.3367497  69.5608483  25.8417439  32.2346951
  65.6099209  20.3038261  39.3173955  64.7967074  20.6032431  39.7239147
  66.1058203  19.9093949  40.0348437  67.7607787  30.2996018  41.2508220
  67.7183965  30.5256864  40.3216752  68.6770485  30.0659392  41.3994021
  71.2073420  20.7680085  48.1488849  71.5622808  20.9951558  49.0083315
  71.8545552  21.0998462  47.5266104  76.9371157  23.8898521  38.8538178
  76.7989056  24.0800117  37.9259367  76.5807376  24.6517904  39.3106229
  65.1013283  17.8756616  44.9335190  65.7412663  17.7345375  44.2358153
  64.2690814  17.5891130  44.5573792  76.9640537  25.9575048  43.8649449
  77.3977044  25.8650337  44.7132503  77.6772118  25.9332548  43.2269465
  65.8773587  27.1759047  41.0470182  66.6714186  26.6809367  40.8452757
  65.1665280  26.6476910  40.6837888  70.6968432  29.5577142  45.3982550
  70.7505454  30.1268078  46.1660266  69.8283213  29.7279027  45.0336587
  62.1856351  21.3202128  37.1229935  61.2553939  21.2586584  37.3399897
  62.2813823  20.7978081  36.3266576  62.1041900  17.8456941  39.7108177
  62.3648717  18.7602274  39.6017337  62.9259072  17.3781384  39.8604790
  63.5766825  19.2594698  46.8807001  64.2489879  19.0512060  46.2319650
  62.7496612  19.0616784  46.4412234  77.8256087  25.9998749  46.3982335
  78.0191977  26.9044559  46.6441610  77.7256705  25.5406168  47.2320920
  69.4792397  15.8856639  48.8972662  68.8320312  16.5846589  48.8037139
  70.2493413  16.3192783  49.2648910  72.8871195  26.1505491  51.9723215
  72.7356702  25.9216043  51.0553299  72.8775875  27.1076093  51.9854560
  69.6556532  23.7237404  46.9569482  70.5848592  23.8748564  46.7838449
  69.2347562  23.8121425  46.1018128  68.4544863  27.7488069  44.7268019
  68.3155949  27.3806853  45.5993958  67.6659460  28.2635708  44.5551977
  69.0493015  32.8497165  36.0693556  69.2244771  32.3785208  36.8839179
  68.3625803  33.4762931  36.2974817  70.0050079  27.1269671  42.1156857
  69.6699911  27.0870441  43.0114507  69.5054024  26.4614387  41.6427267
  63.9794322  22.5337301  47.6409438  63.8414120  21.8017540  48.2420977
  64.8899246  22.4446201  47.3593626  72.9409270  24.4725706  32.3893917
  72.3238441  23.7472534  32.2926970  72.4725759  25.2335066  32.0460991
  66.6076623  22.2457261  47.1293118  67.3176242  21.6050453  47.0879736
  66.5645931  22.4970155  48.0519299  74.5963402  29.1824614  50.0499697
  74.5375948  28.4983834  49.3830280  74.9982920  29.9243604  49.5980323
  65.3205557  19.2322478  48.9488758  64.7842914  18.7813217  49.6010354
  64.7322266  19.3668387  48.2059222  63.6154101  35.9986528  42.8433416
  63.8550699  36.6305052  43.5212435  62.7723297  35.6474568  43.1298775
  64.7307816  18.6911130  31.5115221  63.8537282  18.5699931  31.1477468
  65.2065569  17.8997208  31.2594110  74.5980809  27.1464198  48.2813677
  73.7107588  26.8090120  48.4040076  75.1679360  26.4147229  48.5182442
  56.2509956  23.4788290  41.6056728  56.9380996  23.1650020  41.0177744
  56.0958085  24.3829654  41.3323980  61.0544678  18.3678486  46.0341752
  60.9702867  17.7604156  45.2992162  60.2327385  18.8587505  46.0351248
  68.1281962  31.8065650  45.2474920  68.0552134  32.6120622  45.7594225
  67.6859356  32.0057616  44.4222942  67.9171742  31.0437420  38.7577742
  67.1339264  31.5859100  38.8515966  68.6164487  31.5611400  39.1571983
  71.2268392  16.8532050  41.4011947  71.7237092  16.1002012  41.0813017
  70.4555374  16.8896366  40.8355156  79.0798150  22.5572415  43.0430239
  79.0688026  23.4397131  42.6724172  78.2115529  22.2043966  42.8484776
  70.5880646  31.7052484  47.4033079  71.3008618  32.3399949  47.3308980
  70.0970675  31.8016350  46.5873081  72.3098173  25.6103737  38.9750370
  71.3754452  25.7305199  38.8055075  72.4874841  24.7076204  38.7110380
  67.8103361  18.9949433  41.1283632  67.4401148  18.4420473  41.8164537
  68.3062453  18.3907566  40.5758632  75.6970724  21.4521056  39.5100405
  76.1631176  22.2849048  39.4360707  76.1478225  20.9866038  40.2145663
  65.6392560  29.4546928  48.2238650  66.3402019  30.0883411  48.3768044
  65.1687675  29.7961659  47.4634289  73.7646955  27.7964878  36.5086557
  74.0406799  27.6821472  37.4180431  72.8951454  27.3982362  36.4698730
  73.6687387  13.8201643  43.5491306  72.7550467  14.0505870  43.7173513
  74.0980488  13.9040087  44.4005338  73.4393846  22.0091535  46.0491200
  72.7865296  22.2567443  45.3943653  73.8174225  21.1955673  45.7153677
  70.4001019  32.0451228  40.1519370  70.5823414  31.2272884  40.6147123
  71.2234005  32.2618921  39.7144260  70.7343185  30.9719413  37.4134419
  71.2630951  30.4611868  36.8004581  70.9971404  30.6561944  38.2779952
  69.4881419  22.7511346  52.5357237  68.8122056  22.6505476  53.2059612
  70.3109052  22.5950560  52.9993234  61.2360278  28.9883283  45.1569752
  61.8213714  28.2426971  45.2897657  61.0385116  29.2987239  46.0406416
  64.0898933  32.0234530  40.1732195  63.4209308  32.5080658  39.6896235
  63.9511803  32.2703751  41.0875573  55.8277932  21.5588883  43.8774195
  55.8662032  21.0252474  44.6711314  55.3218225  21.0324089  43.2585173
  68.2304201  34.0578274  46.7714853  68.7822509  34.2209895  47.5363938
  68.5710395  34.6482712  46.0994878  63.2068695  16.4053423  47.3736738
  63.2710021  17.2668254  46.9614135  63.1435815  15.7927425  46.6409096
  62.6820967  18.4776556  51.0209772  63.3093006  18.0953633  51.6347296
  61.8248886  18.2590758  51.3865465  73.0815076  28.8839531  52.6263507
  73.6254980  29.4969489  52.1318462  72.5001921  29.4419110  53.1430521
  59.4586510  20.2852985  36.9528127  59.7539951  19.3763664  36.8995181
  58.5574546  20.2640725  36.6309129  71.3672589  32.0060249  43.7578535
  71.2423728  31.2049989  43.2489481  72.0251680  32.5006443  43.2692505
  62.9880757  18.3608982  42.9355675  62.2667343  18.9744949  42.7963149
  63.7774013  18.8966747  42.8572321  73.4307497  29.8069269  45.3858085
  72.4837833  29.6874620  45.3136412  73.7790270  28.9191767  45.4684347
  65.7907070  15.6963408  49.2096327  66.3141472  15.9425705  49.9722637
  65.5719404  16.5283443  48.7899465  61.1874352  17.9667083  37.0767452
  60.8587058  17.0864462  36.8942558  61.5413722  17.9114751  37.9643841
  70.4353930  29.6021986  41.5862438  70.2878893  28.6738693  41.7670008
  71.2607424  29.6242076  41.1019513  64.3016175  18.2540053  37.4442930
  64.6412247  18.7825974  36.7221538  64.7488295  18.5920459  38.2201496
  74.0388052  30.4250544  42.6727310  74.9634600  30.2193406  42.5351761
  73.8703356  30.1766945  43.5816652  66.9959615  16.6377103  46.8945998
  66.6556436  15.8384916  47.2966678  66.2898622  16.9378814  46.3222831
  67.6476087  13.7226416  45.3473321  68.4702157  13.2486894  45.2252211
  67.8914151  14.5016900  45.8472007  66.2884322  16.7514674  35.6436222
  67.0092684  17.1295927  35.1399939  65.6649626  17.4703551  35.7471200
  70.4315445  17.4559823  36.5794555  70.6479059  18.3384461  36.2783383
  69.9509512  17.0646037  35.8500197  65.1714666  20.4145536  43.1565299
  65.0259247  20.7285839  44.0489581  64.6939870  21.0330437  42.6036198
  67.0311049  17.4048084  43.2046189  67.0172618  16.5089178  42.8678487
  67.7483477  17.4118748  43.8384475  68.8837180  17.8385425  45.2499316
  68.6254957  18.7602495  45.2483647  68.3522220  17.4415859  45.9399781
  73.8283368  30.9436212  38.0289402  74.0020246  30.3782634  37.2763254
  74.3212260  31.7437107  37.8468892  59.6460328  22.9550881  46.0952961
  59.1013796  23.7310689  46.2273235  60.5239678  23.3021685  45.9372082
  66.4347945  16.2862465  38.4733759  66.5563856  15.3579111  38.6724647
  66.1449987  16.3001151  37.5612075  69.3039135  13.9717375  41.6100479
  69.3260832  14.0356708  40.6552458  69.7207194  13.1321884  41.8040985
  79.6822760  23.7072635  39.6479701  80.1253906  22.9579960  39.2498825
  78.8049270  23.6982771  39.2653433  74.8158541  30.2602976  35.1286300
  75.5109446  30.8809669  35.3473615  75.1581691  29.4098327  35.4038678
  60.4326350  22.0820777  48.9883117  59.6908086  22.2303412  49.5747748
  60.1119094  22.3429043  48.1249867  76.7149964  27.7102682  36.6573631
  77.2401288  28.0489954  35.9322951  76.6272317  26.7749697  36.4736765
  68.3770013  31.6236755  48.7863507  68.6857139  31.3785902  49.6586207
  69.1745495  31.8283394  48.2982378  68.3990625  33.7774665  41.0168884
  67.9595615  33.2851044  41.7101741  69.1498742  33.2347633  40.7760959
  60.8782964  29.9686206  41.0193512  61.7040984  29.6689978  40.6392156
  60.5277016  29.1993828  41.4683301  65.8464497  29.3212674  43.0891186
  65.2244506  28.6583379  42.7893414  66.5169364  29.3473806  42.4064833
  59.0791569  27.8872532  41.9782446  58.2423477  27.4594707  41.7966447
  59.0515214  28.0804976  42.9153237  65.9189024  17.7994462  52.6823692
  65.9677180  18.6756585  52.3001461  66.4611539  17.2571855  52.1095335
  76.4043870  28.3435585  51.9624829  75.6139414  28.3259724  51.4229328
  76.1677225  28.8823879  52.7173865  76.5241745  25.1928052  49.2757557
  76.5739750  25.0278059  50.2173080  76.4155668  24.3255311  48.8855438
  65.4078004  27.8716597  36.5649646  65.5566124  28.5552062  35.9116319
  66.2144447  27.8521687  37.0799102  73.8145508  21.1758980  50.5916864
  74.7155370  21.0365445  50.3000862  73.8893482  21.3413435  51.5315041
  68.1488313  18.5525834  49.4370050  67.2791622  18.8459400  49.1652639
  68.3847793  19.1366279  50.1577314  78.0259942  27.6124993  49.5199579
  77.7344750  27.9754974  50.3563040  77.4132073  26.8992001  49.3412911
  79.2255624  25.1777873  42.0402149  80.0602516  25.6167677  42.2039709
  79.3614753  24.7016526  41.2210395  76.2747130  22.7357608  47.9879637
  76.7501252  22.9285254  47.1798488  75.3512696  22.7916794  47.7423020
  63.1630637  23.8981775  37.5710715  62.9176679  22.9944105  37.7690925
  63.3326551  23.8998925  36.6290193  70.8527347  14.7705451  46.9535471
  71.3709291  15.5066478  46.6281959  70.4982479  15.0769445  47.7882230
  62.4326284  19.6310133  35.0696877  61.7395529  19.7054488  34.4136913
  62.1878036  18.8670476  35.5918393  71.1039941  11.1905734  42.4736367
  71.3841695  10.5228923  43.0996794  71.8890548  11.3834829  41.9611031
  68.9073409  30.3664728  34.0361394  68.3347376  30.9854915  33.5831865
  69.4806203  30.9164089  34.5701316  74.9748799  19.6123368  46.2207942
  75.9266222  19.7121466  46.2420166  74.8052250  18.8201636  46.7306027
  72.9963179  16.6978951  46.4067343  72.4013111  16.9783964  45.7113832
  72.7112875  17.1872852  47.1784084  72.1270669  30.6501878  35.1669976
  73.0601342  30.5847440  35.3702851  72.0393882  31.4858145  34.7084509
  74.7558686  29.9667748  32.1273923  74.6772317  29.6327612  33.0209681
  75.5768353  30.4589516  32.1265396  77.4536877  22.8329488  45.3350242
  77.4213197  21.8945488  45.5209926  78.0637501  22.9113524  44.6016067
  69.2920208  21.7025541  31.3777446  70.2379313  21.5731749  31.4465864
  68.9134453  20.9640202  31.8546874  77.6031365  19.6240531  45.3808525
  77.0870414  18.8398988  45.1938454  78.4871314  19.2959248  45.5455045
  75.2642092  13.3681547  41.3404338  75.0666914  13.0596635  42.2247670
  75.8741798  14.0943185  41.4702268  83.2713427  23.8945494  44.4756279
  84.0016815  23.6330783  45.0363982  82.6620372  23.1574216  44.5158347
  81.3528724  22.0353357  45.0730730  80.6261888  21.9009322  44.4647222
  80.9376011  22.3430186  45.8787448  69.1758900  25.7543287  52.8378103
  70.0961910  25.9321886  53.0318150  69.1408483  24.8099332  52.6857802
  67.4763125  19.6275517  31.3132331  66.5694580  19.3308630  31.3895045
  67.7539106  19.3305335  30.4466618  58.3941065  20.9481880  41.7631378
  58.0743850  20.0947189  41.4705752  57.8474494  21.1630458  42.5189345
  62.1720973  23.6644321  45.4800884  62.3906983  24.5961429  45.4988918
  62.5846747  23.3052296  46.2655688  69.0925191  14.1712407  37.4676573
  68.2825919  13.8259492  37.8431819  69.7809608  13.8619950  38.0564184
  71.0215739  13.2490453  39.0900869  71.5746778  13.6685907  39.7490892
  71.2585825  12.3226202  39.1323825  67.0448838  19.2377527  54.8703633
  66.9445565  20.1871884  54.8015724  66.8270380  18.9095766  53.9979703
  66.2461910  16.4862452  31.4544311  67.1081074  16.8117350  31.7140128
  66.4312254  15.6993948  30.9417376  58.2629325  24.5684792  43.7324499
  57.5692797  24.1538745  43.2194454  59.0102316  24.6105328  43.1357918
  74.3994546  15.3590979  38.5979534  73.8193215  16.0175783  38.2157586
  74.1330479  14.5368323  38.1866951  72.8498112  14.7596036  40.8000854
  73.3497891  14.8712571  39.9915173  73.4933720  14.4557089  41.4401662
  66.9080108  22.6674666  53.6868695  66.4247190  23.4675026  53.8932584
  66.9941047  22.6782611  52.7336139  60.1766068  24.5003046  41.6090514
  60.1536756  24.5990733  40.6572397  60.4866704  25.3468196  41.9307680
  62.8353446  26.5579201  45.7237129  63.7896699  26.5263143  45.6567060
  62.6365969  26.0969824  46.5387355  63.4252828  25.1280317  48.2907926
  64.2445717  25.6224395  48.3142764  63.6989636  24.2112285  48.2625494
  73.1819424  17.5191069  37.6535882  72.2945279  17.8040720  37.4356077
  73.5973413  17.3584832  36.8063159  76.5333960  17.5437590  41.3690221
  77.3094350  18.0334042  41.6414838  75.8082094  17.9695644  41.8262091
  78.9706519  18.2565209  42.4264162  79.5651010  18.0160945  41.7157470
  79.0433103  17.5372340  43.0537698  61.1903675  32.0998820  42.7407326
  61.0558143  31.3399221  42.1745325  60.7735737  32.8239720  42.2736115
  72.3262638  27.2835744  31.7483902  73.0298488  27.4885746  32.3641557
  71.6025286  27.8512506  32.0132985  73.1560448  23.0345605  37.8686172
  73.0995649  23.4914156  37.0293804  73.7088790  22.2736290  37.6909015
  76.9665254  18.8235337  38.6936291  76.7102188  18.4231972  39.5244499
  76.3418122  19.5379131  38.5686431  81.2777592  21.5631410  41.2007583
  80.7177150  21.6324599  41.9739145  80.6721095  21.3872395  40.4807079
  64.3472800  32.9968137  42.9525769  64.2305185  33.9413570  42.8504459
  63.5265247  32.6941699  43.3411568  74.2349335  27.7218273  33.7982362
  75.0694939  27.2899471  33.6159837  74.0733678  27.5500287  34.7259256
  73.8895227  24.2250386  35.1638701  73.8344031  24.0594658  34.2227145
  73.2641282  24.9326419  35.3200891  58.6787742  19.4618451  48.9900123
  59.3246606  18.9517405  49.4787349  58.4704893  20.1987132  49.5643549
  71.2041134  26.5299298  54.4892264  72.0732294  26.7039950  54.1278899
  70.7247886  27.3493715  54.3667993  67.1991353  13.7258495  34.7424020
  67.1870022  14.6700335  34.8992290  68.0914775  13.5428641  34.4483481
  65.3727315  33.6496399  46.1681698  66.2754561  33.6820009  46.4848193
  65.1464685  32.7196850  46.1828033  67.1280917  32.4027386  42.8291776
  66.1776548  32.4029247  42.7156148  67.4313403  31.6560120  42.3127811
  71.0143472  10.3201272  38.9969956  70.2475868   9.7659759  39.1426639
  71.4254177  10.3923141  39.8584108  63.0185233  16.6086068  53.0875138
  63.8816695  16.2522872  53.2978462  62.4450644  16.2699962  53.7750542
  82.8633610  38.2387924  43.8937539  83.5012020  38.1194671  43.1900879
  82.7454453  39.1868768  43.9525491  79.6723316  38.1915352  43.8299063
  79.3341828  38.0756417  42.9419598  80.5413085  37.7906517  43.8100069
  75.5310132  40.0450828  39.8195954  74.9674997  39.9540765  39.0512242
  75.4162527  39.2250733  40.2998447  80.1543099  39.3450204  49.7885269
  80.1431740  38.9503002  48.9165772  80.3163739  38.6116276  50.3819040
  73.0774564  41.5402020  42.6580175  73.8695856  41.1992845  42.2426474
  73.3171214  41.6496995  43.5782328  81.1109691  43.7121796  35.1310419
  80.4597671  44.2975877  34.7444433  81.9054054  44.2427991  35.1905457
  75.0365318  40.8010933  35.5297553  75.8096194  40.2539920  35.3910429
  75.3890717  41.6655183  35.7412015  76.8750361  42.1287316  48.7364453
  76.5840226  43.0332946  48.6211119  77.5107345  42.1703843  49.4508522
  77.8006567  39.5064164  45.3265812  78.3970140  39.2820187  44.6122775
  77.8581539  38.7648910  45.9291260  77.3731596  36.9603599  33.1616003
  77.6257116  36.4385121  32.3999466  76.4356155  36.7969745  33.2642687
  82.4174879  35.9639378  40.9690747  83.2037968  35.5458801  40.6181164
  82.6813583  36.8685470  41.1372395  82.5884956  41.4012228  35.6679403
  81.9530789  41.4746855  36.3800308  82.2582362  41.9905827  34.9898483
  87.8183306  35.9014611  41.8723725  88.5508478  35.3313828  42.1061555
  87.0622661  35.5136211  42.3130231  77.0927885  38.8631705  35.3640378
  76.9764143  38.1876609  36.0321463  77.2030144  38.3764079  34.5472531
  79.4359425  38.3241853  39.0687068  79.0717633  37.7972473  39.7799989
  80.2926541  37.9340322  38.8953553  85.3408726  29.6136185  46.3318334
  85.0092051  30.4831596  46.1079549  84.7454339  29.2972469  47.0112364
  79.0764912  33.3531752  34.0648416  79.2439315  34.2211989  34.4318887
  78.8862081  33.5159034  33.1409705  81.8340246  41.8148731  45.7314246
  81.5340969  42.7173770  45.6230054  81.4891305  41.5480914  46.5835399
  75.2852727  38.2662528  41.7650951  74.3603224  38.1338742  41.9728643
  75.5337140  39.0456747  42.2620893  85.2337389  34.3331271  43.4111684
  84.3254267  34.2646680  43.1170445  85.1824985  34.8103216  44.2393509
  79.0554133  35.8089410  35.0495083  78.9353758  36.2546460  35.8880563
  78.3606722  36.1574727  34.4908621  72.6461538  37.9095802  42.5994740
  72.7753919  38.1630280  43.5134152  71.9658989  38.5023510  42.2799395
  76.8161025  48.5793051  38.6985214  76.7385055  49.5300877  38.7773695
  76.2122669  48.2338924  39.3560140  79.3078255  35.7520917  51.3546581
  78.5311589  36.3114837  51.3449446  79.9468818  36.2377700  51.8761451
  87.0999036  32.5347710  45.1889558  86.4573416  32.8280243  44.5429352
  86.5953964  32.4200630  45.9942754  84.7539199  36.2810883  35.8775417
  85.6657056  36.5138270  35.7023115  84.2448847  36.8647927  35.3150496
  77.5624627  38.5606370  50.9164548  78.3039312  39.0991414  50.6399372
  76.8561613  39.1872659  51.0736100  83.0379967  40.7035511  49.5136710
  83.4463323  40.2617921  48.7691342  82.3157229  40.1288138  49.7670902
  79.3911037  35.6408117  46.8870267  80.2372232  36.0647531  47.0304916
  79.3309675  34.9841742  47.5808830  83.3608782  41.2636701  43.2688998
  82.7317644  41.4282415  42.5665066  82.9734444  41.6778311  44.0399962
  87.2398014  42.1991139  40.6233362  86.5549052  42.5790041  40.0730396
  87.3241863  42.8086466  41.3565310  82.5410482  33.3012486  48.5451440
  82.2971414  34.0554546  48.0085716  82.8170413  33.6797833  49.3798687
  84.4948945  39.8451098  47.2228706  84.7065840  40.4882858  46.5463087
  84.4478694  39.0113415  46.7550636  82.0975174  32.4568919  44.1265278
  81.2359653  32.7550172  44.4182015  82.1237609  32.6739318  43.1946311
  78.9136744  41.0011109  40.5339084  79.3775089  41.2798812  39.7443706
  78.6493542  40.0994554  40.3512174  75.8060825  40.5482591  43.4718847
  76.3762182  40.9769859  42.8336331  76.3968937  40.2665176  44.1703032
  77.8505630  37.1234262  37.3428649  78.5529673  37.5755305  37.8102575
  77.5186258  36.4818081  37.9708542  76.2985991  35.7146018  51.7179858
  75.6684652  36.3962299  51.9515255  76.1922079  35.6029100  50.7732996
  71.5930964  35.3817814  42.6445782  70.8030018  35.6375343  42.1685893
  72.0842211  36.1966152  42.7497823  85.6094773  42.7223054  45.3951063
  86.4312217  42.3203241  45.1133745  85.6057176  42.6191288  46.3467179
  73.5445709  35.7462394  39.6029259  72.7476872  35.8581088  40.1212755
  73.3171301  36.0849046  38.7370149  79.3751377  42.2707097  47.5511774
  79.4395809  42.7327504  48.3869945  78.6662301  41.6404462  47.6794083
  69.8768667  35.6348305  45.0760773  70.1276705  36.5195315  45.3418349
  70.4128215  35.4552906  44.3035865  93.7000766  39.0661802  41.7436035
  92.9464475  38.4969200  41.5880039  93.8348307  39.0324467  42.6906669
  79.0899394  43.9375204  37.4190754  78.9545069  44.7826740  37.8475602
  79.6309207  44.1394482  36.6556688  75.5766734  30.0166784  54.0805109
  75.1833680  29.4632983  54.7552753  76.3932874  30.3277363  54.4711627
  72.5428792  41.4550642  37.9918679  73.0553312  42.2493893  38.1424244
  73.1951505  40.7576933  37.9252280  74.3523676  44.5716399  40.0741432
  74.5290305  45.4934363  39.8862416  75.1480510  44.2574818  40.5035812
  78.4934695  31.4324663  51.6725366  79.2344408  32.0331817  51.5929828
  78.7252618  30.6902301  51.1143408  73.6376033  36.6181031  49.9503595
  73.5229548  35.7166288  50.2510694  72.7820551  36.8644727  49.5988412
  80.7167871  44.5598771  51.5491096  80.2731725  43.7735149  51.2312000
  81.3785084  44.7477921  50.8834987  75.4754992  46.0894573  46.0751774
  76.0262417  45.9611636  45.3028768  74.6366468  46.3889462  45.7246667
  82.8149109  44.8401571  49.5772497  82.7967584  45.6610452  49.0852766
  83.7369029  44.7155646  49.8022638  79.2722163  42.3545700  50.4196006
  79.8050500  41.5933989  50.1895314  78.7436244  42.0619352  51.1620160
  82.4391858  27.4605766  45.9489647  82.0956127  28.3507408  45.8728758
  82.8070820  27.2707424  45.0859232  70.5077708  39.7839297  38.7678250
  71.3452930  40.1936305  38.5511957  70.6855976  38.8438739  38.7378443
  82.4042141  37.4514377  34.4562082  81.8888764  38.2218982  34.6950470
  82.1319449  36.7779514  35.0795144  79.9889252  32.2964078  39.5147321
  79.1330848  31.9070929  39.3352960  80.4016203  32.3756039  38.6547106
  81.5188398  29.8310421  43.9138881  81.0153194  29.7940557  43.1006686
  81.8119005  30.7403164  43.9735537  77.7631284  29.9149151  42.9205062
  78.6284281  29.7191960  42.5610952  77.8308793  29.6859503  43.8474419
  87.3776415  40.2046732  36.3915256  86.6005857  39.8657892  35.9470418
  88.0567896  40.2099355  35.7170221  82.1928444  35.3241470  36.2821864
  81.8878579  35.6387619  37.1332007  83.1458886  35.4022889  36.3249197
  80.6374876  41.4831693  37.9314818  80.1096237  40.7484452  37.6188055
  80.1362378  42.2606369  37.6854786  85.6167722  39.6780713  43.0481864
  84.9591396  40.3679975  43.1361993  86.4208121  40.0677145  43.3915850
  75.3693603  32.1451359  40.2921429  75.9437355  31.9226541  39.5594622
  75.9564586  32.2140054  41.0450030  84.4273180  38.0325086  41.0985806
  84.9405062  38.6655078  41.6007515  85.0774404  37.4326282  40.7329166
  75.6963190  34.1755820  34.3117314  74.8600503  34.5130507  34.6326589
  75.5567960  34.0404800  33.3744451  77.6716271  29.0192608  39.0196499
  77.0180683  28.7041625  38.3953113  77.6296745  28.3968348  39.7456322
  78.7827476  39.3011903  30.9349791  77.8754538  39.0701157  31.1340940
  79.2798508  38.5049522  31.1223772  81.6895555  48.0109410  33.8546477
  81.0157253  48.3141107  34.4631435  82.0761377  48.8138491  33.5051934
  80.9054011  35.5074542  43.3444146  79.9876573  35.7289489  43.1865834
  81.3214155  35.5820852  42.4855854  81.6889059  36.9065957  38.4746826
  82.4360878  37.4187354  38.1653949  81.9580649  36.5850010  39.3351220
  79.9615709  39.4024498  35.4573781  79.0526928  39.1183531  35.5546251
  79.9910793  39.8223577  34.5977088  85.1934977  43.0131087  39.2264948
  84.7397304  42.1721997  39.2830139  84.5628943  43.6492486  39.5639728
  84.1367896  33.9423073  40.4565616  83.3990653  33.4300460  40.7875858
  84.3894670  33.5023455  39.6448893  83.6367916  44.8507584  40.1614766
  83.9290890  45.4112641  39.4427132  84.1466536  45.1436145  40.9167926
  84.2379524  26.7199325  41.0507385  84.5438400  25.8596689  40.7633300
  84.9632128  27.3116946  40.8506379  70.5303880  37.1230012  39.4388983
  70.3328279  36.5299373  38.7140050  69.9750544  36.8182222  40.1564922
  78.5100603  37.0153119  41.5583576  78.5649213  36.0626955  41.4826053
  77.6991805  37.1712558  42.0424875  79.6591797  40.9433242  32.7961859
  79.2211227  40.2269101  32.3367497  80.4002238  41.1709356  32.2346951
  76.4492963  35.6330178  39.3173955  75.6360829  35.9324349  39.7239147
  76.9451957  35.2385867  40.0348437  78.6001541  45.6287935  41.2508220
  78.5577720  45.8548782  40.3216752  79.5164240  45.3951310  41.3994021
  82.0467175  36.0972003  48.1488849  82.4016563  36.3243476  49.0083315
  82.6939306  36.4290380  47.5266104  87.7764912  39.2190439  38.8538178
  87.6382810  39.4092035  37.9259367  87.4201131  39.9809821  39.3106229
  75.9407038  33.2048534  44.9335190  76.5806417  33.0637293  44.2358153
  75.1084569  32.9183047  44.5573792  87.8034291  41.2866966  43.8649449
  88.2370798  41.1942255  44.7132503  88.5165872  41.2624466  43.2269465
  76.7167342  42.5050964  41.0470182  77.5107940  42.0101284  40.8452757
  76.0059034  41.9768827  40.6837888  81.5362186  44.8869060  45.3982550
  81.5899209  45.4559996  46.1660266  80.6676968  45.0570945  45.0336587
  73.0250105  36.6494046  37.1229935  72.0947693  36.5878501  37.3399897
  73.1207577  36.1269999  36.3266576  72.9435654  33.1748859  39.7108177
  73.2042472  34.0894192  39.6017337  73.7652827  32.7073301  39.8604790
  74.4160580  34.5886616  46.8807001  75.0883633  34.3803978  46.2319650
  73.5890366  34.3908702  46.4412234  88.6649841  41.3290666  46.3982335
  88.8585731  42.2336477  46.6441610  88.5650459  40.8698085  47.2320920
  80.3186152  31.2148557  48.8972662  79.6714067  31.9138507  48.8037139
  81.0887167  31.6484701  49.2648910  83.7264950  41.4797409  51.9723215
  83.5750456  41.2507961  51.0553299  83.7169629  42.4368010  51.9854560
  80.4950286  39.0529322  46.9569482  81.4242346  39.2040481  46.7838449
  80.0741316  39.1413343  46.1018128  79.2938618  43.0779986  44.7268019
  79.1549704  42.7098771  45.5993958  78.5053214  43.5927626  44.5551977
  79.8886770  48.1789083  36.0693556  80.0638526  47.7077126  36.8839179
  79.2019558  48.8054849  36.2974817  80.8443833  42.4561589  42.1156857
  80.5093666  42.4162359  43.0114507  80.3447779  41.7906305  41.6427267
  74.8188077  37.8629219  47.6409438  74.6807875  37.1309458  48.2420977
  75.7293000  37.7738119  47.3593626  83.7803025  39.8017623  32.3893917
  83.1632195  39.0764451  32.2926970  83.3119513  40.5626984  32.0460991
  77.4470378  37.5749178  47.1293118  78.1569996  36.9342370  47.0879736
  77.4039686  37.8262073  48.0519299  85.4357156  44.5116532  50.0499697
  85.3769702  43.8275752  49.3830280  85.8376675  45.2535522  49.5980323
  76.1599312  34.5614396  48.9488758  75.6236669  34.1105135  49.6010354
  75.5716020  34.6960305  48.2059222  75.5701571  34.0203048  31.5115221
  74.6931037  33.8991848  31.1477468  76.0459324  33.2289126  31.2594110
  85.4374564  42.4756116  48.2813677  84.5501342  42.1382037  48.4040076
  86.0073115  41.7439147  48.5182442  67.0903711  38.8080207  41.6056728
  67.7774751  38.4941937  41.0177744  66.9351839  39.7121572  41.3323980
  71.8938433  33.6970404  46.0341752  71.8096622  33.0896073  45.2992162
  71.0721139  34.1879422  46.0351248  78.9675717  47.1357568  45.2474920
  78.8945888  47.9412539  45.7594225  78.5253110  47.3349534  44.4222942
  78.7565497  46.3729338  38.7577742  77.9733018  46.9151018  38.8515966
  79.4558242  46.8903318  39.1571983  82.0662147  32.1823967  41.4011947
  82.5630846  31.4293930  41.0813017  81.2949128  32.2188284  40.8355156
  89.9191904  37.8864333  43.0430239  89.9081780  38.7689048  42.6724172
  89.0509284  37.5335884  42.8484776  81.4274400  47.0344402  47.4033079
  82.1402373  47.6691867  47.3308980  80.9364429  47.1308268  46.5873081
  83.1491927  40.9395655  38.9750370  82.2148206  41.0597117  38.8055075
  83.3268596  40.0368121  38.7110380  78.6497115  34.3241350  41.1283632
  78.2794903  33.7712391  41.8164537  79.1456208  33.7199484  40.5758632
  86.5364479  36.7812974  39.5100405  87.0024931  37.6140965  39.4360707
  86.9871979  36.3157955  40.2145663  76.4786314  44.7838845  48.2238650
  77.1795774  45.4175328  48.3768044  76.0081429  45.1253577  47.4634289
  84.6040710  43.1256795  36.5086557  84.8800554  43.0113390  37.4180431
  83.7345209  42.7274280  36.4698730  84.5081141  29.1493561  43.5491306
  83.5944221  29.3797788  43.7173513  84.9374243  29.2332005  44.4005338
  84.2787600  37.3383453  46.0491200  83.6259050  37.5859360  45.3943653
  84.6567980  36.5247591  45.7153677  81.2394774  47.3743146  40.1519370
  81.4217168  46.5564802  40.6147123  82.0627760  47.5910838  39.7144260
  81.5736939  46.3011331  37.4134419  82.1024706  45.7903786  36.8004581
  81.8365159  45.9853861  38.2779952  80.3275173  38.0803264  52.5357237
  79.6515810  37.9797393  53.2059612  81.1502807  37.9242478  52.9993234
  72.0754032  44.3175200  45.1569752  72.6607469  43.5718888  45.2897657
  71.8778871  44.6279157  46.0406416  74.9292687  47.3526448  40.1732195
  74.2603063  47.8372575  39.6896235  74.7905557  47.5995668  41.0875573
  66.6671687  36.8880801  43.8774195  66.7055786  36.3544391  44.6711314
  66.1611980  36.3616006  43.2585173  79.0697956  49.3870191  46.7714853
  79.6216264  49.5501813  47.5363938  79.4104149  49.9774629  46.0994878
  74.0462449  31.7345341  47.3736738  74.1103776  32.5960172  46.9614135
  73.9829569  31.1219343  46.6409096  73.5214722  33.8068474  51.0209772
  74.1486760  33.4245551  51.6347296  72.6642641  33.5882676  51.3865465
  83.9208830  44.2131449  52.6263507  84.4648734  44.8261407  52.1318462
  83.3395675  44.7711027  53.1430521  70.2980264  35.6144903  36.9528127
  70.5933705  34.7055581  36.8995181  69.3968300  35.5932642  36.6309129
  82.2066343  47.3352167  43.7578535  82.0817483  46.5341907  43.2489481
  82.8645434  47.8298360  43.2692505  73.8274511  33.6900899  42.9355675
  73.1061097  34.3036867  42.7963149  74.6167767  34.2258664  42.8572321
  84.2701252  45.1361187  45.3858085  83.3231587  45.0166538  45.3136412
  84.6184025  44.2483685  45.4684347  76.6300825  31.0255326  49.2096327
  77.1535227  31.2717622  49.9722637  76.4113158  31.8575361  48.7899465
  72.0268106  33.2959000  37.0767452  71.6980812  32.4156379  36.8942558
  72.3807477  33.2406669  37.9643841  81.2747685  44.9313903  41.5862438
  81.1272647  44.0030611  41.7670008  82.1001178  44.9533994  41.1019513
  75.1409929  33.5831970  37.4442930  75.4806002  34.1117892  36.7221538
  75.5882050  33.9212376  38.2201496  84.8781807  45.7542462  42.6727310
  85.8028354  45.5485323  42.5351761  84.7097110  45.5058863  43.5816652
  77.8353370  31.9669021  46.8945998  77.4950190  31.1676834  47.2966678
  77.1292376  32.2670732  46.3222831  78.4869842  29.0518333  45.3473321
  79.3095911  28.5778812  45.2252211  78.7307905  29.8308817  45.8472007
  77.1278076  32.0806592  35.6436222  77.8486439  32.4587845  35.1399939
  76.5043380  32.7995469  35.7471200  81.2709199  32.7851741  36.5794555
  81.4872814  33.6676379  36.2783383  80.7903266  32.3937954  35.8500197
  76.0108421  35.7437454  43.1565299  75.8653001  36.0577757  44.0489581
  75.5333624  36.3622354  42.6036198  77.8704803  32.7340002  43.2046189
  77.8566372  31.8381095  42.8678487  78.5877232  32.7410666  43.8384475
  79.7230934  33.1677342  45.2499316  79.4648712  34.0894413  45.2483647
  79.1915975  32.7707777  45.9399781  84.6677123  46.2728129  38.0289402
  84.8414000  45.7074552  37.2763254  85.1606014  47.0729024  37.8468892
  70.4854083  38.2842798  46.0952961  69.9407551  39.0602606  46.2273235
  71.3633433  38.6313603  45.9372082  77.2741699  31.6154382  38.4733759
  77.3957611  30.6871029  38.6724647  76.9843742  31.6293068  37.5612075
  80.1432890  29.3009293  41.6100479  80.1654587  29.3648626  40.6552458
  80.5600949  28.4613801  41.8040985  90.5216514  39.0364552  39.6479701
  90.9647660  38.2871878  39.2498825  89.6443024  39.0274689  39.2653433
  85.6552295  45.5894894  35.1286300  86.3503200  46.2101586  35.3473615
  85.9975446  44.7390245  35.4038678  71.2720105  37.4112695  48.9883117
  70.5301841  37.5595330  49.5747748  70.9512849  37.6720960  48.1249867
  87.5543719  43.0394599  36.6573631  88.0795043  43.3781872  35.9322951
  87.4666071  42.1041615  36.4736765  79.2163767  46.9528673  48.7863507
  79.5250894  46.7077820  49.6586207  80.0139249  47.1575311  48.2982378
  79.2384379  49.1066583  41.0168884  78.7989370  48.6142961  41.7101741
  79.9892496  48.5639550  40.7760959  71.7176718  45.2978123  41.0193512
  72.5434738  44.9981895  40.6392156  71.3670770  44.5285746  41.4683301
  76.6858251  44.6504592  43.0891186  76.0638261  43.9875297  42.7893414
  77.3563118  44.6765724  42.4064833  69.9185323  43.2164450  41.9782446
  69.0817232  42.7886624  41.7966447  69.8908969  43.4096893  42.9153237
  76.7582779  33.1286380  52.6823692  76.8070934  34.0048503  52.3001461
  77.3005293  32.5863773  52.1095335  87.2437625  43.6727503  51.9624829
  86.4533168  43.6551642  51.4229328  87.0070979  44.2115797  52.7173865
  87.3635500  40.5219969  49.2757557  87.4133505  40.3569977  50.2173080
  87.2549423  39.6547228  48.8855438  76.2471758  43.2008515  36.5649646
  76.3959879  43.8843979  35.9116319  77.0538202  43.1813605  37.0799102
  84.6539262  36.5050897  50.5916864  85.5549125  36.3657362  50.3000862
  84.7287237  36.6705352  51.5315041  78.9882067  33.8817752  49.4370050
  78.1185377  34.1751318  49.1652639  79.2241548  34.4658197  50.1577314
  88.8653696  42.9416911  49.5199579  88.5738505  43.3046891  50.3563040
  88.2525828  42.2283919  49.3412911  90.0649379  40.5069791  42.0402149
  90.8996270  40.9459595  42.2039709  90.2008508  40.0308444  41.2210395
  87.1140885  38.0649525  47.9879637  87.5895006  38.2577172  47.1798488
  86.1906450  38.1208711  47.7423020  74.0024391  39.2273693  37.5710715
  73.7570433  38.3236023  37.7690925  74.1720306  39.2290843  36.6290193
  81.6921101  30.0997369  46.9535471  82.2103045  30.8358396  46.6281959
  81.3376234  30.4061362  47.7882230  73.2720039  34.9602050  35.0696877
  72.5789284  35.0346405  34.4136913  73.0271791  34.1962394  35.5918393
  81.9433695  26.5197652  42.4736367  82.2235449  25.8520841  43.0996794
  82.7284302  26.7126747  41.9611031  79.7467164  45.6956645  34.0361394
  79.1741131  46.3146833  33.5831865  80.3199958  46.2456007  34.5701316
  85.8142554  34.9415286  46.2207942  86.7659977  35.0413383  46.2420166
  85.6446004  34.1493554  46.7306027  83.8356933  32.0270869  46.4067343
  83.2406865  32.3075881  45.7113832  83.5506630  32.5164770  47.1784084
  82.9664424  45.9793796  35.1669976  83.8995097  45.9139357  35.3702851
  82.8787636  46.8150062  34.7084509  85.5952440  45.2959666  32.1273923
  85.5166072  44.9619530  33.0209681  86.4162107  45.7881434  32.1265396
  88.2930631  38.1621405  45.3350242  88.2606952  37.2237406  45.5209926
  88.9031255  38.2405442  44.6016067  80.1313962  37.0317458  31.3777446
  81.0773067  36.9023666  31.4465864  79.7528207  36.2932120  31.8546874
  88.4425120  34.9532449  45.3808525  87.9264169  34.1690905  45.1938454
  89.3265068  34.6251165  45.5455045  86.1035847  28.6973464  41.3404338
  85.9060668  28.3888552  42.2247670  86.7135552  29.4235103  41.4702268
  94.1107181  39.2237412  44.4756279  94.8410570  38.9622700  45.0363982
  93.5014127  38.4866134  44.5158347  92.1922478  37.3645275  45.0730730
  91.4655642  37.2301240  44.4647222  91.7769765  37.6722103  45.8787448
  80.0152655  41.0835204  52.8378103  80.9355664  41.2613803  53.0318150
  79.9802238  40.1391250  52.6857802  78.3156880  34.9567435  31.3132331
  77.4088335  34.6600547  31.3895045  78.5932861  34.6597253  30.4466618
  69.2334820  36.2773798  41.7631378  68.9137604  35.4239106  41.4705752
  68.6868248  36.4922376  42.5189345  73.0114727  38.9936239  45.4800884
  73.2300737  39.9253347  45.4988918  73.4240501  38.6344213  46.2655688
  79.9318945  29.5004324  37.4676573  79.1219674  29.1551409  37.8431819
  80.6203362  29.1911868  38.0564184  81.8609494  28.5782371  39.0900869
  82.4140532  28.9977825  39.7490892  82.0979580  27.6518119  39.1323825
  77.8842593  34.5669445  54.8703633  77.7839320  35.5163802  54.8015724
  77.6664135  34.2387684  53.9979703  77.0855664  31.8154370  31.4544311
  77.9474828  32.1409268  31.7140128  77.2706008  31.0285866  30.9417376
  69.1023080  39.8976709  43.7324499  68.4086551  39.4830662  43.2194454
  69.8496071  39.9397246  43.1357918  85.2388301  30.6882896  38.5979534
  84.6586970  31.3467700  38.2157586  84.9724233  29.8660241  38.1866951
  83.6891867  30.0887954  40.8000854  84.1891645  30.2004489  39.9915173
  84.3327475  29.7849007  41.4401662  77.7473863  37.9966584  53.6868695
  77.2640945  38.7966944  53.8932584  77.8334802  38.0074528  52.7336139
  71.0159822  39.8294963  41.6090514  70.9930511  39.9282651  40.6572397
  71.3260459  40.6760114  41.9307680  73.6747200  41.8871118  45.7237129
  74.6290454  41.8555061  45.6567060  73.4759724  41.4261742  46.5387355
  74.2646582  40.4572234  48.2907926  75.0839471  40.9516313  48.3142764
  74.5383390  39.5404202  48.2625494  84.0213179  32.8482987  37.6535882
  83.1339034  33.1332637  37.4356077  84.4367168  32.6876750  36.8063159
  87.3727715  32.8729508  41.3690221  88.1488105  33.3625960  41.6414838
  86.6475849  33.2987562  41.8262091  89.8100273  33.5857127  42.4264162
  90.4044764  33.3452863  41.7157470  89.8826857  32.8664257  43.0537698
  72.0297429  47.4290738  42.7407326  71.8951897  46.6691139  42.1745325
  71.6129491  48.1531638  42.2736115  83.1656392  42.6127661  31.7483902
  83.8692242  42.8177664  32.3641557  82.4419041  43.1804423  32.0132985
  83.9954202  38.3637523  37.8686172  83.9389404  38.8206074  37.0293804
  84.5482545  37.6028207  37.6909015  87.8059008  34.1527254  38.6936291
  87.5495943  33.7523890  39.5244499  87.1811876  34.8671048  38.5686431
  92.1171346  36.8923328  41.2007583  91.5570904  36.9616517  41.9739145
  91.5114849  36.7164312  40.4807079  85.0743089  43.0510191  33.7982362
  85.9088693  42.6191389  33.6159837  84.9127432  42.8792204  34.7259256
  84.7288982  39.5542304  35.1638701  84.6737785  39.3886575  34.2227145
  84.1035037  40.2618337  35.3200891  69.5181497  34.7910368  48.9900123
  70.1640360  34.2809322  49.4787349  69.3098648  35.5279050  49.5643549
  82.0434889  41.8591216  54.4892264  82.9126048  42.0331868  54.1278899
  81.5641640  42.6785633  54.3667993  78.0385107  29.0550413  34.7424020
  78.0263777  29.9992253  34.8992290  78.9308529  28.8720558  34.4483481
  77.9674671  47.7319303  42.8291776  77.0170302  47.7321165  42.7156148
  78.2707157  46.9852038  42.3127811  81.8537227  25.6493189  38.9969956
  81.0869622  25.0951676  39.1426639  82.2647932  25.7215058  39.8584108
  73.8578988  31.9377985  53.0875138  74.7210449  31.5814790  53.2978462
  73.2844398  31.5991880  53.7750542  93.7027365  53.5679842  43.8937539
  94.3405775  53.4486589  43.1900879  93.5848207  54.5160686  43.9525491
  90.5117071  53.5207270  43.8299063  90.1735582  53.4048334  42.9419598
  91.3806839  53.1198435  43.8100069  86.3703887  55.3742746  39.8195954
  85.8068752  55.2832683  39.0512242  86.2556282  54.5542651  40.2998447
  90.9936854  54.6742121  49.7885269  90.9825495  54.2794920  48.9165772
  91.1557493  53.9408194  50.3819040  83.9168318  56.8693938  42.6580175
  84.7089610  56.5284762  42.2426474  84.1564969  56.9788913  43.5782328
  91.9503445  59.0413714  35.1310419  91.2991425  59.6267794  34.7444433
  92.7447808  59.5719909  35.1905457  85.8759072  56.1302851  35.5297553
  86.6489948  55.5831838  35.3910429  86.2284471  56.9947100  35.7412015
  87.7144115  57.4579233  48.7364453  87.4233981  58.3624864  48.6211119
  88.3501099  57.4995761  49.4508522  88.6400322  54.8356082  45.3265812
  89.2363894  54.6112104  44.6122775  88.6975293  54.0940827  45.9291260
  88.2125350  52.2895517  33.1616003  88.4650871  51.7677038  32.3999466
  87.2749909  52.1261663  33.2642687  93.2568633  51.2931295  40.9690747
  94.0431722  50.8750719  40.6181164  93.5207337  52.1977388  41.1372395
  93.4278710  56.7304146  35.6679403  92.7924543  56.8038772  36.3800308
  93.0976117  57.3197745  34.9898483  98.6577060  51.2306529  41.8723725
  99.3902232  50.6605746  42.1061555  97.9016416  50.8428129  42.3130231
  87.9321639  54.1923623  35.3640378  87.8157897  53.5168526  36.0321463
  88.0423899  53.7055997  34.5472531  90.2753180  53.6533770  39.0687068
  89.9111387  53.1264391  39.7799989  91.1320296  53.2632239  38.8953553
  96.1802481  44.9428103  46.3318334  95.8485805  45.8123514  46.1079549
  95.5848094  44.6264387  47.0112364  89.9158667  48.6823670  34.0648416
  90.0833069  49.5503906  34.4318887  89.7255836  48.8450952  33.1409705
  92.6734000  57.1440649  45.7314246  92.3734723  58.0465688  45.6230054
  92.3285060  56.8772832  46.5835399  86.1246482  53.5954446  41.7650951
  85.1996978  53.4630660  41.9728643  86.3730895  54.3748665  42.2620893
  96.0731144  49.6623189  43.4111684  95.1648021  49.5938597  43.1170445
  96.0218740  50.1395134  44.2393509  89.8947888  51.1381327  35.0495083
  89.7747513  51.5838378  35.8880563  89.2000476  51.4866645  34.4908621
  83.4855293  53.2387719  42.5994740  83.6147674  53.4922198  43.5134152
  82.8052744  53.8315427  42.2799395  87.6554780  63.9084969  38.6985214
  87.5778810  64.8592794  38.7773695  87.0516423  63.5630842  39.3560140
  90.1472010  51.0812835  51.3546581  89.3705344  51.6406755  51.3449446
  90.7862573  51.5669618  51.8761451  97.9392790  47.8639627  45.1889558
  97.2967171  48.1572161  44.5429352  97.4347719  47.7492548  45.9942754
  95.5932954  51.6102801  35.8775417  96.5050810  51.8430187  35.7023115
  95.0842601  52.1939845  35.3150496  88.4018382  53.8898288  50.9164548
  89.1433066  54.4283332  50.6399372  87.6955367  54.5164577  51.0736100
  93.8773722  56.0327428  49.5136710  94.2857078  55.5909839  48.7691342
  93.1550983  55.4580056  49.7670902  90.2304792  50.9700035  46.8870267
  91.0765987  51.3939449  47.0304916  90.1703429  50.3133659  47.5808830
  94.2002536  56.5928619  43.2688998  93.5711399  56.7574333  42.5665066
  93.8128198  57.0070229  44.0399962  98.0791768  57.5283057  40.6233362
  97.3942806  57.9081958  40.0730396  98.1635617  58.1378384  41.3565310
  93.3804237  48.6304404  48.5451440  93.1365169  49.3846464  48.0085716
  93.6564167  49.0089751  49.3798687  95.3342700  55.1743016  47.2228706
  95.5459595  55.8174776  46.5463087  95.2872448  54.3405332  46.7550636
  92.9368929  47.7860837  44.1265278  92.0753408  48.0842090  44.4182015
  92.9631363  48.0031235  43.1946311  89.7530498  56.3303027  40.5339084
  90.2168844  56.6090730  39.7443706  89.4887296  55.4286472  40.3512174
  86.6454579  55.8774509  43.4718847  87.2155936  56.3061777  42.8336331
  87.2362691  55.5957093  44.1703032  88.6899384  52.4526179  37.3428649
  89.3923428  52.9047223  37.8102575  88.3580013  51.8109998  37.9708542
  87.1379746  51.0437936  51.7179858  86.5078406  51.7254217  51.9515255
  87.0315834  50.9321018  50.7732996  82.4324718  50.7109732  42.6445782
  81.6423772  50.9667261  42.1685893  82.9235966  51.5258070  42.7497823
  96.4488528  58.0514971  45.3951063  97.2705971  57.6495159  45.1133745
  96.4450931  57.9483205  46.3467179  84.3839464  51.0754311  39.6029259
  83.5870627  51.1873006  40.1212755  84.1565056  51.4140964  38.7370149
  90.2145131  57.5999015  47.5511774  90.2789564  58.0619422  48.3869945
  89.5056055  56.9696380  47.6794083  80.7162421  50.9640223  45.0760773
  80.9670460  51.8487233  45.3418349  81.2521970  50.7844824  44.3035865
 104.5394521  54.3953720  41.7436035 103.7858229  53.8261118  41.5880039
 104.6742062  54.3616384  42.6906669  89.9293149  59.2667122  37.4190754
  89.7938824  60.1118658  37.8475602  90.4702961  59.4686400  36.6556688
  86.4160488  45.3458702  54.0805109  86.0227434  44.7924901  54.7552753
  87.2326629  45.6569280  54.4711627  83.3822546  56.7842560  37.9918679
  83.8947067  57.5785810  38.1424244  84.0345259  56.0868851  37.9252280
  85.1917431  59.9008316  40.0741432  85.3684059  60.8226281  39.8862416
  85.9874264  59.5866736  40.5035812  89.3328449  46.7616581  51.6725366
  90.0738163  47.3623734  51.5929828  89.5646372  46.0194219  51.1143408
  84.4769787  51.9472948  49.9503595  84.3623303  51.0458206  50.2510694
  83.6214305  52.1936645  49.5988412  93.6542863  60.1693489  49.5772497
  93.6361339  60.9902370  49.0852766  94.5762783  60.0447564  49.8022638
  90.1115917  57.6837618  50.4196006  90.6444254  56.9225906  50.1895314
  89.5829998  57.3911270  51.1620160  93.2785612  42.7897684  45.9489647
  92.9349882  43.6799326  45.8728758  93.6464575  42.5999342  45.0859232
  81.3471463  55.1131214  38.7678250  82.1846685  55.5228223  38.5511957
  81.5249731  54.1730657  38.7378443  93.2435895  52.7806295  34.4562082
  92.7282519  53.5510900  34.6950470  92.9713204  52.1071431  35.0795144
  90.8283006  47.6255996  39.5147321  89.9724602  47.2362846  39.3352960
  91.2409958  47.7047957  38.6547106  92.3582153  45.1602339  43.9138881
  91.8546948  45.1232474  43.1006686  92.6512760  46.0695082  43.9735537
  88.6025039  45.2441069  42.9205062  89.4678035  45.0483878  42.5610952
  88.6702548  45.0151421  43.8474419  98.2170169  55.5338650  36.3915256
  97.4399612  55.1949809  35.9470418  98.8961650  55.5391273  35.7170221
  93.0322198  50.6533387  36.2821864  92.7272334  50.9679536  37.1332007
  93.9852640  50.7314807  36.3249197  91.4768630  56.8123611  37.9314818
  90.9489992  56.0776370  37.6188055  90.9756133  57.5898287  37.6854786
  96.4561476  55.0072631  43.0481864  95.7985151  55.6971892  43.1361993
  97.2601875  55.3969063  43.3915850  86.2087358  47.4743277  40.2921429
  86.7831110  47.2518458  39.5594622  86.7958340  47.5431971  41.0450030
  95.2666935  53.3617004  41.0985806  95.7798817  53.9946996  41.6007515
  95.9168159  52.7618199  40.7329166  86.5356945  49.5047738  34.3117314
  85.6994257  49.8422424  34.6326589  86.3961714  49.3696718  33.3744451
  88.5110025  44.3484526  39.0196499  87.8574438  44.0333543  38.3953113
  88.4690500  43.7260266  39.7456322  89.6221230  54.6303821  30.9349791
  88.7148292  54.3993074  31.1340940  90.1192262  53.8341440  31.1223772
  92.5289309  63.3401328  33.8546477  91.8551008  63.6433025  34.4631435
  92.9155131  64.1430408  33.5051934  91.7447766  50.8366459  43.3444146
  90.8270327  51.0581406  43.1865834  92.1607909  50.9112770  42.4855854
  92.5282814  52.2357875  38.4746826  93.2754632  52.7479272  38.1653949
  92.7974403  51.9141928  39.3351220  90.8009464  54.7316416  35.4573781
  89.8920683  54.4475448  35.5546251  90.8304548  55.1515494  34.5977088
  96.0328731  58.3423005  39.2264948  95.5791058  57.5013915  39.2830139
  95.4022698  58.9784404  39.5639728  94.9761651  49.2714991  40.4565616
  94.2384407  48.7592377  40.7875858  95.2288424  48.8315373  39.6448893
  94.4761670  60.1799502  40.1614766  94.7684645  60.7404559  39.4427132
  94.9860291  60.4728063  40.9167926  95.0773278  42.0491243  41.0507385
  95.3832155  41.1888607  40.7633300  95.8025883  42.6408863  40.8506379
  81.3697634  52.4521930  39.4388983  81.1722034  51.8591290  38.7140050
  80.8144298  52.1474140  40.1564922  89.3494358  52.3445036  41.5583576
  89.4042968  51.3918873  41.4826053  88.5385560  52.5004475  42.0424875
  90.4985552  56.2725159  32.7961859  90.0604981  55.5561018  32.3367497
  91.2395992  56.5001274  32.2346951  87.2886718  50.9622096  39.3173955
  86.4754583  51.2616267  39.7239147  87.7845712  50.5677785  40.0348437
  89.4395296  60.9579853  41.2508220  89.3971474  61.1840699  40.3216752
  90.3557994  60.7243228  41.3994021  92.8860929  51.4263920  48.1488849
  93.2410317  51.6535394  49.0083315  93.5333061  51.7582297  47.5266104
  98.6158666  54.5482356  38.8538178  98.4776565  54.7383952  37.9259367
  98.2594885  55.3101739  39.3106229  86.7800792  48.5340452  44.9335190
  87.4200172  48.3929211  44.2358153  85.9478323  48.2474965  44.5573792
  98.6428046  56.6158883  43.8649449  99.0764553  56.5234172  44.7132503
  99.3559627  56.5916384  43.2269465  87.5561096  57.8342882  41.0470182
  88.3501695  57.3393202  40.8452757  86.8452789  57.3060745  40.6837888
  92.3755941  60.2160977  45.3982550  92.4292963  60.7851914  46.1660266
  91.5070722  60.3862862  45.0336587  83.8643860  51.9785964  37.1229935
  82.9341448  51.9170419  37.3399897  83.9601332  51.4561916  36.3266576
  83.7829409  48.5040776  39.7108177  84.0436226  49.4186110  39.6017337
  84.6046581  48.0365219  39.8604790  85.2554334  49.9178534  46.8807001
  85.9277388  49.7095896  46.2319650  84.4284121  49.7200620  46.4412234
  99.5043595  56.6582584  46.3982335  99.6979486  57.5628395  46.6441610
  99.4044214  56.1990003  47.2320920  91.1579906  46.5440475  48.8972662
  90.5107821  47.2430424  48.8037139  91.9280922  46.9776619  49.2648910
  94.5658704  56.8089327  51.9723215  94.4144211  56.5799878  51.0553299
  94.5563384  57.7659928  51.9854560  91.3344041  54.3821239  46.9569482
  92.2636101  54.5332399  46.7838449  90.9135071  54.4705260  46.1018128
  90.1332372  58.4071904  44.7268019  89.9943458  58.0390688  45.5993958
  89.3446969  58.9219543  44.5551977  90.7280524  63.5081000  36.0693556
  90.9032280  63.0369044  36.8839179  90.0413312  64.1346767  36.2974817
  91.6837587  57.7853507  42.1156857  91.3487420  57.7454277  43.0114507
  91.1841533  57.1198223  41.6427267  85.6581831  53.1921137  47.6409438
  85.5201629  52.4601375  48.2420977  86.5686755  53.1030037  47.3593626
  94.6196779  55.1309541  32.3893917  94.0025950  54.4056369  32.2926970
  94.1513268  55.8918901  32.0460991  88.2864132  52.9041096  47.1293118
  88.9963751  52.2634288  47.0879736  88.2433440  53.1553991  48.0519299
  96.2750911  59.8408449  50.0499697  96.2163457  59.1567669  49.3830280
  96.6770429  60.5827439  49.5980323  86.9993066  49.8906314  48.9488758
  86.4630423  49.4397052  49.6010354  86.4109775  50.0252223  48.2059222
  85.2941610  66.6570363  42.8433416  85.5338208  67.2888887  43.5212435
  84.4510806  66.3058403  43.1298775  86.4095325  49.3494965  31.5115221
  85.5324791  49.2283766  31.1477468  86.8853078  48.5581044  31.2594110
  96.2768318  57.8048033  48.2813677  95.3895097  57.4673955  48.4040076
  96.8466869  57.0731064  48.5182442  77.9297465  54.1372125  41.6056728
  78.6168505  53.8233855  41.0177744  77.7745594  55.0413490  41.3323980
  82.7332187  49.0262322  46.0341752  82.6490376  48.4187991  45.2992162
  81.9114894  49.5171340  46.0351248  89.8069471  62.4649486  45.2474920
  89.7339643  63.2704457  45.7594225  89.3646865  62.6641451  44.4222942
  89.5959251  61.7021256  38.7577742  88.8126773  62.2442936  38.8515966
  90.2951996  62.2195235  39.1571983  92.9055901  47.5115885  41.4011947
  93.4024601  46.7585847  41.0813017  92.1342883  47.5480202  40.8355156
 100.7585659  53.2156251  43.0430239 100.7475535  54.0980966  42.6724172
  99.8903038  52.8627801  42.8484776  92.2668155  62.3636320  47.4033079
  92.9796127  62.9983784  47.3308980  91.7758184  62.4600186  46.5873081
  93.9885682  56.2687572  38.9750370  93.0541961  56.3889035  38.8055075
  94.1662350  55.3660039  38.7110380  89.4890870  49.6533268  41.1283632
  89.1188657  49.1004308  41.8164537  89.9849962  49.0491402  40.5758632
  97.3758233  52.1104892  39.5100405  97.8418685  52.9432883  39.4360707
  97.8265734  51.6449873  40.2145663  95.4434464  58.4548713  36.5086557
  95.7194308  58.3405307  37.4180431  94.5738963  58.0566198  36.4698730
  95.3474896  44.4785479  43.5491306  94.4337976  44.7089705  43.7173513
  95.7767997  44.5623923  44.4005338  95.1181354  52.6675371  46.0491200
  94.4652805  52.9151278  45.3943653  95.4961734  51.8539509  45.7153677
  92.0788528  62.7035064  40.1519370  92.2610923  61.8856720  40.6147123
  92.9021514  62.9202756  39.7144260  92.4130694  61.6303249  37.4134419
  92.9418460  61.1195703  36.8004581  92.6758913  61.3145779  38.2779952
  91.1668928  53.4095182  52.5357237  90.4909565  53.3089311  53.2059612
  91.9896561  53.2534395  52.9993234  82.9147787  59.6467118  45.1569752
  83.5001223  58.9010806  45.2897657  82.7172625  59.9571075  46.0406416
  85.7686442  62.6818366  40.1732195  85.0996817  63.1664493  39.6896235
  85.6299311  62.9287586  41.0875573  84.8856204  47.0637259  47.3736738
  84.9497530  47.9252090  46.9614135  84.8223324  46.4511260  46.6409096
  84.3608476  49.1360391  51.0209772  84.9880515  48.7537469  51.6347296
  83.5036395  48.9174593  51.3865465  81.1374019  50.9436820  36.9528127
  81.4327460  50.0347499  36.8995181  80.2362055  50.9224560  36.6309129
  93.0460098  62.6644085  43.7578535  92.9211237  61.8633824  43.2489481
  93.7039189  63.1590278  43.2692505  84.6668266  49.0192817  42.9355675
  83.9454852  49.6328785  42.7963149  85.4561522  49.5550582  42.8572321
  95.1095006  60.4653105  45.3858085  94.1625342  60.3458456  45.3136412
  95.4577779  59.5775603  45.4684347  87.4694579  46.3547244  49.2096327
  87.9928981  46.6009540  49.9722637  87.2506913  47.1867278  48.7899465
  82.8661860  48.6250918  37.0767452  82.5374567  47.7448297  36.8942558
  83.2201231  48.5698587  37.9643841  92.1141439  60.2605821  41.5862438
  91.9666402  59.3322528  41.7670008  92.9394933  60.2825912  41.1019513
  85.9803684  48.9123888  37.4442930  86.3199756  49.4409809  36.7221538
  86.4275804  49.2504294  38.2201496  95.7175561  61.0834380  42.6727310
  96.6422109  60.8777241  42.5351761  95.5490865  60.8350781  43.5816652
  88.6747124  47.2960939  46.8945998  88.3343945  46.4968752  47.2966678
  87.9686131  47.5962650  46.3222831  89.3263596  44.3810251  45.3473321
  90.1489666  43.9070729  45.2252211  89.5701660  45.1600735  45.8472007
  87.9671831  47.4098510  35.6436222  88.6880193  47.7879762  35.1399939
  87.3437135  48.1287386  35.7471200  92.1102954  48.1143659  36.5794555
  92.3266568  48.9968296  36.2783383  91.6297021  47.7229872  35.8500197
  86.8502175  51.0729372  43.1565299  86.7046756  51.3869675  44.0489581
  86.3727379  51.6914272  42.6036198  88.7098558  48.0631920  43.2046189
  88.6960127  47.1673013  42.8678487  89.4270986  48.0702583  43.8384475
  90.5624689  48.4969260  45.2499316  90.3042466  49.4186331  45.2483647
  90.0309729  48.0999694  45.9399781  95.5070877  61.6020047  38.0289402
  95.6807755  61.0366470  37.2763254  95.9999769  62.4020942  37.8468892
  81.3247837  53.6134716  46.0952961  80.7801305  54.3894524  46.2273235
  82.2027187  53.9605521  45.9372082  88.1135454  46.9446300  38.4733759
  88.2351365  46.0162946  38.6724647  87.8237496  46.9584986  37.5612075
  90.9826644  44.6301210  41.6100479  91.0048341  44.6940544  40.6552458
  91.3994703  43.7905719  41.8040985 101.3610269  54.3656470  39.6479701
 101.8041415  53.6163795  39.2498825 100.4836779  54.3566606  39.2653433
  96.4946050  60.9186811  35.1286300  97.1896955  61.5393504  35.3473615
  96.8369200  60.0682163  35.4038678  82.1113859  52.7404612  48.9883117
  81.3695595  52.8887248  49.5747748  81.7906603  53.0012878  48.1249867
  98.3937473  58.3686517  36.6573631  98.9188797  58.7073790  35.9322951
  98.3059826  57.4333532  36.4736765  90.0778134  64.4358500  41.0168884
  89.6383124  63.9434879  41.7101741  90.8286251  63.8931468  40.7760959
  82.5570473  60.6270041  41.0193512  83.3828493  60.3273813  40.6392156
  82.2064525  59.8577664  41.4683301  87.5252006  59.9796509  43.0891186
  86.9032015  59.3167214  42.7893414  88.1956873  60.0057641  42.4064833
  80.7579078  58.5456368  41.9782446  79.9210986  58.1178542  41.7966447
  80.7302723  58.7388811  42.9153237  87.5976533  48.4578297  52.6823692
  87.6464689  49.3340420  52.3001461  88.1399048  47.9155690  52.1095335
  98.0831379  59.0019421  51.9624829  97.2926923  58.9843559  51.4229328
  97.8464734  59.5407714  52.7173865  98.2029254  55.8511887  49.2757557
  98.2527259  55.6861894  50.2173080  98.0943177  54.9839146  48.8855438
  87.0865513  58.5300433  36.5649646  87.2353633  59.2135897  35.9116319
  87.8931956  58.5105523  37.0799102  95.4933017  51.8342815  50.5916864
  96.3942879  51.6949280  50.3000862  95.5680991  51.9997270  51.5315041
  89.8275822  49.2109670  49.4370050  88.9579131  49.5043236  49.1652639
  90.0635302  49.7950115  50.1577314  99.7047451  58.2708829  49.5199579
  99.4132259  58.6338809  50.3563040  99.0919582  57.5575837  49.3412911
 100.9043133  55.8361708  42.0402149 101.7390025  56.2751512  42.2039709
 101.0402262  55.3600362  41.2210395  97.9534639  53.3941443  47.9879637
  98.4288761  53.5869089  47.1798488  97.0300205  53.4500629  47.7423020
  84.8418146  54.5565610  37.5710715  84.5964188  53.6527940  37.7690925
  85.0114060  54.5582761  36.6290193  92.5314856  45.4289287  46.9535471
  93.0496800  46.1650314  46.6281959  92.1769988  45.7353280  47.7882230
  84.1113793  50.2893968  35.0696877  83.4183038  50.3638323  34.4136913
  83.8665545  49.5254312  35.5918393  92.7827450  41.8489569  42.4736367
  93.0629204  41.1812758  43.0996794  93.5678057  42.0418665  41.9611031
  90.5860918  61.0248563  34.0361394  90.0134885  61.6438750  33.5831865
  91.1593712  61.5747925  34.5701316  96.6536308  50.2707203  46.2207942
  97.6053731  50.3705301  46.2420166  96.4839759  49.4785472  46.7306027
  94.6750688  47.3562786  46.4067343  94.0800620  47.6367799  45.7113832
  94.3900384  47.8456687  47.1784084  93.8058178  61.3085713  35.1669976
  94.7388851  61.2431275  35.3702851  93.7181391  62.1441980  34.7084509
  96.4346195  60.6251584  32.1273923  96.3559826  60.2911447  33.0209681
  97.2555862  61.1173352  32.1265396  99.1324386  53.4913323  45.3350242
  99.1000706  52.5529324  45.5209926  99.7425010  53.5697360  44.6016067
  90.9707717  52.3609376  31.3777446  91.9166822  52.2315584  31.4465864
  90.5921962  51.6224038  31.8546874  99.2818874  50.2824366  45.3808525
  98.7657923  49.4982823  45.1938454 100.1658823  49.9543083  45.5455045
  96.9429601  44.0265382  41.3404338  96.7454423  43.7180470  42.2247670
  97.5529307  44.7527021  41.4702268 104.9500936  54.5529330  44.4756279
 105.6804324  54.2914618  45.0363982 104.3407881  53.8158052  44.5158347
 103.0316233  52.6937192  45.0730730 102.3049397  52.5593157  44.4647222
 102.6163520  53.0014021  45.8787448  90.8546409  56.4127122  52.8378103
  91.7749419  56.5905721  53.0318150  90.8195992  55.4683167  52.6857802
  89.1550634  50.2859352  31.3132331  88.2482089  49.9892465  31.3895045
  89.4326615  49.9889170  30.4466618  80.0728574  51.6065716  41.7631378
  79.7531359  50.7531024  41.4705752  79.5262003  51.8214294  42.5189345
  83.8508482  54.3228157  45.4800884  84.0694492  55.2545264  45.4988918
  84.2634256  53.9636131  46.2655688  90.7712700  44.8296242  37.4676573
  89.9613428  44.4843327  37.8431819  91.4597117  44.5203786  38.0564184
  92.7003248  43.9074289  39.0900869  93.2534287  44.3269742  39.7490892
  92.9373334  42.9810037  39.1323825  88.7236347  49.8961362  54.8703633
  88.6233074  50.8455719  54.8015724  88.5057889  49.5679601  53.9979703
  87.9249419  47.1446288  31.4544311  88.7868583  47.4701186  31.7140128
  88.1099763  46.3577783  30.9417376  79.9416834  55.2268627  43.7324499
  79.2480306  54.8122580  43.2194454  80.6889825  55.2689164  43.1357918
  96.0782055  46.0174814  38.5979534  95.4980724  46.6759618  38.2157586
  95.8117988  45.1952159  38.1866951  94.5285621  45.4179872  40.8000854
  95.0285400  45.5296406  39.9915173  95.1721229  45.1140925  41.4401662
  88.5867617  53.3258501  53.6868695  88.1034699  54.1258861  53.8932584
  88.6728556  53.3366446  52.7336139  81.8553577  55.1586881  41.6090514
  81.8324265  55.2574568  40.6572397  82.1654213  56.0052032  41.9307680
  84.5140955  57.2163036  45.7237129  85.4684208  57.1846978  45.6567060
  84.3153478  56.7553660  46.5387355  85.1040337  55.7864152  48.2907926
  85.9233226  56.2808231  48.3142764  85.3777145  54.8696120  48.2625494
  94.8606933  48.1774904  37.6535882  93.9732788  48.4624555  37.4356077
  95.2760922  48.0168668  36.8063159  98.2121469  48.2021425  41.3690221
  98.9881859  48.6917878  41.6414838  97.4869603  48.6279480  41.8262091
 100.6494028  48.9149045  42.4264162 101.2438519  48.6744781  41.7157470
 100.7220612  48.1956175  43.0537698  82.8691184  62.7582655  42.7407326
  82.7345651  61.9983056  42.1745325  82.4523246  63.4823555  42.2736115
  94.0050147  57.9419579  31.7483902  94.7085997  58.1469582  32.3641557
  93.2812795  58.5096341  32.0132985  94.8347957  53.6929440  37.8686172
  94.7783158  54.1497992  37.0293804  95.3876299  52.9320125  37.6909015
  98.6452763  49.4819172  38.6936291  98.3889697  49.0815808  39.5244499
  98.0205631  50.1962966  38.5686431 102.9565101  52.2215245  41.2007583
 102.3964659  52.2908435  41.9739145 102.3508604  52.0456230  40.4807079
  86.0260309  63.6551973  42.9525769  85.9092694  64.5997405  42.8504459
  85.2052756  63.3525534  43.3411568  95.9136844  58.3802108  33.7982362
  96.7482448  57.9483307  33.6159837  95.7521187  58.2084122  34.7259256
  95.5682736  54.8834222  35.1638701  95.5131540  54.7178493  34.2227145
  94.9428791  55.5910254  35.3200891  80.3575251  50.1202286  48.9900123
  81.0034115  49.6101240  49.4787349  80.1492402  50.8570968  49.5643549
  92.8828643  57.1883133  54.4892264  93.7519803  57.3623786  54.1278899
  92.4035395  58.0077550  54.3667993  88.8778862  44.3842331  34.7424020
  88.8657531  45.3284170  34.8992290  89.7702283  44.2012476  34.4483481
  88.8068426  63.0611221  42.8291776  87.8564057  63.0613083  42.7156148
  89.1100912  62.3143956  42.3127811  92.6930981  40.9785107  38.9969956
  91.9263377  40.4243594  39.1426639  93.1041686  41.0506976  39.8584108
  84.6972742  47.2669903  53.0875138  85.5604204  46.9106708  53.2978462
  84.1238153  46.9283798  53.7750542 104.5421119  68.8971759  43.8937539
 105.1799529  68.7778507  43.1900879 104.4241962  69.8452603  43.9525491
 101.3510825  68.8499187  43.8299063 101.0129337  68.7340252  42.9419598
 102.2200594  68.4490353  43.8100069  94.7562073  72.1985855  42.6580175
  95.5483365  71.8576680  42.2426474  94.9958723  72.3080830  43.5782328
  96.7152827  71.4594769  35.5297553  97.4883703  70.9123756  35.3910429
  97.0678226  72.3239018  35.7412015  99.0519105  67.6187435  33.1616003
  99.3044625  67.0968956  32.3999466  98.1143664  67.4553580  33.2642687
 104.0962388  66.6223213  40.9690747 104.8825477  66.2042636  40.6181164
 104.3601092  67.5269305  41.1372395 109.4970815  66.5598446  41.8723725
 110.2295987  65.9897663  42.1061555 108.7410170  66.1720047  42.3130231
  98.7715393  69.5215541  35.3640378  98.6551652  68.8460444  36.0321463
  98.8817653  69.0347915  34.5472531 101.1146934  68.9825688  39.0687068
 100.7505142  68.4556309  39.7799989 101.9714050  68.5924157  38.8953553
 107.0196235  60.2720020  46.3318334 106.6879560  61.1415431  46.1079549
 106.4241848  59.9556304  47.0112364 100.7552421  64.0115588  34.0648416
 100.9226824  64.8795824  34.4318887 100.5649590  64.1742869  33.1409705
  96.9640236  68.9246363  41.7650951  96.0390733  68.7922577  41.9728643
  97.2124649  69.7040583  42.2620893 106.9124898  64.9915107  43.4111684
 106.0041776  64.9230515  43.1170445 106.8612494  65.4687052  44.2393509
 100.7341642  66.4673245  35.0495083 100.6141267  66.9130296  35.8880563
 100.0394231  66.8158563  34.4908621  94.3249047  68.5679637  42.5994740
  94.4541428  68.8214116  43.5134152  93.6446498  69.1607345  42.2799395
 100.9865764  66.4104752  51.3546581 100.2099098  66.9698672  51.3449446
 101.6256327  66.8961535  51.8761451 108.7786545  63.1931545  45.1889558
 108.1360925  63.4864078  44.5429352 108.2741473  63.0784465  45.9942754
 106.4326708  66.9394718  35.8775417 107.3444565  67.1722105  35.7023115
 105.9236355  67.5231762  35.3150496 101.0698546  66.2991953  46.8870267
 101.9159741  66.7231366  47.0304916 101.0097184  65.6425577  47.5808830
 105.0396291  71.9220537  43.2688998 104.4105153  72.0866251  42.5665066
 104.6521953  72.3362146  44.0399962 104.2197991  63.9596321  48.5451440
 103.9758923  64.7138382  48.0085716 104.4957922  64.3381669  49.3798687
 106.1736454  70.5034934  47.2228706 106.3853349  71.1466693  46.5463087
 106.1266202  69.6697250  46.7550636 103.7762683  63.1152754  44.1265278
 102.9147162  63.4134008  44.4182015 103.8025118  63.3323153  43.1946311
 100.5924253  71.6594945  40.5339084 101.0562598  71.9382648  39.7443706
 100.3281051  70.7578389  40.3512174  97.4848334  71.2066426  43.4718847
  98.0549691  71.6353695  42.8336331  98.0756446  70.9249011  44.1703032
  99.5293139  67.7818097  37.3428649 100.2317182  68.2339141  37.8102575
  99.1973767  67.1401916  37.9708542  93.2718473  66.0401650  42.6445782
  92.4817527  66.2959178  42.1685893  93.7629720  66.8549988  42.7497823
  95.2233218  66.4046229  39.6029259  94.4264381  66.5164923  40.1212755
  94.9958810  66.7432881  38.7370149  91.5556176  66.2932140  45.0760773
  91.8064214  67.1779150  45.3418349  92.0915724  66.1136742  44.3035865
 115.3788275  69.7245637  41.7436035 114.6251984  69.1553036  41.5880039
 115.5135816  69.6908302  42.6906669  97.2554243  60.6750620  54.0805109
  96.8621188  60.1216818  54.7552753  98.0720383  60.9861198  54.4711627
  94.2216301  72.1134478  37.9918679  94.7340821  72.9077728  38.1424244
  94.8739014  71.4160768  37.9252280  96.0311185  75.2300234  40.0741432
  96.2077814  76.1518199  39.8862416  96.8268019  74.9158653  40.5035812
 100.1722204  62.0908499  51.6725366 100.9131917  62.6915652  51.5929828
 100.4040127  61.3486137  51.1143408  95.3163542  67.2764866  49.9503595
  95.2017057  66.3750123  50.2510694  94.4608060  67.5228563  49.5988412
  97.1542501  76.7478408  46.0751774  97.7049926  76.6195471  45.3028768
  96.3153977  77.0473297  45.7246667 104.1179367  58.1189602  45.9489647
 103.7743636  59.0091243  45.8728758 104.4858329  57.9291259  45.0859232
  92.1865217  70.4423132  38.7678250  93.0240439  70.8520140  38.5511957
  92.3643485  69.5022574  38.7378443 104.0829650  68.1098213  34.4562082
 103.5676273  68.8802817  34.6950470 103.8106958  67.4363349  35.0795144
 101.6676761  62.9547914  39.5147321 100.8118357  62.5654764  39.3352960
 102.0803712  63.0339874  38.6547106 103.1975907  60.4894257  43.9138881
 102.6940703  60.4524392  43.1006686 103.4906514  61.3987000  43.9735537
  99.4418793  60.5732987  42.9205062 100.3071790  60.3775795  42.5610952
  99.5096302  60.3443338  43.8474419 109.0563924  70.8630567  36.3915256
 108.2793366  70.5241727  35.9470418 109.7355405  70.8683191  35.7170221
 103.8715953  65.9825305  36.2821864 103.5666088  66.2971454  37.1332007
 104.8246395  66.0606725  36.3249197 107.2955231  70.3364549  43.0481864
 106.6378905  71.0263810  43.1361993 108.0995630  70.7260981  43.3915850
  97.0481112  62.8035194  40.2921429  97.6224864  62.5810376  39.5594622
  97.6352095  62.8723889  41.0450030 106.1060689  68.6908921  41.0985806
 106.6192571  69.3238913  41.6007515 106.7561913  68.0910117  40.7329166
  97.3750699  64.8339655  34.3117314  96.5388012  65.1714342  34.6326589
  97.2355469  64.6988635  33.3744451  99.3503780  59.6776443  39.0196499
  98.6968192  59.3625461  38.3953113  99.3084254  59.0552184  39.7456322
 100.4614985  69.9595738  30.9349791  99.5542047  69.7284992  31.1340940
 100.9586017  69.1633358  31.1223772 102.5841520  66.1658377  43.3444146
 101.6664082  66.3873324  43.1865834 103.0001664  66.2404687  42.4855854
 103.3676568  67.5649793  38.4746826 104.1148387  68.0771190  38.1653949
 103.6368158  67.2433845  39.3351220 101.6403218  70.0608333  35.4573781
 100.7314437  69.7767366  35.5546251 101.6698302  70.4807412  34.5977088
 105.8155405  64.6006909  40.4565616 105.0778162  64.0884295  40.7875858
 106.0682179  64.1607290  39.6448893 105.9167033  57.3783161  41.0507385
 106.2225909  56.5180524  40.7633300 106.6419637  57.9700781  40.8506379
  92.2091389  67.7813847  39.4388983  92.0115788  67.1883208  38.7140050
  91.6538053  67.4766058  40.1564922 100.1888112  67.6736954  41.5583576
 100.2436722  66.7210790  41.4826053  99.3779314  67.8296393  42.0424875
  98.1280472  66.2914014  39.3173955  97.3148338  66.5908184  39.7239147
  98.6239466  65.8969702  40.0348437 100.2789050  76.2871771  41.2508220
 100.2365229  76.5132617  40.3216752 101.1951749  76.0535145  41.3994021
 103.7254684  66.7555838  48.1488849 104.0804072  66.9827311  49.0083315
 104.3726815  67.0874215  47.5266104 109.4552421  69.8774274  38.8538178
 109.3170319  70.0675870  37.9259367 109.0988640  70.6393657  39.3106229
  97.6194547  63.8632369  44.9335190  98.2593926  63.7221128  44.2358153
  96.7872077  63.5766883  44.5573792 109.4821800  71.9450801  43.8649449
 109.9158307  71.8526090  44.7132503 110.1953381  71.9208301  43.2269465
  98.3954851  73.1634800  41.0470182  99.1895449  72.6685120  40.8452757
  97.6846543  72.6352663  40.6837888  94.7037614  67.3077881  37.1229935
  93.7735202  67.2462337  37.3399897  94.7995086  66.7853834  36.3266576
  94.6223163  63.8332694  39.7108177  94.8829981  64.7478027  39.6017337
  95.4440336  63.3657137  39.8604790  96.0948089  65.2470451  46.8807001
  96.7671142  65.0387813  46.2319650  95.2677875  65.0492537  46.4412234
 110.3437350  71.9874502  46.3982335 110.5373240  72.8920312  46.6441610
 110.2437968  71.5281921  47.2320920 101.9973661  61.8732392  48.8972662
 101.3501576  62.5722342  48.8037139 102.7674676  62.3068536  49.2648910
 102.1737795  69.7113157  46.9569482 103.1029855  69.8624317  46.7838449
 101.7528825  69.7997178  46.1018128 100.9726127  73.7363822  44.7268019
 100.8337213  73.3682606  45.5993958 100.1840723  74.2511461  44.5551977
 102.5231342  73.1145424  42.1156857 102.1881175  73.0746194  43.0114507
 102.0235288  72.4490140  41.6427267 105.4590534  70.4601459  32.3893917
 104.8419704  69.7348287  32.2926970 104.9907022  71.2210819  32.0460991
  97.8386821  65.2198232  48.9488758  97.3024178  64.7688970  49.6010354
  97.2503529  65.3544140  48.2059222  97.2489080  64.6786883  31.5115221
  96.3718546  64.5575684  31.1477468  97.7246833  63.8872961  31.2594110
  88.7691220  69.4664043  41.6056728  89.4562260  69.1525773  41.0177744
  88.6139348  70.3705407  41.3323980  93.5725942  64.3554239  46.0341752
  93.4884131  63.7479909  45.2992162  92.7508648  64.8463258  46.0351248
 103.7449656  62.8407803  41.4011947 104.2418355  62.0877765  41.0813017
 102.9736637  62.8772119  40.8355156 111.5979413  68.5448168  43.0430239
 111.5869289  69.4272884  42.6724172 110.7296793  68.1919719  42.8484776
 100.3284624  64.9825186  41.1283632  99.9582412  64.4296226  41.8164537
 100.8243717  64.3783319  40.5758632 108.2151988  67.4396809  39.5100405
 108.6812440  68.2724801  39.4360707 108.6659488  66.9741791  40.2145663
 106.1868650  59.8077396  43.5491306 105.2731730  60.0381623  43.7173513
 106.6161752  59.8915840  44.4005338 105.9575109  67.9967288  46.0491200
 105.3046559  68.2443196  45.3943653 106.3355489  67.1831426  45.7153677
  93.7541541  74.9759036  45.1569752  94.3394978  74.2302724  45.2897657
  93.5566380  75.2862993  46.0406416  88.3459196  67.5464636  43.8774195
  88.3843295  67.0128227  44.6711314  87.8399489  67.0199842  43.2585173
  95.7249958  62.3929177  47.3736738  95.7891285  63.2544007  46.9614135
  95.6617078  61.7803178  46.6409096  95.2002231  64.4652309  51.0209772
  95.8274269  64.0829386  51.6347296  94.3430149  64.2466511  51.3865465
  91.9767773  66.2728738  36.9528127  92.2721214  65.3639417  36.8995181
  91.0755809  66.2516478  36.6309129  95.5062020  64.3484735  42.9355675
  94.7848606  64.9620702  42.7963149  96.2955276  64.8842500  42.8572321
  98.3088334  61.6839161  49.2096327  98.8322736  61.9301458  49.9722637
  98.0900667  62.5159196  48.7899465  93.7055615  63.9542836  37.0767452
  93.3768321  63.0740215  36.8942558  94.0594986  63.8990505  37.9643841
  96.8197438  64.2415806  37.4442930  97.1593511  64.7701727  36.7221538
  97.2669559  64.5796212  38.2201496  99.5140879  62.6252856  46.8945998
  99.1737699  61.8260669  47.2966678  98.8079885  62.9254567  46.3222831
 100.1657351  59.7102169  45.3473321 100.9883420  59.2362647  45.2252211
 100.4095414  60.4892653  45.8472007  98.8065585  62.7390427  35.6436222
  99.5273948  63.1171680  35.1399939  98.1830889  63.4579304  35.7471200
 102.9496708  63.4435576  36.5794555 103.1660323  64.3260214  36.2783383
 102.4690775  63.0521790  35.8500197  97.6895930  66.4021289  43.1565299
  97.5440510  66.7161592  44.0489581  97.2121133  67.0206190  42.6036198
  99.5492312  63.3923837  43.2046189  99.5353881  62.4964931  42.8678487
 100.2664741  63.3994501  43.8384475 101.4018443  63.8261178  45.2499316
 101.1436221  64.7478248  45.2483647 100.8703484  63.4291612  45.9399781
  92.1641592  68.9426634  46.0952961  91.6195060  69.7186442  46.2273235
  93.0420942  69.2897438  45.9372082  98.9529208  62.2738218  38.4733759
  99.0745120  61.3454864  38.6724647  98.6631251  62.2876904  37.5612075
 101.8220399  59.9593128  41.6100479 101.8442096  60.0232461  40.6552458
 102.2388458  59.1197637  41.8040985 112.2004023  69.6948388  39.6479701
 112.6435169  68.9455713  39.2498825 111.3230533  69.6858524  39.2653433
  93.3964227  75.9561959  41.0193512  94.2222247  75.6565731  40.6392156
  93.0458279  75.1869581  41.4683301  98.3645760  75.3088427  43.0891186
  97.7425770  74.6459132  42.7893414  99.0350627  75.3349559  42.4064833
  91.5972832  73.8748285  41.9782446  90.7604741  73.4470460  41.7966447
  91.5696478  74.0680729  42.9153237  98.4370288  63.7870215  52.6823692
  98.4858443  64.6632338  52.3001461  98.9792802  63.2447608  52.1095335
 100.6669576  64.5401587  49.4370050  99.7972886  64.8335154  49.1652639
 100.9029057  65.1242032  50.1577314 111.7436888  71.1653626  42.0402149
 112.5783779  71.6043430  42.2039709 111.8796017  70.6892279  41.2210395
 108.7928394  68.7233361  47.9879637 109.2682515  68.9161007  47.1798488
 107.8693959  68.7792547  47.7423020  95.6811900  69.8857528  37.5710715
  95.4357942  68.9819858  37.7690925  95.8507815  69.8874678  36.6290193
 103.3708610  60.7581204  46.9535471 103.8890554  61.4942231  46.6281959
 103.0163743  61.0645198  47.7882230  94.9507548  65.6185886  35.0696877
  94.2576793  65.6930241  34.4136913  94.7059300  64.8546229  35.5918393
 103.6221204  57.1781487  42.4736367 103.9022958  56.5104676  43.0996794
 104.4071811  57.3710583  41.9611031 107.4930063  65.5999121  46.2207942
 108.4447486  65.6997219  46.2420166 107.3233513  64.8077389  46.7306027
 105.5144442  62.6854704  46.4067343 104.9194374  62.9659717  45.7113832
 105.2294139  63.1748605  47.1784084 107.2739949  75.9543501  32.1273923
 107.1953581  75.6203365  33.0209681 108.0949616  76.4465269  32.1265396
 109.9718140  68.8205241  45.3350242 109.9394461  67.8821241  45.5209926
 110.5818764  68.8989277  44.6016067 101.8101471  67.6901294  31.3777446
 102.7560576  67.5607502  31.4465864 101.4315716  66.9515955  31.8546874
 110.1212629  65.6116284  45.3808525 109.6051678  64.8274741  45.1938454
 111.0052577  65.2835001  45.5455045 107.7823356  59.3557300  41.3404338
 107.5848177  59.0472388  42.2247670 108.3923061  60.0818939  41.4702268
 115.7894690  69.8821247  44.4756279 116.5198079  69.6206536  45.0363982
 115.1801636  69.1449969  44.5158347  99.9944388  65.6151270  31.3132331
  99.0875844  65.3184383  31.3895045 100.2720369  65.3181088  30.4466618
  90.9122329  66.9357633  41.7631378  90.5925113  66.0822942  41.4705752
  90.3655757  67.1506212  42.5189345 101.6106454  60.1588160  37.4676573
 100.8007183  59.8135245  37.8431819 102.2990871  59.8495703  38.0564184
 103.5397002  59.2366206  39.0900869 104.0928041  59.6561660  39.7490892
 103.7767089  58.3101955  39.1323825  98.7643173  62.4738205  31.4544311
  99.6262337  62.7993103  31.7140128  98.9493517  61.6869701  30.9417376
  90.7810589  70.5560545  43.7324499  90.0874060  70.1414498  43.2194454
  91.5283580  70.5981081  43.1357918 106.9175810  61.3466732  38.5979534
 106.3374479  62.0051536  38.2157586 106.6511742  60.5244076  38.1866951
 105.3679376  60.7471789  40.8000854 105.8679154  60.8588324  39.9915173
 106.0114984  60.4432842  41.4401662  92.6947331  70.4878799  41.6090514
  92.6718019  70.5866486  40.6572397  93.0047968  71.3343949  41.9307680
 105.7000688  63.5066822  37.6535882 104.8126543  63.7916473  37.4356077
 106.1154677  63.3460585  36.8063159 109.0515224  63.5313343  41.3690221
 109.8275614  64.0209795  41.6414838 108.3263358  63.9571397  41.8262091
 111.4887782  64.2440962  42.4264162 112.0832273  64.0036698  41.7157470
 111.5614366  63.5248093  43.0537698  93.7084938  78.0874573  42.7407326
  93.5739406  77.3274974  42.1745325  93.2917000  78.8115473  42.2736115
 104.8443901  73.2711497  31.7483902 105.5479751  73.4761499  32.3641557
 104.1206550  73.8388259  32.0132985 105.6741711  69.0221358  37.8686172
 105.6176913  69.4789909  37.0293804 106.2270054  68.2612043  37.6909015
 109.4846517  64.8111090  38.6936291 109.2283451  64.4107725  39.5244499
 108.8599385  65.5254884  38.5686431 113.7958855  67.5507163  41.2007583
 113.2358413  67.6200352  41.9739145 113.1902358  67.3748148  40.4807079
  96.8654064  78.9843890  42.9525769  96.7486448  79.9289323  42.8504459
  96.0446510  78.6817452  43.3411568  99.7172616  59.7134248  34.7424020
  99.7051286  60.6576088  34.8992290 100.6096038  59.5304394  34.4483481
  99.6462180  78.3903139  42.8291776  98.6957811  78.3905000  42.7156148
  99.9494666  77.6435873  42.3127811 103.5324736  56.3077025  38.9969956
 102.7657131  55.7535512  39.1426639 103.9435441  56.3798894  39.8584108
  95.5366497  62.5961821  53.0875138  96.3997958  62.2398626  53.2978462
  94.9631907  62.2575715  53.7750542 115.3814874  84.2263677  43.8937539
 116.0193284  84.1070424  43.1900879 115.2635716  85.1744521  43.9525491
 112.1904580  84.1791105  43.8299063 111.8523091  84.0632170  42.9419598
 113.0594348  83.7782270  43.8100069 108.0491396  86.0326582  39.8195954
 107.4856261  85.9416518  39.0512242 107.9343791  85.2126486  40.2998447
 105.5955827  87.5277773  42.6580175 106.3877119  87.1868598  42.2426474
 105.8352478  87.6372748  43.5782328 113.6290954  89.6997549  35.1310419
 112.9778934  90.2851630  34.7444433 114.4235317  90.2303744  35.1905457
 107.5546581  86.7886686  35.5297553 108.3277457  86.2415673  35.3910429
 107.9071980  87.6530936  35.7412015 109.8912859  82.9479352  33.1616003
 110.1438380  82.4260874  32.3999466 108.9537418  82.7845498  33.2642687
 114.9356142  81.9515131  40.9690747 115.7219231  81.5334554  40.6181164
 115.1994846  82.8561223  41.1372395 115.1066219  87.3887981  35.6679403
 114.4712052  87.4622608  36.3800308 114.7763626  87.9781580  34.9898483
 120.3364569  81.8890364  41.8723725 121.0689741  81.3189581  42.1061555
 119.5803925  81.5011965  42.3130231 109.6109148  84.8507458  35.3640378
 109.4945406  84.1752362  36.0321463 109.7211408  84.3639832  34.5472531
 111.9540689  84.3117606  39.0687068 111.5898896  83.7848227  39.7799989
 112.8107805  83.9216075  38.8953553 117.8589990  75.6011938  46.3318334
 117.5273314  76.4707349  46.1079549 117.2635603  75.2848222  47.0112364
 111.5946176  79.3407505  34.0648416 111.7620578  80.2087742  34.4318887
 111.4043345  79.5034787  33.1409705 114.3521509  87.8024484  45.7314246
 114.0522232  88.7049523  45.6230054 114.0072569  87.5356667  46.5835399
 107.8033991  84.2538281  41.7650951 106.8784487  84.1214495  41.9728643
 108.0518404  85.0332500  42.2620893 111.5735397  81.7965163  35.0495083
 111.4535022  82.2422214  35.8880563 110.8787985  82.1450480  34.4908621
 105.1642802  83.8971555  42.5994740 105.2935183  84.1506033  43.5134152
 104.4840253  84.4899263  42.2799395 109.3342289  94.5668805  38.6985214
 109.2566319  95.5176630  38.7773695 108.7303932  94.2214677  39.3560140
 119.6180299  78.5223463  45.1889558 118.9754679  78.8155996  44.5429352
 119.1135228  78.4076383  45.9942754 117.2720463  82.2686636  35.8775417
 118.1838319  82.5014023  35.7023115 116.7630110  82.8523680  35.3150496
 115.5561231  86.6911264  49.5136710 115.9644587  86.2493674  48.7691342
 114.8338492  86.1163891  49.7670902 115.8790045  87.2512454  43.2688998
 115.2498908  87.4158169  42.5665066 115.4915707  87.6654064  44.0399962
 119.7579277  88.1866892  40.6233362 119.0730315  88.5665794  40.0730396
 119.8423126  88.7962219  41.3565310 117.0130209  85.8326851  47.2228706
 117.2247104  86.4758611  46.5463087 116.9659957  84.9989168  46.7550636
 111.4318007  86.9886862  40.5339084 111.8956353  87.2674565  39.7443706
 111.1674805  86.0870307  40.3512174 108.3242088  86.5358344  43.4718847
 108.8943445  86.9645612  42.8336331 108.9150200  86.2540929  44.1703032
 110.3686893  83.1110015  37.3428649 111.0710936  83.5631059  37.8102575
 110.0367522  82.4693834  37.9708542 118.1276037  88.7098807  45.3951063
 118.9493480  88.3078994  45.1133745 118.1238440  88.6067041  46.3467179
 106.0626972  81.7338147  39.6029259 105.2658136  81.8456841  40.1212755
 105.8352565  82.0724799  38.7370149 126.2182030  85.0537555  41.7436035
 125.4645738  84.4844953  41.5880039 126.3529571  85.0200220  42.6906669
 111.6080658  89.9250957  37.4190754 111.4726333  90.7702493  37.8475602
 112.1490470  90.1270235  36.6556688 105.0610055  87.4426395  37.9918679
 105.5734576  88.2369646  38.1424244 105.7132768  86.7452686  37.9252280
 106.8704940  90.5592152  40.0741432 107.0471568  91.4810116  39.8862416
 107.6661773  90.2450571  40.5035812 113.2349134  90.5474524  51.5491096
 112.7912988  89.7610903  51.2312000 113.8966348  90.7353674  50.8834987
 107.9936255  92.0770326  46.0751774 108.5443680  91.9487389  45.3028768
 107.1547731  92.3765215  45.7246667 115.3330372  90.8277324  49.5772497
 115.3148848  91.6486205  49.0852766 116.2550292  90.7031399  49.8022638
 114.9573121  73.4481519  45.9489647 114.6137391  74.3383161  45.8728758
 115.3252084  73.2583177  45.0859232 103.0258972  85.7715050  38.7678250
 103.8634194  86.1812058  38.5511957 103.2037240  84.8314492  38.7378443
 114.9223404  83.4390130  34.4562082 114.4070027  84.2094735  34.6950470
 114.6500713  82.7655267  35.0795144 112.5070515  78.2839831  39.5147321
 111.6512111  77.8946682  39.3352960 112.9197467  78.3631792  38.6547106
 114.0369662  75.8186174  43.9138881 113.5334457  75.7816310  43.1006686
 114.3300269  76.7278917  43.9735537 119.8957678  86.1922485  36.3915256
 119.1187121  85.8533645  35.9470418 120.5749159  86.1975108  35.7170221
 114.7109707  81.3117223  36.2821864 114.4059843  81.6263372  37.1332007
 115.6640149  81.3898642  36.3249197 113.1556139  87.4707446  37.9314818
 112.6277501  86.7360205  37.6188055 112.6543642  88.2482122  37.6854786
 118.1348985  85.6656466  43.0481864 117.4772660  86.3555728  43.1361993
 118.9389384  86.0552898  43.3915850 116.9454444  84.0200839  41.0985806
 117.4586326  84.6530831  41.6007515 117.5955668  83.4202035  40.7329166
 108.2144454  80.1631573  34.3117314 107.3781766  80.5006260  34.6326589
 108.0749223  80.0280553  33.3744451 111.3008739  85.2887656  30.9349791
 110.3935801  85.0576910  31.1340940 111.7979771  84.4925275  31.1223772
 114.2076818  93.9985163  33.8546477 113.5338517  94.3016860  34.4631435
 114.5942640  94.8014244  33.5051934 114.2070323  82.8941710  38.4746826
 114.9542141  83.4063107  38.1653949 114.4761912  82.5725763  39.3351220
 112.4796973  85.3900251  35.4573781 111.5708192  85.1059284  35.5546251
 112.5092057  85.8099330  34.5977088 117.7116240  89.0006840  39.2264948
 117.2578567  88.1597750  39.2830139 117.0810207  89.6368239  39.5639728
 116.6549160  79.9298827  40.4565616 115.9171916  79.4176213  40.7875858
 116.9075933  79.4899208  39.6448893 116.1549179  90.8383337  40.1614766
 116.4472154  91.3988394  39.4427132 116.6647800  91.1311898  40.9167926
 116.7560787  72.7075079  41.0507385 117.0619664  71.8472442  40.7633300
 117.4813392  73.2992699  40.8506379 111.0281867  83.0028872  41.5583576
 111.0830477  82.0502708  41.4826053 110.2173069  83.1588311  42.0424875
 112.1773061  86.9308995  32.7961859 111.7392490  86.2144854  32.3367497
 112.9183501  87.1585109  32.2346951 108.9674227  81.6205931  39.3173955
 108.1542092  81.9200102  39.7239147 109.4633221  81.2261620  40.0348437
 111.1182805  91.6163688  41.2508220 111.0758983  91.8424535  40.3216752
 112.0345503  91.3827063  41.3994021 120.2946175  85.2066192  38.8538178
 120.1564074  85.3967788  37.9259367 119.9382394  85.9685575  39.3106229
 120.3215555  87.2742719  43.8649449 120.7552062  87.1818008  44.7132503
 121.0347136  87.2500219  43.2269465 109.2348605  88.4926717  41.0470182
 110.0289204  87.9977037  40.8452757 108.5240298  87.9644580  40.6837888
 114.0543450  90.8744813  45.3982550 114.1080472  91.4435749  46.1660266
 113.1858231  91.0446698  45.0336587 121.1831104  87.3166419  46.3982335
 121.3766995  88.2212230  46.6441610 121.0831723  86.8573838  47.2320920
 113.0131550  85.0405075  46.9569482 113.9423610  85.1916234  46.7838449
 112.5922580  85.1289096  46.1018128 111.8119881  89.0655739  44.7268019
 111.6730967  88.6974524  45.5993958 111.0234478  89.5803379  44.5551977
 112.4068033  94.1664836  36.0693556 112.5819789  93.6952879  36.8839179
 111.7200821  94.7930602  36.2974817 113.3625096  88.4437342  42.1156857
 113.0274929  88.4038112  43.0114507 112.8629042  87.7782058  41.6427267
 116.2984288  85.7893376  32.3893917 115.6813459  85.0640204  32.2926970
 115.8300777  86.5502737  32.0460991 117.9538420  90.4992285  50.0499697
 117.8950966  89.8151505  49.3830280 118.3557938  91.2411275  49.5980323
 106.9729119  97.3154199  42.8433416 107.2125717  97.9472723  43.5212435
 106.1298315  96.9642239  43.1298775 108.0882834  80.0078801  31.5115221
 107.2112300  79.8867601  31.1477468 108.5640587  79.2164879  31.2594110
 117.9555827  88.4631869  48.2813677 117.0682606  88.1257790  48.4040076
 118.5254378  87.7314900  48.5182442 111.4856980  93.1233321  45.2474920
 111.4127152  93.9288292  45.7594225 111.0434374  93.3225287  44.4222942
 111.2746760  92.3605091  38.7577742 110.4914282  92.9026771  38.8515966
 111.9739505  92.8779071  39.1571983 114.5843410  78.1699720  41.4011947
 115.0812110  77.4169683  41.0813017 113.8130392  78.2064037  40.8355156
 122.4373168  83.8740086  43.0430239 122.4263044  84.7564801  42.6724172
 121.5690547  83.5211637  42.8484776 113.9455664  93.0220155  47.4033079
 114.6583636  93.6567620  47.3308980 113.4545693  93.1184021  46.5873081
 115.6673191  86.9271408  38.9750370 114.7329470  87.0472870  38.8055075
 115.8449859  86.0243874  38.7110380 111.1678379  80.3117103  41.1283632
 110.7976166  79.7588144  41.8164537 111.6637471  79.7075237  40.5758632
 119.0545742  82.7688727  39.5100405 119.5206194  83.6016719  39.4360707
 119.5053243  82.3033709  40.2145663 117.1221973  89.1132548  36.5086557
 117.3981817  88.9989143  37.4180431 116.2526472  88.7150033  36.4698730
 117.0262405  75.1369314  43.5491306 116.1125485  75.3673541  43.7173513
 117.4555506  75.2207758  44.4005338 113.7576037  93.3618899  40.1519370
 113.9398432  92.5440555  40.6147123 114.5809023  93.5786591  39.7144260
 114.0918203  92.2887084  37.4134419 114.6205969  91.7779539  36.8004581
 114.3546422  91.9729614  38.2779952 104.5935296  90.3050953  45.1569752
 105.1788732  89.5594641  45.2897657 104.3960134  90.6154910  46.0406416
 107.4473951  93.3402201  40.1732195 106.7784326  93.8248329  39.6896235
 107.3086820  93.5871421  41.0875573 111.5879219  95.3745944  46.7714853
 112.1397527  95.5377566  47.5363938 111.9285413  95.9650382  46.0994878
 116.4390094  90.2007202  52.6263507 116.9829998  90.8137160  52.1318462
 115.8576939  90.7586780  53.1430521 114.7247607  93.3227920  43.7578535
 114.5998746  92.5217660  43.2489481 115.3826698  93.8174113  43.2692505
 116.7882515  91.1236940  45.3858085 115.8412851  91.0042291  45.3136412
 117.1365288  90.2359438  45.4684347 113.7928948  90.9189656  41.5862438
 113.6453911  89.9906364  41.7670008 114.6182442  90.9409747  41.1019513
 107.6591193  79.5707723  37.4442930 107.9987265  80.0993645  36.7221538
 108.1063313  79.9088129  38.2201496 117.3963070  91.7418215  42.6727310
 118.3209618  91.5361076  42.5351761 117.2278374  91.4934616  43.5816652
 109.6459340  78.0682345  35.6436222 110.3667702  78.4463598  35.1399939
 109.0224644  78.7871222  35.7471200 113.7890463  78.7727494  36.5794555
 114.0054077  79.6552132  36.2783383 113.3084530  78.3813707  35.8500197
 108.5289684  81.7313207  43.1565299 108.3834265  82.0453510  44.0489581
 108.0514888  82.3498107  42.6036198 117.1858386  92.2603882  38.0289402
 117.3595264  91.6950305  37.2763254 117.6787278  93.0604777  37.8468892
 103.0035346  84.2718551  46.0952961 102.4588814  85.0478359  46.2273235
 103.8814696  84.6189356  45.9372082 109.7922963  77.6030135  38.4733759
 109.9138874  76.6746782  38.6724647 109.5025005  77.6168821  37.5612075
 112.6614153  75.2885046  41.6100479 112.6835850  75.3524379  40.6552458
 113.0782212  74.4489554  41.8040985 123.0397778  85.0240305  39.6479701
 123.4828924  84.2747631  39.2498825 122.1624288  85.0150442  39.2653433
 118.1733559  91.5770647  35.1286300 118.8684463  92.1977339  35.3473615
 118.5156709  90.7265998  35.4038678 120.0724982  89.0270352  36.6573631
 120.5976306  89.3657625  35.9322951 119.9847335  88.0917368  36.4736765
 111.7345031  92.9404426  48.7863507 112.0432157  92.6953573  49.6586207
 112.5320513  93.1451064  48.2982378 111.7565643  95.0942336  41.0168884
 111.3170633  94.6018714  41.7101741 112.5073760  94.5515303  40.7760959
 104.2357982  91.2853876  41.0193512 105.0616002  90.9857648  40.6392156
 103.8852034  90.5161499  41.4683301 109.2039515  90.6380345  43.0891186
 108.5819524  89.9751050  42.7893414 109.8744382  90.6641477  42.4064833
 102.4366587  89.2040203  41.9782446 101.5998495  88.7762377  41.7966447
 102.4090232  89.3972646  42.9153237 119.7618888  89.6603256  51.9624829
 118.9714432  89.6427395  51.4229328 119.5252243  90.1991550  52.7173865
 119.8816763  86.5095722  49.2757557 119.9314768  86.3445730  50.2173080
 119.7730686  85.6422981  48.8855438 108.7653022  89.1884268  36.5649646
 108.9141142  89.8719732  35.9116319 109.5719465  89.1689358  37.0799102
 121.3834960  88.9292664  49.5199579 121.0919768  89.2922644  50.3563040
 120.7707091  88.2159672  49.3412911 122.5830642  86.4945544  42.0402149
 123.4177534  86.9335348  42.2039709 122.7189771  86.0184197  41.2210395
 119.6322148  84.0525278  47.9879637 120.1076270  84.2452925  47.1798488
 118.7087714  84.1084464  47.7423020 106.5205655  85.2149446  37.5710715
 106.2751697  84.3111776  37.7690925 106.6901569  85.2166596  36.6290193
 114.2102365  76.0873122  46.9535471 114.7284309  76.8234149  46.6281959
 113.8557497  76.3937115  47.7882230 105.7901302  80.9477803  35.0696877
 105.0970547  81.0222158  34.4136913 105.5453054  80.1838147  35.5918393
 114.4614959  72.5073405  42.4736367 114.7416713  71.8396594  43.0996794
 115.2465566  72.7002500  41.9611031 112.2648427  91.6832398  34.0361394
 111.6922394  92.3022586  33.5831865 112.8381221  92.2331760  34.5701316
 115.4845687  91.9669549  35.1669976 116.4176360  91.9015110  35.3702851
 115.3968900  92.8025815  34.7084509 118.1133704  91.2835419  32.1273923
 118.0347335  90.9495283  33.0209681 118.9343371  91.7757187  32.1265396
 120.8111895  84.1497158  45.3350242 120.7788215  83.2113159  45.5209926
 121.4212519  84.2281195  44.6016067 112.6495226  83.0193211  31.3777446
 113.5954331  82.8899419  31.4465864 112.2709471  82.2807873  31.8546874
 120.9606383  80.9408202  45.3808525 120.4445432  80.1566658  45.1938454
 121.8446332  80.6126918  45.5455045 118.6217110  74.6849217  41.3404338
 118.4241931  74.3764305  42.2247670 119.2316816  75.4110856  41.4702268
 126.6288445  85.2113165  44.4756279 127.3591833  84.9498453  45.0363982
 126.0195390  84.4741887  44.5158347 124.7103742  83.3521028  45.0730730
 123.9836906  83.2176993  44.4647222 124.2951029  83.6597856  45.8787448
 110.8338143  80.9443188  31.3132331 109.9269598  80.6476300  31.3895045
 111.1114124  80.6473006  30.4466618 105.5295991  84.9811992  45.4800884
 105.7482001  85.9129100  45.4988918 105.9421765  84.6219966  46.2655688
 112.4500209  75.4880077  37.4676573 111.6400937  75.1427162  37.8431819
 113.1384626  75.1787621  38.0564184 114.3790757  74.5658124  39.0900869
 114.9321796  74.9853578  39.7490892 114.6160843  73.6393872  39.1323825
 109.6036928  77.8030123  31.4544311 110.4656092  78.1285021  31.7140128
 109.7887272  77.0161619  30.9417376 117.7569564  76.6758649  38.5979534
 117.1768233  77.3343453  38.2157586 117.4905497  75.8535994  38.1866951
 116.2073130  76.0763707  40.8000854 116.7072909  76.1880242  39.9915173
 116.8508738  75.7724760  41.4401662 103.5341086  85.8170716  41.6090514
 103.5111774  85.9158404  40.6572397 103.8441722  86.6635867  41.9307680
 106.1928464  87.8746871  45.7237129 107.1471717  87.8430814  45.6567060
 105.9940987  87.4137495  46.5387355 116.5394442  78.8358740  37.6535882
 115.6520297  79.1208390  37.4356077 116.9548431  78.6752503  36.8063159
 119.8908978  78.8605261  41.3690221 120.6669368  79.3501713  41.6414838
 119.1657112  79.2863315  41.8262091 122.3281537  79.5732880  42.4264162
 122.9226028  79.3328616  41.7157470 122.4008121  78.8540010  43.0537698
 104.5478693  93.4166491  42.7407326 104.4133160  92.6566892  42.1745325
 104.1310755  94.1407391  42.2736115 115.6837656  88.6003414  31.7483902
 116.3873506  88.8053417  32.3641557 114.9600304  89.1680176  32.0132985
 116.5135466  84.3513276  37.8686172 116.4570667  84.8081827  37.0293804
 117.0663808  83.5903960  37.6909015 120.3240272  80.1403007  38.6936291
 120.0677206  79.7399643  39.5244499 119.6993140  80.8546801  38.5686431
 124.6352610  82.8799081  41.2007583 124.0752168  82.9492270  41.9739145
 124.0296113  82.7040065  40.4807079 107.7047818  94.3135808  42.9525769
 107.5880203  95.2581240  42.8504459 106.8840265  94.0109369  43.3411568
 117.5924353  89.0385944  33.7982362 118.4269957  88.6067142  33.6159837
 117.4308696  88.8667957  34.7259256 117.2470245  85.5418057  35.1638701
 117.1919049  85.3762328  34.2227145 116.6216300  86.2494090  35.3200891
 110.5566371  75.0426166  34.7424020 110.5445040  75.9868006  34.8992290
 111.4489792  74.8596311  34.4483481 108.7302333  94.9664070  46.1681698
 109.6329579  94.9987680  46.4848193 108.5039703  94.0364521  46.1828033
 110.4855935  93.7195056  42.8291776 109.5351566  93.7196918  42.7156148
 110.7888421  92.9727791  42.3127811 114.3718490  71.6368943  38.9969956
 113.6050886  71.0827429  39.1426639 114.7829195  71.7090811  39.8584108
 126.2208628  99.5555595  43.8937539 126.8587038  99.4362342  43.1900879
 126.1029471 100.5036439  43.9525491 123.0298334  99.5083023  43.8299063
 122.6916846  99.3924087  42.9419598 123.8988103  99.1074188  43.8100069
 118.8885150 101.3618499  39.8195954 118.3250015 101.2708436  39.0512242
 118.7737545 100.5418404  40.2998447 123.5118117 100.6617875  49.7885269
 123.5006758 100.2670673  48.9165772 123.6738757  99.9283947  50.3819040
 116.4349582 102.8569691  42.6580175 117.2270874 102.5160515  42.2426474
 116.6746232 102.9664666  43.5782328 124.4684709 105.0289467  35.1310419
 123.8172689 105.6143547  34.7444433 125.2629072 105.5595662  35.1905457
 118.3940336 102.1178604  35.5297553 119.1671212 101.5707591  35.3910429
 118.7465735 102.9822853  35.7412015 120.2325378 103.4454986  48.7364453
 119.9415244 104.3500617  48.6211119 120.8682363 103.4871514  49.4508522
 121.1581585 100.8231835  45.3265812 121.7545158 100.5987857  44.6122775
 121.2156557 100.0816580  45.9291260 120.7306614  98.2771270  33.1616003
 120.9832134  97.7552791  32.3999466 119.7931173  98.1137416  33.2642687
 125.7749897  97.2807049  40.9690747 126.5612986  96.8626472  40.6181164
 126.0388601  98.1853141  41.1372395 125.9459974 102.7179899  35.6679403
 125.3105807 102.7914525  36.3800308 125.6157380 103.3073498  34.9898483
 131.1758324  97.2182282  41.8723725 131.9083496  96.6481499  42.1061555
 130.4197679  96.8303882  42.3130231 120.4502902 100.1799376  35.3640378
 120.3339161  99.5044280  36.0321463 120.5605162  99.6931750  34.5472531
 122.7934443  99.6409523  39.0687068 122.4292651  99.1140144  39.7799989
 123.6501559  99.2507992  38.8953553 128.6983744  90.9303856  46.3318334
 128.3667069  91.7999267  46.1079549 128.1029357  90.6140140  47.0112364
 122.4339930  94.6699423  34.0648416 122.6014333  95.5379659  34.4318887
 122.2437099  94.8326705  33.1409705 125.1915264 103.1316402  45.7314246
 124.8915987 104.0341441  45.6230054 124.8466323 102.8648585  46.5835399
 118.6427745  99.5830199  41.7650951 117.7178242  99.4506413  41.9728643
 118.8912158 100.3624418  42.2620893 128.5912407  95.6498942  43.4111684
 127.6829285  95.5814350  43.1170445 128.5400003  96.1270887  44.2393509
 122.4129151  97.1257080  35.0495083 122.2928776  97.5714131  35.8880563
 121.7181740  97.4742398  34.4908621 116.0036556  99.2263472  42.5994740
 116.1328937  99.4797951  43.5134152 115.3234007  99.8191180  42.2799395
 120.1736043 109.8960722  38.6985214 120.0960073 110.8468547  38.7773695
 119.5697687 109.5506595  39.3560140 122.6653273  97.0688588  51.3546581
 121.8886607  97.6282508  51.3449446 123.3043836  97.5545371  51.8761451
 130.4574054  93.8515380  45.1889558 129.8148434  94.1447914  44.5429352
 129.9528982  93.7368301  45.9942754 128.1114217  97.5978554  35.8775417
 129.0232074  97.8305940  35.7023115 127.6023864  98.1815598  35.3150496
 120.9199645  99.8774041  50.9164548 121.6614330 100.4159085  50.6399372
 120.2136631 100.5040330  51.0736100 126.3954985 102.0203181  49.5136710
 126.8038341 101.5785592  48.7691342 125.6732247 101.4455809  49.7670902
 122.7486055  96.9575788  46.8870267 123.5947250  97.3815202  47.0304916
 122.6884693  96.3009413  47.5808830 126.7183800 102.5804372  43.2688998
 126.0892662 102.7450086  42.5665066 126.3309462 102.9945982  44.0399962
 130.5973032 103.5158810  40.6233362 129.9124070 103.8957711  40.0730396
 130.6816881 104.1254137  41.3565310 125.8985500  94.6180157  48.5451440
 125.6546432  95.3722217  48.0085716 126.1745431  94.9965504  49.3798687
 127.8523963 101.1618769  47.2228706 128.0640858 101.8050529  46.5463087
 127.8053711 100.3281085  46.7550636 125.4550192  93.7736590  44.1265278
 124.5934671  94.0717843  44.4182015 125.4812627  93.9906988  43.1946311
 122.2711762 102.3178780  40.5339084 122.7350107 102.5966483  39.7443706
 122.0068560 101.4162225  40.3512174 119.1635843 101.8650262  43.4718847
 119.7337200 102.2937530  42.8336331 119.7543954 101.5832846  44.1703032
 121.2080648  98.4401933  37.3428649 121.9104691  98.8922976  37.8102575
 120.8761276  97.7985751  37.9708542 119.6561009  97.0313689  51.7179858
 119.0259670  97.7129970  51.9515255 119.5497097  96.9196771  50.7732996
 114.9505982  96.6985485  42.6445782 114.1605036  96.9543014  42.1685893
 115.4417229  97.5133823  42.7497823 128.9669791 104.0390724  45.3951063
 129.7887235 103.6370912  45.1133745 128.9632194 103.9358959  46.3467179
 116.9020727  97.0630064  39.6029259 116.1051890  97.1748759  40.1212755
 116.6746319  97.4016717  38.7370149 122.7326395 103.5874768  47.5511774
 122.7970827 104.0495175  48.3869945 122.0237318 102.9572133  47.6794083
 113.2343685  96.9515976  45.0760773 113.4851723  97.8362986  45.3418349
 113.7703233  96.7720577  44.3035865 137.0575784 100.3829473  41.7436035
 136.3039493  99.8136871  41.5880039 137.1923325 100.3492137  42.6906669
 122.4474412 105.2542875  37.4190754 122.3120087 106.0994411  37.8475602
 122.9884225 105.4562153  36.6556688 118.9341752  91.3334455  54.0805109
 118.5408697  90.7800654  54.7552753 119.7507892  91.6445033  54.4711627
 115.9003810 102.7718313  37.9918679 116.4128330 103.5661563  38.1424244
 116.5526522 102.0744604  37.9252280 117.7098694 105.8884069  40.0741432
 117.8865323 106.8102034  39.8862416 118.5055528 105.5742489  40.5035812
 121.8509713  92.7492334  51.6725366 122.5919426  93.3499487  51.5929828
 122.0827636  92.0069972  51.1143408 116.9951051  97.9348701  49.9503595
 116.8804566  97.0333959  50.2510694 116.1395569  98.1812398  49.5988412
 124.0742889 105.8766442  51.5491096 123.6306743 105.0902820  51.2312000
 124.7360102 106.0645592  50.8834987 118.8330010 107.4062243  46.0751774
 119.3837435 107.2779307  45.3028768 117.9941486 107.7057132  45.7246667
 126.1724127 106.1569242  49.5772497 126.1542602 106.9778123  49.0852766
 127.0944047 106.0323317  49.8022638 122.6297181 103.6713371  50.4196006
 123.1625518 102.9101659  50.1895314 122.1011262 103.3787023  51.1620160
 125.7966876  88.7773437  45.9489647 125.4531145  89.6675079  45.8728758
 126.1645838  88.5875095  45.0859232 113.8652726 101.1006967  38.7678250
 114.7027948 101.5103976  38.5511957 114.0430994 100.1606410  38.7378443
 125.7617159  98.7682048  34.4562082 125.2463782  99.5386653  34.6950470
 125.4894467  98.0947184  35.0795144 123.3464270  93.6131749  39.5147321
 122.4905866  93.2238599  39.3352960 123.7591221  93.6923710  38.6547106
 124.8763416  91.1478092  43.9138881 124.3728212  91.1108227  43.1006686
 125.1694023  92.0570835  43.9735537 121.1206302  91.2316822  42.9205062
 121.9859299  91.0359631  42.5610952 121.1883811  91.0027174  43.8474419
 130.7351433 101.5214403  36.3915256 129.9580875 101.1825562  35.9470418
 131.4142914 101.5267026  35.7170221 125.5503462  96.6409140  36.2821864
 125.2453597  96.9555289  37.1332007 126.5033904  96.7190560  36.3249197
 123.9949894 102.7999364  37.9314818 123.4671255 102.0652123  37.6188055
 123.4937396 103.5774040  37.6854786 128.9742740 100.9948384  43.0481864
 128.3166414 101.6847645  43.1361993 129.7783139 101.3844816  43.3915850
 118.7268621  93.4619030  40.2921429 119.3012373  93.2394211  39.5594622
 119.3139604  93.5307724  41.0450030 127.7848198  99.3492757  41.0985806
 128.2980080  99.9822749  41.6007515 128.4349422  98.7493952  40.7329166
 119.0538208  95.4923491  34.3117314 118.2175521  95.8298177  34.6326589
 118.9142978  95.3572471  33.3744451 121.0291289  90.3360279  39.0196499
 120.3755701  90.0209296  38.3953113 120.9871763  89.7136019  39.7456322
 122.1402494 100.6179574  30.9349791 121.2329555 100.3868827  31.1340940
 122.6373526  99.8217193  31.1223772 125.0470573 109.3277081  33.8546477
 124.3732271 109.6308778  34.4631435 125.4336395 110.1306161  33.5051934
 124.2629029  96.8242212  43.3444146 123.3451591  97.0457159  43.1865834
 124.6789173  96.8988523  42.4855854 125.0464077  98.2233628  38.4746826
 125.7935896  98.7355025  38.1653949 125.3155667  97.9017681  39.3351220
 123.3190727 100.7192169  35.4573781 122.4101946 100.4351201  35.5546251
 123.3485811 101.1391247  34.5977088 128.5509995 104.3298758  39.2264948
 128.0972322 103.4889668  39.2830139 127.9203961 104.9660157  39.5639728
 127.4942914  95.2590744  40.4565616 126.7565671  94.7468130  40.7875858
 127.7469688  94.8191126  39.6448893 126.9942934 106.1675255  40.1614766
 127.2865908 106.7280312  39.4427132 127.5041554 106.4603816  40.9167926
 127.5954541  88.0366996  41.0507385 127.9013418  87.1764360  40.7633300
 128.3207146  88.6284616  40.8506379 113.8878898  98.4397683  39.4388983
 113.6903297  97.8467043  38.7140050 113.3325562  98.1349893  40.1564922
 121.8675621  98.3320789  41.5583576 121.9224231  97.3794626  41.4826053
 121.0566823  98.4880228  42.0424875 123.0166815 102.2600912  32.7961859
 122.5786245 101.5436771  32.3367497 123.7577256 102.4877027  32.2346951
 119.8067981  96.9497849  39.3173955 118.9935847  97.2492020  39.7239147
 120.3026975  96.5553538  40.0348437 121.9576559 106.9455606  41.2508220
 121.9152738 107.1716452  40.3216752 122.8739258 106.7118981  41.3994021
 125.4042193  97.4139673  48.1488849 125.7591581  97.6411147  49.0083315
 126.0514324  97.7458050  47.5266104 131.1339930 100.5358109  38.8538178
 130.9957828 100.7259705  37.9259367 130.7776149 101.2977492  39.3106229
 119.2982056  94.5216205  44.9335190 119.9381435  94.3804964  44.2358153
 118.4659586  94.2350718  44.5573792 131.1609309 102.6034636  43.8649449
 131.5945816 102.5109925  44.7132503 131.8740890 102.5792137  43.2269465
 120.0742360 103.8218635  41.0470182 120.8682958 103.3268955  40.8452757
 119.3634052 103.2936498  40.6837888 124.8937204 106.2036730  45.3982550
 124.9474227 106.7727667  46.1660266 124.0251986 106.3738616  45.0336587
 116.3825123  97.9661717  37.1229935 115.4522711  97.9046172  37.3399897
 116.4782595  97.4437669  36.3266576 116.3010672  94.4916530  39.7108177
 116.5617490  95.4061863  39.6017337 117.1227845  94.0240972  39.8604790
 117.7735598  95.9054287  46.8807001 118.4458651  95.6971649  46.2319650
 116.9465384  95.7076373  46.4412234 132.0224859 102.6458337  46.3982335
 132.2160749 103.5504148  46.6441610 131.9225477 102.1865756  47.2320920
 123.6761170  92.5316228  48.8972662 123.0289085  93.2306177  48.8037139
 124.4462185  92.9652372  49.2648910 127.0839968 102.7965080  51.9723215
 126.9325474 102.5675631  51.0553299 127.0744647 103.7535681  51.9854560
 123.8525304 100.3696993  46.9569482 124.7817364 100.5208152  46.7838449
 123.4316334 100.4581013  46.1018128 122.6513636 104.3947657  44.7268019
 122.5124722 104.0266441  45.5993958 121.8628232 104.9095296  44.5551977
 123.2461788 109.4956753  36.0693556 123.4213543 109.0244797  36.8839179
 122.5594576 110.1222520  36.2974817 124.2018851 103.7729260  42.1156857
 123.8668684 103.7330030  43.0114507 123.7022797 103.1073976  41.6427267
 118.1763095  99.1796890  47.6409438 118.0382893  98.4477128  48.2420977
 119.0868018  99.0905790  47.3593626 127.1378043 101.1185294  32.3893917
 126.5207213 100.3932122  32.2926970 126.6694531 101.8794654  32.0460991
 120.8045396  98.8916849  47.1293118 121.5145014  98.2510041  47.0879736
 120.7614704  99.1429744  48.0519299 128.7932174 105.8284202  50.0499697
 128.7344720 105.1443422  49.3830280 129.1951693 106.5703192  49.5980323
 119.5174330  95.8782067  48.9488758 118.9811687  95.4272805  49.6010354
 118.9291038  96.0127976  48.2059222 117.8122873 112.6446116  42.8433416
 118.0519471 113.2764640  43.5212435 116.9692070 112.2934156  43.1298775
 118.9276589  95.3370718  31.5115221 118.0506055  95.2159519  31.1477468
 119.4034342  94.5456797  31.2594110 128.7949582 103.7923786  48.2813677
 127.9076360 103.4549708  48.4040076 129.3648133 103.0606817  48.5182442
 110.4478729 100.1247878  41.6056728 111.1349768  99.8109608  41.0177744
 110.2926857 101.0289243  41.3323980 115.2513451  95.0138075  46.0341752
 115.1671640  94.4063744  45.2992162 114.4296157  95.5047093  46.0351248
 122.3250735 108.4525239  45.2474920 122.2520906 109.2580210  45.7594225
 121.8828128 108.6517204  44.4222942 122.1140515 107.6897009  38.7577742
 121.3308036 108.2318689  38.8515966 122.8133260 108.2070988  39.1571983
 125.4237165  93.4991638  41.4011947 125.9205864  92.7461600  41.0813017
 124.6524146  93.5355955  40.8355156 133.2766922  99.2032004  43.0430239
 133.2656798 100.0856719  42.6724172 132.4084302  98.8503554  42.8484776
 124.7849418 108.3512073  47.4033079 125.4977391 108.9859537  47.3308980
 124.2939447 108.4475939  46.5873081 126.5066945 102.2563325  38.9750370
 125.5723224 102.3764788  38.8055075 126.6843614 101.3535792  38.7110380
 122.0072133  95.6409021  41.1283632 121.6369921  95.0880061  41.8164537
 122.5031226  95.0367155  40.5758632 129.8939497  98.0980645  39.5100405
 130.3599949  98.9308636  39.4360707 130.3446997  97.6325626  40.2145663
 119.8361332 106.1006516  48.2238650 120.5370791 106.7342999  48.3768044
 119.3656447 106.4421248  47.4634289 127.9615728 104.4424466  36.5086557
 128.2375572 104.3281060  37.4180431 127.0920227 104.0441951  36.4698730
 127.8656159  90.4661232  43.5491306 126.9519239  90.6965458  43.7173513
 128.2949261  90.5499676  44.4005338 127.6362618  98.6551124  46.0491200
 126.9834068  98.9027031  45.3943653 128.0142998  97.8415262  45.7153677
 124.5969792 108.6910817  40.1519370 124.7792186 107.8732473  40.6147123
 125.4202778 108.9078509  39.7144260 124.9311957 107.6179002  37.4134419
 125.4599724 107.1071456  36.8004581 125.1940177 107.3021532  38.2779952
 123.6850191  99.3970935  52.5357237 123.0090828  99.2965064  53.2059612
 124.5077825  99.2410148  52.9993234 115.4329050 105.6342871  45.1569752
 116.0182487 104.8886559  45.2897657 115.2353888 105.9446828  46.0406416
 118.2867705 108.6694119  40.1732195 117.6178081 109.1540246  39.6896235
 118.1480575 108.9163339  41.0875573 110.0246705  98.2048471  43.8774195
 110.0630804  97.6712062  44.6711314 109.5186998  97.6783677  43.2585173
 122.4272974 110.7037862  46.7714853 122.9791282 110.8669484  47.5363938
 122.7679167 111.2942300  46.0994878 117.4037467  93.0513012  47.3736738
 117.4678794  93.9127843  46.9614135 117.3404587  92.4387014  46.6409096
 116.8789740  95.1236144  51.0209772 117.5061778  94.7413222  51.6347296
 116.0217658  94.9050346  51.3865465 127.2783848 105.5299120  52.6263507
 127.8223752 106.1429078  52.1318462 126.6970693 106.0878698  53.1430521
 113.6555282  96.9312574  36.9528127 113.9508723  96.0223252  36.8995181
 112.7543318  96.9100313  36.6309129 125.5641361 108.6519838  43.7578535
 125.4392501 107.8509577  43.2489481 126.2220452 109.1466031  43.2692505
 117.1849529  95.0068570  42.9355675 116.4636115  95.6204538  42.7963149
 117.9742785  95.5426335  42.8572321 127.6276270 106.4528858  45.3858085
 126.6806605 106.3334209  45.3136412 127.9759043 105.5651356  45.4684347
 119.9875843  92.3422997  49.2096327 120.5110245  92.5885293  49.9722637
 119.7688176  93.1743031  48.7899465 115.3843124  94.6126671  37.0767452
 115.0555830  93.7324050  36.8942558 115.7382495  94.5574340  37.9643841
 124.6322703 106.2481574  41.5862438 124.4847665 105.3198281  41.7670008
 125.4576196 106.2701665  41.1019513 118.4984947  94.8999641  37.4442930
 118.8381020  95.4285562  36.7221538 118.9457068  95.2380047  38.2201496
 128.2356825 107.0710133  42.6727310 129.1603372 106.8652994  42.5351761
 128.0672128 106.8226534  43.5816652 121.1928388  93.2836692  46.8945998
 120.8525208  92.4844505  47.2966678 120.4867394  93.5838403  46.3222831
 121.8444860  90.3686004  45.3473321 122.6670929  89.8946482  45.2252211
 122.0882923  91.1476488  45.8472007 120.4853094  93.3974263  35.6436222
 121.2061457  93.7755515  35.1399939 119.8618398  94.1163139  35.7471200
 124.6284217  94.1019412  36.5794555 124.8447832  94.9844049  36.2783383
 124.1478284  93.7105625  35.8500197 119.3683439  97.0605125  43.1565299
 119.2228019  97.3745428  44.0489581 118.8908642  97.6790025  42.6036198
 121.2279821  94.0507673  43.2046189 121.2141390  93.1548766  42.8678487
 121.9452250  94.0578336  43.8384475 123.0805952  94.4845013  45.2499316
 122.8223730  95.4062084  45.2483647 122.5490992  94.0875447  45.9399781
 128.0252141 107.5895800  38.0289402 128.1989018 107.0242223  37.2763254
 128.5181032 108.3896695  37.8468892 113.8429101  99.6010469  46.0952961
 113.2982569 100.3770277  46.2273235 114.7208451  99.9481274  45.9372082
 120.6316717  92.9322053  38.4733759 120.7532629  92.0038699  38.6724647
 120.3418760  92.9460739  37.5612075 123.5007908  90.6176963  41.6100479
 123.5229605  90.6816297  40.6552458 123.9175967  89.7781472  41.8040985
 133.8791532 100.3532223  39.6479701 134.3222678  99.6039548  39.2498825
 133.0018042 100.3442359  39.2653433 129.0127313 106.9062564  35.1286300
 129.7078218 107.5269257  35.3473615 129.3550463 106.0557916  35.4038678
 114.6295123  98.7280365  48.9883117 113.8876859  98.8763001  49.5747748
 114.3087867  98.9888631  48.1249867 130.9118736 104.3562270  36.6573631
 131.4370061 104.6949543  35.9322951 130.8241089 103.4209285  36.4736765
 122.5738785 108.2696344  48.7863507 122.8825912 108.0245490  49.6586207
 123.3714267 108.4742982  48.2982378 122.5959397 110.4234253  41.0168884
 122.1564388 109.9310632  41.7101741 123.3467514 109.8807221  40.7760959
 115.0751736 106.6145794  41.0193512 115.9009756 106.3149566  40.6392156
 114.7245788 105.8453417  41.4683301 120.0433269 105.9672262  43.0891186
 119.4213279 105.3042967  42.7893414 120.7138136 105.9933394  42.4064833
 113.2760341 104.5332121  41.9782446 112.4392250 104.1054295  41.7966447
 113.2483987 104.7264564  42.9153237 120.1157797  94.4454050  52.6823692
 120.1645952  95.3216173  52.3001461 120.6580311  93.9031443  52.1095335
 130.6012643 104.9895174  51.9624829 129.8108186 104.9719313  51.4229328
 130.3645997 105.5283467  52.7173865 130.7210518 101.8387640  49.2757557
 130.7708523 101.6737647  50.2173080 130.6124441 100.9714899  48.8855438
 119.6046776 104.5176186  36.5649646 119.7534897 105.2011650  35.9116319
 120.4113220 104.4981276  37.0799102 128.0114280  97.8218568  50.5916864
 128.9124143  97.6825033  50.3000862 128.0862254  97.9873023  51.5315041
 122.3457085  95.1985423  49.4370050 121.4760395  95.4918989  49.1652639
 122.5816566  95.7825868  50.1577314 132.2228714 104.2584582  49.5199579
 131.9313523 104.6214562  50.3563040 131.6100846 103.5451590  49.3412911
 133.4224397 101.8237461  42.0402149 134.2571288 102.2627265  42.2039709
 133.5583526 101.3476115  41.2210395 130.4715903  99.3817196  47.9879637
 130.9470024  99.5744842  47.1798488 129.5481468  99.4376382  47.7423020
 117.3599409 100.5441363  37.5710715 117.1145451  99.6403693  37.7690925
 117.5295324 100.5458514  36.6290193 125.0496119  91.4165040  46.9535471
 125.5678063  92.1526067  46.6281959 124.6951252  91.7229033  47.7882230
 116.6295057  96.2769721  35.0696877 115.9364302  96.3514076  34.4136913
 116.3846809  95.5130065  35.5918393 125.3008713  87.8365322  42.4736367
 125.5810467  87.1688511  43.0996794 126.0859320  88.0294418  41.9611031
 123.1042182 107.0124316  34.0361394 122.5316149 107.6314503  33.5831865
 123.6774975 107.5623678  34.5701316 129.1717572  96.2582956  46.2207942
 130.1234995  96.3581054  46.2420166 129.0021022  95.4661225  46.7306027
 127.1931951  93.3438539  46.4067343 126.5981883  93.6243552  45.7113832
 126.9081648  93.8332440  47.1784084 126.3239442 107.2961466  35.1669976
 127.2570115 107.2307028  35.3702851 126.2362654 108.1317733  34.7084509
 128.9527458 106.6127337  32.1273923 128.8741090 106.2787200  33.0209681
 129.7737125 107.1049105  32.1265396 131.6505649  99.4789076  45.3350242
 131.6181970  98.5405077  45.5209926 132.2606273  99.5573113  44.6016067
 123.4888980  98.3485129  31.3777446 124.4348085  98.2191337  31.4465864
 123.1103225  97.6099791  31.8546874 131.8000138  96.2700119  45.3808525
 131.2839187  95.4858576  45.1938454 132.6840086  95.9418836  45.5455045
 129.4610865  90.0141135  41.3404338 129.2635686  89.7056223  42.2247670
 130.0710570  90.7402774  41.4702268 135.5497496  98.6812945  45.0730730
 134.8230660  98.5468910  44.4647222 135.1344783  98.9889774  45.8787448
 123.3727673 102.4002875  52.8378103 124.2930682 102.5781474  53.0318150
 123.3377256 101.4558920  52.6857802 121.6731897  96.2735105  31.3132331
 120.7663353  95.9768218  31.3895045 121.9507878  95.9764923  30.4466618
 112.5909838  97.5941469  41.7631378 112.2712622  96.7406777  41.4705752
 112.0443266  97.8090047  42.5189345 116.3689745 100.3103910  45.4800884
 116.5875755 101.2421018  45.4988918 116.7815519  99.9511884  46.2655688
 123.2893963  90.8171995  37.4676573 122.4794692  90.4719080  37.8431819
 123.9778380  90.5079539  38.0564184 125.2184511  89.8950042  39.0900869
 125.7715550  90.3145495  39.7490892 125.4554598  88.9685790  39.1323825
 121.2417611  95.8837115  54.8703633 121.1414338  96.8331472  54.8015724
 121.0239153  95.5555354  53.9979703 120.4430682  93.1322041  31.4544311
 121.3049846  93.4576939  31.7140128 120.6281026  92.3453536  30.9417376
 112.4598098 101.2144380  43.7324499 111.7661569 100.7998333  43.2194454
 113.2071089 101.2564917  43.1357918 128.5963319  92.0050567  38.5979534
 128.0161988  92.6635371  38.2157586 128.3299251  91.1827912  38.1866951
 127.0466885  91.4055625  40.8000854 127.5466663  91.5172159  39.9915173
 127.6902493  91.1016678  41.4401662 121.1048881  99.3134254  53.6868695
 120.6215962 100.1134614  53.8932584 121.1909820  99.3242199  52.7336139
 114.3734840 101.1462634  41.6090514 114.3505528 101.2450321  40.6572397
 114.6835477 101.9927785  41.9307680 117.0322218 103.2038789  45.7237129
 117.9865472 103.1722731  45.6567060 116.8334742 102.7429413  46.5387355
 117.6221600 101.7739905  48.2907926 118.4414489 102.2683984  48.3142764
 117.8958408 100.8571873  48.2625494 127.3788197  94.1650657  37.6535882
 126.4914052  94.4500308  37.4356077 127.7942186  94.0044421  36.8063159
 130.7302733  94.1897178  41.3690221 131.5063123  94.6793631  41.6414838
 130.0050867  94.6155233  41.8262091 133.1675291  94.9024798  42.4264162
 133.7619782  94.6620534  41.7157470 133.2401875  94.1831928  43.0537698
 115.3872447 108.7458409  42.7407326 115.2526915 107.9858809  42.1745325
 114.9704509 109.4699308  42.2736115 126.5231410 103.9295332  31.7483902
 127.2267260 104.1345335  32.3641557 125.7994059 104.4972094  32.0132985
 127.3529220  99.6805193  37.8686172 127.2964422 100.1373745  37.0293804
 127.9057563  98.9195878  37.6909015 131.1634026  95.4694925  38.6936291
 130.9070960  95.0691561  39.5244499 130.5386894  96.1838719  38.5686431
 135.4746364  98.2090998  41.2007583 134.9145922  98.2784188  41.9739145
 134.8689867  98.0331983  40.4807079 118.5441573 109.6427726  42.9525769
 118.4273957 110.5873158  42.8504459 117.7234019 109.3401287  43.3411568
 128.4318107 104.3677861  33.7982362 129.2663711 103.9359060  33.6159837
 128.2702450 104.1959875  34.7259256 128.0864000 100.8709975  35.1638701
 128.0312803 100.7054246  34.2227145 127.4610055 101.5786007  35.3200891
 112.8756515  96.1078039  48.9900123 113.5215378  95.5976993  49.4787349
 112.6673666  96.8446721  49.5643549 125.4009907 103.1758886  54.4892264
 126.2701066 103.3499539  54.1278899 124.9216658 103.9953303  54.3667993
 121.3960125  90.3718084  34.7424020 121.3838795  91.3159923  34.8992290
 122.2883547  90.1888229  34.4483481 119.5696087 110.2955987  46.1681698
 120.4723334 110.3279598  46.4848193 119.3433457 109.3656438  46.1828033
 121.3249689 109.0486974  42.8291776 120.3745320 109.0488836  42.7156148
 121.6282175 108.3019709  42.3127811 125.2112245  86.9660860  38.9969956
 124.4444640  86.4119347  39.1426639 125.6222950  87.0382729  39.8584108
 117.2154006  93.2545656  53.0875138 118.0785467  92.8982461  53.2978462
 116.6419416  92.9159551  53.7750542 133.8692089 114.8374940  43.8299063
 133.5310600 114.7216005  42.9419598 134.7381857 114.4366106  43.8100069
 129.7278905 116.6910417  39.8195954 129.1643770 116.6000354  39.0512242
 129.6131300 115.8710321  40.2998447 134.3511872 115.9909792  49.7885269
 134.3400513 115.5962590  48.9165772 134.5132511 115.2575865  50.3819040
 127.2743336 118.1861608  42.6580175 128.0664628 117.8452433  42.2426474
 127.5139987 118.2956584  43.5782328 131.0719133 118.7746904  48.7364453
 130.7808999 119.6792535  48.6211119 131.7076117 118.8163432  49.4508522
 131.9975340 116.1523753  45.3265812 132.5938912 115.9279775  44.6122775
 132.0550311 115.4108498  45.9291260 136.6143651 112.6098966  40.9690747
 137.4006740 112.1918389  40.6181164 136.8782355 113.5145058  41.1372395
 133.6328198 114.9701441  39.0687068 133.2686405 114.4432062  39.7799989
 134.4895314 114.5799910  38.8953553 129.4821500 114.9122116  41.7650951
 128.5571996 114.7798330  41.9728643 129.7305913 115.6916336  42.2620893
 126.8430311 114.5555390  42.5994740 126.9722692 114.8089869  43.5134152
 126.1627762 115.1483098  42.2799395 133.5047028 112.3980505  51.3546581
 132.7280362 112.9574425  51.3449446 134.1437591 112.8837288  51.8761451
 131.7593400 115.2065959  50.9164548 132.5008084 115.7451003  50.6399372
 131.0530385 115.8332247  51.0736100 137.2348740 117.3495099  49.5136710
 137.6432096 116.9077510  48.7691342 136.5126001 116.7747727  49.7670902
 133.5879810 112.2867706  46.8870267 134.4341005 112.7107119  47.0304916
 133.5278447 111.6301330  47.5808830 136.7379255 109.9472074  48.5451440
 136.4940187 110.7014135  48.0085716 137.0139185 110.3257422  49.3798687
 136.2943947 109.1028507  44.1265278 135.4328426 109.4009761  44.4182015
 136.3206381 109.3198906  43.1946311 133.1105516 117.6470698  40.5339084
 133.5743862 117.9258401  39.7443706 132.8462314 116.7454142  40.3512174
 130.0029597 117.1942179  43.4718847 130.5730954 117.6229448  42.8336331
 130.5937709 116.9124764  44.1703032 132.0474402 113.7693850  37.3428649
 132.7498445 114.2214894  37.8102575 131.7155031 113.1277669  37.9708542
 130.4954764 112.3605607  51.7179858 129.8653424 113.0421888  51.9515255
 130.3890852 112.2488688  50.7732996 125.7899736 112.0277403  42.6445782
 124.9998790 112.2834931  42.1685893 126.2810983 112.8425741  42.7497823
 127.7414481 112.3921982  39.6029259 126.9445645 112.5040676  40.1212755
 127.5140074 112.7308634  38.7370149 133.5720149 118.9166685  47.5511774
 133.6364582 119.3787093  48.3869945 132.8631073 118.2864050  47.6794083
 124.0737439 112.2807893  45.0760773 124.3245477 113.1654903  45.3418349
 124.6096987 112.1012495  44.3035865 129.7735506 106.6626373  54.0805109
 129.3802452 106.1092571  54.7552753 130.5901647 106.9736951  54.4711627
 126.7397564 118.1010231  37.9918679 127.2522085 118.8953481  38.1424244
 127.3920277 117.4036521  37.9252280 132.6903467 108.0784252  51.6725366
 133.4313181 108.6791405  51.5929828 132.9221390 107.3361890  51.1143408
 127.8344805 113.2640619  49.9503595 127.7198321 112.3625876  50.2510694
 126.9789323 113.5104316  49.5988412 129.6723764 122.7354161  46.0751774
 130.2231189 122.6071224  45.3028768 128.8335240 123.0349050  45.7246667
 133.4690935 119.0005289  50.4196006 134.0019272 118.2393577  50.1895314
 132.9405016 118.7078941  51.1620160 136.6360630 104.1065355  45.9489647
 136.2924900 104.9966996  45.8728758 137.0039593 103.9167012  45.0859232
 124.7046481 116.4298885  38.7678250 125.5421703 116.8395894  38.5511957
 124.8824749 115.4898327  38.7378443 134.1858024 108.9423667  39.5147321
 133.3299620 108.5530517  39.3352960 134.5984976 109.0215627  38.6547106
 135.7157171 106.4770010  43.9138881 135.2121966 106.4400145  43.1006686
 136.0087778 107.3862753  43.9735537 131.9600057 106.5608740  42.9205062
 132.8253053 106.3651548  42.5610952 132.0277566 106.3319091  43.8474419
 129.5662376 108.7910947  40.2921429 130.1406128 108.5686129  39.5594622
 130.1533358 108.8599642  41.0450030 131.8685043 105.6652196  39.0196499
 131.2149456 105.3501214  38.3953113 131.8265518 105.0427937  39.7456322
 135.1022784 112.1534130  43.3444146 134.1845345 112.3749077  43.1865834
 135.5182927 112.2280440  42.4855854 124.7272652 113.7689600  39.4388983
 124.5297052 113.1758961  38.7140050 124.1719316 113.4641811  40.1564922
 132.7069376 113.6612707  41.5583576 132.7617985 112.7086543  41.4826053
 131.8960578 113.8172146  42.0424875 130.6461736 112.2789767  39.3173955
 129.8329601 112.5783937  39.7239147 131.1420730 111.8845455  40.0348437
 136.2435947 112.7431591  48.1488849 136.5985335 112.9703064  49.0083315
 136.8908079 113.0749968  47.5266104 130.1375810 109.8508122  44.9335190
 130.7775190 109.7096881  44.2358153 129.3053341 109.5642636  44.5573792
 130.9136114 119.1510553  41.0470182 131.7076713 118.6560873  40.8452757
 130.2027807 118.6228416  40.6837888 127.2218878 113.2953634  37.1229935
 126.2916466 113.2338090  37.3399897 127.3176350 112.7729587  36.3266576
 127.1404427 109.8208447  39.7108177 127.4011244 110.7353780  39.6017337
 127.9621599 109.3532890  39.8604790 128.6129352 111.2346204  46.8807001
 129.2852406 111.0263567  46.2319650 127.7859139 111.0368290  46.4412234
 134.5154924 107.8608145  48.8972662 133.8682839 108.5598095  48.8037139
 135.2855940 108.2944289  49.2648910 134.6919059 115.6988910  46.9569482
 135.6211119 115.8500070  46.7838449 134.2710089 115.7872931  46.1018128
 133.4907390 119.7239575  44.7268019 133.3518476 119.3558359  45.5993958
 132.7021987 120.2387214  44.5551977 135.0412605 119.1021177  42.1156857
 134.7062438 119.0621947  43.0114507 134.5416551 118.4365893  41.6427267
 129.0156849 114.5088807  47.6409438 128.8776647 113.7769046  48.2420977
 129.9261773 114.4197707  47.3593626 131.6439150 114.2208767  47.1293118
 132.3538769 113.5801959  47.0879736 131.6008458 114.4721662  48.0519299
 130.3568084 111.2073985  48.9488758 129.8205441 110.7564723  49.6010354
 129.7684793 111.3419893  48.2059222 121.2872483 115.4539796  41.6056728
 121.9743523 115.1401526  41.0177744 121.1320612 116.3581160  41.3323980
 126.0907205 110.3429992  46.0341752 126.0065394 109.7355662  45.2992162
 125.2689912 110.8339011  46.0351248 136.2630919 108.8283556  41.4011947
 136.7599619 108.0753518  41.0813017 135.4917901 108.8647872  40.8355156
 132.8465888 110.9700939  41.1283632 132.4763675 110.4171979  41.8164537
 133.3424980 110.3659072  40.5758632 134.5243945 114.7262852  52.5357237
 133.8484582 114.6256982  53.2059612 135.3471579 114.5702066  52.9993234
 126.2722805 120.9634789  45.1569752 126.8576241 120.2178477  45.2897657
 126.0747643 121.2738746  46.0406416 120.8640459 113.5340389  43.8774195
 120.9024559 113.0003980  44.6711314 120.3580752 113.0075595  43.2585173
 128.2431222 108.3804930  47.3736738 128.3072548 109.2419760  46.9614135
 128.1798342 107.7678931  46.6409096 127.7183494 110.4528062  51.0209772
 128.3455533 110.0705139  51.6347296 126.8611413 110.2342264  51.3865465
 124.4949037 112.2604491  36.9528127 124.7902478 111.3515170  36.8995181
 123.5937073 112.2392231  36.6309129 128.0243284 110.3360488  42.9355675
 127.3029870 110.9496455  42.7963149 128.8136540 110.8718253  42.8572321
 130.8269597 107.6714914  49.2096327 131.3503999 107.9177211  49.9722637
 130.6081931 108.5034949  48.7899465 126.2236878 109.9418589  37.0767452
 125.8949585 109.0615968  36.8942558 126.5776249 109.8866258  37.9643841
 129.3378702 110.2291559  37.4442930 129.6774774 110.7577480  36.7221538
 129.7850822 110.5671965  38.2201496 132.0322142 108.6128609  46.8945998
 131.6918963 107.8136422  47.2966678 131.3261149 108.9130320  46.3222831
 132.6838614 105.6977922  45.3473321 133.5064684 105.2238400  45.2252211
 132.9276678 106.4768406  45.8472007 131.3246849 108.7266180  35.6436222
 132.0455211 109.1047433  35.1399939 130.7012153 109.4455057  35.7471200
 135.4677972 109.4311329  36.5794555 135.6841586 110.3135967  36.2783383
 134.9872039 109.0397543  35.8500197 130.2077193 112.3897042  43.1565299
 130.0621774 112.7037346  44.0489581 129.7302397 113.0081943  42.6036198
 132.0673576 109.3799590  43.2046189 132.0535145 108.4840684  42.8678487
 132.7846004 109.3870254  43.8384475 133.9199707 109.8136931  45.2499316
 133.6617484 110.7354001  45.2483647 133.3884747 109.4167365  45.9399781
 124.6822855 114.9302387  46.0952961 124.1376323 115.7062195  46.2273235
 125.5602205 115.2773191  45.9372082 131.4710472 108.2613971  38.4733759
 131.5926383 107.3330617  38.6724647 131.1812514 108.2752657  37.5612075
 134.3401662 105.9468881  41.6100479 134.3623359 106.0108214  40.6552458
 134.7569721 105.1073390  41.8040985 125.4688877 114.0572283  48.9883117
 124.7270613 114.2054918  49.5747748 125.1481621 114.3180549  48.1249867
 125.9145491 121.9437712  41.0193512 126.7403511 121.6441484  40.6392156
 125.5639543 121.1745334  41.4683301 130.8827024 121.2964180  43.0891186
 130.2607033 120.6334885  42.7893414 131.5531891 121.3225312  42.4064833
 124.1154096 119.8624038  41.9782446 123.2786004 119.4346213  41.7966447
 124.0877741 120.0556482  42.9153237 130.9551551 109.7745968  52.6823692
 131.0039707 110.6508091  52.3001461 131.4974066 109.2323361  52.1095335
 133.1850840 110.5277340  49.4370050 132.3154149 110.8210907  49.1652639
 133.4210320 111.1117785  50.1577314 128.1993164 115.8733281  37.5710715
 127.9539206 114.9695611  37.7690925 128.3689078 115.8750431  36.6290193
 135.8889874 106.7456957  46.9535471 136.4071818 107.4817984  46.6281959
 135.5345006 107.0520951  47.7882230 127.4688811 111.6061639  35.0696877
 126.7758056 111.6805994  34.4136913 127.2240563 110.8421982  35.5918393
 136.1402468 103.1657240  42.4736367 136.4204222 102.4980429  43.0996794
 136.9253075 103.3586336  41.9611031 134.2121427 117.7294793  52.8378103
 135.1324437 117.9073392  53.0318150 134.1771010 116.7850838  52.6857802
 123.4303592 112.9233386  41.7631378 123.1106377 112.0698695  41.4705752
 122.8837021 113.1381965  42.5189345 127.2083500 115.6395827  45.4800884
 127.4269510 116.5712935  45.4988918 127.6209274 115.2803802  46.2655688
 134.1287718 106.1463913  37.4676573 133.3188446 105.8010998  37.8431819
 134.8172135 105.8371456  38.0564184 136.0578266 105.2241960  39.0900869
 136.6109305 105.6437413  39.7490892 136.2948352 104.2977708  39.1323825
 132.0811365 111.2129033  54.8703633 131.9808092 112.1623390  54.8015724
 131.8632907 110.8847272  53.9979703 123.2991852 116.5436298  43.7324499
 122.6055324 116.1290251  43.2194454 124.0464843 116.5856834  43.1357918
 131.9442635 114.6426172  53.6868695 131.4609717 115.4426532  53.8932584
 132.0303574 114.6534117  52.7336139 125.2128595 116.4754552  41.6090514
 125.1899283 116.5742239  40.6572397 125.5229231 117.3219702  41.9307680
 127.8715973 118.5330707  45.7237129 128.8259226 118.5014649  45.6567060
 127.6728496 118.0721330  46.5387355 128.4615355 117.1031823  48.2907926
 129.2808244 117.5975901  48.3142764 128.7352163 116.1863791  48.2625494
 126.2266202 124.0750326  42.7407326 126.0920669 123.3150727  42.1745325
 125.8098264 124.7991226  42.2736115 123.7150269 111.4369957  48.9900123
 124.3609133 110.9268911  49.4787349 123.5067420 112.1738638  49.5643549
 132.2353880 105.7010001  34.7424020 132.2232549 106.6451841  34.8992290
 133.1277301 105.5180147  34.4483481 136.0505999 102.2952778  38.9969956
 135.2838395 101.7411265  39.1426639 136.4616704 102.3674647  39.8584108
 128.0547760 108.5837574  53.0875138 128.9179222 108.2274379  53.2978462
 127.4813171 108.2451469  53.7750542  59.7486893  -6.6177311  34.1278385
  60.4614865  -5.9829846  34.0554287  59.2576921  -6.5213445  33.3118387
  57.3910448  -4.2651521  33.4960160  57.9428756  -4.1019900  34.2609245
  57.7316642  -3.6747084  32.8240185  57.5376259  -6.6993040  35.5108814
  57.8463386  -6.9443893  36.3831514  58.3351742  -6.4946401  35.0227684
  72.0239857  -0.0841871  30.6182845  72.6618267  -0.2035124  29.9146185
  71.9060700   0.8638973  30.6770797  68.8329563  -0.1314443  30.5544370
  68.4948075  -0.2473378  29.6664905  69.7019331  -0.5323278  30.5345376
  69.3149346   1.0220409  36.5130575  69.3037987   0.6273207  35.6411079
  69.4769986   0.2886481  37.1064347  62.2380811   3.2172225  29.3825481
  63.0302103   2.8763050  28.9671781  62.4777461   3.3267200  30.3027635
  70.2715938   5.3892001  21.8555726  69.6203917   5.9746082  21.4689740
  71.0660300   5.9198196  21.9150763  66.0356607   3.8057521  35.4609759
  65.7446473   4.7103151  35.3456426  66.6713592   3.8474048  36.1753829
  66.9612814   1.1834369  32.0511119  67.5576386   0.9590391  31.3368082
  67.0187786   0.4419115  32.6536567  68.5965672   0.0012057  25.7932374
  68.2323879  -0.5257322  26.5045296  69.4532788  -0.3889474  25.6198860
  70.9946492   3.4918936  32.4559553  70.6947215   4.3943975  32.3475360
  70.6497552   3.2251119  33.3080706  64.4458974  -0.0567267  28.4896258
  63.5209470  -0.1891053  28.6973949  64.6943387   0.7226952  28.9866200
  61.8067785  -0.4133994  29.3240047  61.9360166  -0.1599515  30.2379458
  61.1265236   0.1793714  29.0044702  65.9767272  10.2563256  25.4230521
  65.8991302  11.2071081  25.5019001  65.3728916   9.9109129  26.0805447
  68.4684502  -2.5708878  38.0791888  67.6917836  -2.0114958  38.0694752
  69.1075065  -2.0852095  38.6006758  66.7230874   0.2376575  37.6409855
  67.4645559   0.7761619  37.3644678  66.0167860   0.8642864  37.7981406
  72.1986214   2.3805716  36.2382016  72.6069570   1.9388126  35.4936649
  71.4763475   1.8058343  36.4916209  68.5517284  -2.6821678  33.6115573
  69.3978479  -2.2582264  33.7550222  68.4915922  -3.3388053  34.3054136
  72.5215029   2.9406906  29.9934305  71.8923891   3.1052620  29.2910373
  72.1340691   3.3548516  30.7645269  76.4004260   3.8761344  27.3478669
  75.7155299   4.2560245  26.7975702  76.4848110   4.4856671  28.0810617
  73.6555192   1.5221303  33.9474012  73.8672087   2.1653063  33.2708393
  73.6084940   0.6883620  33.4795942  68.0742990   2.6781314  27.2584390
  68.5381336   2.9569017  26.4689013  67.8099789   1.7764759  27.0757481
  64.9667071   2.2252796  30.1964153  65.5368429   2.6540064  29.5581638
  65.5575183   1.9435381  30.8948339  65.4592238  -2.6083777  38.4425165
  64.8290899  -1.9267496  38.6760562  65.3528326  -2.7200695  37.4978303
  74.7701020   4.3993259  32.1196370  75.5918464   3.9973446  31.8379051
  74.7663423   4.2961493  33.0712486  68.5357623   3.9477302  34.2757080
  68.6002056   4.4097709  35.1115252  67.8268547   3.3174667  34.4039390
  59.0374913  -2.6881490  31.8006080  59.2882952  -1.8034480  32.0663656
  59.5734462  -2.8676889  31.0281172  68.2505641   5.6145409  24.1436061
  68.1151316   6.4596945  24.5720908  68.7915454   5.8164687  23.3801994
  63.5129923   6.2486604  26.7986739  63.6896552   7.1704568  26.6107723
  64.3086757   5.9345023  27.2281119  62.7982280  -1.7048764  36.6748902
  62.6835795  -2.6063507  36.9756001  61.9426797  -1.4585068  36.3233719
  69.8774117   6.2368976  38.2736403  69.4337972   5.4505354  37.9557307
  70.5391331   6.4248126  37.6080293  64.6361239   7.7664777  32.7997081
  65.1868664   7.6381841  32.0274075  63.7972715   8.0659666  32.4491974
  71.9755356   6.5171776  36.3017804  71.9573831   7.3380657  35.8098073
  72.8975276   6.3925851  36.5267945  68.4328410   4.0315905  37.1441312
  68.9656746   3.2704193  36.9140620  67.9042491   3.7389557  37.8865467
  76.5382661   1.8816937  23.1160563  75.7612104   1.5428096  22.6715725
  77.2174142   1.8869560  22.4415528  69.7981122   3.1601898  24.6560124
  69.2702484   2.4254657  24.3433362  69.2968625   3.9376574  24.4100093
  74.7773968   1.3550918  29.7727171  74.1197643   2.0450180  29.8607299
  75.5814368   1.7447350  30.1161157  73.5879427  -0.2904709  27.8231112
  74.1011309   0.3425283  28.3252822  74.2380651  -0.8903514  27.4574472
  70.8501801   9.6879615  20.5791783  70.1763500   9.9911312  21.1876741
  71.2367623  10.4908696  20.2297241  70.0660258  -2.8155254  30.0689453
  69.1482819  -2.5940307  29.9111141  70.4820402  -2.7408943  29.2101160
  70.8495306  -1.4163838  25.1992133  71.5967125  -0.9042441  24.8899255
  71.1186895  -1.7379785  26.0596527  74.3541223   4.6901292  25.9510255
  73.9003551   3.8492202  26.0075445  73.7235190   5.3262691  26.2885035
  72.7974163   6.5277789  26.8860073  73.0897137   7.0882846  26.1672439
  73.3072783   6.8206350  27.6413232  67.6706850  -1.3076677  28.2828883
  67.7255460  -2.2602840  28.2071359  66.8598052  -1.1517237  28.7670181
  67.7607788   7.3058140  27.9753526  67.7183967   7.5318986  27.0462058
  68.6770487   7.0721515  28.1239327  71.2073422  -2.2257792  34.8734156
  71.5622809  -1.9986319  35.7328621  71.8545553  -1.8939416  34.2511411
  76.9371159   0.8960644  25.5783485  76.7989057   1.0862240  24.6504674
  76.5807377   1.6580026  26.0351536  76.9640538   2.9637171  30.5894756
  77.3977045   2.8712460  31.4377810  77.6772119   2.9394671  29.9514772
  65.8773589   4.1821169  27.7715489  66.6714187   3.6871489  27.5698064
  65.1665281   3.6539032  27.4083195  70.6968433   6.5639265  32.1227857
  70.7505455   7.1330201  32.8905573  69.8283214   6.7341150  31.7581894
  63.5766826  -3.7343179  33.6052308  64.2489880  -3.9425817  32.9564957
  62.7496613  -3.9321093  33.1657540  77.8256088   3.0060871  33.1227641
  78.0191978   3.9106682  33.3686916  77.7256706   2.5468290  33.9566226
  72.8871196   3.1567614  38.6968522  72.7356703   2.9278166  37.7798606
  72.8775876   4.1138215  38.7099867  69.6556533   0.7299527  33.6814788
  70.5848593   0.8810686  33.5083756  69.2347563   0.8183548  32.8263435
  68.4544865   4.7550191  31.4513326  68.3155950   4.3868976  32.3239264
  67.6659461   5.2697831  31.2797284  69.0493017   9.8559288  22.7938863
  69.2244772   9.3847331  23.6084485  68.3625805  10.4825054  23.0220123
  70.0050080   4.1331794  28.8402164  69.6699912   4.0932564  29.7359814
  69.5054025   3.4676510  28.3672574  63.9794324  -0.4600576  34.3654745
  63.8414122  -1.1920337  34.9666284  64.8899247  -0.5491676  34.0838933
  66.6076624  -0.7480617  33.8538425  67.3176243  -1.3887425  33.8125043
  66.5645933  -0.4967722  34.7764605  74.5963403   6.1886737  36.7745004
  74.5375949   5.5045957  36.1075587  74.9982921   6.9305727  36.3225630
  65.3205558  -3.7615399  35.6734064  64.7842915  -4.2124660  36.3255661
  64.7322267  -3.6269490  34.9304529  63.6154102  13.0048650  29.5678723
  63.8550700  13.6367175  30.2457741  62.7723298  12.6536690  29.8544082
  74.5980810   4.1526320  35.0058984  73.7107589   3.8152242  35.1285382
  75.1679361   3.4209352  35.2427749  61.0544680  -4.6259391  32.7587059
  60.9702868  -5.2333722  32.0237469  60.2327386  -4.1350373  32.7596555
  68.1281964   8.8127773  31.9720227  68.0552135   9.6182744  32.4839531
  67.6859357   9.0119739  31.1468248  67.9171743   8.0499543  25.4823048
  67.1339265   8.5921223  25.5761273  68.6164489   8.5673523  25.8817290
  70.5880647   8.7114607  34.1278385  71.3008619   9.3462072  34.0554287
  70.0970676   8.8078473  33.3118387  72.3098174   2.6165860  25.6995677
  71.3754453   2.7367322  25.5300381  72.4874843   1.7138326  25.4355687
  65.6392561   6.4609050  34.9483956  66.3402020   7.0945533  35.1013350
  65.1687676   6.8023782  34.1879596  73.7646957   4.8027000  23.2331863
  74.0406801   4.6883595  24.1425737  72.8951455   4.4044485  23.1944036
  73.4393847  -0.9846342  32.7736507  72.7865297  -0.7370435  32.1188959
  73.8174227  -1.7982204  32.4398984  70.4001021   9.0513351  26.8764677
  70.5823415   8.2335007  27.3392429  71.2234007   9.2681043  26.4389567
  70.7343186   7.9781536  24.1379725  71.2630953   7.4673991  23.5249888
  70.9971406   7.6624066  25.0025258  69.4881420  -0.2426531  39.2602544
  68.8122057  -0.3432402  39.9304919  70.3109054  -0.3987317  39.7238541
  61.2360279   5.9945405  31.8815059  61.8213716   5.2489093  32.0142963
  61.0385117   6.3049362  32.7651723  64.0898934   9.0296653  26.8977501
  63.4209309   9.5142780  26.4141541  63.9511804   9.2765873  27.8120880
  68.2304203  11.0640396  33.4960160  68.7822511  11.2272018  34.2609245
  68.5710396  11.6544834  32.8240185  62.6820968  -4.5161321  37.7455079
  63.3093007  -4.8984244  38.3592603  61.8248887  -4.7347119  38.1110771
  73.0815077   5.8901654  39.3508814  73.6254981   6.5031612  38.8563769
  72.5001922   6.4481232  39.8675827  71.3672590   9.0122372  30.4823842
  71.2423729   8.2112112  29.9734787  72.0251681   9.5068565  29.9937812
  73.4307498   6.8131392  32.1103392  72.4837834   6.6936743  32.0381719
  73.7790271   5.9253890  32.1929653  70.4353932   6.6084108  28.3107744
  70.2878894   5.6800816  28.4915314  71.2607425   6.6304199  27.8264819
  74.0388053   7.4312667  29.3972617  74.9634601   7.2255528  29.2597068
  73.8703357   7.1829068  30.3061958  65.1714667  -2.5792341  29.8810606
  65.0259248  -2.2652038  30.7734888  64.6939871  -1.9607441  29.3281505
  73.8283370   7.9498334  24.7534708  74.0020247   7.3844757  24.0008561
  74.3212261   8.7499229  24.5714198  59.6460329  -0.0386997  32.8198267
  59.1013798   0.7372811  32.9518542  60.5239679   0.3083808  32.6617389
  74.8158542   7.2665099  21.8531607  75.5109447   7.8871791  22.0718921
  75.1581692   6.4160450  22.1283985  60.4326351  -0.9117100  35.7128424
  59.6908087  -0.7634465  36.2993054  60.1119096  -0.6508835  34.8495173
  76.7149965   4.7164804  23.3818937  77.2401289   5.0552077  22.6568257
  76.6272318   3.7811820  23.1982072  68.3770014   8.6298878  35.5108814
  68.6857140   8.3848025  36.3831514  69.1745496   8.8345516  35.0227684
  68.3990626  10.7836788  27.7414191  67.9595616  10.2913166  28.4347047
  69.1498743  10.2409755  27.5006266  60.8782965   6.9748328  27.7438819
  61.7040985   6.6752100  27.3637462  60.5277017   6.2055951  28.1928607
  65.8464498   6.3274797  29.8136492  65.2244507   5.6645502  29.5138720
  66.5169365   6.3535928  29.1310140  59.0791570   4.8934655  28.7027752
  58.2423478   4.4656829  28.5211754  59.0515215   5.0867098  29.6398543
  76.4043871   5.3497708  38.6870135  75.6139415   5.3321847  38.1474635
  76.1677226   5.8886002  39.4419172  76.5241746   2.1990174  36.0002864
  76.5739751   2.0340182  36.9418387  76.4155670   1.3317433  35.6100745
  78.0259943   4.6187116  36.2444885  77.7344752   4.9817096  37.0808346
  77.4132075   3.9054124  36.0658218  79.2255626   2.1839996  28.7647456
  80.0602517   2.6229800  28.9285016  79.3614754   1.7078649  27.9455701
  76.2747131  -0.2580270  34.7124943  76.7501253  -0.0652623  33.9043795
  75.3512697  -0.2021084  34.4668327  72.1270670   7.6564001  21.8915283
  73.0601344   7.5909562  22.0948158  72.0393883   8.4920267  21.4329815
  74.7558687   6.9729871  18.8519230  74.6772319   6.6389734  19.7454988
  75.5768354   7.4651639  18.8510702  69.1758902   2.7605409  39.5623410
  70.0961911   2.9384008  39.7563456  69.1408485   1.8161455  39.4103109
  62.1720974   0.6706444  32.2046191  62.3906984   1.6023552  32.2234225
  62.5846748   0.3114418  32.9900995  67.0448840  -3.7560350  41.5948940
  66.9445566  -2.8065993  41.5261031  66.8270382  -4.0842111  40.7225010
  58.2629327   1.5746914  30.4569806  57.5692798   1.1600867  29.9439760
  59.0102318   1.6167451  29.8603225  66.9080110  -0.3263211  40.4114001
  66.4247191   0.4737149  40.6177891  66.9941049  -0.3155267  39.4581445
  62.8353447   3.5641323  32.4482435  63.7896701   3.5325266  32.3812367
  62.6365971   3.1031947  33.2632661  63.4252829   2.1342439  35.0153233
  64.2445718   2.6286518  35.0388070  63.6989637   1.2174407  34.9870800
  61.1903676   9.1060943  29.4652633  61.0558144   8.3461344  28.8990631
  60.7735738   9.8301843  28.9981422  73.1560449   0.0407728  24.5931479
  73.0995651   0.4976279  23.7539111  73.7088792  -0.7201588  24.4154321
  64.3472802  10.0030260  29.6771076  64.2305186  10.9475692  29.5749766
  63.5265248   9.7003821  30.0656875  74.2349336   4.7280395  20.5227668
  75.0694940   4.2961594  20.3405143  74.0733679   4.5562409  21.4504563
  58.6787743  -3.5319427  35.7145430  59.3246607  -4.0420473  36.2032655
  58.4704895  -2.7950745  36.2888855  71.2041136   3.5361421  41.2137571
  72.0732295   3.7102073  40.8524205  70.7247887   4.3555837  41.0913300
  65.3727316  10.6558522  32.8927004  66.2754563  10.6882132  33.2093499
  65.1464686   9.7258973  32.9073340  67.1280918   9.4089508  29.5537083
  66.1776549   9.4091370  29.4401455  67.4313404   8.6622243  29.0373117
  82.8633611  15.2450047  30.6182845  83.5012021  15.1256794  29.9146185
  82.7454454  16.1930891  30.6770797  79.6723318  15.1977475  30.5544370
  79.3341829  15.0818539  29.6664905  80.5413086  14.7968640  30.5345376
  75.5310133  17.0512951  26.5441261  74.9674998  16.9602888  25.7757549
  75.4162528  16.2312856  27.0243753  80.1543101  16.3512326  36.5130575
  80.1431741  15.9565125  35.6411079  80.3163740  15.6178399  37.1064347
  73.0774565  18.5464143  29.3825481  73.8695857  18.2054967  28.9671781
  73.3171215  18.6559118  30.3027635  81.1109692  20.7183919  21.8555726
  80.4597672  21.3037999  21.4689740  81.9054055  21.2490114  21.9150763
  75.0365319  17.8073056  22.2542860  75.8096195  17.2602043  22.1155736
  75.3890718  18.6717305  22.4657322  76.8750362  19.1349438  35.4609759
  76.5840228  20.0395069  35.3456426  77.5107346  19.1765966  36.1753829
  77.8006569  16.5126287  32.0511119  78.3970141  16.2882309  31.3368082
  77.8581540  15.7711032  32.6536567  77.3731597  13.9665722  19.8861310
  77.6257118  13.4447243  19.1244773  76.4356156  13.8031868  19.9887994
  82.4174880  12.9701500  27.6936053  83.2037969  12.5520924  27.3426470
  82.6813584  13.8747593  27.8617702  82.5884957  18.4074351  22.3924710
  81.9530790  18.4808977  23.1045615  82.2582364  18.9967950  21.7143789
  87.8183307  12.9076734  28.5969032  88.5508479  12.3375950  28.8306861
  87.0622663  12.5198334  29.0375537  77.0927886  15.8693828  22.0885685
  76.9764144  15.1938731  22.7566769  77.2030146  15.3826202  21.2717838
  79.4359427  15.3303975  25.7932374  79.0717634  14.8034596  26.5045296
  80.2926543  14.9402444  25.6198860  85.3408727   6.6198308  33.0563640
  85.0092052   7.4893719  32.8324855  84.7454341   6.3034592  33.7357671
  79.0764914  10.3593875  20.7893723  79.2439316  11.2274111  21.1564194
  78.8862083  10.5221157  19.8655012  81.8340247  18.8210854  32.4559553
  81.5340970  19.7235893  32.3475360  81.4891306  18.5543037  33.3080706
  75.2852728  15.2724651  28.4896258  74.3603225  15.1400865  28.6973949
  75.5337142  16.0518870  28.9866200  85.2337391  11.3393394  30.1356990
  84.3254268  11.2708802  29.8415751  85.1824986  11.8165339  30.9638816
  79.0554135  12.8151532  21.7740390  78.9353760  13.2608583  22.6125870
  78.3606723  13.1636850  21.2153928  72.6461539  14.9157924  29.3240047
  72.7753921  15.1692403  30.2379458  71.9658991  15.5085632  29.0044702
  76.8161027  25.5855174  25.4230521  76.7385056  26.5362999  25.5019001
  76.2122670  25.2401047  26.0805447  79.3078256  12.7583039  38.0791888
  78.5311590  13.3176960  38.0694752  79.9468819  13.2439822  38.6006758
  87.0999037   9.5409832  31.9134864  86.4573417   9.8342365  31.2674659
  86.5953966   9.4262753  32.7188061  84.7539201  13.2873005  22.6020724
  85.6657057  13.5200392  22.4268421  84.2448848  13.8710050  22.0395802
  77.5624629  15.5668493  37.6409855  78.3039313  16.1053537  37.3644678
  76.8561614  16.1934782  37.7981406  83.0379968  17.7097633  36.2382016
  83.4463324  17.2680044  35.4936649  82.3157230  17.1350261  36.4916209
  79.3911038  12.6470240  33.6115573  80.2372234  13.0709654  33.7550222
  79.3309676  11.9903864  34.3054136  83.3608783  18.2698824  29.9934305
  82.7317645  18.4344538  29.2910373  82.9734445  18.6840433  30.7645269
  87.2398015  19.2053262  27.3478669  86.5549053  19.5852163  26.7975702
  87.3241864  19.8148588  28.0810617  82.5410484  10.3074608  35.2696747
  82.2971416  11.0616669  34.7331022  82.8170414  10.6859956  36.1043994
  84.4948947  16.8513221  33.9474012  84.7065842  17.4944981  33.2708393
  84.4478695  16.0175537  33.4795942  82.0975175   9.4631041  30.8510584
  81.2359655   9.7612295  31.1427322  82.1237610   9.6801440  29.9191617
  78.9136745  18.0073232  27.2584390  79.3775090  18.2860935  26.4689013
  78.6493543  17.1056677  27.0757481  75.8060826  17.5544714  30.1964153
  76.3762183  17.9831982  29.5581638  76.3968938  17.2727298  30.8948339
  77.8505631  14.1296384  24.0673955  78.5529674  14.5817428  24.5347882
  77.5186259  13.4880203  24.6953848  76.2985992  12.7208141  38.4425165
  75.6684653  13.4024422  38.6760562  76.1922080  12.6091223  37.4978303
  71.5930965  12.3879937  29.3691089  70.8030019  12.6437466  28.8931199
  72.0842212  13.2028275  29.4743129  85.6094774  19.7285176  32.1196370
  86.4312218  19.3265364  31.8379051  85.6057177  19.6253410  33.0712486
  73.5445710  12.7524516  26.3274566  72.7476874  12.8643211  26.8458061
  73.3171302  13.0911169  25.4615456  79.3751378  19.2769220  34.2757080
  79.4395810  19.7389627  35.1115252  78.6662302  18.6466584  34.4039390
  69.8768668  12.6410428  31.8006080  70.1276706  13.5257437  32.0663656
  70.4128216  12.4615029  31.0281172  93.7000768  16.0723925  28.4681341
  92.9464476  15.5031323  28.3125346  93.8348309  16.0386589  29.4151976
  79.0899396  20.9437327  24.1436061  78.9545070  21.7888863  24.5720908
  79.6309208  21.1456605  23.3801994  75.5766735   7.0228907  40.8050416
  75.1833681   6.4695105  41.4798060  76.3932876   7.3339485  41.1956933
  72.5428793  18.4612765  24.7163986  73.0553314  19.2556015  24.8669550
  73.1951506  17.7639056  24.6497587  74.3523678  21.5778521  26.7986739
  74.5290306  22.4996486  26.6107723  75.1480511  21.2636941  27.2281119
  78.4934696   8.4386786  38.3970672  79.2344410   9.0393939  38.3175135
  78.7252619   7.6964424  37.8388715  73.6376034  13.6243153  36.6748902
  73.5229549  12.7228410  36.9756001  72.7820552  13.8706850  36.3233719
  80.7167872  21.5660894  38.2736403  80.2731726  20.7797272  37.9557307
  81.3785086  21.7540044  37.6080293  75.4754993  23.0956695  32.7997081
  76.0262418  22.9673758  32.0274075  74.6366469  23.3951584  32.4491974
  82.8149110  21.8463693  36.3017804  82.7967585  22.6672575  35.8098073
  83.7369030  21.7217769  36.5267945  79.2722164  19.3607823  37.1441312
  79.8050501  18.5996111  36.9140620  78.7436245  19.0681475  37.8865467
  82.4391859   4.4667889  32.6734954  82.0956129   5.3569531  32.5974065
  82.8070822   4.2769547  31.8104539  70.5077710  16.7901419  25.4923556
  71.3452932  17.1998428  25.2757264  70.6855977  15.8500862  25.4623750
  82.4042142  14.4576500  21.1807389  81.8888765  15.2281105  21.4195777
  82.1319450  13.7841636  21.8040451  79.9889253   9.3026201  26.2392627
  79.1330849   8.9133051  26.0598266  80.4016205   9.3818162  25.3792413
  81.5188400   6.8372544  30.6384187  81.0153195   6.8002679  29.8251993
  81.8119006   7.7465287  30.6980844  77.7631285   6.9211274  29.6450369
  78.6284282   6.7254082  29.2856258  77.8308794   6.6921626  30.5719726
  87.3776416  17.2108855  23.1160563  86.6005859  16.8720014  22.6715725
  88.0567897  17.2161478  22.4415528  82.1928445  12.3303592  23.0067170
  81.8878581  12.6449741  23.8577313  83.1458887  12.4085012  23.0494503
  80.6374877  18.4893815  24.6560124  80.1096238  17.7546575  24.3433362
  80.1362380  19.2668492  24.4100093  85.6167723  16.6842836  29.7727171
  84.9591397  17.3742097  29.8607299  86.4208122  17.0739268  30.1161157
  75.3693604   9.1513482  27.0166736  75.9437356   8.9288663  26.2839929
  75.9564587   9.2202176  27.7695337  84.4273182  15.0387209  27.8231112
  84.9405063  15.6717200  28.3252822  85.0774406  14.4388404  27.4574472
  75.6963192  11.1817943  21.0362621  74.8600504  11.5192629  21.3571896
  75.5567961  11.0466923  20.0989758  77.6716272   6.0254731  25.7441805
  77.0180685   5.7103748  25.1198420  77.6296746   5.4030471  26.4701628
  78.7827477  16.3074026  17.6595097  77.8754539  16.0763279  17.8586246
  79.2798509  15.5111645  17.8469079  81.6895556  25.0171533  20.5791783
  81.0157255  25.3203230  21.1876741  82.0761378  25.8200613  20.2297241
  80.9054013  12.5136664  30.0689453  79.9876574  12.7351611  29.9111141
  81.3214156  12.5882975  29.2101160  81.6889060  13.9128080  25.1992133
  82.4360879  14.4249477  24.8899255  81.9580650  13.5912133  26.0596527
  79.9615710  16.4086621  22.1819087  79.0526930  16.1245653  22.2791557
  79.9910794  16.8285699  21.3222394  85.1934978  20.0193210  25.9510255
  84.7397305  19.1784120  26.0075445  84.5628945  20.6554608  26.2885035
  84.1367897  10.9485196  27.1810922  83.3990654  10.4362582  27.5121165
  84.3894671  10.5085578  26.3694199  83.6367917  21.8569707  26.8860073
  83.9290892  22.4174764  26.1672439  84.1466538  22.1498268  27.6413232
  84.2379525   3.7261448  27.7752692  84.5438402   2.8658812  27.4878607
  84.9632130   4.3179068  27.5751686  70.5303881  14.1292135  26.1634290
  70.3328281  13.5361495  25.4385356  69.9750545  13.8244345  26.8810228
  78.5100605  14.0215241  28.2828883  78.5649214  13.0689078  28.2071359
  77.6991807  14.1774680  28.7670181  79.6591798  17.9495364  19.5207166
  79.2211228  17.2331223  19.0612803  80.4002239  18.1771479  18.9592257
  76.4492964  12.6392301  26.0419262  75.6360830  12.9386471  26.4484454
  76.9451959  12.2447990  26.7593744  78.6001542  22.6350058  27.9753526
  78.5577721  22.8610904  27.0462058  79.5164241  22.4013432  28.1239327
  82.0467176  13.1034125  34.8734156  82.4016564  13.3305599  35.7328621
  82.6939307  13.4352502  34.2511411  87.7764913  16.2252561  25.5783485
  87.6382812  16.4154157  24.6504674  87.4201132  16.9871944  26.0351536
  75.9407039  10.2110656  31.6580497  76.5806419  10.0699416  30.9603460
  75.1084570   9.9245170  31.2819099  87.8034293  18.2929088  30.5894756
  88.2370799  18.2004377  31.4377810  88.5165873  18.2686589  29.9514772
  76.7167343  19.5113087  27.7715489  77.5107942  19.0163407  27.5698064
  76.0059035  18.9830950  27.4083195  81.5362188  21.8931182  32.1227857
  81.5899210  22.4622119  32.8905573  80.6676969  22.0633067  31.7581894
  73.0250107  13.6556169  23.8475242  72.0947695  13.5940624  24.0645204
  73.1207579  13.1332121  23.0511883  72.9435656  10.1810981  26.4353483
  73.2042473  11.0956315  26.3262644  73.7652828   9.7135424  26.5850096
  74.4160581  11.5948739  33.6052308  75.0883634  11.3866101  32.9564957
  73.5890367  11.3970825  33.1657540  88.6649842  18.3352789  33.1227641
  88.8585732  19.2398599  33.3686916  88.5650460  17.8760208  33.9566226
  80.3186153   8.2210680  35.6217969  79.6714068   8.9200629  35.5282445
  81.0887168   8.6546823  35.9894217  83.7264951  18.4859532  38.6968522
  83.5750457  18.2570083  37.7798606  83.7169630  19.4430133  38.7099867
  80.4950287  16.0591444  33.6814788  81.4242347  16.2102604  33.5083756
  80.0741317  16.1475465  32.8263435  79.2938619  20.0842109  31.4513326
  79.1549705  19.7160893  32.3239264  78.5053215  20.5989748  31.2797284
  79.8886771  25.1851205  22.7938863  80.0638527  24.7139248  23.6084485
  79.2019559  25.8116971  23.0220123  80.8443834  19.4623712  28.8402164
  80.5093667  19.4224481  29.7359814  80.3447780  18.7968427  28.3672574
  74.8188078  14.8691342  34.3654745  74.6807876  14.1371580  34.9666284
  75.7293002  14.7800242  34.0838933  83.7803026  16.8079746  19.1139224
  83.1632197  16.0826574  19.0172276  83.3119514  17.5689106  18.7706298
  77.4470379  14.5811301  33.8538425  78.1569997  13.9404493  33.8125043
  77.4039687  14.8324196  34.7764605  85.4357158  21.5178654  36.7745004
  85.3769704  20.8337874  36.1075587  85.8376676  22.2597644  36.3225630
  76.1599313  11.5676519  35.6734064  75.6236670  11.1167257  36.3255661
  75.5716021  11.7022428  34.9304529  74.4547856  28.3340568  29.5678723
  74.6944455  28.9659092  30.2457741  73.6117053  27.9828608  29.8544082
  75.5701572  11.0265170  18.2360528  74.6931038  10.9053971  17.8722775
  76.0459325  10.2351248  17.9839416  85.4374565  19.4818238  35.0058984
  84.5501344  19.1444160  35.1285382  86.0073116  18.7501269  35.2427749
  67.0903712  15.8142330  28.3302035  67.7774752  15.5004060  27.7423050
  66.9351841  16.7183695  28.0569286  71.8938434  10.7032526  32.7587059
  71.8096623  10.0958196  32.0237469  71.0721140  11.1941545  32.7596555
  78.9675718  24.1419691  31.9720227  78.8945890  24.9474662  32.4839531
  78.5253111  24.3411656  31.1468248  78.7565498  23.3791461  25.4823048
  77.9733020  23.9213141  25.5761273  79.4558243  23.8965440  25.8817290
  82.0662148   9.1886090  28.1257254  82.5630848   8.4356052  27.8058324
  81.2949129   9.2250407  27.5600463  89.9191905  14.8926456  29.7675545
  89.9081782  15.7751171  29.3969478  89.0509285  14.5398006  29.5730082
  81.4274402  24.0406525  34.1278385  82.1402374  24.6753989  34.0554287
  80.9364430  24.1370391  33.3118387  83.1491929  17.9457777  25.6995677
  82.2148207  18.0659240  25.5300381  83.3268597  17.0430244  25.4355687
  78.6497117  11.3303473  27.8528938  78.2794904  10.7774513  28.5409844
  79.1456209  10.7261606  27.3003938  86.5364480  13.7875096  26.2345711
  87.0024932  14.6203088  26.1606014  86.9871981  13.3220078  26.9390970
  76.4786315  21.7900968  34.9483956  77.1795775  22.4237451  35.1013350
  76.0081430  22.1315700  34.1879596  84.6040711  20.1318918  23.2331863
  84.8800555  20.0175512  24.1425737  83.7345210  19.7336403  23.1944036
  84.5081143   6.1555683  30.2736613  83.5944223   6.3859910  30.4418820
  84.9374244   6.2394128  31.1250645  84.2787601  14.3445575  32.7736507
  83.6259051  14.5921483  32.1188959  84.6567981  13.5309714  32.4398984
  81.2394775  24.3805269  26.8764677  81.4217170  23.5626925  27.3392429
  82.0627761  24.5972961  26.4389567  81.5736941  23.3073454  24.1379725
  82.1024707  22.7965908  23.5249888  81.8365160  22.9915984  25.0025258
  80.3275174  15.0865387  39.2602544  79.6515811  14.9859516  39.9304919
  81.1502808  14.9304600  39.7238541  72.0754033  21.3237323  31.8815059
  72.6607470  20.5781011  32.0142963  71.8778872  21.6341280  32.7651723
  74.9292689  24.3588570  26.8977501  74.2603064  24.8434698  26.4141541
  74.7905558  24.6057791  27.8120880  66.6671688  13.8942923  30.6019502
  66.7055788  13.3606514  31.3956620  66.1611981  13.3678129  29.9830479
  79.0697957  26.3932314  33.4960160  79.6216265  26.5563935  34.2609245
  79.4104151  26.9836752  32.8240185  74.0462450   8.7407464  34.0982044
  74.1103777   9.6022295  33.6859442  73.9829571   8.1281465  33.3654403
  73.5214723  10.8130596  37.7455079  74.1486762  10.4307674  38.3592603
  72.6642642  10.5944798  38.1110771  83.9208831  21.2193571  39.3508814
  84.4648735  21.8323530  38.8563769  83.3395676  21.7773150  39.8675827
  70.2980266  12.6207025  23.6773433  70.5933707  11.7117704  23.6240487
  69.3968301  12.5994765  23.3554436  82.2066344  24.3414289  30.4823842
  82.0817484  23.5404029  29.9734787  82.8645436  24.8360483  29.9937812
  73.8274513  10.6963022  29.6600982  73.1061098  11.3098990  29.5208455
  74.6167768  11.2320787  29.5817628  84.2701253  22.1423310  32.1103392
  83.3231588  22.0228661  32.0381719  84.6184026  21.2545808  32.1929653
  76.6300826   8.0317448  35.9341634  77.1535228   8.2779745  36.6967943
  76.4113159   8.8637483  35.5144771  72.0268107  10.3021123  23.8012759
  71.6980813   9.4218502  23.6187865  72.3807478  10.2468792  24.6889148
  81.2747686  21.9376026  28.3107744  81.1272649  21.0092733  28.4915314
  82.1001180  21.9596116  27.8264819  75.1409930  10.5894093  24.1688236
  75.4806003  11.1180014  23.4466845  75.5882051  10.9274499  24.9446803
  84.8781808  22.7604585  29.3972617  85.8028355  22.5547446  29.2597068
  84.7097111  22.5120986  30.3061958  77.8353371   8.9731144  33.6191304
  77.4950192   8.1738957  34.0211984  77.1292377   9.2732854  33.0468138
  78.4869843   6.0580456  32.0718627  79.3095912   5.5840934  31.9497518
  78.7307907   6.8370940  32.5717314  77.1278078   9.0868714  22.3681529
  77.8486440   9.4649967  21.8645246  76.5043382   9.8057591  22.4716507
  81.2709200   9.7913863  23.3039861  81.4872815  10.6738501  23.0028690
  80.7903268   9.4000077  22.5745503  76.0108422  12.7499577  29.8810606
  75.8653003  13.0639880  30.7734888  75.5333625  13.3684477  29.3281505
  77.8704805   9.7402125  29.9291496  77.8566373   8.8443218  29.5923794
  78.5877233   9.7472788  30.5629782  79.7230935  10.1739465  31.9744623
  79.4648713  11.0956535  31.9728953  79.1915976   9.7769899  32.6645087
  84.6677124  23.2790252  24.7534708  84.8414002  22.7136674  24.0008561
  85.1606015  24.0791147  24.5714198  70.4854084  15.2904921  32.8198267
  69.9407552  16.0664729  32.9518542  71.3633434  15.6375726  32.6617389
  77.2741701   8.6216505  25.1979066  77.3957612   7.6933151  25.3969953
  76.9843743   8.6355191  24.2857381  80.1432891   6.3071415  28.3345786
  80.1654588   6.3710748  27.3797765  80.5600950   5.4675924  28.5286292
  90.5216515  16.0426675  26.3725008  90.9647661  15.2934000  25.9744131
  89.6443026  16.0336811  25.9898740  85.6552297  22.5957016  21.8531607
  86.3503201  23.2163709  22.0718921  85.9975447  21.7452368  22.1283985
  71.2720106  14.4174817  35.7128424  70.5301842  14.5657453  36.2993054
  70.9512850  14.6783083  34.8495173  87.5543720  20.0456722  23.3818937
  88.0795044  20.3843995  22.6568257  87.4666072  19.1103737  23.1982072
  79.2163768  23.9590796  35.5108814  79.5250895  23.7139942  36.3831514
  80.0139250  24.1637434  35.0227684  79.2384381  26.1128705  27.7414191
  78.7989371  25.6205084  28.4347047  79.9892497  25.5701673  27.5006266
  71.7176720  22.3040246  27.7438819  72.5434739  22.0044018  27.3637462
  71.3670771  21.5347868  28.1928607  76.6858253  21.6566714  29.8136492
  76.0638262  20.9937419  29.5138720  77.3563120  21.6827846  29.1310140
  69.9185325  20.2226572  28.7027752  69.0817233  19.7948747  28.5211754
  69.8908970  20.4159016  29.6398543  76.7582780  10.1348502  39.4068998
  76.8070936  11.0110625  39.0246768  77.3005294   9.5925895  38.8340642
  87.2437626  20.6789626  38.6870135  86.4533170  20.6613764  38.1474635
  87.0070980  21.2177919  39.4419172  87.3635501  17.5282092  36.0002864
  87.4133506  17.3632099  36.9418387  87.2549424  16.6609351  35.6100745
  76.2471760  20.2070638  23.2894953  76.3959880  20.8906102  22.6361626
  77.0538203  20.1875728  23.8044409  84.6539263  13.5113020  37.3162171
  85.5549126  13.3719485  37.0246168  84.7287238  13.6767475  38.2560348
  78.9882069  10.8879875  36.1615357  78.1185378  11.1813441  35.8897946
  79.2241549  11.4720320  36.8822621  88.8653698  19.9479033  36.2444885
  88.5738506  20.3109014  37.0808346  88.2525829  19.2346042  36.0658218
  90.0649380  17.5131913  28.7647456  90.8996271  17.9521717  28.9285016
  90.2008509  17.0370566  27.9455701  87.1140886  15.0711648  34.7124943
  87.5895008  15.2639294  33.9043795  86.1906451  15.1270834  34.4668327
  74.0024393  16.2335815  24.2956022  73.7570435  15.3298145  24.4936232
  74.1720307  16.2352966  23.3535500  81.6921102   7.1059492  33.6780777
  82.2103046   7.8420519  33.3527266  81.3376235   7.4123485  34.5127536
  73.2720040  11.9664173  21.7942183  72.5789285  12.0408528  21.1382219
  73.0271792  11.2024516  22.3163700  81.9433697   3.5259774  29.1981674
  82.2235450   2.8582963  29.8242100  82.7284304   3.7188870  28.6856338
  79.7467165  22.7018768  20.7606700  79.1741132  23.3208955  20.3077172
  80.3199959  23.2518130  21.2946622  85.8142555  11.9477408  32.9453249
  86.7659978  12.0475506  32.9665473  85.6446005  11.1555677  33.4551333
  83.8356934   9.0332991  33.1312650  83.2406867   9.3138004  32.4359139
  83.5506631   9.5226892  33.9029391  82.9664425  22.9855918  21.8915283
  83.8995098  22.9201480  22.0948158  82.8787638  23.8212185  21.4329815
  85.5952442  22.3021789  18.8519230  85.5166073  21.9681652  19.7454988
  86.4162108  22.7943556  18.8510702  88.2930633  15.1683528  32.0595549
  88.2606953  14.2299529  32.2455233  88.9031256  15.2467565  31.3261374
  80.1313964  14.0379581  18.1022753  81.0773068  13.9085789  18.1711171
  79.7528209  13.2994243  18.5792181  88.4425121  11.9594571  32.1053832
  87.9264170  11.1753028  31.9183761  89.3265070  11.6313288  32.2700351
  86.1035848   5.7035587  28.0649645  85.9060669   5.3950675  28.9492977
  86.7135554   6.4297226  28.1947574  94.1107183  16.2299535  31.2001586
  94.8410571  15.9684823  31.7609289  93.5014128  15.4928257  31.2403653
  92.1922480  14.3707397  31.7976037  91.4655643  14.2363362  31.1892528
  91.7769767  14.6784226  32.6032755  80.0152656  18.0897327  39.5623410
  80.9355666  18.2675926  39.7563456  79.9802239  17.1453372  39.4103109
  78.3156881  11.9629557  18.0377638  77.4088336  11.6662670  18.1140352
  78.5932862  11.6659375  17.1711924  69.2334821  13.2835921  28.4876684
  68.9137605  12.4301229  28.1951058  68.6868249  13.4984499  29.2434652
  73.0114729  15.9998362  32.2046191  73.2300738  16.9315469  32.2234225
  73.4240503  15.6406336  32.9900995  79.9318946   6.5066447  24.1921879
  79.1219675   6.1613532  24.5677125  80.6203363   6.1973991  24.7809491
  81.8609495   5.5844494  25.8146176  82.4140533   6.0039947  26.4736199
  82.0979581   4.6580242  25.8569132  77.8842594  11.5731567  41.5948940
  77.7839321  12.5225924  41.5261031  77.6664136  11.2449806  40.7225010
  77.0855665   8.8216492  18.1789617  77.9474829   9.1471391  18.4385435
  77.2706010   8.0347988  17.6662683  69.1023081  16.9038832  30.4569806
  68.4086553  16.4892785  29.9439760  69.8496072  16.9459369  29.8603225
  85.2388302   7.6945019  25.3224840  84.6586971   8.3529823  24.9402893
  84.9724235   6.8722363  24.9112258  83.6891868   7.0950077  27.5246161
  84.1891647   7.2066611  26.7160479  84.3327476   6.7911129  28.1646969
  77.7473864  15.0028706  40.4114001  77.2640946  15.8029066  40.6177891
  77.8334803  15.0136651  39.4581445  71.0159824  16.8357086  28.3335821
  70.9930512  16.9344773  27.3817704  71.3260460  17.6822237  28.6552987
  73.6747202  18.8933241  32.4482435  74.6290455  18.8617183  32.3812367
  73.4759725  18.4323865  33.2632661  74.2646584  17.4634357  35.0153233
  75.0839473  17.9578436  35.0388070  74.5383391  16.5466325  34.9870800
  84.0213180   9.8545109  24.3781188  83.1339035  10.1394760  24.1601383
  84.4367169   9.6938873  23.5308465  87.3727716   9.8791630  28.0935528
  88.1488106  10.3688083  28.3660145  86.6475850  10.3049684  28.5507397
  89.8100275  10.5919249  29.1509468  90.4044765  10.3514985  28.4402777
  89.8826858   9.8726380  29.7783005  72.0297430  24.4352860  29.4652633
  71.8951898  23.6753261  28.8990631  71.6129493  25.1593760  28.9981422
  83.1656393  19.6189784  18.4729208  83.8692243  19.8239786  19.0886864
  82.4419042  20.1866546  18.7378292  83.9954204  15.3699645  24.5931479
  83.9389405  15.8268197  23.7539111  84.5482546  14.6090330  24.4154321
  87.8059010  11.1589377  25.4181598  87.5495944  10.7586013  26.2489806
  87.1811878  11.8733171  25.2931737  92.1171347  13.8985450  27.9252889
  91.5570905  13.9678640  28.6984452  91.5114851  13.7226435  27.2052386
  75.1866556  25.3322177  29.6771076  75.0698940  26.2767610  29.5749766
  74.3659002  25.0295739  30.0656875  85.0743091  20.0572313  20.5227668
  85.9088695  19.6253512  20.3405143  84.9127434  19.8854327  21.4504563
  84.7288983  16.5604426  21.8884008  84.6737787  16.3948698  20.9472452
  84.1035038  17.2680459  22.0446197  69.5181498  11.7972491  35.7145430
  70.1640362  11.2871445  36.2032655  69.3098649  12.5341172  36.2888855
  82.0434890  18.8653338  41.2137571  82.9126050  19.0393991  40.8524205
  81.5641642  19.6847755  41.0913300  78.0385108   6.0612535  21.4669326
  78.0263778   7.0054375  21.6237597  78.9308530   5.8782681  21.1728787
  76.2121070  25.9850439  32.8927004  77.1148317  26.0174050  33.2093499
  75.9858440  25.0550890  32.9073340  77.9674672  24.7381426  29.5537083
  77.0170303  24.7383287  29.4401455  78.2707158  23.9914160  29.0373117
  81.8537228   2.6555312  25.7215263  81.0869624   2.1013799  25.8671945
  82.2647933   2.7277181  26.5829415  73.8578989   8.9440108  39.8120444
  74.7210450   8.5876913  40.0223769  73.2844400   8.6054003  40.4995848
  93.7027366  30.5741964  30.6182845  94.3405776  30.4548712  29.9146185
  93.5848209  31.5222808  30.6770797  90.5117072  30.5269392  30.5544370
  90.1735584  30.4110457  29.6664905  91.3806840  30.1260557  30.5345376
  86.3703888  32.3804869  26.5441261  85.8068753  32.2894806  25.7757549
  86.2556283  31.5604773  27.0243753  90.9936855  31.6804244  36.5130575
  90.9825496  31.2857042  35.6411079  91.1557495  30.9470317  37.1064347
  83.9168320  33.8756060  29.3825481  84.7089612  33.5346885  28.9671781
  84.1564970  33.9851035  30.3027635  91.9503447  36.0475836  21.8555726
  91.2991426  36.6329917  21.4689740  92.7447809  36.5782031  21.9150763
  85.8759074  33.1364974  22.2542860  86.6489950  32.5893961  22.1155736
  86.2284473  34.0009223  22.4657322  87.7144116  34.4641356  35.4609759
  87.4233982  35.3686987  35.3456426  88.3501101  34.5057883  36.1753829
  88.6400323  31.8418204  32.0511119  89.2363895  31.6174227  31.3368082
  88.6975295  31.1002950  32.6536567  88.2125352  29.2957640  19.8861310
  88.4650872  28.7739161  19.1244773  87.2749911  29.1323785  19.9887994
  93.2568634  28.2993418  27.6936053  94.0431724  27.8812841  27.3426470
  93.5207339  29.2039510  27.8617702  93.4278712  33.7366268  22.3924710
  92.7924545  33.8100895  23.1045615  93.0976118  34.3259867  21.7143789
  98.6577061  28.2368651  28.5969032  99.3902233  27.6667868  28.8306861
  97.9016417  27.8490252  29.0375537  87.9321640  31.1985746  22.0885685
  87.8157898  30.5230649  22.7566769  88.0423900  30.7118120  21.2717838
  90.2753181  30.6595893  25.7932374  89.9111388  30.1326514  26.5045296
  91.1320297  30.2694362  25.6198860  96.1802482  21.9490225  33.0563640
  95.8485807  22.8185636  32.8324855  95.5848095  21.6326509  33.7357671
  89.9158668  25.6885792  20.7893723  90.0833071  26.5566029  21.1564194
  89.7255837  25.8513074  19.8655012  92.6734001  34.1502771  32.4559553
  92.3734724  35.0527810  32.3475360  92.3285061  33.8834955  33.3080706
  86.1246483  30.6016568  28.4896258  85.1996979  30.4692782  28.6973949
  86.3730896  31.3810787  28.9866200  96.0731145  26.6685312  30.1356990
  95.1648022  26.6000720  29.8415751  96.0218741  27.1457257  30.9638816
  89.8947889  28.1443450  21.7740390  89.7747514  28.5900501  22.6125870
  89.2000477  28.4928768  21.2153928  83.4855294  30.2449842  29.3240047
  83.6147675  30.4984321  30.2379458  82.8052745  30.8377550  29.0044702
  87.6554781  40.9147092  25.4230521  87.5778811  41.8654917  25.5019001
  87.0516425  40.5692964  26.0805447  90.1472011  28.0874957  38.0791888
  89.3705345  28.6468877  38.0694752  90.7862574  28.5731740  38.6006758
  97.9392792  24.8701750  31.9134864  97.2967172  25.1634283  31.2674659
  97.4347720  24.7554670  32.7188061  95.5932955  28.6164923  22.6020724
  96.5050811  28.8492310  22.4268421  95.0842602  29.2001967  22.0395802
  88.4018383  30.8960411  37.6409855  89.1433068  31.4345454  37.3644678
  87.6955369  31.5226699  37.7981406  93.8773723  33.0389551  36.2382016
  94.2857079  32.5971962  35.4936649  93.1550984  32.4642179  36.4916209
  90.2304793  27.9762158  33.6115573  91.0765988  28.4001571  33.7550222
  90.1703431  27.3195782  34.3054136  94.2002538  33.5990742  29.9934305
  93.5711400  33.7636456  29.2910373  93.8128200  34.0132351  30.7645269
  98.0791769  34.5345179  27.3478669  97.3942808  34.9144081  26.7975702
  98.1635619  35.1440506  28.0810617  93.3804238  25.6366526  35.2696747
  93.1365170  26.3908587  34.7331022  93.6564169  26.0151874  36.1043994
  95.3342701  32.1805138  33.9474012  95.5459596  32.8236898  33.2708393
  95.2872449  31.3467455  33.4795942  92.9368930  24.7922959  30.8510584
  92.0753409  25.0904213  31.1427322  92.9631365  25.0093358  29.9191617
  89.7530499  33.3365150  27.2584390  90.2168845  33.6152853  26.4689013
  89.4887297  32.4348594  27.0757481  86.6454580  32.8836631  30.1964153
  87.2155938  33.3123900  29.5581638  87.2362692  32.6019216  30.8948339
  88.6899385  29.4588302  24.0673955  89.3923429  29.9109346  24.5347882
  88.3580014  28.8172121  24.6953848  87.1379747  28.0500059  38.4425165
  86.5078408  28.7316340  38.6760562  87.0315835  27.9383140  37.4978303
  82.4324719  27.7171855  29.3691089  81.6423773  27.9729383  28.8931199
  82.9235967  28.5320193  29.4743129  96.4488529  35.0577094  32.1196370
  97.2705973  34.6557281  31.8379051  96.4450932  34.9545328  33.0712486
  84.3839465  28.0816434  26.3274566  83.5870628  28.1935128  26.8458061
  84.1565057  28.4203086  25.4615456  90.2145132  34.6061137  34.2757080
  90.2789565  35.0681544  35.1115252  89.5056056  33.9758502  34.4039390
  80.7162422  27.9702345  31.8006080  80.9670461  28.8549355  32.0663656
  81.2521971  27.7906947  31.0281172 104.5394522  31.4015842  28.4681341
 103.7858230  30.8323240  28.3125346 104.6742063  31.3678507  29.4151976
  89.9293150  36.2729245  24.1436061  89.7938825  37.1180780  24.5720908
  90.4702963  36.4748522  23.3801994  86.4160490  22.3520825  40.8050416
  86.0227435  21.7987023  41.4798060  87.2326630  22.6631403  41.1956933
  83.3822547  33.7904683  24.7163986  83.8947068  34.5847933  24.8669550
  84.0345260  33.0930973  24.6497587  85.1917432  36.9070439  26.7986739
  85.3684060  37.8288404  26.6107723  85.9874266  36.5928858  27.2281119
  89.3328451  23.7678704  38.3970672  90.0738164  24.3685857  38.3175135
  89.5646374  23.0256341  37.8388715  84.4769789  28.9535071  36.6748902
  84.3623304  28.0520328  36.9756001  83.6214306  29.1998768  36.3233719
  91.5561626  36.8952811  38.2736403  91.1125481  36.1089190  37.9557307
  92.2178840  37.0831962  37.6080293  86.3148748  38.4248613  32.7997081
  86.8656173  38.2965676  32.0274075  85.4760224  38.7243502  32.4491974
  93.6542864  37.1755611  36.3017804  93.6361340  37.9964492  35.8098073
  94.5762785  37.0509686  36.5267945  90.1115919  34.6899741  37.1441312
  90.6444255  33.9288029  36.9140620  89.5830000  34.3973392  37.8865467
  93.2785614  19.7959807  32.6734954  92.9349883  20.6861448  32.5974065
  93.6464576  19.6061464  31.8104539  81.3471464  32.1193337  25.4923556
  82.1846686  32.5290345  25.2757264  81.5249732  31.1792779  25.4623750
  93.2435896  29.7868418  21.1807389  92.7282520  30.5573022  21.4195777
  92.9713205  29.1133554  21.8040451  90.8283007  24.6318118  26.2392627
  89.9724604  24.2424969  26.0598266  91.2409959  24.7110079  25.3792413
  92.3582154  22.1664462  30.6384187  91.8546950  22.1294597  29.8251993
  92.6512761  23.0757204  30.6980844  88.6025040  22.2503191  29.6450369
  89.4678037  22.0546000  29.2856258  88.6702549  22.0213543  30.5719726
  98.2170170  32.5400772  23.1160563  97.4399613  32.2011932  22.6715725
  98.8961651  32.5453395  22.4415528  93.0322200  27.6595510  23.0067170
  92.7272335  27.9741659  23.8577313  93.9852642  27.7376930  23.0494503
  91.4768631  33.8185733  24.6560124  90.9489993  33.0838493  24.3433362
  90.9756134  34.5960409  24.4100093  96.4561477  32.0134754  29.7727171
  95.7985152  32.7034015  29.8607299  97.2601877  32.4031186  30.1161157
  86.2087359  24.4805399  27.0166736  86.7831111  24.2580581  26.2839929
  86.7958341  24.5494094  27.7695337  95.2666936  30.3679126  27.8231112
  95.7798818  31.0009118  28.3252822  95.9168160  29.7680322  27.4574472
  86.5356946  26.5109860  21.0362621  85.6994258  26.8484547  21.3571896
  86.3961716  26.3758840  20.0989758  88.5110027  21.3546648  25.7441805
  87.8574439  21.0395665  25.1198420  88.4690501  20.7322389  26.4701628
  89.6221232  31.6365943  17.6595097  88.7148293  31.4055197  17.8586246
  90.1192264  30.8403563  17.8469079  92.5289310  40.3463451  20.5791783
  91.8551009  40.6495147  21.1876741  92.9155132  41.1492531  20.2297241
  91.7447767  27.8428582  30.0689453  90.8270328  28.0643529  29.9111141
  92.1607911  27.9174892  29.2101160  92.5282815  29.2419998  25.1992133
  93.2754634  29.7541395  24.8899255  92.7974404  28.9204050  26.0596527
  90.8009465  31.7378538  22.1819087  89.8920684  31.4537571  22.2791557
  90.8304549  32.1577617  21.3222394  96.0328732  35.3485128  25.9510255
  95.5791059  34.5076038  26.0075445  95.4022699  35.9846526  26.2885035
  94.9761652  26.2777114  27.1810922  94.2384409  25.7654500  27.5121165
  95.2288425  25.8377495  26.3694199  94.4761672  37.1861624  26.8860073
  94.7684646  37.7466682  26.1672439  94.9860292  37.4790185  27.6413232
  95.0773279  19.0553366  27.7752692  95.3832156  18.1950729  27.4878607
  95.8025884  19.6470986  27.5751686  81.3697635  29.4584052  26.1634290
  81.1722035  28.8653413  25.4385356  80.8144299  29.1536263  26.8810228
  89.3494359  29.3507159  28.2828883  89.4042969  28.3980995  28.2071359
  88.5385561  29.5066598  28.7670181  90.4985553  33.2787282  19.5207166
  90.0604983  32.5623141  19.0612803  91.2395994  33.5063397  18.9592257
  87.2886719  27.9684219  26.0419262  86.4754584  28.2678389  26.4484454
  87.7845713  27.5739907  26.7593744  89.4395297  37.9641976  27.9753526
  89.3971476  38.1902822  27.0462058  90.3557996  37.7305350  28.1239327
  92.8860931  28.4326043  34.8734156  93.2410318  28.6597516  35.7328621
  93.5333062  28.7644420  34.2511411  98.6158668  31.5544479  25.5783485
  98.4776566  31.7446075  24.6504674  98.2594886  32.3163862  26.0351536
  86.7800794  25.5402574  31.6580497  87.4200173  25.3991333  30.9603460
  85.9478324  25.2537087  31.2819099  98.6428047  33.6221006  30.5894756
  99.0764554  33.5296295  31.4377810  99.3559628  33.5978506  29.9514772
  87.5561098  34.8405005  27.7715489  88.3501696  34.3455325  27.5698064
  86.8452790  34.3122868  27.4083195  92.3755942  37.2223100  32.1227857
  92.4292964  37.7914036  32.8905573  91.5070723  37.3924985  31.7581894
  83.8643861  28.9848086  23.8475242  82.9341449  28.9232542  24.0645204
  83.9601333  28.4624039  23.0511883  83.7829410  25.5102899  26.4353483
  84.0436227  26.4248232  26.3262644  84.6046582  25.0427342  26.5850096
  85.2554335  26.9240656  33.6052308  85.9277389  26.7158018  32.9564957
  84.4284122  26.7262742  33.1657540  99.5043597  33.6644707  33.1227641
  99.6979487  34.5690517  33.3686916  99.4044215  33.2052126  33.9566226
  91.1579907  23.5502597  35.6217969  90.5107823  24.2492547  35.5282445
  91.9280923  23.9838741  35.9894217  94.5658705  33.8151449  38.6968522
  94.4144212  33.5862001  37.7798606  94.5563385  34.7722051  38.7099867
  91.3344042  31.3883362  33.6814788  92.2636102  31.5394522  33.5083756
  90.9135072  31.4767383  32.8263435  90.1332374  35.4134027  31.4513326
  89.9943459  35.0452811  32.3239264  89.3446970  35.9281666  31.2797284
  90.7280526  40.5143123  22.7938863  90.9032281  40.0431166  23.6084485
  90.0413314  41.1408889  23.0220123  91.6837589  34.7915629  28.8402164
  91.3487421  34.7516399  29.7359814  91.1841534  34.1260345  28.3672574
  85.6581833  30.1983259  34.3654745  85.5201631  29.4663498  34.9666284
  86.5686756  30.1092159  34.0838933  94.6196780  32.1371664  19.1139224
  94.0025951  31.4118492  19.0172276  94.1513269  32.8981024  18.7706298
  88.2864133  29.9103219  33.8538425  88.9963752  29.2696411  33.8125043
  88.2433442  30.1616113  34.7764605  96.2750912  36.8470572  36.7745004
  96.2163458  36.1629792  36.1075587  96.6770430  37.5889562  36.3225630
  86.9993067  26.8968436  35.6734064  86.4630424  26.4459175  36.3255661
  86.4109776  27.0314345  34.9304529  85.2941611  43.6632486  29.5678723
  85.5338209  44.2951010  30.2457741  84.4510807  43.3120526  29.8544082
  86.4095326  26.3557088  18.2360528  85.5324793  26.2345889  17.8722775
  86.8853079  25.5643166  17.9839416  96.2768319  34.8110156  35.0058984
  95.3895098  34.4736078  35.1285382  96.8466870  34.0793187  35.2427749
  77.9297466  31.1434248  28.3302035  78.6168506  30.8295978  27.7423050
  77.7745595  32.0475612  28.0569286  82.7332189  26.0324444  32.7587059
  82.6490377  25.4250114  32.0237469  81.9114895  26.5233462  32.7596555
  89.8069473  39.4711608  31.9720227  89.7339644  40.2766580  32.4839531
  89.3646866  39.6703574  31.1468248  89.5959252  38.7083378  25.4823048
  88.8126774  39.2505058  25.5761273  90.2951998  39.2257358  25.8817290
  92.9055902  24.5178008  28.1257254  93.4024602  23.7647970  27.8058324
  92.1342884  24.5542324  27.5600463 100.7585660  30.2218373  29.7675545
 100.7475536  31.1043089  29.3969478  99.8903039  29.8689924  29.5730082
  92.2668156  39.3698442  34.1278385  92.9796128  40.0045907  34.0554287
  91.7758185  39.4662308  33.3118387  93.9885683  33.2749695  25.6995677
  93.0541962  33.3951157  25.5300381  94.1662352  32.3722162  25.4355687
  89.4890871  26.6595391  27.8528938  89.1188659  26.1066431  28.5409844
  89.9849964  26.0553524  27.3003938  97.3758234  29.1167014  26.2345711
  97.8418687  29.9495006  26.1606014  97.8265735  28.6511996  26.9390970
  87.3180070  37.1192886  34.9483956  88.0189529  37.7529369  35.1013350
  86.8475185  37.4607617  34.1879596  95.4434466  35.4610835  23.2331863
  95.7194310  35.3467430  24.1425737  94.5738964  35.0628320  23.1944036
  95.3474897  21.4847601  30.2736613  94.4337977  21.7151828  30.4418820
  95.7767999  21.5686045  31.1250645  95.1181356  29.6737493  32.7736507
  94.4652806  29.9213401  32.1188959  95.4961736  28.8601631  32.4398984
  92.0788530  39.7097186  26.8764677  92.2610924  38.8918842  27.3392429
  92.9021516  39.9264879  26.4389567  92.4130695  38.6365371  24.1379725
  92.9418462  38.1257826  23.5249888  92.6758915  38.3207902  25.0025258
  91.1668929  30.4157304  39.2602544  90.4909566  30.3151434  39.9304919
  91.9896563  30.2596518  39.7238541  82.9147788  36.6529241  31.8815059
  83.5001225  35.9072929  32.0142963  82.7172626  36.9633197  32.7651723
  85.7686443  39.6880488  26.8977501  85.0996818  40.1726616  26.4141541
  85.6299313  39.9349709  27.8120880  77.5065443  29.2234841  30.6019502
  77.5449542  28.6898432  31.3956620  77.0005735  28.6970046  29.9830479
  89.9091712  41.7224232  33.4960160  90.4610020  41.8855853  34.2609245
  90.2497905  42.3128669  32.8240185  84.8856205  24.0699381  34.0982044
  84.9497531  24.9314212  33.6859442  84.8223325  23.4573383  33.3654403
  84.3608477  26.1422514  37.7455079  84.9880516  25.7599591  38.3592603
  83.5036396  25.9236716  38.1110771  94.7602586  36.5485489  39.3508814
  95.3042490  37.1615447  38.8563769  94.1789431  37.1065068  39.8675827
  81.1374020  27.9498943  23.6773433  81.4327461  27.0409622  23.6240487
  80.2362056  27.9286683  23.3554436  93.0460099  39.6706207  30.4823842
  92.9211238  38.8695947  29.9734787  93.7039190  40.1652401  29.9937812
  84.6668267  26.0254940  29.6600982  83.9454853  26.6390907  29.5208455
  85.4561523  26.5612704  29.5817628  95.1095007  37.4715227  32.1103392
  94.1625343  37.3520578  32.0381719  95.4577780  36.5837725  32.1929653
  87.4694581  23.3609366  35.9341634  87.9928982  23.6071663  36.6967943
  87.2506914  24.1929401  35.5144771  82.8661862  25.6313041  23.8012759
  82.5374568  24.7510420  23.6187865  83.2201232  25.5760709  24.6889148
  92.1141441  37.2667943  28.3107744  91.9666403  36.3384651  28.4915314
  92.9394934  37.2888034  27.8264819  85.9803685  25.9186011  24.1688236
  86.3199757  26.4471932  23.4466845  86.4275805  26.2566417  24.9446803
  95.7175562  38.0896502  29.3972617  96.6422110  37.8839364  29.2597068
  95.5490866  37.8412903  30.3061958  88.6747126  24.3023061  33.6191304
  88.3343946  23.5030874  34.0211984  87.9686132  24.6024772  33.0468138
  89.3263598  21.3872374  32.0718627  90.1489667  20.9132852  31.9497518
  89.5701661  22.1662857  32.5717314  87.9671832  24.4160632  22.3681529
  88.6880195  24.7941885  21.8645246  87.3437136  25.1349509  22.4716507
  92.1102955  25.1205781  23.3039861  92.3266569  26.0030419  23.0028690
  91.6297022  24.7291995  22.5745503  86.8502176  28.0791494  29.8810606
  86.7046757  28.3931797  30.7734888  86.3727380  28.6976395  29.3281505
  88.7098559  25.0694042  29.9291496  88.6960128  24.1735136  29.5923794
  89.4270987  25.0764706  30.5629782  90.5624690  25.5031383  31.9744623
  90.3042468  26.4248453  31.9728953  90.0309730  25.1061817  32.6645087
  95.5070879  38.6082170  24.7534708  95.6807756  38.0428592  24.0008561
  95.9999770  39.4083065  24.5714198  81.3247838  30.6196839  32.8198267
  80.7801307  31.3956647  32.9518542  82.2027188  30.9667643  32.6617389
  88.1135455  23.9508423  25.1979066  88.2351366  23.0225069  25.3969953
  87.8237497  23.9647109  24.2857381  90.9826645  21.6363333  28.3345786
  91.0048342  21.7002666  27.3797765  91.3994705  20.7967842  28.5286292
 101.3610270  31.3718593  26.3725008 101.8041416  30.6225918  25.9744131
 100.4836780  31.3628729  25.9898740  96.4946051  37.9248934  21.8531607
  97.1896956  38.5455627  22.0718921  96.8369201  37.0744285  22.1283985
  82.1113860  29.7466735  35.7128424  81.3695596  29.8949370  36.2993054
  81.7906605  30.0075001  34.8495173  98.3937474  35.3748640  23.3818937
  98.9188798  35.7135912  22.6568257  98.3059827  34.4395655  23.1982072
  90.0557523  39.2882713  35.5108814  90.3644649  39.0431860  36.3831514
  90.8533005  39.4929352  35.0227684  90.0778135  41.4420623  27.7414191
  89.6383125  40.9497002  28.4347047  90.8286252  40.8993591  27.5006266
  82.5570474  37.6332164  27.7438819  83.3828494  37.3335936  27.3637462
  82.2064526  36.8639786  28.1928607  87.5252007  36.9858632  29.8136492
  86.9032016  36.3229337  29.5138720  88.1956874  37.0119764  29.1310140
  80.7579079  35.5518490  28.7027752  79.9210987  35.1240665  28.5211754
  80.7302724  35.7450934  29.6398543  87.5976535  25.4640420  39.4068998
  87.6464690  26.3402543  39.0246768  88.1399049  24.9217813  38.8340642
  98.0831380  36.0081543  38.6870135  97.2926924  35.9905682  38.1474635
  97.8464735  36.5469837  39.4419172  98.2029255  32.8574010  36.0002864
  98.2527260  32.6924017  36.9418387  98.0943179  31.9901269  35.6100745
  87.0865514  35.5362555  23.2894953  87.2353634  36.2198020  22.6361626
  87.8931958  35.5167645  23.8044409  95.4933018  28.8404938  37.3162171
  96.3942881  28.7011402  37.0246168  95.5680992  29.0059392  38.2560348
  89.8275823  26.2171792  36.1615357  88.9579133  26.5105358  35.8897946
  90.0635303  26.8012237  36.8822621  99.7047452  35.2770951  36.2444885
  99.4132261  35.6400932  37.0808346  99.0919583  34.5637959  36.0658218
 100.9043135  32.8423831  28.7647456 101.7390026  33.2813635  28.9285016
 101.0402263  32.3662484  27.9455701  97.9534640  30.4003566  34.7124943
  98.4288762  30.5931212  33.9043795  97.0300206  30.4562752  34.4668327
  84.8418147  31.5627733  24.2956022  84.5964189  30.6590063  24.4936232
  85.0114062  31.5644883  23.3535500  92.5314857  22.4351409  33.6780777
  93.0496801  23.1712436  33.3527266  92.1769990  22.7415403  34.5127536
  84.1113795  27.2956091  21.7942183  83.4183040  27.3700445  21.1382219
  83.8665546  26.5316434  22.3163700  92.7827451  18.8551692  29.1981674
  93.0629205  18.1874881  29.8242100  93.5678058  19.0480787  28.6856338
  90.5860920  38.0310686  20.7606700  90.0134887  38.6500873  20.3077172
  91.1593713  38.5810047  21.2946622  96.6536309  27.2769326  32.9453249
  97.6053732  27.3767423  32.9665473  96.4839760  26.4847594  33.4551333
  94.6750689  24.3624909  33.1312650  94.0800621  24.6429922  32.4359139
  94.3900386  24.8518810  33.9029391  93.8058179  38.3147836  21.8915283
  94.7388853  38.2493398  22.0948158  93.7181392  39.1504103  21.4329815
  96.4346196  37.6313706  18.8519230  96.3559828  37.2973570  19.7454988
  97.2555863  38.1235474  18.8510702  99.1324387  30.4975446  32.0595549
  99.1000707  29.5591446  32.2455233  99.7425011  30.5759482  31.3261374
  90.9707718  29.3671498  18.1022753  91.9166823  29.2377707  18.1711171
  90.5921963  28.6286160  18.5792181  99.2818876  27.2886489  32.1053832
  98.7657924  26.5044946  31.9183761 100.1658824  26.9605206  32.2700351
  96.9429603  21.0327505  28.0649645  96.7454424  20.7242593  28.9492977
  97.5529308  21.7589143  28.1947574 104.9500937  31.5591452  31.2001586
 105.6804326  31.2976740  31.7609289 104.3407883  30.8220174  31.2403653
 103.0316234  29.6999315  31.7976037 102.3049398  29.5655280  31.1892528
 102.6163521  30.0076144  32.6032755  90.8546411  33.4189245  39.5623410
  91.7749420  33.5967844  39.7563456  90.8195994  32.4745290  39.4103109
  89.1550635  27.2921475  18.0377638  88.2482091  26.9954588  18.1140352
  89.4326616  26.9951293  17.1711924  80.0728576  28.6127838  28.4876684
  79.7531360  27.7593146  28.1951058  79.5262004  28.8276416  29.2434652
  83.8508483  31.3290279  32.2046191  84.0694493  32.2607387  32.2234225
  84.2634257  30.9698254  32.9900995  90.7712701  21.8358365  24.1921879
  89.9613429  21.4905450  24.5677125  91.4597118  21.5265908  24.7809491
  92.7003249  20.9136411  25.8146176  93.2534288  21.3331865  26.4736199
  92.9373336  19.9872160  25.8569132  88.7236348  26.9023485  41.5948940
  88.6233075  27.8517842  41.5261031  88.5057891  26.5741724  40.7225010
  87.9249420  24.1508410  18.1789617  88.7868584  24.4763308  18.4385435
  88.1099764  23.3639906  17.6662683  79.9416836  32.2330750  30.4569806
  79.2480307  31.8184703  29.9439760  80.6889827  32.2751286  29.8603225
  96.0782056  23.0236937  25.3224840  95.4980725  23.6821741  24.9402893
  95.8117989  22.2014281  24.9112258  94.5285623  22.4241994  27.5246161
  95.0285401  22.5358529  26.7160479  95.1721231  22.1203047  28.1646969
  88.5867619  30.3320624  40.4114001  88.1034700  31.1320984  40.6177891
  88.6728558  30.3428569  39.4581445  81.8553578  32.1649004  28.3335821
  81.8324266  32.2636691  27.3817704  82.1654215  33.0114154  28.6552987
  84.5140956  34.2225159  32.4482435  85.4684210  34.1909101  32.3812367
  84.3153480  33.7615782  33.2632661  85.1040338  32.7926275  35.0153233
  85.9233227  33.2870353  35.0388070  85.3777146  31.8758243  34.9870800
  94.8606934  25.1837027  24.3781188  93.9732789  25.4686678  24.1601383
  95.2760923  25.0230790  23.5308465  98.2121471  25.2083548  28.0935528
  98.9881861  25.6980000  28.3660145  97.4869605  25.6341602  28.5507397
 100.6494029  25.9211167  29.1509468 101.2438520  25.6806903  28.4402777
 100.7220613  25.2018298  29.7783005  82.8691185  39.7644778  29.4652633
  82.7345653  39.0045179  28.8990631  82.4523247  40.4885678  28.9981422
  94.0050148  34.9481702  18.4729208  94.7085998  35.1531704  19.0886864
  93.2812797  35.5158464  18.7378292  94.8347958  30.6991563  24.5931479
  94.7783160  31.1560114  23.7539111  95.3876301  29.9382247  24.4154321
  98.6452764  26.4881295  25.4181598  98.3889698  26.0877930  26.2489806
  98.0205632  27.2025089  25.2931737 102.9565102  29.2277368  27.9252889
 102.3964660  29.2970557  28.6984452 102.3508605  29.0518353  27.2052386
  86.0260311  40.6614095  29.6771076  85.9092695  41.6059528  29.5749766
  85.2052757  40.3587657  30.0656875  95.9136845  35.3864231  20.5227668
  96.7482449  34.9545429  20.3405143  95.7521188  35.2146245  21.4504563
  95.5682737  31.8896344  21.8884008  95.5131541  31.7240616  20.9472452
  94.9428793  32.5972377  22.0446197  80.3575252  27.1264409  35.7145430
  81.0034116  26.6163362  36.2032655  80.1492404  27.8633090  36.2888855
  92.8828645  34.1945256  41.2137571  93.7519804  34.3685908  40.8524205
  92.4035396  35.0139673  41.0913300  88.8778863  21.3904453  21.4669326
  88.8657533  22.3346293  21.6237597  89.7702285  21.2074599  21.1728787
  87.0514825  41.3142357  32.8927004  87.9542072  41.3465967  33.2093499
  86.8252195  40.3842808  32.9073340  88.8068427  40.0673344  29.5537083
  87.8564058  40.0675205  29.4401455  89.1100913  39.3206078  29.0373117
  92.6930982  17.9847230  25.7215263  91.9263378  17.4305716  25.8671945
  93.1041687  18.0569099  26.5829415  84.6972743  24.2732026  39.8120444
  85.5604205  23.9168830  40.0223769  84.1238154  23.9345920  40.4995848
 104.5421120  45.9033882  30.6182845 105.1799530  45.7840629  29.9146185
 104.4241963  46.8514726  30.6770797 101.3510827  45.8561310  30.5544370
 101.0129338  45.7402375  29.6664905 102.2200595  45.4552475  30.5345376
  97.2097642  47.7096786  26.5441261  96.6462507  47.6186723  25.7757549
  97.0950037  46.8896691  27.0243753 101.8330610  47.0096162  36.5130575
 101.8219250  46.6148960  35.6411079 101.9951249  46.2762234  37.1064347
  94.7562074  49.2047978  29.3825481  95.5483366  48.8638803  28.9671781
  94.9958724  49.3142953  30.3027635 102.7897201  51.3767754  21.8555726
 102.1385181  51.9621835  21.4689740 103.5841564  51.9073949  21.9150763
  96.7152828  48.4656891  22.2542860  97.4883704  47.9185878  22.1155736
  97.0678227  49.3301141  22.4657322  98.5537871  49.7933274  35.4609759
  98.2627737  50.6978904  35.3456426  99.1894855  49.8349801  36.1753829
  99.4794078  47.1710122  32.0511119 100.0757650  46.9466144  31.3368082
  99.5369049  46.4294868  32.6536567  99.0519106  44.6249557  19.8861310
  99.3044627  44.1031079  19.1244773  98.1143665  44.4615703  19.9887994
 104.0962389  43.6285336  27.6936053 104.8825478  43.2104759  27.3426470
 104.3601093  44.5331428  27.8617702 104.2672466  49.0658186  22.3924710
 103.6318299  49.1392813  23.1045615 103.9369873  49.6551785  21.7143789
 109.4970816  43.5660569  28.5969032 110.2295988  42.9959786  28.8306861
 108.7410172  43.1782169  29.0375537  98.7715395  46.5277663  22.0885685
  98.6551653  45.8522567  22.7566769  98.8817655  46.0410037  21.2717838
 101.1146936  45.9887810  25.7932374 100.7505143  45.4618431  26.5045296
 101.9714052  45.5986280  25.6198860 107.0196236  37.2782143  33.0563640
 106.6879561  38.1477554  32.8324855 106.4241850  36.9618427  33.7357671
 100.7552423  41.0177710  20.7893723 100.9226825  41.8857947  21.1564194
 100.5649592  41.1804992  19.8655012 103.5127756  49.4794689  32.4559553
 103.2128479  50.3819728  32.3475360 103.1678815  49.2126872  33.3080706
  96.9640237  45.9308486  28.4896258  96.0390734  45.7984700  28.6973949
  97.2124651  46.7102705  28.9866200 106.9124900  41.9977229  30.1356990
 106.0041777  41.9292638  29.8415751 106.8612495  42.4749174  30.9638816
 100.7341644  43.4735368  21.7740390 100.6141269  43.9192418  22.6125870
 100.0394232  43.8220685  21.2153928  94.3249048  45.5741759  29.3240047
  94.4541430  45.8276238  30.2379458  93.6446500  46.1669467  29.0044702
  98.4948536  56.2439009  25.4230521  98.4172565  57.1946835  25.5019001
  97.8910179  55.8984882  26.0805447 100.9865765  43.4166875  38.0791888
 100.2099099  43.9760795  38.0694752 101.6256328  43.9023658  38.6006758
 108.7786546  40.1993668  31.9134864 108.1360926  40.4926201  31.2674659
 108.2741475  40.0846588  32.7188061 106.4326710  43.9456841  22.6020724
 107.3444566  44.1784228  22.4268421 105.9236357  44.5293885  22.0395802
  99.2412138  46.2252328  37.6409855  99.9826822  46.7637372  37.3644678
  98.5349123  46.8518617  37.7981406 104.7167477  48.3681469  36.2382016
 105.1250833  47.9263879  35.4936649 103.9944739  47.7934096  36.4916209
 101.0698547  43.3054075  33.6115573 101.9159743  43.7293489  33.7550222
 101.0097185  42.6487700  34.3054136 105.0396292  48.9282659  29.9934305
 104.4105154  49.0928373  29.2910373 104.6521954  49.3424269  30.7645269
 108.9185524  49.8637097  27.3478669 108.2336562  50.2435999  26.7975702
 109.0029373  50.4732424  28.0810617 104.2197993  40.9658444  35.2696747
 103.9758925  41.7200504  34.7331022 104.4957923  41.3443791  36.1043994
 106.1736455  47.5097056  33.9474012 106.3853351  48.1528816  33.2708393
 106.1266204  46.6759373  33.4795942 103.7762684  40.1214877  30.8510584
 102.9147163  40.4196130  31.1427322 103.8025119  40.3385276  29.9191617
 100.5924254  48.6657067  27.2584390 101.0562599  48.9444770  26.4689013
 100.3281052  47.7640512  27.0757481  97.4848335  48.2128549  30.1964153
  98.0549692  48.6415817  29.5581638  98.0756447  47.9311134  30.8948339
  99.5293140  44.7880220  24.0673955 100.2317183  45.2401263  24.5347882
  99.1973768  44.1464039  24.6953848  97.9773501  43.3791976  38.4425165
  97.3472162  44.0608257  38.6760562  97.8709589  43.2675058  37.4978303
  93.2718474  43.0463772  29.3691089  92.4817528  43.3021301  28.8931199
  93.7629721  43.8612110  29.4743129 107.2882283  50.3869012  32.1196370
 108.1099727  49.9849199  31.8379051 107.2844686  50.2837246  33.0712486
  95.2233219  43.4108352  26.3274566  94.4264383  43.5227046  26.8458061
  94.9958811  43.7495004  25.4615456 101.0538887  49.9353055  34.2757080
 101.1183319  50.3973462  35.1115252 100.3449811  49.3050420  34.4039390
  91.5556177  43.2994263  31.8006080  91.8064215  44.1841273  32.0663656
  92.0915725  43.1198864  31.0281172 115.3788276  46.7307760  28.4681341
 114.6251985  46.1615158  28.3125346 115.5135818  46.6970425  29.4151976
 100.7686905  51.6021162  24.1436061 100.6332579  52.4472698  24.5720908
 101.3096717  51.8040440  23.3801994  97.2554244  37.6812742  40.8050416
  96.8621190  37.1278941  41.4798060  98.0720385  37.9923321  41.1956933
  94.2216302  49.1196600  24.7163986  94.7340822  49.9139851  24.8669550
  94.8739015  48.4222891  24.6497587  96.0311187  52.2362357  26.7986739
  96.2077815  53.1580321  26.6107723  96.8268020  51.9220776  27.2281119
 100.1722205  39.0970621  38.3970672 100.9131919  39.6977774  38.3175135
 100.4040128  38.3548259  37.8388715  95.3163543  44.2826989  36.6748902
  95.2017058  43.3812246  36.9756001  94.4608061  44.5290685  36.3233719
 102.3955381  52.2244729  38.2736403 101.9519235  51.4381107  37.9557307
 103.0572595  52.4123879  37.6080293  97.1542502  53.7540530  32.7997081
  97.7049927  53.6257594  32.0274075  96.3153978  54.0535419  32.4491974
 104.4936619  52.5047529  36.3017804 104.4755094  53.3256410  35.8098073
 105.4156539  52.3801604  36.5267945 100.9509673  50.0191658  37.1441312
 101.4838010  49.2579946  36.9140620 100.4223754  49.7265310  37.8865467
 104.1179368  35.1251724  32.6734954 103.7743638  36.0153366  32.5974065
 104.4858331  34.9353382  31.8104539  92.1865219  47.4485255  25.4923556
  93.0240441  47.8582263  25.2757264  92.3643486  46.5084697  25.4623750
 104.0829651  45.1160335  21.1807389 103.5676274  45.8864940  21.4195777
 103.8106959  44.4425472  21.8040451 101.6676762  39.9610036  26.2392627
 100.8118358  39.5716887  26.0598266 102.0803714  40.0401997  25.3792413
 103.1975908  37.4956379  30.6384187 102.6940704  37.4586515  29.8251993
 103.4906515  38.4049122  30.6980844  99.4418794  37.5795109  29.6450369
 100.3071791  37.3837918  29.2856258  99.5096303  37.3505461  30.5719726
 109.0563925  47.8692690  23.1160563 108.2793368  47.5303850  22.6715725
 109.7355406  47.8745313  22.4415528 103.8715954  42.9887427  23.0067170
 103.5666090  43.3033577  23.8577313 104.8246396  43.0668847  23.0494503
 102.3162386  49.1477651  24.6560124 101.7883747  48.4130410  24.3433362
 101.8149889  49.9252327  24.4100093 107.2955232  47.3426671  29.7727171
 106.6378906  48.0325933  29.8607299 108.0995631  47.7323103  30.1161157
  97.0481113  39.8097317  27.0166736  97.6224865  39.5872499  26.2839929
  97.6352096  39.8786012  27.7695337 106.1060691  45.6971044  27.8231112
 106.6192572  46.3301036  28.3252822 106.7561915  45.0972239  27.4574472
  97.3750701  41.8401778  21.0362621  96.5388013  42.1776465  21.3571896
  97.2355470  41.7050758  20.0989758  99.3503781  36.6838566  25.7441805
  98.6968194  36.3687583  25.1198420  99.3084255  36.0614306  26.4701628
 100.4614986  46.9657861  17.6595097  99.5542048  46.7347114  17.8586246
 100.9586018  46.1695480  17.8469079 103.3683065  55.6755368  20.5791783
 102.6944764  55.9787065  21.1876741 103.7548887  56.4784449  20.2297241
 102.5841522  43.1720500  30.0689453 101.6664083  43.3935447  29.9111141
 103.0001665  43.2466810  29.2101160 103.3676569  44.5711915  25.1992133
 104.1148388  45.0833312  24.8899255 103.6368159  44.2495968  26.0596527
 101.6403219  47.0670456  22.1819087 100.7314439  46.7829489  22.2791557
 101.6698303  47.4869534  21.3222394 106.8722487  50.6777045  25.9510255
 106.4184814  49.8367955  26.0075445 106.2416454  51.3138444  26.2885035
 105.8155406  41.6069031  27.1810922 105.0778163  41.0946418  27.5121165
 106.0682180  41.1669413  26.3694199 105.3155426  52.5153542  26.8860073
 105.6078400  53.0758599  26.1672439 105.8254047  52.8082103  27.6413232
 105.9167034  34.3845283  27.7752692 106.2225911  33.5242647  27.4878607
 106.6419639  34.9762904  27.5751686  92.2091390  44.7875970  26.1634290
  92.0115790  44.1945331  25.4385356  91.6538054  44.4828180  26.8810228
 100.1888114  44.6799077  28.2828883 100.2436723  43.7272913  28.2071359
  99.3779316  44.8358516  28.7670181 101.3379307  48.6079200  19.5207166
 100.8998737  47.8915059  19.0612803 102.0789748  48.8355314  18.9592257
  98.1280473  43.2976136  26.0419262  97.3148339  43.5970307  26.4484454
  98.6239468  42.9031825  26.7593744 100.2789051  53.2933893  27.9753526
 100.2365230  53.5194739  27.0462058 101.1951750  53.0597268  28.1239327
 103.7254685  43.7617961  34.8734156 104.0804073  43.9889434  35.7328621
 104.3726816  44.0936338  34.2511411 109.4552422  46.8836397  25.5783485
 109.3170321  47.0737993  24.6504674 109.0988641  47.6455779  26.0351536
  97.6194548  40.8694492  31.6580497  98.2593928  40.7283251  30.9603460
  96.7872079  40.5829005  31.2819099 109.4821802  48.9512924  30.5894756
 109.9158308  48.8588213  31.4377810 110.1953382  48.9270424  29.9514772
  98.3954852  50.1696922  27.7715489  99.1895451  49.6747242  27.5698064
  97.6846544  49.6414785  27.4083195 103.2149697  52.5515018  32.1227857
 103.2686719  53.1205954  32.8905573 102.3464478  52.7216903  31.7581894
  94.7037616  44.3140004  23.8475242  93.7735204  44.2524459  24.0645204
  94.7995088  43.7915957  23.0511883  94.6223165  40.8394817  26.4353483
  94.8829982  41.7540150  26.3262644  95.4440337  40.3719259  26.5850096
  96.0948090  42.2532574  33.6052308  96.7671143  42.0449936  32.9564957
  95.2677876  42.0554660  33.1657540 110.3437351  48.9936624  33.1227641
 110.5373241  49.8982435  33.3686916 110.2437969  48.5344043  33.9566226
 101.9973662  38.8794515  35.6217969 101.3501577  39.5784465  35.5282445
 102.7674677  39.3130659  35.9894217 105.4052460  49.1443367  38.6968522
 105.2537966  48.9153919  37.7798606 105.3957139  50.1013968  38.7099867
 102.1737796  46.7175280  33.6814788 103.1029856  46.8686439  33.5083756
 101.7528826  46.8059301  32.8263435 100.9726128  50.7425944  31.4513326
 100.8337214  50.3744729  32.3239264 100.1840724  51.2573584  31.2797284
 101.5674280  55.8435041  22.7938863 101.7426036  55.3723084  23.6084485
 100.8807068  56.4700807  23.0220123 102.5231343  50.1207547  28.8402164
 102.1881176  50.0808317  29.7359814 102.0235289  49.4552263  28.3672574
  96.4975587  45.5275177  34.3654745  96.3595385  44.7955416  34.9666284
  97.4080511  45.4384077  34.0838933 105.4590535  47.4663581  19.1139224
 104.8419706  46.7410409  19.0172276 104.9907023  48.2272941  18.7706298
  99.1257888  45.2395136  33.8538425  99.8357506  44.5988328  33.8125043
  99.0827196  45.4908031  34.7764605 107.1144667  52.1762490  36.7745004
 107.0557213  51.4921710  36.1075587 107.5164185  52.9181480  36.3225630
  97.8386822  42.2260354  35.6734064  97.3024179  41.7751093  36.3255661
  97.2503530  42.3606263  34.9304529  96.1335365  58.9924403  29.5678723
  96.3731964  59.6242928  30.2457741  95.2904562  58.6412443  29.8544082
  97.2489081  41.6849006  18.2360528  96.3718547  41.5637806  17.8722775
  97.7246834  40.8935084  17.9839416 107.1162074  50.1402074  35.0058984
 106.2288853  49.8027995  35.1285382 107.6860625  49.4085105  35.2427749
  88.7691221  46.4726165  28.3302035  89.4562261  46.1587895  27.7423050
  88.6139350  47.3767530  28.0569286  93.5725943  41.3616362  32.7587059
  93.4884132  40.7542031  32.0237469  92.7508649  41.8525380  32.7596555
 100.6463227  54.8003526  31.9720227 100.5733399  55.6058497  32.4839531
 100.2040620  54.9995492  31.1468248 100.4353007  54.0375296  25.4823048
  99.6520529  54.5796976  25.5761273 101.1345752  54.5549276  25.8817290
 103.7449657  39.8469925  28.1257254 104.2418356  39.0939888  27.8058324
 102.9736638  39.8834242  27.5600463 111.5979414  45.5510291  29.7675545
 111.5869291  46.4335006  29.3969478 110.7296794  45.1981842  29.5730082
 103.1061911  54.6990360  34.1278385 103.8189883  55.3337825  34.0554287
 102.6151939  54.7954226  33.3118387 104.8279438  48.6041613  25.6995677
 103.8935716  48.7243075  25.5300381 105.0056106  47.7014079  25.4355687
 100.3284626  41.9887308  27.8528938  99.9582413  41.4358349  28.5409844
 100.8243718  41.3845442  27.3003938 108.2151989  44.4458932  26.2345711
 108.6812441  45.2786923  26.1606014 108.6659489  43.9803913  26.9390970
  98.1573824  52.4484803  34.9483956  98.8583284  53.0821286  35.1013350
  97.6868939  52.7899535  34.1879596 106.2828220  50.7902753  23.2331863
 106.5588064  50.6759348  24.1425737 105.4132719  50.3920238  23.1944036
 106.1868652  36.8139519  30.2736613 105.2731732  37.0443746  30.4418820
 106.6161753  36.8977963  31.1250645 105.9575110  45.0029411  32.7736507
 105.3046560  45.2505318  32.1188959 106.3355490  44.1893549  32.4398984
 102.9182284  55.0389104  26.8764677 103.1004679  54.2210760  27.3392429
 103.7415270  55.2556796  26.4389567 103.2524450  53.9657289  24.1379725
 103.7812216  53.4549744  23.5249888 103.5152669  53.6499819  25.0025258
 102.0062683  45.7449222  39.2602544 101.3303320  45.6443351  39.9304919
 102.8290317  45.5888436  39.7238541  93.7541542  51.9821158  31.8815059
  94.3394979  51.2364846  32.0142963  93.5566381  52.2925115  32.7651723
  96.6080198  55.0172406  26.8977501  95.9390573  55.5018533  26.4141541
  96.4693067  55.2641626  27.8120880  88.3459197  44.5526759  30.6019502
  88.3843297  44.0190349  31.3956620  87.8399490  44.0261964  29.9830479
 100.7485466  57.0516149  33.4960160 101.3003774  57.2147771  34.2609245
 101.0891660  57.6420587  32.8240185  95.7249959  39.3991299  34.0982044
  95.7891286  40.2606130  33.6859442  95.6617080  38.7865301  33.3654403
  95.2002232  41.4714432  37.7455079  95.8274271  41.0891509  38.3592603
  94.3430151  41.2528634  38.1110771 105.5996340  51.8777407  39.3508814
 106.1436244  52.4907365  38.8563769 105.0183185  52.4356985  39.8675827
  91.9767775  43.2790861  23.6773433  92.2721216  42.3701539  23.6240487
  91.0755810  43.2578600  23.3554436 103.8853853  54.9998125  30.4823842
 103.7604993  54.1987865  29.9734787 104.5432945  55.4944318  29.9937812
  95.5062022  41.3546857  29.6600982  94.7848607  41.9682825  29.5208455
  96.2955277  41.8904622  29.5817628 105.9488762  52.8007145  32.1103392
 105.0019097  52.6812496  32.0381719 106.2971535  51.9129643  32.1929653
  98.3088335  38.6901284  35.9341634  98.8322737  38.9363580  36.6967943
  98.0900668  39.5221319  35.5144771  93.7055616  40.9604958  23.8012759
  93.3768322  40.0802337  23.6187865  94.0594987  40.9052627  24.6889148
 102.9535195  52.5959861  28.3107744 102.8060158  51.6676569  28.4915314
 103.7788689  52.6179952  27.8264819  96.8197439  41.2477928  24.1688236
  97.1593512  41.7763849  23.4466845  97.2669560  41.5858334  24.9446803
 106.5569317  53.4188420  29.3972617 107.4815864  53.2131281  29.2597068
 106.3884620  53.1704821  30.3061958  99.5140880  39.6314979  33.6191304
  99.1737701  38.8322792  34.0211984  98.8079886  39.9316690  33.0468138
 100.1657352  36.7164291  32.0718627 100.9883421  36.2424770  31.9497518
 100.4095416  37.4954775  32.5717314  98.8065587  39.7452550  22.3681529
  99.5273949  40.1233803  21.8645246  98.1830891  40.4641427  22.4716507
 102.9496709  40.4497699  23.3039861 103.1660324  41.3322337  23.0028690
 102.4690777  40.0583912  22.5745503  97.6895931  43.4083412  29.8810606
  97.5440512  43.7223715  30.7734888  97.2121134  44.0268312  29.3281505
  99.5492314  40.3985960  29.9291496  99.5353882  39.5027053  29.5923794
 100.2664742  40.4056624  30.5629782 101.4018444  40.8323300  31.9744623
 101.1436222  41.7540371  31.9728953 100.8703485  40.4353735  32.6645087
 106.3464633  53.9374087  24.7534708 106.5201511  53.3720510  24.0008561
 106.8393524  54.7374982  24.5714198  92.1641593  45.9488756  32.8198267
  91.6195061  46.7248564  32.9518542  93.0420943  46.2959561  32.6617389
  98.9529210  39.2800340  25.1979066  99.0745121  38.3516986  25.3969953
  98.6631252  39.2939026  24.2857381 101.8220400  36.9655251  28.3345786
 101.8442097  37.0294584  27.3797765 102.2388459  36.1259759  28.5286292
 112.2004024  46.7010510  26.3725008 112.6435170  45.9517835  25.9744131
 111.3230535  46.6920647  25.9898740 107.3339806  53.2540852  21.8531607
 108.0290710  53.8747544  22.0718921 107.6762956  52.4036203  22.1283985
  92.9507615  45.0758653  35.7128424  92.2089351  45.2241288  36.2993054
  92.6300359  45.3366918  34.8495173 109.2331229  50.7040557  23.3818937
 109.7582553  51.0427830  22.6568257 109.1453581  49.7687573  23.1982072
 100.8951277  54.6174631  35.5108814 101.2038404  54.3723778  36.3831514
 101.6926759  54.8221269  35.0227684 100.9171889  56.7712541  27.7414191
 100.4776880  56.2788919  28.4347047 101.6680006  56.2285508  27.5006266
  93.3964228  52.9624081  27.7438819  94.2222248  52.6627853  27.3637462
  93.0458280  52.1931704  28.1928607  98.3645762  52.3150550  29.8136492
  97.7425771  51.6521255  29.5138720  99.0350629  52.3411682  29.1310140
  91.5972834  50.8810408  28.7027752  90.7604742  50.4532582  28.5211754
  91.5696479  51.0742851  29.6398543  98.4370289  40.7932338  39.4068998
  98.4858445  41.6694460  39.0246768  98.9792803  40.2509731  38.8340642
 108.9225135  51.3373461  38.6870135 108.1320679  51.3197600  38.1474635
 108.6858489  51.8761755  39.4419172 109.0423010  48.1865927  36.0002864
 109.0921015  48.0215935  36.9418387 108.9336933  47.3193186  35.6100745
  97.9259269  50.8654473  23.2894953  98.0747389  51.5489937  22.6361626
  98.7325712  50.8459563  23.8044409 106.3326772  44.1696855  37.3162171
 107.2336635  44.0303320  37.0246168 106.4074747  44.3351310  38.2560348
 100.6669578  41.5463710  36.1615357  99.7972887  41.8397276  35.8897946
 100.9029058  42.1304155  36.8822621 110.5441207  50.6062869  36.2444885
 110.2526015  50.9692849  37.0808346 109.9313338  49.8929877  36.0658218
 111.7436889  48.1715749  28.7647456 112.5783780  48.6105553  28.9285016
 111.8796018  47.6954402  27.9455701 108.7928395  45.7295483  34.7124943
 109.2682517  45.9223130  33.9043795 107.8693960  45.7854669  34.4668327
  95.6811902  46.8919651  24.2956022  95.4357943  45.9881981  24.4936232
  95.8507816  46.8936801  23.3535500 103.3708611  37.7643327  33.6780777
 103.8890555  38.5004354  33.3527266 103.0163744  38.0707320  34.5127536
  94.9507549  42.6248008  21.7942183  94.2576794  42.6992363  21.1382219
  94.7059301  41.8608352  22.3163700 103.6221206  34.1843610  29.1981674
 103.9022959  33.5166799  29.8242100 104.4071813  34.3772705  28.6856338
 101.4254674  53.3602603  20.7606700 100.8528641  53.9792791  20.3077172
 101.9987468  53.9101965  21.2946622 107.4930064  42.6061244  32.9453249
 108.4447487  42.7059341  32.9665473 107.3233514  41.8139512  33.4551333
 105.5144443  39.6916827  33.1312650 104.9194376  39.9721839  32.4359139
 105.2294140  40.1810728  33.9029391 104.6451934  53.6439754  21.8915283
 105.5782607  53.5785315  22.0948158 104.5575147  54.4796020  21.4329815
 107.2739951  52.9605624  18.8519230 107.1953582  52.6265487  19.7454988
 108.0949617  53.4527392  18.8510702 109.9718142  45.8267363  32.0595549
 109.9394462  44.8883364  32.2455233 110.5818765  45.9051400  31.3261374
 101.8101473  44.6963416  18.1022753 102.7560577  44.5669624  18.1711171
 101.4315718  43.9578078  18.5792181 110.1212630  42.6178407  32.1053832
 109.6051679  41.8336863  31.9183761 111.0052579  42.2897123  32.2700351
 107.7823357  36.3619422  28.0649645 107.5848178  36.0534510  28.9492977
 108.3923063  37.0881061  28.1947574 115.7894692  46.8883370  31.2001586
 116.5198080  46.6268658  31.7609289 115.1801637  46.1512092  31.2403653
 113.8709989  45.0291233  31.7976037 113.1443152  44.8947198  31.1892528
 113.4557276  45.3368061  32.6032755 101.6940165  48.7481162  39.5623410
 102.6143175  48.9259761  39.7563456 101.6589748  47.8037208  39.4103109
  99.9944390  42.6213393  18.0377638  99.0875845  42.3246505  18.1140352
 100.2720371  42.3243211  17.1711924  90.9122330  43.9419756  28.4876684
  90.5925114  43.0885064  28.1951058  90.3655758  44.1568334  29.2434652
  94.6902238  46.6582197  32.2046191  94.9088247  47.5899305  32.2234225
  95.1028011  46.2990171  32.9900995 101.6106455  37.1650282  24.1921879
 100.8007184  36.8197367  24.5677125 102.2990872  36.8557826  24.7809491
 103.5397004  36.2428329  25.8146176 104.0928042  36.6623782  26.4736199
 103.7767090  35.3164077  25.8569132  99.5630103  42.2315403  41.5948940
  99.4626830  43.1809760  41.5261031  99.3451645  41.9033642  40.7225010
  98.7643174  39.4800328  18.1789617  99.6262338  39.8055226  18.4385435
  98.9493519  38.6931824  17.6662683  90.7810590  47.5622667  30.4569806
  90.0874062  47.1476620  29.9439760  91.5283581  47.6043204  29.8603225
 106.9175811  38.3528854  25.3224840 106.3374480  39.0113658  24.9402893
 106.6511744  37.5306199  24.9112258 105.3679377  37.7533912  27.5246161
 105.8679156  37.8650446  26.7160479 106.0114985  37.4494965  28.1646969
  99.4261373  45.6612542  40.4114001  98.9428455  46.4612902  40.6177891
  99.5122312  45.6720486  39.4581445  92.6947333  47.4940921  28.3335821
  92.6718021  47.5928609  27.3817704  93.0047969  48.3406072  28.6552987
  95.3534711  49.5517076  32.4482435  96.3077964  49.5201019  32.3812367
  95.1547234  49.0907700  33.2632661  95.9434093  48.1218192  35.0153233
  96.7626982  48.6162271  35.0388070  96.2170900  47.2050160  34.9870800
 105.7000689  40.5128945  24.3781188 104.8126544  40.7978595  24.1601383
 106.1154678  40.3522708  23.5308465 109.0515225  40.5375466  28.0935528
 109.8275615  41.0271918  28.3660145 108.3263359  40.9633520  28.5507397
 111.4887784  41.2503085  29.1509468 112.0832274  41.0098821  28.4402777
 111.5614367  40.5310215  29.7783005  93.7084939  55.0936696  29.4652633
  93.5739407  54.3337097  28.8990631  93.2917002  55.8177596  28.9981422
 104.8443902  50.2773619  18.4729208 105.5479752  50.4823622  19.0886864
 104.1206551  50.8450381  18.7378292 105.6741713  46.0283481  24.5931479
 105.6176914  46.4852032  23.7539111 106.2270055  45.2674165  24.4154321
 109.4846519  41.8173212  25.4181598 109.2283453  41.4169848  26.2489806
 108.8599387  42.5317006  25.2931737 113.7958856  44.5569286  27.9252889
 113.2358414  44.6262475  28.6984452 113.1902360  44.3810270  27.2052386
  96.8654065  55.9906013  29.6771076  96.7486449  56.9351445  29.5749766
  96.0446511  55.6879574  30.0656875 106.7530600  50.7156148  20.5227668
 107.5876204  50.2837347  20.3405143 106.5914943  50.5438162  21.4504563
 106.4076492  47.2188262  21.8884008 106.3525296  47.0532533  20.9472452
 105.7822547  47.9264295  22.0446197  91.1969007  42.4556326  35.7145430
  91.8427871  41.9455280  36.2032655  90.9886158  43.1925008  36.2888855
 103.7222399  49.5237174  41.2137571 104.5913559  49.6977826  40.8524205
 103.2429151  50.3431590  41.0913300  99.7172617  36.7196371  21.4669326
  99.7051287  37.6638211  21.6237597 100.6096039  36.5366516  21.1728787
  97.8908579  56.6434275  32.8927004  98.7935826  56.6757885  33.2093499
  97.6645949  55.7134726  32.9073340  99.6462181  55.3965261  29.5537083
  98.6957812  55.3967123  29.4401455  99.9494667  54.6497996  29.0373117
 103.5324737  33.3139147  25.7215263 102.7657133  32.7597634  25.8671945
 103.9435442  33.3861016  26.5829415  95.5366498  39.6023943  39.8120444
  96.3997959  39.2460748  40.0223769  94.9631909  39.2637838  40.4995848
 115.3814875  61.2325800  30.6182845 116.0193285  61.1132547  29.9146185
 115.2635718  62.1806644  30.6770797 112.1904581  61.1853228  30.5544370
 111.8523093  61.0694292  29.6664905 113.0594349  60.7844393  30.5345376
 108.0491397  63.0388704  26.5441261 107.4856262  62.9478641  25.7757549
 107.9343792  62.2188609  27.0243753 112.6724364  62.3388079  36.5130575
 112.6613005  61.9440878  35.6411079 112.8345004  61.6054152  37.1064347
 105.5955829  64.5339896  29.3825481 106.3877121  64.1930720  28.9671781
 105.8352479  64.6434871  30.3027635 113.6290956  66.7059672  21.8555726
 112.9778935  67.2913752  21.4689740 114.4235318  67.2365867  21.9150763
 107.5546583  63.7948809  22.2542860 108.3277459  63.2477796  22.1155736
 107.9071982  64.6593058  22.4657322 109.3931625  65.1225191  35.4609759
 109.1021491  66.0270822  35.3456426 110.0288610  65.1641719  36.1753829
 110.3187832  62.5002040  32.0511119 110.9151404  62.2758062  31.3368082
 110.3762804  61.7586785  32.6536567 109.8912860  59.9541475  19.8861310
 110.1438381  59.4322996  19.1244773 108.9537420  59.7907621  19.9887994
 114.9356143  58.9577253  27.6936053 115.7219233  58.5396677  27.3426470
 115.1994848  59.8623346  27.8617702 115.1066221  64.3950104  22.3924710
 114.4712054  64.4684730  23.1045615 114.7763627  64.9843703  21.7143789
 120.3364570  58.8952487  28.5969032 121.0689742  58.3251703  28.8306861
 119.5803926  58.5074087  29.0375537 109.6109149  61.8569581  22.0885685
 109.4945407  61.1814484  22.7566769 109.7211409  61.3701955  21.2717838
 111.9540690  61.3179728  25.7932374 111.5898897  60.7910349  26.5045296
 112.8107806  60.9278197  25.6198860 117.8589991  52.6074061  33.0563640
 117.5273316  53.4769472  32.8324855 117.2635604  52.2910345  33.7357671
 111.5946177  56.3469628  20.7893723 111.7620579  57.2149864  21.1564194
 111.4043346  56.5096910  19.8655012 114.3521510  64.8086607  32.4559553
 114.0522233  65.7111646  32.3475360 114.0072570  64.5418790  33.3080706
 107.8033992  61.2600404  28.4896258 106.8784488  61.1276618  28.6973949
 108.0518405  62.0394623  28.9866200 117.7518654  57.3269147  30.1356990
 116.8435531  57.2584555  29.8415751 117.7006250  57.8041092  30.9638816
 111.5735398  58.8027285  21.7740390 111.4535023  59.2484336  22.6125870
 110.8787986  59.1512603  21.2153928 105.1642803  60.9033677  29.3240047
 105.2935184  61.1568156  30.2379458 104.4840254  61.4961385  29.0044702
 109.3342290  71.5730927  25.4230521 109.2566320  72.5238752  25.5019001
 108.7303934  71.2276800  26.0805447 111.8259520  58.7458793  38.0791888
 111.0492854  59.3052713  38.0694752 112.4650083  59.2315576  38.6006758
 119.6180301  55.5285585  31.9134864 118.9754681  55.8218118  31.2674659
 119.1135229  55.4138506  32.7188061 117.2720464  59.2748759  22.6020724
 118.1838320  59.5076145  22.4268421 116.7630111  59.8585803  22.0395802
 110.0805892  61.5544246  37.6409855 110.8220577  62.0929290  37.3644678
 109.3742878  62.1810535  37.7981406 115.5561232  63.6973386  36.2382016
 115.9644588  63.2555797  35.4936649 114.8338493  63.1226014  36.4916209
 111.9092302  58.6345993  33.6115573 112.7553497  59.0585407  33.7550222
 111.8490940  57.9779617  34.3054136 115.8790046  64.2574577  29.9934305
 115.2498909  64.4220291  29.2910373 115.4915709  64.6716187  30.7645269
 119.7579278  65.1929015  27.3478669 119.0730317  65.5727916  26.7975702
 119.8423128  65.8024341  28.0810617 115.0591747  56.2950361  35.2696747
 114.8152679  57.0492422  34.7331022 115.3351678  56.6735709  36.1043994
 117.0130210  62.8388974  33.9474012 117.2247105  63.4820734  33.2708393
 116.9659958  62.0051290  33.4795942 114.6156439  55.4506794  30.8510584
 113.7540918  55.7488048  31.1427322 114.6418874  55.6677193  29.9191617
 111.4318008  63.9948985  27.2584390 111.8956354  64.2736688  26.4689013
 111.1674806  63.0932430  27.0757481 108.3242089  63.5420467  30.1964153
 108.8943446  63.9707735  29.5581638 108.9150201  63.2603051  30.8948339
 110.3686894  60.1172137  24.0673955 111.0710938  60.5693181  24.5347882
 110.0367523  59.4755956  24.6953848 108.8167256  58.7083894  38.4425165
 108.1865917  59.3900175  38.6760562 108.7103344  58.5966976  37.4978303
 104.1112228  58.3755690  29.3691089 103.3211282  58.6313219  28.8931199
 104.6023476  59.1904028  29.4743129 118.1276038  65.7160929  32.1196370
 118.9493482  65.3141117  31.8379051 118.1238441  65.6129163  33.0712486
 106.0626974  58.7400269  26.3274566 105.2658137  58.8518964  26.8458061
 105.8352566  59.0786922  25.4615456 111.8932641  65.2644973  34.2757080
 111.9577074  65.7265380  35.1115252 111.1843565  64.6342337  34.4039390
 102.3949931  58.6286181  31.8006080 102.6457970  59.5133190  32.0663656
 102.9309480  58.4490782  31.0281172 126.2182031  62.0599678  28.4681341
 125.4645739  61.4907076  28.3125346 126.3529572  62.0262342  29.4151976
 111.6080659  66.9313080  24.1436061 111.4726334  67.7764616  24.5720908
 112.1490472  67.1332358  23.3801994 108.0947999  53.0104660  40.8050416
 107.7014944  52.4570858  41.4798060 108.9114139  53.3215238  41.1956933
 105.0610056  64.4488518  24.7163986 105.5734577  65.2431768  24.8669550
 105.7132769  63.7514809  24.6497587 106.8704941  67.5654274  26.7986739
 107.0471569  68.4872239  26.6107723 107.6661775  67.2512694  27.2281119
 111.0115960  54.4262539  38.3970672 111.7525673  55.0269692  38.3175135
 111.2433882  53.6840177  37.8388715 106.1557298  59.6118906  36.6748902
 106.0410813  58.7104163  36.9756001 105.3001815  59.8582603  36.3233719
 113.2349135  67.5536647  38.2736403 112.7912990  66.7673025  37.9557307
 113.8966349  67.7415797  37.6080293 107.9936257  69.0832448  32.7997081
 108.5443682  68.9549512  32.0274075 107.1547732  69.3827337  32.4491974
 115.3330373  67.8339446  36.3017804 115.3148849  68.6548328  35.8098073
 116.2550294  67.7093522  36.5267945 111.7903428  65.3483576  37.1441312
 112.3231764  64.5871864  36.9140620 111.2617509  65.0557228  37.8865467
 114.9573123  50.4543642  32.6734954 114.6137392  51.3445284  32.5974065
 115.3252085  50.2645300  31.8104539 103.0258973  62.7777172  25.4923556
 103.8634195  63.1874181  25.2757264 103.2037241  61.8376615  25.4623750
 114.9223405  60.4452253  21.1807389 114.4070029  61.2156858  21.4195777
 114.6500714  59.7717389  21.8040451 112.5070516  55.2901954  26.2392627
 111.6512113  54.9008804  26.0598266 112.9197468  55.3693915  25.3792413
 114.0369663  52.8248297  30.6384187 113.5334459  52.7878432  29.8251993
 114.3300270  53.7341040  30.6980844 110.2812549  52.9087027  29.6450369
 111.1465546  52.7129835  29.2856258 110.3490058  52.6797379  30.5719726
 119.8957679  63.1984608  23.1160563 119.1187122  62.8595767  22.6715725
 120.5749160  63.2037231  22.4415528 114.7109708  58.3179345  23.0067170
 114.4059844  58.6325494  23.8577313 115.6640151  58.3960765  23.0494503
 113.1556140  64.4769568  24.6560124 112.6277502  63.7422328  24.3433362
 112.6543643  65.2544245  24.4100093 118.1348986  62.6718589  29.7727171
 117.4772661  63.3617850  29.8607299 118.9389386  63.0615021  30.1161157
 107.8874868  55.1389235  27.0166736 108.4618620  54.9164416  26.2839929
 108.4745850  55.2077929  27.7695337 116.9454445  61.0262962  27.8231112
 117.4586327  61.6592953  28.3252822 117.5955669  60.4264157  27.4574472
 108.2144455  57.1693696  21.0362621 107.3781767  57.5068382  21.3571896
 108.0749225  57.0342676  20.0989758 110.1897536  52.0130484  25.7441805
 109.5361948  51.6979501  25.1198420 110.1478010  51.3906224  26.4701628
 111.3008741  62.2949779  17.6595097 110.3935802  62.0639032  17.8586246
 111.7979773  61.4987398  17.8469079 114.2076819  71.0047286  20.5791783
 113.5338518  71.3078983  21.1876741 114.5942641  71.8076366  20.2297241
 113.4235276  58.5012417  30.0689453 112.5057837  58.7227364  29.9111141
 113.8395420  58.5758728  29.2101160 114.2070324  59.9003833  25.1992133
 114.9542143  60.4125230  24.8899255 114.4761913  59.5787886  26.0596527
 112.4796974  62.3962374  22.1819087 111.5708193  62.1121406  22.2791557
 112.5092058  62.8161452  21.3222394 117.7116241  66.0068963  25.9510255
 117.2578568  65.1659873  26.0075445 117.0810208  66.6430361  26.2885035
 116.6549161  56.9360949  27.1810922 115.9171918  56.4238335  27.5121165
 116.9075934  56.4961331  26.3694199 116.1549181  67.8445460  26.8860073
 116.4472155  68.4050517  26.1672439 116.6647801  68.1374021  27.6413232
 116.7560788  49.7137201  27.7752692 117.0619665  48.8534565  27.4878607
 117.4813393  50.3054821  27.5751686 103.0485144  60.1167888  26.1634290
 102.8509544  59.5237248  25.4385356 102.4931808  59.8120098  26.8810228
 111.0281868  60.0090994  28.2828883 111.0830478  59.0564831  28.2071359
 110.2173070  60.1650433  28.7670181 112.1773062  63.9371117  19.5207166
 111.7392492  63.2206976  19.0612803 112.9183503  64.1647232  18.9592257
 108.9674228  58.6268054  26.0419262 108.1542093  58.9262224  26.4484454
 109.4633222  58.2323743  26.7593744 111.1182806  68.6225811  27.9753526
 111.0758985  68.8486657  27.0462058 112.0345505  68.3889185  28.1239327
 114.5648440  59.0909878  34.8734156 114.9197827  59.3181352  35.7328621
 115.2120571  59.4228255  34.2511411 120.2946177  62.2128314  25.5783485
 120.1564075  62.4029910  24.6504674 119.9382395  62.9747697  26.0351536
 108.4588303  56.1986409  31.6580497 109.0987682  56.0575169  30.9603460
 107.6265833  55.9120923  31.2819099 120.3215556  64.2804841  30.5894756
 120.7552063  64.1880130  31.4377810 121.0347137  64.2562342  29.9514772
 109.2348607  65.4988840  27.7715489 110.0289205  65.0039160  27.5698064
 108.5240299  64.9706703  27.4083195 114.0543451  67.8806935  32.1227857
 114.1080473  68.4497872  32.8905573 113.1858232  68.0508820  31.7581894
 105.5431370  59.6431922  23.8475242 104.6128958  59.5816377  24.0645204
 105.6388842  59.1207874  23.0511883 105.4616919  56.1686734  26.4353483
 105.7223736  57.0832068  26.3262644 106.2834091  55.7011177  26.5850096
 106.9341844  57.5824492  33.6052308 107.6064898  57.3741854  32.9564957
 106.1071631  57.3846578  33.1657540 121.1831106  64.3228542  33.1227641
 121.3766996  65.2274352  33.3686916 121.0831724  63.8635961  33.9566226
 112.8367416  54.2086433  35.6217969 112.1895331  54.9076382  35.5282445
 113.6068432  54.6422576  35.9894217 116.2446214  64.4735285  38.6968522
 116.0931721  64.2445836  37.7798606 116.2350894  65.4305886  38.7099867
 113.0131551  62.0467197  33.6814788 113.9423611  62.1978357  33.5083756
 112.5922581  62.1351218  32.8263435 111.8119883  66.0717862  31.4513326
 111.6730968  65.7036646  32.3239264 111.0234479  66.5865501  31.2797284
 112.4068035  71.1726958  22.7938863 112.5819790  70.7015002  23.6084485
 111.7200823  71.7992725  23.0220123 113.3625098  65.4499465  28.8402164
 113.0274930  65.4100235  29.7359814 112.8629043  64.7844180  28.3672574
 107.3369342  60.8567095  34.3654745 107.1989140  60.1247333  34.9666284
 108.2474265  60.7675995  34.0838933 116.2984289  62.7955499  19.1139224
 115.6813460  62.0702327  19.0172276 115.8300778  63.5564859  18.7706298
 109.9651642  60.5687054  33.8538425 110.6751261  59.9280246  33.8125043
 109.9220951  60.8199949  34.7764605 117.9538421  67.5054407  36.7745004
 117.8950967  66.8213627  36.1075587 118.3557939  68.2473397  36.3225630
 108.6780576  57.5552272  35.6734064 108.1417933  57.1043010  36.3255661
 108.0897285  57.6898181  34.9304529 106.9729120  74.3216321  29.5678723
 107.2125718  74.9534845  30.2457741 106.1298316  73.9704361  29.8544082
 108.0882835  57.0140923  18.2360528 107.2112302  56.8929724  17.8722775
 108.5640588  56.2227002  17.9839416 117.9555828  65.4693991  35.0058984
 117.0682607  65.1319913  35.1285382 118.5254379  64.7377022  35.2427749
  99.6084975  61.8018083  28.3302035 100.2956015  61.4879813  27.7423050
  99.4533104  62.7059448  28.0569286 104.4119698  56.6908279  32.7587059
 104.3277886  56.0833949  32.0237469 103.5902404  57.1817298  32.7596555
 111.4856982  70.1295444  31.9720227 111.4127153  70.9350415  32.4839531
 111.0434375  70.3287409  31.1468248 111.2746761  69.3667214  25.4823048
 110.4914283  69.9088894  25.5761273 111.9739506  69.8841193  25.8817290
 114.5843411  55.1761843  28.1257254 115.0812111  54.4231805  27.8058324
 113.8130393  55.2126160  27.5600463 122.4373169  60.8802209  29.7675545
 122.4263045  61.7626924  29.3969478 121.5690548  60.5273759  29.5730082
 113.9455665  70.0282278  34.1278385 114.6583637  70.6629742  34.0554287
 113.4545694  70.1246144  33.3118387 115.6673192  63.9333530  25.6995677
 114.7329471  64.0534993  25.5300381 115.8449861  63.0305997  25.4355687
 111.1678380  57.3179226  27.8528938 110.7976168  56.7650266  28.5409844
 111.6637473  56.7137359  27.3003938 119.0545743  59.7750850  26.2345711
 119.5206196  60.6078841  26.1606014 119.5053244  59.3095831  26.9390970
 108.9967579  67.7776721  34.9483956 109.6977038  68.4113204  35.1013350
 108.5262694  68.1191453  34.1879596 117.1221975  66.1194671  23.2331863
 117.3981818  66.0051265  24.1425737 116.2526473  65.7212156  23.1944036
 117.0262406  52.1431437  30.2736613 116.1125486  52.3735663  30.4418820
 117.4555508  52.2269881  31.1250645 116.7968865  60.3321328  32.7736507
 116.1440315  60.5797236  32.1188959 117.1749245  59.5185467  32.4398984
 113.7576039  70.3681022  26.8764677 113.9398433  69.5502678  27.3392429
 114.5809025  70.5848714  26.4389567 114.0918204  69.2949207  24.1379725
 114.6205971  68.7841661  23.5249888 114.3546424  68.9791737  25.0025258
 112.8456438  61.0741140  39.2602544 112.1697075  60.9735269  39.9304919
 113.6684072  60.9180353  39.7238541 104.5935297  67.3113076  31.8815059
 105.1788734  66.5656764  32.0142963 104.3960135  67.6217033  32.7651723
 107.4473952  70.3464323  26.8977501 106.7784327  70.8310451  26.4141541
 107.3086822  70.5933544  27.8120880  99.1852952  59.8818676  30.6019502
  99.2237051  59.3482267  31.3956620  98.6793244  59.3553882  29.9830479
 111.5879221  72.3808067  33.4960160 112.1397529  72.5439688  34.2609245
 111.9285414  72.9712505  32.8240185 106.5643714  54.7283217  34.0982044
 106.6285040  55.5898048  33.6859442 106.5010834  54.1157218  33.3654403
 106.0395986  56.8006349  37.7455079 106.6668025  56.4183427  38.3592603
 105.1823905  56.5820551  38.1110771 116.4390095  67.2069325  39.3508814
 116.9829999  67.8199283  38.8563769 115.8576940  67.7648903  39.8675827
 102.8161529  58.6082778  23.6773433 103.1114970  57.6993457  23.6240487
 101.9149565  58.5870518  23.3554436 114.7247608  70.3290043  30.4823842
 114.5998747  69.5279782  29.9734787 115.3826699  70.8236236  29.9937812
 106.3455776  56.6838775  29.6600982 105.6242362  57.2974743  29.5208455
 107.1349032  57.2196540  29.5817628 116.7882516  68.1299063  32.1103392
 115.8412852  68.0104414  32.0381719 117.1365289  67.2421561  32.1929653
 109.1482090  54.0193202  35.9341634 109.6716491  54.2655498  36.6967943
 108.9294423  54.8513236  35.5144771 104.5449371  56.2896876  23.8012759
 104.2162077  55.4094255  23.6187865 104.8988741  56.2344545  24.6889148
 113.7928950  67.9251779  28.3107744 113.6453912  66.9968486  28.4915314
 114.6182443  67.9471870  27.8264819 107.6591194  56.5769846  24.1688236
 107.9987266  57.1055767  23.4466845 108.1063314  56.9150252  24.9446803
 117.3963071  68.7480338  29.3972617 118.3209619  68.5423199  29.2597068
 117.2278375  68.4996739  30.3061958 110.3534635  54.9606897  33.6191304
 110.0131455  54.1614710  34.0211984 109.6473641  55.2608607  33.0468138
 111.0051107  52.0456209  32.0718627 111.8277176  51.5716687  31.9497518
 111.2489170  52.8246693  32.5717314 109.6459341  55.0744467  22.3681529
 110.3667704  55.4525720  21.8645246 109.0224645  55.7933344  22.4716507
 113.7890464  55.7789616  23.3039861 114.0054078  56.6614254  23.0028690
 113.3084531  55.3875830  22.5745503 108.5289685  58.7375330  29.8810606
 108.3834266  59.0515633  30.7734888 108.0514889  59.3560230  29.3281505
 110.3886068  55.7277878  29.9291496 110.3747637  54.8318971  29.5923794
 111.1058496  55.7348541  30.5629782 112.2412199  56.1615218  31.9744623
 111.9829977  57.0832289  31.9728953 111.7097239  55.7645652  32.6645087
 117.1858388  69.2666005  24.7534708 117.3595265  68.7012427  24.0008561
 117.6787279  70.0666900  24.5714198 103.0035347  61.2780674  32.8198267
 102.4588816  62.0540482  32.9518542 103.8814697  61.6251479  32.6617389
 109.7922964  54.6092258  25.1979066 109.9138875  53.6808904  25.3969953
 109.5025006  54.6230944  24.2857381 112.6614154  52.2947168  28.3345786
 112.6835851  52.3586501  27.3797765 113.0782213  51.4551677  28.5286292
 123.0397779  62.0302428  26.3725008 123.4828925  61.2809753  25.9744131
 122.1624289  62.0212564  25.9898740 118.1733560  68.5832769  21.8531607
 118.8684465  69.2039462  22.0718921 118.5156710  67.7328121  22.1283985
 103.7901369  60.4050570  35.7128424 103.0483105  60.5533206  36.2993054
 103.4694114  60.6658836  34.8495173 120.0724983  66.0332475  23.3818937
 120.5976307  66.3719748  22.6568257 119.9847336  65.0979490  23.1982072
 111.7345032  69.9466549  35.5108814 112.0432158  69.7015695  36.3831514
 112.5320514  70.1513187  35.0227684 111.7565644  72.1004458  27.7414191
 111.3170634  71.6080837  28.4347047 112.5073761  71.5577426  27.5006266
 104.2357983  68.2915999  27.7438819 105.0616003  67.9919771  27.3637462
 103.8852035  67.5223622  28.1928607 109.2039516  67.6442467  29.8136492
 108.5819525  66.9813172  29.5138720 109.8744383  67.6703599  29.1310140
 102.4366588  66.2102326  28.7027752 101.5998496  65.7824500  28.5211754
 102.4090233  66.4034769  29.6398543 109.2764044  56.1224255  39.4068998
 109.3252199  56.9986378  39.0246768 109.8186558  55.5801648  38.8340642
 119.7618889  66.6665379  38.6870135 118.9714433  66.6489517  38.1474635
 119.5252244  67.2053672  39.4419172 119.8816764  63.5157845  36.0002864
 119.9314769  63.3507852  36.9418387 119.7730688  62.6485104  35.6100745
 108.7653023  66.1946391  23.2894953 108.9141143  66.8781855  22.6361626
 109.5719467  66.1751481  23.8044409 117.1720527  59.4988773  37.3162171
 118.0730390  59.3595238  37.0246168 117.2468501  59.6643228  38.2560348
 111.5063332  56.8755628  36.1615357 110.6366641  57.1689194  35.8897946
 111.7422812  57.4596073  36.8822621 121.3834961  65.9354786  36.2444885
 121.0919769  66.2984767  37.0808346 120.7707092  65.2221795  36.0658218
 122.5830643  63.5007666  28.7647456 123.4177535  63.9397470  28.9285016
 122.7189772  63.0246319  27.9455701 119.6322149  61.0587401  34.7124943
 120.1076271  61.2515047  33.9043795 118.7087715  61.1146587  34.4668327
 106.5205656  62.2211568  24.2956022 106.2751698  61.3173898  24.4936232
 106.6901571  62.2228719  23.3535500 114.2102366  53.0935245  33.6780777
 114.7284310  53.8296272  33.3527266 113.8557499  53.3999238  34.5127536
 105.7901304  57.9539926  21.7942183 105.0970549  58.0284281  21.1382219
 105.5453055  57.1900269  22.3163700 114.4614960  49.5135527  29.1981674
 114.7416714  48.8458716  29.8242100 115.2465567  49.7064623  28.6856338
 112.2648429  68.6894521  20.7606700 111.6922396  69.3084708  20.3077172
 112.8381222  69.2393883  21.2946622 118.3323818  57.9353161  32.9453249
 119.2841241  58.0351259  32.9665473 118.1627269  57.1431430  33.4551333
 116.3538198  55.0208744  33.1312650 115.7588130  55.3013757  32.4359139
 116.0687895  55.5102645  33.9029391 115.4845688  68.9731671  21.8915283
 116.4176362  68.9077233  22.0948158 115.3968901  69.8087938  21.4329815
 118.1133705  68.2897542  18.8519230 118.0347337  67.9557405  19.7454988
 118.9343372  68.7819309  18.8510702 120.8111896  61.1559281  32.0595549
 120.7788216  60.2175282  32.2455233 121.4212520  61.2343318  31.3261374
 112.6495227  60.0255334  18.1022753 113.5954332  59.8961542  18.1711171
 112.2709472  59.2869996  18.5792181 120.9606385  57.9470324  32.1053832
 120.4445433  57.1628781  31.9183761 121.8446333  57.6189041  32.2700351
 118.6217112  51.6911340  28.0649645 118.4241933  51.3826428  28.9492977
 119.2316817  52.4172979  28.1947574 126.6288446  62.2175288  31.2001586
 127.3591835  61.9560576  31.7609289 126.0195392  61.4804010  31.2403653
 124.7103743  60.3583150  31.7976037 123.9836907  60.2239115  31.1892528
 124.2951030  60.6659979  32.6032755 112.5333920  64.0773080  39.5623410
 113.4536929  64.2551679  39.7563456 112.4983503  63.1329125  39.4103109
 110.8338144  57.9505310  18.0377638 109.9269600  57.6538423  18.1140352
 111.1114125  57.6535128  17.1711924 101.7516085  59.2711674  28.4876684
 101.4318869  58.4176982  28.1951058 101.2049513  59.4860252  29.2434652
 105.5295992  61.9874115  32.2046191 105.7482002  62.9191222  32.2234225
 105.9421766  61.6282089  32.9900995 112.4500210  52.4942200  24.1921879
 111.6400938  52.1489285  24.5677125 113.1384627  52.1849744  24.7809491
 114.3790758  51.5720247  25.8146176 114.9321797  51.9915700  26.4736199
 114.6160845  50.6455995  25.8569132 110.4023857  57.5607320  41.5948940
 110.3020584  58.5101677  41.5261031 110.1845400  57.2325559  40.7225010
 109.6036929  54.8092245  18.1789617 110.4656093  55.1347144  18.4385435
 109.7887273  54.0223741  17.6662683 101.6204345  62.8914585  30.4569806
 100.9267816  62.4768538  29.9439760 102.3677336  62.9335122  29.8603225
 117.7569565  53.6820772  25.3224840 117.1768234  54.3405576  24.9402893
 117.4905498  52.8598117  24.9112258 116.2073132  53.0825830  27.5246161
 116.7072910  53.1942364  26.7160479 116.8508740  52.7786882  28.1646969
 110.2655128  60.9904459  40.4114001 109.7822209  61.7904819  40.6177891
 110.3516067  61.0012404  39.4581445 103.5341087  62.8232839  28.3335821
 103.5111775  62.9220526  27.3817704 103.8441724  63.6697990  28.6552987
 106.1928465  64.8808994  32.4482435 107.1471719  64.8492936  32.3812367
 105.9940989  64.4199618  33.2632661 106.7827847  63.4510110  35.0153233
 107.6020736  63.9454189  35.0388070 107.0564655  62.5342078  34.9870800
 116.5394443  55.8420862  24.3781188 115.6520298  56.1270513  24.1601383
 116.9548432  55.6814626  23.5308465 119.8908979  55.8667383  28.0935528
 120.6669370  56.3563836  28.3660145 119.1657114  56.2925437  28.5507397
 122.3281538  56.5795002  29.1509468 122.9226029  56.3390738  28.4402777
 122.4008122  55.8602133  29.7783005 104.5478694  70.4228613  29.4652633
 104.4133162  69.6629014  28.8990631 104.1310756  71.1469513  28.9981422
 115.6837657  65.6065537  18.4729208 116.3873507  65.8115539  19.0886864
 114.9600306  66.1742299  18.7378292 116.5135467  61.3575398  24.5931479
 116.4570668  61.8143950  23.7539111 117.0663810  60.5966083  24.4154321
 120.3240273  57.1465130  25.4181598 120.0677207  56.7461766  26.2489806
 119.6993141  57.8608924  25.2931737 124.6352611  59.8861203  27.9252889
 124.0752169  59.9554393  28.6984452 124.0296114  59.7102188  27.2052386
 107.7047820  71.3197930  29.6771076 107.5880204  72.2643363  29.5749766
 106.8840266  71.0171492  30.0656875 117.5924354  66.0448066  20.5227668
 118.4269958  65.6129265  20.3405143 117.4308697  65.8730080  21.4504563
 117.2470246  62.5480179  21.8884008 117.1919050  62.3824451  20.9472452
 116.6216302  63.2556212  22.0446197 102.0362761  57.7848244  35.7145430
 102.6821625  57.2747198  36.2032655 101.8279913  58.5216925  36.2888855
 114.5616154  64.8529091  41.2137571 115.4307313  65.0269744  40.8524205
 114.0822905  65.6723508  41.0913300 110.5566372  52.0488288  21.4669326
 110.5445042  52.9930128  21.6237597 111.4489794  51.8658434  21.1728787
 108.7302334  71.9726192  32.8927004 109.6329581  72.0049803  33.2093499
 108.5039704  71.0426643  32.9073340 110.4855936  70.7257179  29.5537083
 109.5351567  70.7259040  29.4401455 110.7888422  69.9789913  29.0373117
 114.3718491  48.6431065  25.7215263 113.6050887  48.0889552  25.8671945
 114.7829196  48.7152934  26.5829415 106.3760252  54.9315861  39.8120444
 107.2391714  54.5752666  40.0223769 105.8025663  54.5929756  40.4995848
 126.2208629  76.5617717  30.6182845 126.8587039  76.4424465  29.9146185
 126.1029472  77.5098561  30.6770797 123.0298336  76.5145145  30.5544370
 122.6916847  76.3986210  29.6664905 123.8988104  76.1136310  30.5345376
 118.8885151  78.3680622  26.5441261 118.3250016  78.2770559  25.7757549
 118.7737546  77.5480526  27.0243753 123.5118119  77.6679997  36.5130575
 123.5006759  77.2732795  35.6411079 123.6738758  76.9346070  37.1064347
 116.4349583  79.8631813  29.3825481 117.2270875  79.5222638  28.9671781
 116.6746233  79.9726788  30.3027635 124.4684710  82.0351589  21.8555726
 123.8172690  82.6205670  21.4689740 125.2629073  82.5657784  21.9150763
 118.3940337  79.1240727  22.2542860 119.1671213  78.5769714  22.1155736
 118.7465736  79.9884976  22.4657322 120.2325380  80.4517109  35.4609759
 119.9415246  81.3562740  35.3456426 120.8682364  80.4933637  36.1753829
 121.1581587  77.8293957  32.0511119 121.7545159  77.6049980  31.3368082
 121.2156558  77.0878703  32.6536567 120.7306615  75.2833393  19.8861310
 120.9832136  74.7614914  19.1244773 119.7931174  75.1199538  19.9887994
 125.7749898  74.2869171  27.6936053 126.5612987  73.8688594  27.3426470
 126.0388602  75.1915263  27.8617702 125.9459975  79.7242021  22.3924710
 125.3105808  79.7976648  23.1045615 125.6157382  80.3135620  21.7143789
 131.1758325  74.2244404  28.5969032 131.9083497  73.6543621  28.8306861
 130.4197681  73.8366005  29.0375537 120.4502904  77.1861499  22.0885685
 120.3339162  76.5106402  22.7566769 120.5605164  76.6993873  21.2717838
 122.7934445  76.6471646  25.7932374 122.4292652  76.1202267  26.5045296
 123.6501561  76.2570115  25.6198860 128.6983745  67.9365978  33.0563640
 128.3667070  68.8061389  32.8324855 128.1029359  67.6202262  33.7357671
 122.4339932  71.6761546  20.7893723 122.6014334  72.5441782  21.1564194
 122.2437101  71.8388827  19.8655012 125.1915265  80.1378524  32.4559553
 124.8915988  81.0403563  32.3475360 124.8466324  79.8710708  33.3080706
 118.6427746  76.5892321  28.4896258 117.7178243  76.4568535  28.6973949
 118.8912159  77.3686541  28.9866200 128.5912409  72.6561065  30.1356990
 127.6829286  72.5876473  29.8415751 128.5400004  73.1333010  30.9638816
 122.4129153  74.1319203  21.7740390 122.2928778  74.5776254  22.6125870
 121.7181741  74.4804521  21.2153928 116.0036557  76.2325595  29.3240047
 116.1328938  76.4860074  30.2379458 115.3234009  76.8253303  29.0044702
 120.1736045  86.9022845  25.4230521 120.0960074  87.8530670  25.5019001
 119.5697688  86.5568717  26.0805447 122.6653274  74.0750710  38.0791888
 121.8886608  74.6344630  38.0694752 123.3043837  74.5607493  38.6006758
 130.4574055  70.8577503  31.9134864 129.8148435  71.1510036  31.2674659
 129.9528984  70.7430423  32.7188061 128.1114219  74.6040676  22.6020724
 129.0232075  74.8368063  22.4268421 127.6023866  75.1877720  22.0395802
 120.9199647  76.8836164  37.6409855 121.6614331  77.4221208  37.3644678
 120.2136632  77.5102452  37.7981406 126.3954986  79.0265304  36.2382016
 126.8038342  78.5847715  35.4936649 125.6732248  78.4517932  36.4916209
 122.7486056  73.9637911  33.6115573 123.5947252  74.3877324  33.7550222
 122.6884694  73.3071535  34.3054136 126.7183801  79.5866495  29.9934305
 126.0892663  79.7512209  29.2910373 126.3309463  80.0008104  30.7645269
 130.5973033  80.5220932  27.3478669 129.9124071  80.9019834  26.7975702
 130.6816882  81.1316259  28.0810617 125.8985502  71.6242279  35.2696747
 125.6546434  72.3784340  34.7331022 126.1745432  72.0027627  36.1043994
 127.8523964  78.1680892  33.9474012 128.0640860  78.8112651  33.2708393
 127.8053713  77.3343208  33.4795942 125.4550193  70.7798712  30.8510584
 124.5934672  71.0779966  31.1427322 125.4812628  70.9969111  29.9191617
 122.2711763  79.3240903  27.2584390 122.7350108  79.6028606  26.4689013
 122.0068561  78.4224347  27.0757481 119.1635844  78.8712384  30.1964153
 119.7337201  79.2999653  29.5581638 119.7543956  78.5894969  30.8948339
 121.2080649  75.4464055  24.0673955 121.9104692  75.8985099  24.5347882
 120.8761277  74.8047874  24.6953848 119.6561010  74.0375812  38.4425165
 119.0259671  74.7192093  38.6760562 119.5497098  73.9258893  37.4978303
 114.9505983  73.7047608  29.3691089 114.1605037  73.9605136  28.8931199
 115.4417230  74.5195946  29.4743129 128.9669792  81.0452847  32.1196370
 129.7887236  80.6433034  31.8379051 128.9632195  80.9421081  33.0712486
 116.9020728  74.0692187  26.3274566 116.1051892  74.1810881  26.8458061
 116.6746320  74.4078839  25.4615456 122.7326396  80.5936890  34.2757080
 122.7970828  81.0557297  35.1115252 122.0237320  79.9634255  34.4039390
 113.2343686  73.9578098  31.8006080 113.4851724  74.8425108  32.0663656
 113.7703234  73.7782700  31.0281172 137.0575785  77.3891595  28.4681341
 136.3039494  76.8198993  28.3125346 137.1923327  77.3554260  29.4151976
 122.4474414  82.2604998  24.1436061 122.3120088  83.1056533  24.5720908
 122.9884226  82.4624275  23.3801994 118.9341753  68.3396578  40.8050416
 118.5408699  67.7862776  41.4798060 119.7507893  68.6507156  41.1956933
 115.9003811  79.7780436  24.7163986 116.4128331  80.5723686  24.8669550
 116.5526524  79.0806726  24.6497587 117.7098696  82.8946192  26.7986739
 117.8865324  83.8164157  26.6107723 118.5055529  82.5804611  27.2281119
 121.8509714  69.7554457  38.3970672 122.5919428  70.3561610  38.3175135
 122.0827637  69.0132094  37.8388715 116.9951052  74.9410824  36.6748902
 116.8804567  74.0396081  36.9756001 116.1395570  75.1874521  36.3233719
 124.0742890  82.8828564  38.2736403 123.6306744  82.0964943  37.9557307
 124.7360103  83.0707715  37.6080293 118.8330011  84.4124366  32.7997081
 119.3837436  84.2841429  32.0274075 117.9941487  84.7119255  32.4491974
 126.1724128  83.1631364  36.3017804 126.1542603  83.9840245  35.8098073
 127.0944048  83.0385439  36.5267945 122.6297182  80.6775494  37.1441312
 123.1625519  79.9163782  36.9140620 122.1011263  80.3849145  37.8865467
 125.7966877  65.7835560  32.6734954 125.4531146  66.6737201  32.5974065
 126.1645840  65.5937217  31.8104539 113.8652728  78.1069090  25.4923556
 114.7027950  78.5166098  25.2757264 114.0430995  77.1668532  25.4623750
 125.7617160  75.7744171  21.1807389 125.2463783  76.5448775  21.4195777
 125.4894468  75.1009307  21.8040451 123.3464271  70.6193871  26.2392627
 122.4905867  70.2300722  26.0598266 123.7591223  70.6985832  25.3792413
 124.8763417  68.1540215  30.6384187 124.3728213  68.1170350  29.8251993
 125.1694024  69.0632957  30.6980844 121.1206303  68.2378944  29.6450369
 121.9859300  68.0421753  29.2856258 121.1883812  68.0089296  30.5719726
 130.7351434  78.5276525  23.1160563 129.9580877  78.1887685  22.6715725
 131.4142915  78.5329149  22.4415528 125.5503463  73.6471263  23.0067170
 125.2453599  73.9617412  23.8577313 126.5033905  73.7252683  23.0494503
 123.9949895  79.8061486  24.6560124 123.4671256  79.0714246  24.3433362
 123.4937398  80.5836162  24.4100093 128.9742741  78.0010507  29.7727171
 128.3166415  78.6909768  29.8607299 129.7783140  78.3906939  30.1161157
 118.7268622  70.4681152  27.0166736 119.3012374  70.2456334  26.2839929
 119.3139605  70.5369847  27.7695337 127.7848200  76.3554879  27.8231112
 128.2980081  76.9884871  28.3252822 128.4349424  75.7556075  27.4574472
 119.0538210  72.4985613  21.0362621 118.2175522  72.8360300  21.3571896
 118.9142979  72.3634593  20.0989758 121.0291290  67.3422401  25.7441805
 120.3755702  67.0271418  25.1198420 120.9871764  66.7198142  26.4701628
 122.1402495  77.6241696  17.6595097 121.2329557  77.3930950  17.8586246
 122.6373527  76.8279316  17.8469079 125.0470574  86.3339204  20.5791783
 124.3732273  86.6370900  21.1876741 125.4336396  87.1368284  20.2297241
 124.2629031  73.8304335  30.0689453 123.3451592  74.0519282  29.9111141
 124.6789174  73.9050645  29.2101160 125.0464078  75.2295751  25.1992133
 125.7935897  75.7417148  24.8899255 125.3155668  74.9079803  26.0596527
 123.3190728  77.7254291  22.1819087 122.4101948  77.4413324  22.2791557
 123.3485812  78.1453370  21.3222394 128.5509996  81.3360881  25.9510255
 128.0972323  80.4951791  26.0075445 127.9203963  81.9722279  26.2885035
 127.4942915  72.2652867  27.1810922 126.7565672  71.7530253  27.5121165
 127.7469689  71.8253248  26.3694199 126.9942935  83.1737377  26.8860073
 127.2865909  83.7342435  26.1672439 127.5041556  83.4665938  27.6413232
 127.5954543  65.0429119  27.7752692 127.9013420  64.1826482  27.4878607
 128.3207148  65.6346739  27.5751686 113.8878899  75.4459805  26.1634290
 113.6903299  74.8529166  25.4385356 113.3325563  75.1412016  26.8810228
 121.8675622  75.3382912  28.2828883 121.9224232  74.3856748  28.2071359
 121.0566825  75.4942351  28.7670181 123.0166816  79.2663035  19.5207166
 122.5786246  78.5498894  19.0612803 123.7577257  79.4939150  18.9592257
 119.8067982  73.9559972  26.0419262 118.9935848  74.2554142  26.4484454
 120.3026977  73.5615660  26.7593744 121.9576560  83.9517729  27.9753526
 121.9152739  84.1778575  27.0462058 122.8739259  83.7181103  28.1239327
 125.4042194  74.4201796  34.8734156 125.7591582  74.6473269  35.7328621
 126.0514325  74.7520173  34.2511411 131.1339931  77.5420232  25.5783485
 130.9957830  77.7321828  24.6504674 130.7776150  78.3039615  26.0351536
 119.2982057  71.5278327  31.6580497 119.9381436  71.3867086  30.9603460
 118.4659588  71.2412841  31.2819099 131.1609311  79.6096759  30.5894756
 131.5945817  79.5172048  31.4377810 131.8740891  79.5854259  29.9514772
 120.0742361  80.8280758  27.7715489 120.8682960  80.3331078  27.5698064
 119.3634053  80.2998621  27.4083195 124.8937206  83.2098853  32.1227857
 124.9474228  83.7789789  32.8905573 124.0251987  83.3800738  31.7581894
 116.3825125  74.9723839  23.8475242 115.4522713  74.9108295  24.0645204
 116.4782597  74.4499792  23.0511883 116.3010674  71.4978652  26.4353483
 116.5617491  72.4123985  26.3262644 117.1227846  71.0303095  26.5850096
 117.7735599  72.9116409  33.6052308 118.4458652  72.7033771  32.9564957
 116.9465385  72.7138495  33.1657540 132.0224860  79.6520460  33.1227641
 132.2160750  80.5566270  33.3686916 131.9225478  79.1927879  33.9566226
 123.6761171  69.5378350  35.6217969 123.0289086  70.2368300  35.5282445
 124.4462186  69.9714494  35.9894217 127.0839969  79.8027202  38.6968522
 126.9325475  79.5737754  37.7798606 127.0744648  80.7597804  38.7099867
 123.8525305  77.3759115  33.6814788 124.7817365  77.5270275  33.5083756
 123.4316335  77.4643136  32.8263435 122.6513637  81.4009780  31.4513326
 122.5124723  81.0328564  32.3239264 121.8628233  81.9157419  31.2797284
 123.2461789  86.5018876  22.7938863 123.4213545  86.0306919  23.6084485
 122.5594577  87.1284642  23.0220123 124.2018852  80.7791382  28.8402164
 123.8668685  80.7392152  29.7359814 123.7022798  80.1136098  28.3672574
 118.1763096  76.1859012  34.3654745 118.0382894  75.4539251  34.9666284
 119.0868020  76.0967912  34.0838933 127.1378044  78.1247417  19.1139224
 126.5207214  77.3994245  19.0172276 126.6694532  78.8856777  18.7706298
 120.8045397  75.8978972  33.8538425 121.5145015  75.2572164  33.8125043
 120.7614705  76.1491866  34.7764605 128.7932176  82.8346325  36.7745004
 128.7344722  82.1505545  36.1075587 129.1951694  83.5765315  36.3225630
 119.5174331  72.8844189  35.6734064 118.9811688  72.4334928  36.3255661
 118.9291039  73.0190098  34.9304529 117.8122874  89.6508239  29.5678723
 118.0519473  90.2826763  30.2457741 116.9692071  89.2996279  29.8544082
 118.9276590  72.3432841  18.2360528 118.0506056  72.2221642  17.8722775
 119.4034343  71.5518919  17.9839416 128.7949583  80.7985909  35.0058984
 127.9076362  80.4611831  35.1285382 129.3648134  80.0668940  35.2427749
 110.4478730  77.1310001  28.3302035 111.1349770  76.8171731  27.7423050
 110.2926859  78.0351365  28.0569286 115.2513452  72.0200197  32.7587059
 115.1671641  71.4125867  32.0237469 114.4296158  72.5109215  32.7596555
 122.3250736  85.4587361  31.9720227 122.2520908  86.2642333  32.4839531
 121.8828129  85.6579327  31.1468248 122.1140516  84.6959131  25.4823048
 121.3308038  85.2380811  25.5761273 122.8133261  85.2133111  25.8817290
 125.4237166  70.5053761  28.1257254 125.9205865  69.7523723  27.8058324
 124.6524147  70.5418077  27.5600463 133.2766923  76.2094126  29.7675545
 133.2656800  77.0918842  29.3969478 132.4084303  75.8565677  29.5730082
 124.7849420  85.3574195  34.1278385 125.4977392  85.9921660  34.0554287
 124.2939448  85.4538061  33.3118387 126.5066947  79.2625448  25.6995677
 125.5723225  79.3826910  25.5300381 126.6843615  78.3597915  25.4355687
 122.0072135  72.6471144  27.8528938 121.6369922  72.0942184  28.5409844
 122.5031227  72.0429277  27.3003938 129.8939498  75.1042767  26.2345711
 130.3599950  75.9370759  26.1606014 130.3446998  74.6387749  26.9390970
 119.8361333  83.1068639  34.9483956 120.5370793  83.7405122  35.1013350
 119.3656448  83.4483370  34.1879596 127.9615729  81.4486588  23.2331863
 128.2375573  81.3343183  24.1425737 127.0920228  81.0504073  23.1944036
 127.8656161  67.4723354  30.2736613 126.9519241  67.7027581  30.4418820
 128.2949262  67.5561798  31.1250645 127.6362619  75.6613246  32.7736507
 126.9834069  75.9089154  32.1188959 128.0142999  74.8477384  32.4398984
 124.5969793  85.6972939  26.8764677 124.7792188  84.8794595  27.3392429
 125.4202779  85.9140632  26.4389567 124.9311959  84.6241124  24.1379725
 125.4599725  84.1133579  23.5249888 125.1940178  84.3083655  25.0025258
 123.6850192  76.4033057  39.2602544 123.0090829  76.3027187  39.9304919
 124.5077826  76.2472271  39.7238541 115.4329051  82.6404994  31.8815059
 116.0182488  81.8948682  32.0142963 115.2353890  82.9508950  32.7651723
 118.2867707  85.6756241  26.8977501 117.6178082  86.1602369  26.4141541
 118.1480576  85.9225462  27.8120880 110.0246706  75.2110594  30.6019502
 110.0630806  74.6774185  31.3956620 109.5186999  74.6845799  29.9830479
 122.4272975  87.7099985  33.4960160 122.9791283  87.8731606  34.2609245
 122.7679169  88.3004422  32.8240185 117.4037468  70.0575134  34.0982044
 117.4678795  70.9189965  33.6859442 117.3404589  69.4449136  33.3654403
 116.8789741  72.1298267  37.7455079 117.5061780  71.7475344  38.3592603
 116.0217660  71.9112469  38.1110771 127.2783849  82.5361242  39.3508814
 127.8223753  83.1491200  38.8563769 126.6970694  83.0940821  39.8675827
 113.6555284  73.9374696  23.6773433 113.9508725  73.0285375  23.6240487
 112.7543319  73.9162436  23.3554436 125.5641362  85.6581960  30.4823842
 125.4392502  84.8571700  29.9734787 126.2220453  86.1528154  29.9937812
 117.1849531  72.0130693  29.6600982 116.4636116  72.6266660  29.5208455
 117.9742786  72.5488458  29.5817628 127.6276271  83.4590980  32.1103392
 126.6806606  83.3396331  32.0381719 127.9759044  82.5713478  32.1929653
 119.9875844  69.3485119  35.9341634 120.5110246  69.5947416  36.6967943
 119.7688177  70.1805154  35.5144771 115.3843125  71.6188794  23.8012759
 115.0555831  70.7386173  23.6187865 115.7382496  71.5636462  24.6889148
 124.6322704  83.2543696  28.3107744 124.4847666  82.3260404  28.4915314
 125.4576198  83.2763787  27.8264819 118.4984948  71.9061764  24.1688236
 118.8381021  72.4347685  23.4466845 118.9457069  72.2442170  24.9446803
 128.2356826  84.0772255  29.3972617 129.1603373  83.8715117  29.2597068
 128.0672129  83.8288656  30.3061958 121.1928389  70.2898814  33.6191304
 120.8525210  69.4906627  34.0211984 120.4867395  70.5900525  33.0468138
 121.8444861  67.3748127  32.0718627 122.6670930  66.9008605  31.9497518
 122.0882925  68.1538610  32.5717314 120.4853096  70.4036385  22.3681529
 121.2061458  70.7817638  21.8645246 119.8618400  71.1225262  22.4716507
 124.6284218  71.1081534  23.3039861 124.8447833  71.9906172  23.0028690
 124.1478286  70.7167748  22.5745503 119.3683440  74.0667247  29.8810606
 119.2228020  74.3807550  30.7734888 118.8908643  74.6852148  29.3281505
 121.2279823  71.0569795  29.9291496 121.2141391  70.1610889  29.5923794
 121.9452251  71.0640459  30.5629782 123.0805953  71.4907136  31.9744623
 122.8223731  72.4124206  31.9728953 122.5490994  71.0937570  32.6645087
 128.0252142  84.5957923  24.7534708 128.1989020  84.0304345  24.0008561
 128.5181033  85.3958818  24.5714198 113.8429102  76.6072592  32.8198267
 113.2982570  77.3832400  32.9518542 114.7208452  76.9543396  32.6617389
 120.6316719  69.9384176  25.1979066 120.7532630  69.0100822  25.3969953
 120.3418761  69.9522862  24.2857381 123.5007909  67.6239086  28.3345786
 123.5229606  67.6878419  27.3797765 123.9175968  66.7843595  28.5286292
 133.8791533  77.3594346  26.3725008 134.3222679  76.6101671  25.9744131
 133.0018044  77.3504482  25.9898740 129.0127315  83.9124687  21.8531607
 129.7078219  84.5331380  22.0718921 129.3550465  83.0620038  22.1283985
 114.6295124  75.7342488  35.7128424 113.8876860  75.8825123  36.2993054
 114.3087868  75.9950754  34.8495173 130.9118738  81.3624393  23.3818937
 131.4370062  81.7011665  22.6568257 130.8241090  80.4271408  23.1982072
 122.5738786  85.2758466  35.5108814 122.8825913  85.0307613  36.3831514
 123.3714268  85.4805105  35.0227684 122.5959398  87.4296376  27.7414191
 122.1564389  86.9372755  28.4347047 123.3467515  86.8869344  27.5006266
 115.0751737  83.6207917  27.7438819 115.9009757  83.3211689  27.3637462
 114.7245789  82.8515539  28.1928607 120.0433271  82.9734385  29.8136492
 119.4213280  82.3105090  29.5138720 120.7138138  82.9995517  29.1310140
 113.2760343  81.5394243  28.7027752 112.4392251  81.1116418  28.5211754
 113.2483988  81.7326687  29.6398543 120.1157798  71.4516173  39.4068998
 120.1645954  72.3278296  39.0246768 120.6580312  70.9093566  38.8340642
 130.6012644  81.9957296  38.6870135 129.8108188  81.9781435  38.1474635
 130.3645998  82.5345590  39.4419172 130.7210519  78.8449763  36.0002864
 130.7708524  78.6799770  36.9418387 130.6124442  77.9777022  35.6100745
 119.6046778  81.5238308  23.2894953 119.7534898  82.2073773  22.6361626
 120.4113221  81.5043398  23.8044409 128.0114281  74.8280691  37.3162171
 128.9124144  74.6887156  37.0246168 128.0862256  74.9935145  38.2560348
 122.3457087  72.2047545  36.1615357 121.4760396  72.4981111  35.8897946
 122.5816567  72.7887990  36.8822621 132.2228716  81.2646704  36.2444885
 131.9313524  81.6276685  37.0808346 131.6100847  80.5513712  36.0658218
 133.4224398  78.8299584  28.7647456 134.2571289  79.2689388  28.9285016
 133.5583527  78.3538237  27.9455701 130.4715904  76.3879319  34.7124943
 130.9470026  76.5806965  33.9043795 129.5481469  76.4438505  34.4668327
 117.3599411  77.5503486  24.2956022 117.1145452  76.6465816  24.4936232
 117.5295325  77.5520636  23.3535500 125.0496120  68.4227162  33.6780777
 125.5678064  69.1588189  33.3527266 124.6951253  68.7291156  34.5127536
 116.6295058  73.2831844  21.7942183 115.9364303  73.3576199  21.1382219
 116.3846810  72.5192187  22.3163700 125.3008715  64.8427445  29.1981674
 125.5810468  64.1750634  29.8242100 126.0859321  65.0356540  28.6856338
 123.1042183  84.0186439  20.7606700 122.5316150  84.6376626  20.3077172
 123.6774977  84.5685800  21.2946622 129.1717573  73.2645079  32.9453249
 130.1234996  73.3643177  32.9665473 129.0021023  72.4723347  33.4551333
 127.1931952  70.3500662  33.1312650 126.5981884  70.6305675  32.4359139
 126.9081649  70.8394563  33.9029391 126.3239443  84.3023589  21.8915283
 127.2570116  84.2369151  22.0948158 126.2362656  85.1379856  21.4329815
 128.9527460  83.6189459  18.8519230 128.8741091  83.2849323  19.7454988
 129.7737126  84.1111227  18.8510702 131.6505651  76.4851199  32.0595549
 131.6181971  75.5467199  32.2455233 132.2606274  76.5635235  31.3261374
 123.4888982  75.3547252  18.1022753 124.4348086  75.2253460  18.1711171
 123.1103227  74.6161913  18.5792181 131.8000139  73.2762242  32.1053832
 131.2839188  72.4920699  31.9183761 132.6840088  72.9480959  32.2700351
 129.4610866  67.0203258  28.0649645 129.2635687  66.7118346  28.9492977
 130.0710572  67.7464896  28.1947574 135.5497498  75.6875068  31.7976037
 134.8230661  75.5531033  31.1892528 135.1344785  75.9951897  32.6032755
 123.3727674  79.4064998  39.5623410 124.2930684  79.5843597  39.7563456
 123.3377257  78.4621043  39.4103109 121.6731899  73.2797228  18.0377638
 120.7663354  72.9830341  18.1140352 121.9507880  72.9827046  17.1711924
 112.5909839  74.6003591  28.4876684 112.2712623  73.7468900  28.1951058
 112.0443267  74.8152169  29.2434652 116.3689747  77.3166032  32.2046191
 116.5875756  78.2483140  32.2234225 116.7815520  76.9574007  32.9900995
 123.2893964  67.8234118  24.1921879 122.4794693  67.4781203  24.5677125
 123.9778381  67.5141661  24.7809491 125.2184513  66.9012164  25.8146176
 125.7715551  67.3207618  26.4736199 125.4554599  65.9747913  25.8569132
 121.2417612  72.8899238  41.5948940 121.1414339  73.8393595  41.5261031
 121.0239154  72.5617477  40.7225010 120.4430683  70.1384163  18.1789617
 121.3049847  70.4639061  18.4385435 120.6281027  69.3515659  17.6662683
 112.4598099  78.2206503  30.4569806 111.7661571  77.8060456  29.9439760
 113.2071090  78.2627039  29.8603225 128.5963320  69.0112690  25.3224840
 128.0161989  69.6697494  24.9402893 128.3299253  68.1890034  24.9112258
 127.0466886  68.4117747  27.5246161 127.5466665  68.5234282  26.7160479
 127.6902494  68.1078800  28.1646969 121.1048882  76.3196377  40.4114001
 120.6215964  77.1196737  40.6177891 121.1909821  76.3304322  39.4581445
 114.3734842  78.1524757  28.3335821 114.3505530  78.2512444  27.3817704
 114.6835478  78.9989907  28.6552987 117.0322220  80.2100912  32.4482435
 117.9865473  80.1784854  32.3812367 116.8334743  79.7491535  33.2632661
 117.6221602  78.7802028  35.0153233 118.4414491  79.2746106  35.0388070
 117.8958409  77.8633996  34.9870800 127.3788198  71.1712780  24.3781188
 126.4914053  71.4562431  24.1601383 127.7942187  71.0106543  23.5308465
 130.7302734  71.1959301  28.0935528 131.5063124  71.6855753  28.3660145
 130.0050868  71.6217355  28.5507397 133.1675293  71.9086920  29.1509468
 133.7619783  71.6682656  28.4402777 133.2401876  71.1894051  29.7783005
 115.3872448  85.7520531  29.4652633 115.2526916  84.9920932  28.8990631
 114.9704511  86.4761431  28.9981422 126.5231411  80.9357455  18.4729208
 127.2267261  81.1407457  19.0886864 125.7994060  81.5034217  18.7378292
 127.3529222  76.6867316  24.5931479 127.2964423  77.1435867  23.7539111
 127.9057564  75.9258001  24.4154321 131.1634027  72.4757048  25.4181598
 130.9070962  72.0753683  26.2489806 130.5386896  73.1900842  25.2931737
 135.4746365  75.2153121  27.9252889 134.9145923  75.2846310  28.6984452
 134.8689869  75.0394106  27.2052386 118.5441574  86.6489848  29.6771076
 118.4273958  87.5935281  29.5749766 117.7234020  86.3463410  30.0656875
 128.4318109  81.3739984  20.5227668 129.2663713  80.9421182  20.3405143
 128.2702452  81.2021998  21.4504563 128.0864001  77.8772097  21.8884008
 128.0312805  77.7116369  20.9472452 127.4610056  78.5848130  22.0446197
 112.8756516  73.1140162  35.7145430 113.5215379  72.6039116  36.2032655
 112.6673667  73.8508843  36.2888855 125.4009908  80.1821009  41.2137571
 126.2701068  80.3561661  40.8524205 124.9216660  81.0015426  41.0913300
 121.3960126  67.3780206  21.4669326 121.3838796  68.3222046  21.6237597
 122.2883548  67.1950352  21.1728787 119.5696088  87.3018110  32.8927004
 120.4723335  87.3341720  33.2093499 119.3433458  86.3718561  32.9073340
 121.3249690  86.0549097  29.5537083 120.3745321  86.0550958  29.4401455
 121.6282176  85.3081831  29.0373117 125.2112246  63.9722983  25.7215263
 124.4444642  63.4181469  25.8671945 125.6222951  64.0444852  26.5829415
 117.2154007  70.2607779  39.8120444 118.0785468  69.9044583  40.0223769
 116.6419418  69.9221673  40.4995848 133.8692090  91.8437063  30.5544370
 133.5310602  91.7278128  29.6664905 134.7381858  91.4428228  30.5345376
 129.7278906  93.6972539  26.5441261 129.1643771  93.6062476  25.7757549
 129.6131301  92.8772444  27.0243753 134.3511873  92.9971915  36.5130575
 134.3400514  92.6024713  35.6411079 134.5132513  92.2637987  37.1064347
 127.2743338  95.1923731  29.3825481 128.0664630  94.8514556  28.9671781
 127.5139988  95.3018706  30.3027635 131.0719134  95.7809027  35.4609759
 130.7809000  96.6854657  35.3456426 131.7076119  95.8225554  36.1753829
 131.9975341  93.1585875  32.0511119 132.5938913  92.9341898  31.3368082
 132.0550313  92.4170621  32.6536567 136.6143652  89.6161089  27.6936053
 137.4006742  89.1980512  27.3426470 136.8782357  90.5207181  27.8617702
 133.6328199  91.9763563  25.7932374 133.2686406  91.4494184  26.5045296
 134.4895315  91.5862033  25.6198860 136.0309019  95.4670442  32.4559553
 135.7309742  96.3695481  32.3475360 135.6860079  95.2002625  33.3080706
 129.4821501  91.9184239  28.4896258 128.5571997  91.7860453  28.6973949
 129.7305914  92.6978458  28.9866200 126.8430312  91.5617512  29.3240047
 126.9722693  91.8151991  30.2379458 126.1627763  92.1545220  29.0044702
 133.5047029  89.4042628  38.0791888 132.7280363  89.9636548  38.0694752
 134.1437592  89.8899411  38.6006758 131.7593401  92.2128081  37.6409855
 132.5008086  92.7513125  37.3644678 131.0530387  92.8394370  37.7981406
 137.2348741  94.3557222  36.2382016 137.6432097  93.9139632  35.4936649
 136.5126002  93.7809849  36.4916209 133.5879811  89.2929828  33.6115573
 134.4341006  89.7169242  33.7550222 133.5278449  88.6363453  34.3054136
 137.5577555  94.9158412  29.9934305 136.9286418  95.0804126  29.2910373
 137.1703218  95.3300022  30.7645269 136.7379256  86.9534197  35.2696747
 136.4940188  87.7076257  34.7331022 137.0139187  87.3319544  36.1043994
 136.2943948  86.1090630  30.8510584 135.4328427  86.4071883  31.1427322
 136.3206383  86.3261029  29.9191617 133.1105517  94.6532820  27.2584390
 133.5743863  94.9320523  26.4689013 132.8462315  93.7516265  27.0757481
 130.0029598  94.2004302  30.1964153 130.5730955  94.6291570  29.5581638
 130.5937710  93.9186887  30.8948339 132.0474403  90.7755973  24.0673955
 132.7498447  91.2277016  24.5347882 131.7155032  90.1339792  24.6953848
 130.4954765  89.3667729  38.4425165 129.8653425  90.0484010  38.6760562
 130.3890853  89.2550811  37.4978303 125.7899737  89.0339525  29.3691089
 124.9998791  89.2897054  28.8931199 126.2810985  89.8487863  29.4743129
 127.7414483  89.3984105  26.3274566 126.9445646  89.5102799  26.8458061
 127.5140075  89.7370757  25.4615456 133.5720150  95.9228808  34.2757080
 133.6364583  96.3849215  35.1115252 132.8631074  95.2926173  34.4039390
 124.0737440  89.2870016  31.8006080 124.3245479  90.1717026  32.0663656
 124.6096989  89.1074617  31.0281172 129.7735508  83.6688495  40.8050416
 129.3802453  83.1154694  41.4798060 130.5901648  83.9799074  41.1956933
 126.7397565  95.1072353  24.7163986 127.2522086  95.9015604  24.8669550
 127.3920278  94.4098644  24.6497587 132.6903469  85.0846374  38.3970672
 133.4313182  85.6853527  38.3175135 132.9221391  84.3424012  37.8388715
 127.8344807  90.2702742  36.6748902 127.7198322  89.3687999  36.9756001
 126.9789324  90.5166438  36.3233719 134.9136644  98.2120482  38.2736403
 134.4700499  97.4256860  37.9557307 135.5753858  98.3999632  37.6080293
 129.6723766  99.7416284  32.7997081 130.2231191  99.6133347  32.0274075
 128.8335241 100.0411173  32.4491974 133.4690937  96.0067411  37.1441312
 134.0019273  95.2455700  36.9140620 132.9405018  95.7141063  37.8865467
 136.6360632  81.1127477  32.6734954 136.2924901  82.0029119  32.5974065
 137.0039594  80.9229135  31.8104539 124.7046482  93.4361008  25.4923556
 125.5421704  93.8458016  25.2757264 124.8824750  92.4960450  25.4623750
 134.1858025  85.9485789  26.2392627 133.3299622  85.5592640  26.0598266
 134.5984977  86.0277750  25.3792413 135.7157172  83.4832132  30.6384187
 135.2121968  83.4462268  29.8251993 136.0087779  84.3924875  30.6980844
 131.9600058  83.5670862  29.6450369 132.8253055  83.3713671  29.2856258
 132.0277567  83.3381214  30.5719726 129.5662377  85.7973070  27.0166736
 130.1406129  85.5748252  26.2839929 130.1533359  85.8661765  27.7695337
 131.8685045  82.6714319  25.7441805 131.2149457  82.3563336  25.1198420
 131.8265519  82.0490059  26.4701628 135.1022785  89.1596253  30.0689453
 134.1845346  89.3811200  29.9111141 135.5182929  89.2342563  29.2101160
 124.7272653  90.7751723  26.1634290 124.5297053  90.1821084  25.4385356
 124.1719317  90.4703933  26.8810228 132.7069377  90.6674830  28.2828883
 132.7617987  89.7148666  28.2071359 131.8960579  90.8234269  28.7670181
 130.6461737  89.2851889  26.0419262 129.8329602  89.5846060  26.4484454
 131.1420731  88.8907578  26.7593744 136.2435949  89.7493714  34.8734156
 136.5985336  89.9765187  35.7328621 136.8908080  90.0812091  34.2511411
 130.1375812  86.8570245  31.6580497 130.7775191  86.7159004  30.9603460
 129.3053342  86.5704758  31.2819099 130.9136116  96.1572675  27.7715489
 131.7076714  95.6622995  27.5698064 130.2027808  95.6290538  27.4083195
 135.7330960  98.5390771  32.1227857 135.7867982  99.1081707  32.8905573
 134.8645741  98.7092656  31.7581894 127.2218879  90.3015757  23.8475242
 126.2916467  90.2400212  24.0645204 127.3176351  89.7791710  23.0511883
 127.1404428  86.8270570  26.4353483 127.4011245  87.7415903  26.3262644
 127.9621600  86.3595012  26.5850096 128.6129353  88.2408327  33.6052308
 129.2852407  88.0325689  32.9564957 127.7859140  88.0430413  33.1657540
 134.5154925  84.8670268  35.6217969 133.8682840  85.5660218  35.5282445
 135.2855941  85.3006412  35.9894217 134.6919060  92.7051033  33.6814788
 135.6211120  92.8562192  33.5083756 134.2710090  92.7935054  32.8263435
 133.4907392  96.7301697  31.4513326 133.3518477  96.3620482  32.3239264
 132.7021988  97.2449337  31.2797284 135.0412607  96.1083300  28.8402164
 134.7062439  96.0684070  29.7359814 134.5416552  95.4428016  28.3672574
 129.0156851  91.5150930  34.3654745 128.8776649  90.7831169  34.9666284
 129.9261774  91.4259830  34.0838933 131.6439151  91.2270889  33.8538425
 132.3538770  90.5864081  33.8125043 131.6008459  91.4783784  34.7764605
 130.3568085  88.2136107  35.6734064 129.8205442  87.7626846  36.3255661
 129.7684794  88.3482016  34.9304529 121.2872484  92.4601918  28.3302035
 121.9743524  92.1463648  27.7423050 121.1320613  93.3643283  28.0569286
 126.0907207  87.3492115  32.7587059 126.0065395  86.7417784  32.0237469
 125.2689913  87.8401133  32.7596555 133.1644491 100.7879279  31.9720227
 133.0914662 101.5934250  32.4839531 132.7221884 100.9871245  31.1468248
 136.2630920  85.8345678  28.1257254 136.7599620  85.0815641  27.8058324
 135.4917902  85.8709995  27.5600463 135.6243174 100.6866113  34.1278385
 136.3371146 101.3213578  34.0554287 135.1333203 100.7829979  33.3118387
 132.8465889  87.9763061  27.8528938 132.4763677  87.4234102  28.5409844
 133.3424982  87.3721195  27.3003938 130.6755088  98.4360556  34.9483956
 131.3764547  99.0697039  35.1013350 130.2050203  98.7775288  34.1879596
 134.5243947  91.7324975  39.2602544 133.8484584  91.6319104  39.9304919
 135.3471581  91.5764189  39.7238541 126.2722806  97.9696911  31.8815059
 126.8576243  97.2240599  32.0142963 126.0747644  98.2800868  32.7651723
 120.8640461  90.5402512  30.6019502 120.9024560  90.0066102  31.3956620
 120.3580753  90.0137717  29.9830479 133.2666730 103.0391902  33.4960160
 133.8185038 103.2023524  34.2609245 133.6072923 103.6296340  32.8240185
 128.2431223  85.3867052  34.0982044 128.3072549  86.2481883  33.6859442
 128.1798343  84.7741054  33.3654403 127.7183495  87.4590185  37.7455079
 128.3455534  87.0767262  38.3592603 126.8611414  87.2404387  38.1110771
 124.4949038  89.2666614  23.6773433 124.7902479  88.3577292  23.6240487
 123.5937074  89.2454353  23.3554436 128.0243285  87.3422610  29.6600982
 127.3029871  87.9558578  29.5208455 128.8136541  87.8780375  29.5817628
 130.8269599  84.6777037  35.9341634 131.3504000  84.9239333  36.6967943
 130.6081932  85.5097072  35.5144771 126.2236880  86.9480711  23.8012759
 125.8949586  86.0678090  23.6187865 126.5776250  86.8928380  24.6889148
 129.3378703  87.2353681  24.1688236 129.6774775  87.7639603  23.4466845
 129.7850823  87.5734087  24.9446803 132.0322144  85.6190732  33.6191304
 131.6918964  84.8198545  34.0211984 131.3261150  85.9192443  33.0468138
 132.6838615  82.7040044  32.0718627 133.5064685  82.2300523  31.9497518
 132.9276679  83.4830528  32.5717314 131.3246850  85.7328303  22.3681529
 132.0455212  86.1109556  21.8645246 130.7012154  86.4517180  22.4716507
 135.4677973  86.4373452  23.3039861 135.6841587  87.3198090  23.0028690
 134.9872040  86.0459665  22.5745503 130.2077194  89.3959165  29.8810606
 130.0621775  89.7099468  30.7734888 129.7302398  90.0144065  29.3281505
 132.0673577  86.3861713  29.9291496 132.0535146  85.4902806  29.5923794
 132.7846005  86.3932377  30.5629782 133.9199708  86.8199053  31.9744623
 133.6617486  87.7416124  31.9728953 133.3884748  86.4229488  32.6645087
 124.6822856  91.9364509  32.8198267 124.1376324  92.7124317  32.9518542
 125.5602206  92.2835314  32.6617389 131.4710473  85.2676093  25.1979066
 131.5926384  84.3392739  25.3969953 131.1812515  85.2814779  24.2857381
 134.3401663  82.9531004  28.3345786 134.3623360  83.0170337  27.3797765
 134.7569722  82.1135512  28.5286292 125.4688878  91.0634406  35.7128424
 124.7270614  91.2117041  36.2993054 125.1481623  91.3242671  34.8495173
 133.4132541 100.6050384  35.5108814 133.7219667 100.3599531  36.3831514
 134.2108023 100.8097022  35.0227684 125.9145492  98.9499834  27.7438819
 126.7403512  98.6503606  27.3637462 125.5639544  98.1807457  28.1928607
 130.8827025  98.3026303  29.8136492 130.2607034  97.6397008  29.5138720
 131.5531892  98.3287435  29.1310140 124.1154097  96.8686161  28.7027752
 123.2786005  96.4408335  28.5211754 124.0877742  97.0618604  29.6398543
 130.9551553  86.7808091  39.4068998 131.0039708  87.6570213  39.0246768
 131.4974067  86.2385484  38.8340642 133.1850841  87.5339463  36.1615357
 132.3154150  87.8273029  35.8897946 133.4210321  88.1179908  36.8822621
 128.1993165  92.8795404  24.2956022 127.9539207  91.9757734  24.4936232
 128.3689080  92.8812554  23.3535500 135.8889875  83.7519080  33.6780777
 136.4071819  84.4880107  33.3527266 135.5345008  84.0583073  34.5127536
 127.4688813  88.6123761  21.7942183 126.7758057  88.6868116  21.1382219
 127.2240564  87.8484105  22.3163700 136.1402469  80.1719363  29.1981674
 136.4204223  79.5042552  29.8242100 136.9253076  80.3648458  28.6856338
 134.2121429  94.7356915  39.5623410 135.1324438  94.9135514  39.7563456
 134.1771012  93.7912961  39.4103109 123.4303594  89.9295509  28.4876684
 123.1106378  89.0760817  28.1951058 122.8837022  90.1444087  29.2434652
 127.2083501  92.6457950  32.2046191 127.4269511  93.5775058  32.2234225
 127.6209275  92.2865924  32.9900995 134.1287719  83.1526035  24.1921879
 133.3188447  82.8073120  24.5677125 134.8172136  82.8433579  24.7809491
 136.0578267  82.2304082  25.8146176 136.6109306  82.6499536  26.4736199
 136.2948354  81.3039830  25.8569132 132.0811366  88.2191156  41.5948940
 131.9808093  89.1685513  41.5261031 131.8632908  87.8909395  40.7225010
 123.2991854  93.5498420  30.4569806 122.6055325  93.1352373  29.9439760
 124.0464845  93.5918957  29.8603225 131.9442637  91.6488295  40.4114001
 131.4609718  92.4488655  40.6177891 132.0303576  91.6596239  39.4581445
 125.2128596  93.4816674  28.3335821 125.1899284  93.5804362  27.3817704
 125.5229233  94.3281825  28.6552987 127.8715974  95.5392829  32.4482435
 128.8259228  95.5076772  32.3812367 127.6728498  95.0783453  33.2632661
 128.4615356  94.1093945  35.0153233 129.2808245  94.6038024  35.0388070
 128.7352164  93.1925913  34.9870800 126.2266203 101.0812449  29.4652633
 126.0920671 100.3212850  28.8990631 125.8098265 101.8053349  28.9981422
 129.3835329 101.9781766  29.6771076 129.2667713 102.9227198  29.5749766
 128.5627775 101.6755327  30.0656875 123.7150270  88.4432079  35.7145430
 124.3609134  87.9331033  36.2032655 123.5067421  89.1800761  36.2888855
 136.2403663  95.5112927  41.2137571 137.1094822  95.6853579  40.8524205
 135.7610414  96.3307344  41.0913300 132.2353881  82.7072124  21.4669326
 132.2232551  83.6513964  21.6237597 133.1277303  82.5242269  21.1728787
 130.4089843 102.6310028  32.8927004 131.3117089 102.6633638  33.2093499
 130.1827213 101.7010479  32.9073340 136.0506000  79.3014900  25.7215263
 135.2838396  78.7473387  25.8671945 136.4616705  79.3736769  26.5829415
 128.0547761  85.5899696  39.8120444 128.9179223  85.2336501  40.0223769
 127.4813172  85.2513591  40.4995848 136.9300961 102.6784033  32.7587059
 136.8459150 102.0709702  32.0237469 136.1083667 103.1693051  32.7596555
 136.3082633 106.3926323  35.7128424 135.5664369 106.5408959  36.2993054
 135.9875377 106.6534589  34.8495173 134.5544025 103.7723997  35.7145430
 135.2002888 103.2622951  36.2032655 134.3461176 104.5092679  36.2888855
  81.4274403   1.0468647  20.8523692  82.1402375   1.6816112  20.7799594
  80.9364432   1.1432513  20.0363694  79.0697958   3.3994437  20.2205466
  79.6216266   3.5626058  20.9854552  79.4104152   3.9898874  19.5485491
  79.2163770   0.9652918  22.2354121  79.5250896   0.7202065  23.1076820
  80.0139252   1.1699557  21.7472991  93.7027367   7.5804087  17.3428152
  94.3405777   7.4610834  16.6391492  93.5848210   8.5284931  17.4016104
  90.5117073   7.5331515  17.2789677  90.1735585   7.4172580  16.3910211
  91.3806842   7.1322680  17.2590683  90.9936856   8.6866367  23.2375882
  90.9825497   8.2919165  22.3656386  91.1557496   7.9532439  23.8309654
  83.9168321  10.8818183  16.1070788  84.7089613  10.5409008  15.6917087
  84.1564971  10.9913158  17.0272941  91.9503448  13.0537959   8.5801032
  91.2991428  13.6392039   8.1935046  92.7447811  13.5844154   8.6396070
  87.7144118  11.4703478  22.1855066  87.4233983  12.3749109  22.0701732
  88.3501102  11.5120006  22.8999136  88.6400324   8.8480327  18.7756426
  89.2363897   8.6236349  18.0613389  88.6975296   8.1065072  19.3781874
  90.2753182   7.6658015  12.5177681  89.9111390   7.1388636  13.2290602
  91.1320298   7.2756484  12.3444166  92.6734003  11.1564894  19.1804860
  92.3734726  12.0589933  19.0720667  92.3285062  10.8897077  20.0326013
  86.1246484   7.6078691  15.2141564  85.1996981   7.4754905  15.4219256
  86.3730897   8.3872910  15.7111507  83.4855295   7.2511964  16.0485353
  83.6147676   7.5046443  16.9624765  82.8052746   7.8439672  15.7290008
  87.6554782  17.9209214  12.1475827  87.5778812  18.8717039  12.2264308
  87.0516426  17.5755087  12.8050754  90.1472012   5.0937080  24.8037194
  89.3705346   5.6531000  24.7940059  90.7862575   5.5793863  25.3252064
  88.4018384   7.9022533  24.3655161  89.1433069   8.4407577  24.0889985
  87.6955370   8.5288822  24.5226713  93.8773724  10.0451674  22.9627323
  94.2857080   9.6034084  22.2181955  93.1550986   9.4704301  23.2161516
  90.2304794   4.9824280  20.3360880  91.0765989   5.4063694  20.4795529
  90.1703432   4.3257905  21.0299443  94.2002539  10.6052864  16.7179612
  93.5711401  10.7698578  16.0155680  93.8128201  11.0194474  17.4890576
  98.0791771  11.5407302  14.0723975  97.3942809  11.9206203  13.5221009
  98.1635620  12.1502629  14.8055923  95.3342702   9.1867261  20.6719319
  95.5459598   9.8299021  19.9953700  95.2872451   8.3529578  20.2041249
  89.7530501  10.3427272  13.9829697  90.2168846  10.6214975  13.1934319
  89.4887299   9.4410717  13.8002787  86.6454582   9.8898754  16.9209460
  87.2155939  10.3186022  16.2826945  87.2362694   9.6081339  17.6193646
  87.1379748   5.0562181  25.1670471  86.5078409   5.7378462  25.4005868
  87.0315836   4.9445263  24.2223610  96.4488530  12.0639217  18.8441676
  97.2705974  11.6619404  18.5624358  96.4450933  11.9607451  19.7957792
  90.2145134  11.6123260  21.0002387  90.2789566  12.0743667  21.8360559
  89.5056058  10.9820625  21.1284697  80.7162424   4.9764468  18.5251386
  80.9670462   5.8611478  18.7908962  81.2521972   4.7969069  17.7526478
  89.9293151  13.2791367  10.8681367  89.7938826  14.1242903  11.2966215
  90.4702964  13.4810645  10.1047301  85.1917433  13.9132562  13.5232045
  85.3684062  14.8350526  13.3353029  85.9874267  13.5990981  13.9526425
  84.4769790   5.9597194  23.3994209  84.3623305   5.0582451  23.7001308
  83.6214308   6.2060890  23.0479025  91.5561628  13.9014934  24.9981709
  91.1125482  13.1151312  24.6802614  92.2178841  14.0894084  24.3325600
  86.3148749  15.4310735  19.5242388  86.8656174  15.3027799  18.7519382
  85.4760225  15.7305624  19.1737281  93.6542866  14.1817734  23.0263111
  93.6361341  15.0026615  22.5343380  94.5762786  14.0571809  23.2513252
  90.1115920  11.6961863  23.8686619  90.6444257  10.9350151  23.6385927
  89.5830001  11.4035515  24.6110773  91.4768633  10.8247856  11.3805431
  90.9489994  10.0900615  11.0678668  90.9756135  11.6022532  11.1345399
  96.4561479   9.0196876  16.4972477  95.7985153   9.7096138  16.5852606
  97.2601878   9.4093308  16.8406464  92.5289312  17.3525573   7.3037090
  91.8551010  17.6557270   7.9122048  92.9155134  18.1554653   6.9542547
  91.7447768   4.8490704  16.7934759  90.8270330   5.0705651  16.6356448
  92.1607912   4.9237015  15.9346467  96.0328734  12.3547250  12.6755562
  95.5791061  11.5138160  12.7320752  95.4022700  12.9908649  13.0130342
  94.4761673  14.1923747  13.6105380  94.7684647  14.7528804  12.8917745
  94.9860293  14.4852308  14.3658539  89.3494360   6.3569281  15.0074189
  89.4042970   5.4043118  14.9316666  88.5385562   6.5128721  15.4915488
  89.4395298  14.9704098  14.6998833  89.3971477  15.1964944  13.7707365
  90.3557997  14.7367473  14.8484634  92.8860932   5.4388166  21.5979462
  93.2410320   5.6659639  22.4573928  93.5333063   5.7706542  20.9756717
  98.6428048  10.6283129  17.3140063  99.0764555  10.5358418  18.1623117
  99.3559629  10.6040629  16.6760079  87.5561099  11.8467127  14.4960796
  88.3501697  11.3517447  14.2943371  86.8452791  11.3184990  14.1328501
  92.3755943  14.2285223  18.8473163  92.4292966  14.7976159  19.6150879
  91.5070725  14.3987108  18.4827200  85.2554337   3.9302779  20.3297615
  85.9277390   3.7220141  19.6810263  84.4284123   3.7324865  19.8902847
  99.5043598  10.6706829  19.8472948  99.6979488  11.5752640  20.0932223
  99.4044216  10.2114248  20.6811533  94.5658707  10.8213572  25.4213829
  94.4144213  10.5924124  24.5043912  94.5563386  11.7784173  25.4345174
  91.3344043   8.3945485  20.4060095  92.2636103   8.5456644  20.2329062
  90.9135073   8.4829505  19.5508742  90.1332375  12.4196149  18.1758633
  89.9943461  12.0514934  19.0484571  89.3446971  12.9343789  18.0042591
  90.7280527  17.5205246   9.5184169  90.9032283  17.0493289  10.3329792
  90.0413315  18.1471012   9.7465430  91.6837590  11.7977752  15.5647471
  91.3487423  11.7578522  16.4605120  91.1841536  11.1322468  15.0917881
  85.6581834   7.2045382  21.0900052  85.5201632   6.4725621  21.6911591
  86.5686757   7.1154282  20.8084239  88.2864135   6.9165341  20.5783731
  88.9963753   6.2758533  20.5370350  88.2433443   7.1678236  21.5009912
  96.2750913  13.8532694  23.4990311  96.2163459  13.1691915  22.8320894
  96.6770432  14.5951685  23.0470937  86.9993069   3.9030559  22.3979371
  86.4630426   3.4521297  23.0500967  86.4109777   4.0376468  21.6549835
  85.2941612  20.6694608  16.2924029  85.5338210  21.3013132  16.9703048
  84.4510809  20.3182648  16.5789389  96.2768321  11.8172278  21.7304290
  95.3895099  11.4798200  21.8530689  96.8466872  11.0855310  21.9673056
  82.7332190   3.0386567  19.4832365  82.6490379   2.4312236  18.7482775
  81.9114896   3.5295585  19.4841862  89.8069474  16.4773731  18.6965533
  89.7339645  17.2828702  19.2084838  89.3646867  16.6765697  17.8713555
  89.5959254  15.7145501  12.2068355  88.8126775  16.2567181  12.3006580
  90.2951999  16.2319480  12.6062596  92.2668157  16.3760565  20.8523692
  92.9796130  17.0108030  20.7799594  91.7758186  16.4724431  20.0363694
  93.9885684  10.2811817  12.4240984  93.0541963  10.4013280  12.2545688
  94.1662353   9.3784284  12.1600994  87.3180071  14.1255008  21.6729263
  88.0189531  14.7591491  21.8258657  86.8475186  14.4669740  20.9124902
  95.1181357   6.6799616  19.4981813  94.4652807   6.9275523  18.8434266
  95.4961737   5.8663754  19.1644291  92.0788531  16.7159309  13.6009984
  92.2610925  15.8980965  14.0637736  92.9021517  16.9327001  13.1634874
  92.4130696  15.6427494  10.8625032  92.9418463  15.1319949  10.2495194
  92.6758916  15.3270024  11.7270565  91.1668930   7.4219427  25.9847850
  90.4909567   7.3213556  26.6550226  91.9896564   7.2658641  26.4483848
  82.9147789  13.6591363  18.6060366  83.5001226  12.9135051  18.7388270
  82.7172628  13.9695320  19.4897030  85.7686444  16.6942611  13.6222808
  85.0996820  17.1788738  13.1386848  85.6299314  16.9411831  14.5366187
  89.9091713  18.7286354  20.2205466  90.4610021  18.8917976  20.9854552
  90.2497906  19.3190792  19.5485491  84.3608479   3.1484637  24.4700385
  84.9880517   2.7661714  25.0837910  83.5036398   2.9298839  24.8356078
  94.7602587  13.5547612  26.0754121  95.3042491  14.1677570  25.5809076
  94.1789432  14.1127190  26.5921134  93.0460100  16.6768330  17.2069149
  92.9211240  15.8758070  16.6980094  93.7039191  17.1714523  16.7183118
  95.1095009  14.4777350  18.8348699  94.1625344  14.3582701  18.7627025
  95.4577782  13.5899848  18.9174960  92.1141442  14.2730066  15.0353051
  91.9666404  13.3446773  15.2160621  92.9394935  14.2950157  14.5510126
  95.7175564  15.0958625  16.1217924  96.6422111  14.8901486  15.9842375
  95.5490867  14.8475026  17.0307265  86.8502178   5.0853617  16.6055913
  86.7046758   5.3993920  17.4980194  86.3727381   5.7038517  16.0526811
  95.5070880  15.6144292  11.4780015  95.6807757  15.0490715  10.7253867
  95.9999771  16.4145187  11.2959505  81.3247840   7.6258961  19.5443574
  80.7801308   8.4018769  19.6763848  82.2027190   7.9729766  19.3862695
  82.1113862   6.7528858  22.4373731  81.3695598   6.9011493  23.0238361
  81.7906606   7.0137123  21.5740480  90.0557524  16.2944836  22.2354121
  90.3644651  16.0493983  23.1076820  90.8533006  16.4991474  21.7472991
  90.0778136  18.4482745  14.4659497  89.6383127  17.9559124  15.1592354
  90.8286253  17.9055713  14.2251573  82.5570475  14.6394286  14.4684125
  83.3828495  14.3398058  14.0882769  82.2064527  13.8701909  14.9173914
  87.5252008  13.9920755  16.5381799  86.9032018  13.3291460  16.2384027
  88.1956875  14.0181886  15.8555447  80.7579080  12.5580613  15.4273059
  79.9210989  12.1302787  15.2457060  80.7302726  12.7513056  16.3643850
  98.0831382  13.0143666  25.4115442  97.2926925  12.9967805  24.8719941
  97.8464736  13.5531960  26.1664479  98.2029257   9.8636132  22.7248171
  98.2527262   9.6986140  23.6663693  98.0943180   8.9963391  22.3346051
  99.7047453  12.2833074  22.9690192  99.4132262  12.6463054  23.8053653
  99.0919585  11.5700082  22.7903524  97.9534642   7.4065688  21.4370250
  98.4288763   7.5993335  20.6289101  97.0300207   7.4624874  21.1913634
  90.8546412  10.4251367  26.2868716  91.7749421  10.6029966  26.4808763
  90.8195995   9.4807413  26.1348416  83.8508484   8.3352402  18.9291498
  84.0694494   9.2669510  18.9479531  84.2634258   7.9760376  19.7146301
  88.7236350   3.9085608  28.3194246  88.6233077   4.8579965  28.2506338
  88.5057892   3.5803847  27.4470317  79.9416837   9.2392872  17.1815113
  79.2480308   8.8246825  16.6685067  80.6889828   9.2813409  16.5848532
  88.5867620   7.3382746  27.1359308  88.1034702   8.1383107  27.3423197
  88.6728559   7.3490691  26.1826752  84.5140957  11.2287281  19.1727742
  85.4684211  11.1971224  19.1057673  84.3153481  10.7677905  19.9877968
  85.1040339   9.7988397  21.7398540  85.9233228  10.2932476  21.7633377
  85.3777147   8.8820365  21.7116107  82.8691186  16.7706901  16.1897940
  82.7345654  16.0107302  15.6235938  82.4523248  17.4947801  15.7226729
  86.0260312  17.6676218  16.4016382  85.9092696  18.6121650  16.2995073
  85.2052758  17.3649779  16.7902182  80.3575254   4.1326531  22.4390737
  81.0034117   3.6225485  22.9277962  80.1492405   4.8695213  23.0134162
  92.8828646  11.2007379  27.9382877  93.7519805  11.3748031  27.5769512
  92.4035397  12.0201795  27.8158607  87.0514826  18.3204480  19.6172311
  87.9542073  18.3528090  19.9338806  86.8252196  17.3904931  19.6318647
  88.8068428  17.0735466  16.2782389  87.8564059  17.0737328  16.1646762
  89.1100914  16.3268201  15.7618424 104.5421122  22.9096005  17.3428152
 105.1799532  22.7902752  16.6391492 104.4241964  23.8576848  17.4016104
 101.3510828  22.8623433  17.2789677 101.0129339  22.7464497  16.3910211
 102.2200596  22.4614598  17.2590683  97.2097644  24.7158909  13.2686568
  96.6462509  24.6248846  12.5002855  97.0950039  23.8958813  13.7489060
 101.8330611  24.0158284  23.2375882 101.8219252  23.6211083  22.3656386
 101.9951250  23.2824357  23.8309654  94.7562075  26.2110101  16.1070788
  95.5483367  25.8700925  15.6917087  94.9958726  26.3205076  17.0272941
 102.7897202  28.3829877   8.5801032 102.1385182  28.9683957   8.1935046
 103.5841565  28.9136072   8.6396070  96.7152829  25.4719014   8.9788167
  97.4883705  24.9248001   8.8401043  97.0678228  26.3363263   9.1902628
  98.5537872  26.7995396  22.1855066  98.2627738  27.7041027  22.0701732
  99.1894856  26.8411924  22.8999136  99.4794079  24.1772245  18.7756426
 100.0757651  23.9528267  18.0613389  99.5369050  23.4356990  19.3781874
  98.7715396  23.5339786   8.8130992  98.6551654  22.8584689   9.4812076
  98.8817656  23.0472160   7.9963145 101.1146937  22.9949933  12.5177681
 100.7505144  22.4680554  13.2290602 101.9714053  22.6048402  12.3444166
 107.0196238  14.2844266  19.7808947 106.6879562  15.1539677  19.5570162
 106.4241851  13.9680550  20.4602977 103.5127757  26.4856812  19.1804860
 103.2128480  27.3881850  19.0720667 103.1678817  26.2188995  20.0326013
  96.9640239  22.9370609  15.2141564  96.0390735  22.8046823  15.4219256
  97.2124652  23.7164828  15.7111507 106.9124901  19.0039352  16.8602297
 106.0041778  18.9354760  16.5661058 106.8612497  19.4811297  17.6884123
  94.3249050  22.5803882  16.0485353  94.4541431  22.8338361  16.9624765
  93.6446501  23.1731590  15.7290008  98.4948537  33.2501132  12.1475827
  98.4172567  34.2008957  12.2264308  97.8910180  32.9047005  12.8050754
 100.9865767  20.4228997  24.8037194 100.2099101  20.9822918  24.7940059
 101.6256330  20.9085780  25.3252064  99.2412139  23.2314451  24.3655161
  99.9826823  23.7699495  24.0889985  98.5349124  23.8580740  24.5226713
 104.7167479  25.3743591  22.9627323 105.1250835  24.9326002  22.2181955
 103.9944740  24.7996219  23.2161516 101.0698549  20.3116198  20.3360880
 101.9159744  20.7355612  20.4795529 101.0097186  19.6549822  21.0299443
 105.0396293  25.9344782  16.7179612 104.4105156  26.0990496  16.0155680
 104.6521955  26.3486391  17.4890576 108.9185525  26.8699220  14.0723975
 108.2336563  27.2498121  13.5221009 109.0029374  27.4794546  14.8055923
 104.2197994  17.9720566  21.9942053 103.9758926  18.7262627  21.4576329
 104.4957924  18.3505914  22.8289300 106.1736457  24.5159179  20.6719319
 106.3853352  25.1590939  19.9953700 106.1266205  23.6821495  20.2041249
 103.7762686  17.1276999  17.5755891 102.9147165  17.4258253  17.8672629
 103.8025120  17.3447398  16.6436924 100.5924255  25.6719190  13.9829697
 101.0562601  25.9506893  13.1934319 100.3281053  24.7702635  13.8002787
  97.4848336  25.2190672  16.9209460  98.0549693  25.6477940  16.2826945
  98.0756448  24.9373256  17.6193646  99.5293141  21.7942342  10.7919262
 100.2317185  22.2463386  11.2593188  99.1973770  21.1526161  11.4199155
  97.9773503  20.3854099  25.1670471  97.3472163  21.0670380  25.4005868
  97.8709591  20.2737181  24.2223610  93.2718475  20.0525895  16.0936396
  92.4817529  20.3083424  15.6176506  93.7629723  20.8674233  16.1988436
 107.2882285  27.3931134  18.8441676 108.1099728  26.9911321  18.5624358
 107.2844688  27.2899368  19.7957792  95.2233221  20.4170474  13.0519872
  94.4264384  20.5289169  13.5703368  94.9958813  20.7557126  12.1860763
 101.0538888  26.9415177  21.0002387 101.1183321  27.4035585  21.8360559
 100.3449812  26.3112542  21.1284697  91.5556178  20.3056385  18.5251386
  91.8064217  21.1903395  18.7908962  92.0915727  20.1260987  17.7526478
 100.7686906  28.6083285  10.8681367 100.6332581  29.4534821  11.2966215
 101.3096718  28.8102563  10.1047301  97.2554245  14.6874865  27.5295722
  96.8621191  14.1341063  28.2043367  98.0720386  14.9985443  27.9202240
  94.2216303  26.1258723  11.4409292  94.7340824  26.9201973  11.5914857
  94.8739016  25.4285013  11.3742894  96.0311188  29.2424479  13.5232045
  96.2077816  30.1642444  13.3353029  96.8268021  28.9282898  13.9526425
 100.1722206  16.1032744  25.1215979 100.9131920  16.7039897  25.0420441
 100.4040129  15.3610382  24.5634022  95.3163544  21.2889111  23.3994209
  95.2017060  20.3874368  23.7001308  94.4608062  21.5352808  23.0479025
 102.3955382  29.2306851  24.9981709 101.9519236  28.4443230  24.6802614
 103.0572596  29.4186002  24.3325600  97.1542503  30.7602653  19.5242388
  97.7049928  30.6319716  18.7519382  96.3153979  31.0597542  19.1737281
 104.4936620  29.5109651  23.0263111 104.4755096  30.3318532  22.5343380
 105.4156540  29.3863727  23.2513252 100.9509674  27.0253781  23.8686619
 101.4838011  26.2642069  23.6385927 100.4223756  26.7327433  24.6110773
  92.1865220  24.4547377  12.2168863  93.0240442  24.8644386  12.0002571
  92.3643488  23.5146819  12.1869057 103.1975910  14.5018502  17.3629494
 102.6940705  14.4648637  16.5497299 103.4906517  15.4111245  17.4226151
  99.4418796  14.5857232  16.3695676 100.3071792  14.3900040  16.0101565
  99.5096305  14.3567584  17.2965032 102.3162387  26.1539773  11.3805431
 101.7883749  25.4192533  11.0678668 101.8149890  26.9314450  11.1345399
 107.2955233  24.3488794  16.4972477 106.6378908  25.0388055  16.5852606
 108.0995632  24.7385226  16.8406464  97.0481115  16.8159440  13.7412042
  97.6224867  16.5934621  13.0085235  97.6352097  16.8848134  14.4940644
 103.3683066  32.6817491   7.3037090 102.6944765  32.9849188   7.9122048
 103.7548888  33.4846571   6.9542547 102.5841523  20.1782622  16.7934759
 101.6664084  20.3997569  16.6356448 103.0001666  20.2528933  15.9346467
 106.8722488  27.6839168  12.6755562 106.4184815  26.8430078  12.7320752
 106.2416455  28.3200566  13.0130342 105.3155427  29.5215665  13.6105380
 105.6078402  30.0820722  12.8917745 105.8254048  29.8144226  14.3658539
  92.2091391  21.7938093  12.8879596  92.0115791  21.2007453  12.1630663
  91.6538055  21.4890303  13.6055535 100.1888115  21.6861199  15.0074189
 100.2436725  20.7335036  14.9316666  99.3779317  21.8420638  15.4915488
  98.1280475  20.3038259  12.7664568  97.3148340  20.6032429  13.1729760
  98.6239469  19.9093948  13.4839051 100.2789053  30.2996016  14.6998833
 100.2365231  30.5256862  13.7707365 101.1951751  30.0659390  14.8484634
 103.7254686  20.7680083  21.5979462 104.0804074  20.9951556  22.4573928
 104.3726818  21.0998460  20.9756717  97.6194549  17.8756614  18.3825803
  98.2593929  17.7345373  17.6848767  96.7872080  17.5891128  18.0064405
 109.4821803  25.9575046  17.3140063 109.9158310  25.8650335  18.1623117
 110.1953384  25.9332547  16.6760079  98.3954853  27.1759045  14.4960796
  99.1895452  26.6809365  14.2943371  97.6846546  26.6476908  14.1328501
 103.2149698  29.5577140  18.8473163 103.2686720  30.1268077  19.6150879
 102.3464479  29.7279025  18.4827200  94.7037617  21.3202127  10.5720548
  93.7735205  21.2586582  10.7890510  94.7995089  20.7978079   9.7757190
  94.6223166  17.8456939  13.1598790  94.8829983  18.7602273  13.0507950
  95.4440338  17.3781382  13.3095403  96.0948091  19.2594697  20.3297615
  96.7671145  19.0512059  19.6810263  95.2677878  19.0616783  19.8902847
 110.3437352  25.9998747  19.8472948 110.5373243  26.9044557  20.0932223
 110.2437971  25.5406166  20.6811533 101.9973663  15.8856637  22.3463275
 101.3501578  16.5846587  22.2527752 102.7674679  16.3192781  22.7139524
 105.4052461  26.1505490  25.4213829 105.2537968  25.9216041  24.5043912
 105.3957141  27.1076091  25.4345174 102.1737798  23.7237402  20.4060095
 103.1029858  23.8748562  20.2329062 101.7528828  23.8121423  19.5508742
 100.9726129  27.7488067  18.1758633 100.8337215  27.3806851  19.0484571
 100.1840726  28.2635706  18.0042591 101.5674281  32.8497163   9.5184169
 101.7426037  32.3785206  10.3329792 100.8807069  33.4762929   9.7465430
 102.5231344  27.1269669  15.5647471 102.1881177  27.0870439  16.4605120
 102.0235290  26.4614385  15.0917881  96.4975588  22.5337300  21.0900052
  96.3595386  21.8017538  21.6911591  97.4080512  22.4446200  20.8084239
  99.1257889  22.2457259  20.5783731  99.8357508  21.6050451  20.5370350
  99.0827197  22.4970154  21.5009912 107.1144668  29.1824612  23.4990311
 107.0557214  28.4983832  22.8320894 107.5164186  29.9243602  23.0470937
  97.8386823  19.2322477  22.3979371  97.3024180  18.7813215  23.0500967
  97.2503532  19.3668386  21.6549835  96.1335367  35.9986526  16.2924029
  96.3731965  36.6305050  16.9703048  95.2904563  35.6474566  16.5789389
 107.1162075  27.1464196  21.7304290 106.2288854  26.8090118  21.8530689
 107.6860626  26.4147227  21.9673056  88.7691222  23.4788288  15.0547342
  89.4562262  23.1650018  14.4668357  88.6139351  24.3829652  14.7814593
  93.5725944  18.3678484  19.4832365  93.4884133  17.7604154  18.7482775
  92.7508651  18.8587503  19.4841862 100.6463228  31.8065648  18.6965533
 100.5733400  32.6120620  19.2084838 100.2040622  32.0057614  17.8713555
 100.4353008  31.0437418  12.2068355  99.6520530  31.5859099  12.3006580
 101.1345753  31.5611398  12.6062596 103.1061912  31.7052482  20.8523692
 103.8189884  32.3399947  20.7799594 102.6151941  31.8016348  20.0363694
 104.8279439  25.6103735  12.4240984 103.8935718  25.7305198  12.2545688
 105.0056107  24.7076202  12.1600994 100.3284627  18.9949431  14.5774245
  99.9582414  18.4420471  15.2655151 100.8243719  18.3907564  14.0249245
  98.1573826  29.4546926  21.6729263  98.8583285  30.0883409  21.8258657
  97.6868941  29.7961657  20.9124902 105.9575111  22.0091533  19.4981813
 105.3046562  22.2567441  18.8434266 106.3355491  21.1955672  19.1644291
 102.9182285  32.0451227  13.6009984 103.1004680  31.2272883  14.0637736
 103.7415271  32.2618919  13.1634874 103.2524451  30.9719412  10.8625032
 103.7812217  30.4611866  10.2495194 103.5152670  30.6561942  11.7270565
 102.0062685  22.7511344  25.9847850 101.3303322  22.6505474  26.6550226
 102.8290318  22.5950558  26.4483848  93.7541544  28.9883281  18.6060366
  94.3394980  28.2426969  18.7388270  93.5566382  29.2987238  19.4897030
  96.6080199  32.0234528  13.6222808  95.9390574  32.5080656  13.1386848
  96.4693068  32.2703749  14.5366187  88.3459198  21.5588881  17.3264809
  88.3843298  21.0252472  18.1201927  87.8399491  21.0324087  16.7075786
 100.7485467  34.0578272  20.2205466 101.3003775  34.2209893  20.9854552
 101.0891661  34.6482710  19.5485491  95.7249961  16.4053422  20.8227351
  95.7891287  17.2668253  20.4104749  95.6617081  15.7927423  20.0899710
  95.2002233  18.4776554  24.4700385  95.8274272  18.0953632  25.0837910
  94.3430152  18.2590756  24.8356078 105.5996342  28.8839529  26.0754121
 106.1436246  29.4969488  25.5809076 105.0183187  29.4419108  26.5921134
  91.9767776  20.2852983  10.4018740  92.2721217  19.3763662  10.3485794
  91.0755812  20.2640723  10.0799742 103.8853855  32.0060247  17.2069149
 103.7604994  31.2049987  16.6980094 104.5432946  32.5006441  16.7183118
  95.5062023  18.3608980  16.3846289  94.7848609  18.9744948  16.2453762
  96.2955279  18.8966745  16.3062935 105.9488763  29.8069268  18.8348699
 105.0019099  29.6874619  18.7627025 106.2971536  28.9191766  18.9174960
  98.3088336  15.6963406  22.6586941  98.8322738  15.9425703  23.4213250
  98.0900670  16.5283441  22.2390078  93.7055617  17.9667081  10.5258065
  93.3768324  17.0864460  10.3433171  94.0594988  17.9114750  11.4134455
 102.9535196  29.6021984  15.0353051 102.8060159  28.6738691  15.2160621
 103.7788690  29.6242074  14.5510126  96.8197441  18.2540051  10.8933543
  97.1593513  18.7825972  10.1712151  97.2669561  18.5920457  11.6692110
 106.5569318  30.4250542  16.1217924 107.4815866  30.2193404  15.9842375
 106.3884622  30.1766944  17.0307265  99.5140881  16.6377102  20.3436611
  99.1737702  15.8384915  20.7457291  98.8079888  16.9378812  19.7713444
 100.1657353  13.7226414  18.7963934 100.9883423  13.2486892  18.6742824
 100.4095417  14.5016898  19.2962620  97.6895932  20.4145535  16.6055913
  97.5440513  20.7285838  17.4980194  97.2121136  21.0330435  16.0526811
  99.5492315  17.4048083  16.6536802  99.5353884  16.5089176  16.3169100
 100.2664743  17.4118746  17.2875088 101.4018446  17.8385423  18.6989930
 101.1436223  18.7602493  18.6974260 100.8703486  17.4415857  19.3890394
 106.3464634  30.9436210  11.4780015 106.5201512  30.3782632  10.7253867
 106.8393526  31.7437105  11.2959505  92.1641594  22.9550879  19.5443574
  91.6195062  23.7310687  19.6763848  93.0420944  23.3021683  19.3862695
  92.9507616  22.0820775  22.4373731  92.2089352  22.2303411  23.0238361
  92.6300360  22.3429041  21.5740480 100.8951279  31.6236754  22.2354121
 101.2038405  31.3785900  23.1076820 101.6926761  31.8283392  21.7472991
 100.9171891  33.7774663  14.4659497 100.4776881  33.2851042  15.1592354
 101.6680008  33.2347631  14.2251573  93.3964230  29.9686204  14.4684125
  94.2222250  29.6689976  14.0882769  93.0458282  29.1993826  14.9173914
  98.3645763  29.3212672  16.5381799  97.7425772  28.6583377  16.2384027
  99.0350630  29.3473804  15.8555447  91.5972835  27.8872530  15.4273059
  90.7604743  27.4594705  15.2457060  91.5696480  28.0804974  16.3643850
  98.4370290  17.7994460  26.1314305  98.4858446  18.6756583  25.7492075
  98.9792805  17.2571853  25.5585948 108.9225136  28.3435583  25.4115442
 108.1320680  28.3259722  24.8719941 108.6858491  28.8823877  26.1664479
 109.0423011  25.1928050  22.7248171 109.0921016  25.0278057  23.6663693
 108.9336934  24.3255309  22.3346051  97.9259270  27.8716596  10.0140259
  98.0747390  28.5552060   9.3606932  98.7325713  27.8521686  10.5289715
 106.3326774  21.1758978  24.0407477 107.2336636  21.0365443  23.7491475
 106.4074748  21.3413433  24.9805655 100.6669579  18.5525833  22.8860664
  99.7972888  18.8459399  22.6143252 100.9029059  19.1366278  23.6067927
 110.5441208  27.6124991  22.9690192 110.2526016  27.9754972  23.8053653
 109.9313339  26.8992000  22.7903524 108.7928396  22.7357606  21.4370250
 109.2682518  22.9285252  20.6289101 107.8693962  22.7916792  21.1913634
  95.6811903  23.8981773  11.0201328  95.4357945  22.9944103  11.2181539
  95.8507817  23.8998924  10.0780806 103.3708613  14.7705450  20.4026084
 103.8890557  15.5066477  20.0772573 103.0163745  15.0769443  21.2372843
  94.9507550  19.6310131   8.5187490  94.2576795  19.7054486   7.8627526
  94.7059302  18.8670474   9.0409007 101.4254675  30.3664726   7.4852007
 100.8528642  30.9854913   7.0322479 101.9987469  30.9164088   8.0191929
 107.4930065  19.6123366  19.6698556 108.4447488  19.7121464  19.6910780
 107.3233516  18.8201635  20.1796640 105.5144445  16.6978949  19.8557957
 104.9194377  16.9783962  19.1604445 105.2294141  17.1872850  20.6274698
 109.9718143  22.8329486  18.7840855 109.9394463  21.8945487  18.9700539
 110.5818767  22.9113523  18.0506680 101.6940166  25.7543285  26.2868716
 102.6143176  25.9321884  26.4808763 101.6589749  24.8099330  26.1348416
  90.9122331  20.9481879  15.2121991  90.5925116  20.0947187  14.9196365
  90.3655760  21.1630457  15.9679958  94.6902239  23.6644320  18.9291498
  94.9088249  24.5961427  18.9479531  95.1028013  23.3052294  19.7146301
  99.5630104  19.2377525  28.3194246  99.4626831  20.1871882  28.2506338
  99.3451646  18.9095764  27.4470317  90.7810591  24.5684790  17.1815113
  90.0874063  24.1538743  16.6685067  91.5283582  24.6105327  16.5848532
  99.4261374  22.6674664  27.1359308  98.9428456  23.4675024  27.3423197
  99.5122313  22.6782609  26.1826752  92.6947334  24.5003044  15.0581127
  92.6718022  24.5990731  14.1063011  93.0047970  25.3468195  15.3798294
  95.3534712  26.5579199  19.1727742  96.3077965  26.5263141  19.1057673
  95.1547235  26.0969823  19.9877968  95.9434094  25.1280315  21.7398540
  96.7626983  25.6224394  21.7633377  96.2170902  24.2112283  21.7116107
  93.7084941  32.0998818  16.1897940  93.5739409  31.3399219  15.6235938
  93.2917003  32.8239718  15.7226729  96.8654066  32.9968135  16.4016382
  96.7486451  33.9413568  16.2995073  96.0446513  32.6941697  16.7902182
  91.1969008  19.4618449  22.4390737  91.8427872  18.9517403  22.9277962
  90.9886159  20.1987130  23.0134162 103.7222400  26.5299296  27.9382877
 104.5913560  26.7039949  27.5769512 103.2429152  27.3493713  27.8158607
  97.8908581  33.6496397  19.6172311  98.7935827  33.6820008  19.9338806
  97.6645951  32.7196848  19.6318647  99.6462183  32.4027384  16.2782389
  98.6957814  32.4029245  16.1646762  99.9494669  31.6560118  15.7618424
  95.5366499  16.6086066  26.5365751  96.3997961  16.2522871  26.7469075
  94.9631910  16.2699961  27.2241155 115.3814876  38.2387922  17.3428152
 116.0193286  38.1194670  16.6391492 115.2635719  39.1868766  17.4016104
 112.1904582  38.1915350  17.2789677 111.8523094  38.0756415  16.3910211
 113.0594351  37.7906515  17.2590683 108.0491398  40.0450827  13.2686568
 107.4856263  39.9540764  12.5002855 107.9343793  39.2250731  13.7489060
 112.6724365  39.3450202  23.2375882 112.6613006  38.9503000  22.3656386
 112.8345005  38.6116275  23.8309654 105.5955830  41.5402018  16.1070788
 106.3877122  41.1992843  15.6917087 105.8352480  41.6496993  17.0272941
 113.6290957  43.7121794   8.5801032 112.9778937  44.2975875   8.1935046
 114.4235320  44.2427989   8.6396070 107.5546584  40.8010932   8.9788167
 108.3277460  40.2539919   8.8401043 107.9071983  41.6655181   9.1902628
 109.3931626  42.1287314  22.1855066 109.1021492  43.0332945  22.0701732
 110.0288611  42.1703841  22.8999136 110.3187833  39.5064162  18.7756426
 110.9151406  39.2820185  18.0613389 110.3762805  38.7648908  19.3781874
 109.6109150  38.8631704   8.8130992 109.4945409  38.1876607   9.4812076
 109.7211410  38.3764078   7.9963145 111.9540691  38.3241851  12.5177681
 111.5898899  37.7972472  13.2290602 112.8107807  37.9340320  12.3444166
 117.8589992  29.6136183  19.7808947 117.5273317  30.4831594  19.5570162
 117.2635605  29.2972467  20.4602977 114.3521512  41.8148729  19.1804860
 114.0522235  42.7173768  19.0720667 114.0072571  41.5480913  20.0326013
 107.8033993  38.2662526  15.2141564 106.8784490  38.1338740  15.4219256
 108.0518406  39.0456745  15.7111507 117.7518655  34.3331270  16.8602297
 116.8435533  34.2646678  16.5661058 117.7006251  34.8103214  17.6884123
 105.1642804  37.9095800  16.0485353 105.2935185  38.1630279  16.9624765
 104.4840255  38.5023508  15.7290008 109.3342291  48.5793050  12.1475827
 109.2566321  49.5300875  12.2264308 108.7303935  48.2338922  12.8050754
 111.8259521  35.7520915  24.8037194 111.0492855  36.3114835  24.7940059
 112.4650084  36.2377698  25.3252064 110.0805893  38.5606368  24.3655161
 110.8220578  39.0991412  24.0889985 109.3742879  39.1872657  24.5226713
 115.5561233  40.7035509  22.9627323 115.9644589  40.2617919  22.2181955
 114.8338495  40.1288136  23.2161516 111.9092303  35.6408116  20.3360880
 112.7553498  36.0647529  20.4795529 111.8490941  34.9841740  21.0299443
 115.8790048  41.2636700  16.7179612 115.2498910  41.4282414  16.0155680
 115.4915710  41.6778309  17.4890576 119.7579280  42.1991137  14.0723975
 119.0730318  42.5790039  13.5221009 119.8423129  42.8086464  14.8055923
 115.0591748  33.3012484  21.9942053 114.8152680  34.0554545  21.4576329
 115.3351679  33.6797832  22.8289300 117.0130211  39.8451096  20.6719319
 117.2247106  40.4882856  19.9953700 116.9659959  39.0113413  20.2041249
 114.6156440  32.4568917  17.5755891 113.7540919  32.7550171  17.8672629
 114.6418875  32.6739316  16.6436924 111.4318010  41.0011108  13.9829697
 111.8956355  41.2798811  13.1934319 111.1674808  40.0994552  13.8002787
 108.3242091  40.5482589  16.9209460 108.8943448  40.9769858  16.2826945
 108.9150203  40.2665174  17.6193646 110.3686896  37.1234260  10.7919262
 111.0710939  37.5755304  11.2593188 110.0367524  36.4818079  11.4199155
 108.8167257  35.7146017  25.1670471 108.1865918  36.3962298  25.4005868
 108.7103345  35.6029098  24.2223610 104.1112230  35.3817813  16.0936396
 103.3211284  35.6375341  15.6176506 104.6023477  36.1966151  16.1988436
 118.1276039  42.7223052  18.8441676 118.9493483  42.3203239  18.5624358
 118.1238442  42.6191286  19.7957792 106.0626975  35.7462392  13.0519872
 105.2658138  35.8581086  13.5703368 105.8352567  36.0849044  12.1860763
 111.8932643  42.2707095  21.0002387 111.9577075  42.7327502  21.8360559
 111.1843567  41.6404460  21.1284697 102.3949933  35.6348303  18.5251386
 102.6457971  36.5195313  18.7908962 102.9309481  35.4552905  17.7526478
 111.6080660  43.9375203  10.8681367 111.4726335  44.7826738  11.2966215
 112.1490473  44.1394480  10.1047301 108.0948000  30.0166783  27.5295722
 107.7014945  29.4632981  28.2043367 108.9114140  30.3277361  27.9202240
 105.0610058  41.4550641  11.4409292 105.5734578  42.2493891  11.5914857
 105.7132771  40.7576931  11.3742894 106.8704942  44.5716397  13.5232045
 107.0471571  45.4934362  13.3353029 107.6661776  44.2574816  13.9526425
 111.0115961  31.4324662  25.1215979 111.7525674  32.0331815  25.0420441
 111.2433884  30.6902299  24.5634022 106.1557299  36.6181029  23.3994209
 106.0410814  35.7166286  23.7001308 105.3001817  36.8644726  23.0479025
 113.2349137  44.5598769  24.9981709 112.7912991  43.7735148  24.6802614
 113.8966350  44.7477920  24.3325600 107.9936258  46.0894571  19.5242388
 108.5443683  45.9611634  18.7519382 107.1547734  46.3889460  19.1737281
 115.3330375  44.8401569  23.0263111 115.3148850  45.6610450  22.5343380
 116.2550295  44.7155644  23.2513252 111.7903429  42.3545699  23.8686619
 112.3231766  41.5933987  23.6385927 111.2617510  42.0619350  24.6110773
 103.0258974  39.7839295  12.2168863 103.8634196  40.1936303  12.0002571
 103.2037242  38.8438737  12.1869057 114.0369664  29.8310420  17.3629494
 113.5334460  29.7940555  16.5497299 114.3300271  30.7403162  17.4226151
 110.2812550  29.9149149  16.3695676 111.1465547  29.7191958  16.0101565
 110.3490059  29.6859501  17.2965032 113.1556142  41.4831691  11.3805431
 112.6277503  40.7484451  11.0678668 112.6543644  42.2606367  11.1345399
 118.1348988  39.6780712  16.4972477 117.4772662  40.3679973  16.5852606
 118.9389387  40.0677143  16.8406464 107.8874869  32.1451357  13.7412042
 108.4618621  31.9226539  13.0085235 108.4745852  32.2140052  14.4940644
 114.2076821  48.0109409   7.3037090 113.5338519  48.3141105   7.9122048
 114.5942643  48.8138489   6.9542547 113.4235277  35.5074540  16.7934759
 112.5057839  35.7289487  16.6356448 113.8395421  35.5820850  15.9346467
 117.7116243  43.0131086  12.6755562 117.2578570  42.1721996  12.7320752
 117.0810209  43.6492484  13.0130342 116.1549182  44.8507582  13.6105380
 116.4472156  45.4112639  12.8917745 116.6647802  45.1436143  14.3658539
 103.0485146  37.1230010  12.8879596 102.8509545  36.5299371  12.1630663
 102.4931810  36.8182220  13.6055535 111.0281869  37.0153117  15.0074189
 111.0830479  36.0626953  14.9316666 110.2173071  37.1712556  15.4915488
 108.9674229  35.6330177  12.7664568 108.1542095  35.9324347  13.1729760
 109.4633223  35.2385865  13.4839051 111.1182807  45.6287933  14.6998833
 111.0758986  45.8548780  13.7707365 112.0345506  45.3951308  14.8484634
 114.5648441  36.0972001  21.5979462 114.9197829  36.3243474  22.4573928
 115.2120572  36.4290378  20.9756717 108.4588304  33.2048532  18.3825803
 109.0987683  33.0637291  17.6848767 107.6265834  32.9183045  18.0064405
 120.3215557  41.2866964  17.3140063 120.7552064  41.1942253  18.1623117
 121.0347138  41.2624464  16.6760079 109.2348608  42.5050962  14.4960796
 110.0289206  42.0101283  14.2943371 108.5240300  41.9768826  14.1328501
 114.0543452  44.8869058  18.8473163 114.1080475  45.4559994  19.6150879
 113.1858234  45.0570943  18.4827200 105.5431371  36.6494044  10.5720548
 104.6128959  36.5878500  10.7890510 105.6388843  36.1269997   9.7757190
 105.4616920  33.1748857  13.1598790 105.7223738  34.0894190  13.0507950
 106.2834093  32.7073300  13.3095403 106.9341846  34.5886614  20.3297615
 107.6064899  34.3803976  19.6810263 106.1071632  34.3908700  19.8902847
 121.1831107  41.3290665  19.8472948 121.3766997  42.2336475  20.0932223
 121.0831725  40.8698084  20.6811533 112.8367418  31.2148555  22.3463275
 112.1895333  31.9138505  22.2527752 113.6068433  31.6484699  22.7139524
 116.2446216  41.4797407  25.4213829 116.0931722  41.2507959  24.5043912
 116.2350895  42.4368009  25.4345174 113.0131552  39.0529320  20.4060095
 113.9423612  39.2040480  20.2329062 112.5922582  39.1413341  19.5508742
 111.8119884  43.0779984  18.1758633 111.6730970  42.7098769  19.0484571
 111.0234480  43.5927624  18.0042591 112.4068036  48.1789081   9.5184169
 112.5819791  47.7077124  10.3329792 111.7200824  48.8054847   9.7465430
 113.3625099  42.4561587  15.5647471 113.0274932  42.4162357  16.4605120
 112.8629045  41.7906303  15.0917881 107.3369343  37.8629217  21.0900052
 107.1989141  37.1309456  21.6911591 108.2474266  37.7738117  20.8084239
 109.9651644  37.5749177  20.5783731 110.6751262  36.9342369  20.5370350
 109.9220952  37.8262071  21.5009912 117.9538422  44.5116530  23.4990311
 117.8950968  43.8275750  22.8320894 118.3557941  45.2535520  23.0470937
 108.6780578  34.5614394  22.3979371 108.1417935  34.1105133  23.0500967
 108.0897286  34.6960303  21.6549835 106.9729121  51.3278444  16.2924029
 107.2125719  51.9596968  16.9703048 106.1298318  50.9766484  16.5789389
 117.9555830  42.4756114  21.7304290 117.0682608  42.1382036  21.8530689
 118.5254381  41.7439145  21.9673056  99.6084977  38.8080206  15.0547342
 100.2956017  38.4941936  14.4668357  99.4533105  39.7121570  14.7814593
 104.4119699  33.6970402  19.4832365 104.3277888  33.0896072  18.7482775
 103.5902405  34.1879420  19.4841862 111.4856983  47.1357566  18.6965533
 111.4127154  47.9412538  19.2084838 111.0434376  47.3349532  17.8713555
 111.2746763  46.3729336  12.2068355 110.4914284  46.9151016  12.3006580
 111.9739508  46.8903316  12.6062596 113.9455666  47.0344400  20.8523692
 114.6583639  47.6691865  20.7799594 113.4545695  47.1308266  20.0363694
 115.6673193  40.9395653  12.4240984 114.7329472  41.0597115  12.2545688
 115.8449862  40.0368120  12.1600994 111.1678381  34.3241349  14.5774245
 110.7976169  33.7712389  15.2655151 111.6637474  33.7199482  14.0249245
 108.9967580  44.7838844  21.6729263 109.6977040  45.4175327  21.8258657
 108.5262695  45.1253575  20.9124902 116.7968866  37.3383451  19.4981813
 116.1440316  37.5859359  18.8434266 117.1749246  36.5247589  19.1644291
 113.7576040  47.3743144  13.6009984 113.9398434  46.5564800  14.0637736
 114.5809026  47.5910837  13.1634874 114.0918205  46.3011329  10.8625032
 114.6205972  45.7903784  10.2495194 114.3546425  45.9853860  11.7270565
 112.8456439  38.0803262  25.9847850 112.1697076  37.9797391  26.6550226
 113.6684073  37.9242476  26.4483848 104.5935298  44.3175199  18.6060366
 105.1788735  43.5718887  18.7388270 104.3960137  44.6279155  19.4897030
 107.4473953  47.3526446  13.6222808 106.7784329  47.8372574  13.1386848
 107.3086823  47.5995667  14.5366187  99.1852953  36.8880799  17.3264809
  99.2237052  36.3544390  18.1201927  98.6793246  36.3616004  16.7075786
 111.5879222  49.3870190  20.2205466 112.1397530  49.5501811  20.9854552
 111.9285415  49.9774627  19.5485491 106.5643715  31.7345339  20.8227351
 106.6285042  32.5960170  20.4104749 106.5010835  31.1219341  20.0899710
 106.0395988  33.8068472  24.4700385 106.6668026  33.4245549  25.0837910
 105.1823906  33.5882674  24.8356078 116.4390096  44.2131447  26.0754121
 116.9830000  44.8261405  25.5809076 115.8576941  44.7711026  26.5921134
 102.8161530  35.6144901  10.4018740 103.1114971  34.7055579  10.3485794
 101.9149566  35.5932640  10.0799742 114.7247609  47.3352165  17.2069149
 114.5998749  46.5341905  16.6980094 115.3826700  47.8298358  16.7183118
 106.3455777  33.6900898  16.3846289 105.6242363  34.3036865  16.2453762
 107.1349033  34.2258662  16.3062935 116.7882518  45.1361185  18.8348699
 115.8412853  45.0166536  18.7627025 117.1365291  44.2483683  18.9174960
 109.1482091  31.0255324  22.6586941 109.6716493  31.2717621  23.4213250
 108.9294424  31.8575359  22.2390078 104.5449372  33.2958999  10.5258065
 104.2162078  32.4156378  10.3433171 104.8988743  33.2406667  11.4134455
 113.7928951  44.9313901  15.0353051 113.6453913  44.0030609  15.2160621
 114.6182444  44.9533992  14.5510126 107.6591195  33.5831968  10.8933543
 107.9987268  34.1117890  10.1712151 108.1063316  33.9212375  11.6692110
 117.3963073  45.7542460  16.1217924 118.3209620  45.5485321  15.9842375
 117.2278376  45.5058861  17.0307265 110.3534636  31.9669019  20.3436611
 110.0131456  31.1676832  20.7457291 109.6473642  32.2670730  19.7713444
 111.0051108  29.0518332  18.7963934 111.8277177  28.5778810  18.6742824
 111.2489171  29.8308815  19.2962620 108.5289687  35.7437452  16.6055913
 108.3834267  36.0577755  17.4980194 108.0514890  36.3622353  16.0526811
 110.3886069  32.7340000  16.6536802 110.3747638  31.8381094  16.3169100
 111.1058498  32.7410664  17.2875088 112.2412200  33.1677340  18.6989930
 111.9829978  34.0894411  18.6974260 111.7097241  32.7707775  19.3890394
 117.1858389  46.2728128  11.4780015 117.3595266  45.7074550  10.7253867
 117.6787280  47.0729022  11.2959505 103.0035349  38.2842797  19.5443574
 102.4588817  39.0602605  19.6763848 103.8814699  38.6313601  19.3862695
 103.7901371  37.4112693  22.4373731 103.0483107  37.5595328  23.0238361
 103.4694115  37.6720959  21.5740480 111.7345033  46.9528671  22.2354121
 112.0432160  46.7077818  23.1076820 112.5320515  47.1575310  21.7472991
 111.7565645  49.1066581  14.4659497 111.3170636  48.6142960  15.1592354
 112.5073762  48.5639548  14.2251573 104.2357984  45.2978122  14.4684125
 105.0616004  44.9981894  14.0882769 103.8852036  44.5285744  14.9173914
 109.2039517  44.6504590  16.5381799 108.5819527  43.9875295  16.2384027
 109.8744384  44.6765722  15.8555447 102.4366589  43.2164448  15.4273059
 101.5998498  42.7886622  15.2457060 102.4090235  43.4096891  16.3643850
 109.2764045  33.1286378  26.1314305 109.3252200  34.0048501  25.7492075
 109.8186559  32.5863771  25.5585948 119.7618891  43.6727501  25.4115442
 118.9714434  43.6551640  24.8719941 119.5252245  44.2115795  26.1664479
 119.8816766  40.5219968  22.7248171 119.9314771  40.3569975  23.6663693
 119.7730689  39.6547227  22.3346051 108.7653024  43.2008513  10.0140259
 108.9141145  43.8843978   9.3606932 109.5719468  43.1813603  10.5289715
 117.1720528  36.5050896  24.0407477 118.0730391  36.3657360  23.7491475
 117.2468503  36.6705350  24.9805655 111.5063333  33.8817750  22.8860664
 110.6366643  34.1751316  22.6143252 111.7422814  34.4658195  23.6067927
 121.3834962  42.9416909  22.9690192 121.0919771  43.3046890  23.8053653
 120.7707094  42.2283917  22.7903524 119.6322151  38.0649524  21.4370250
 120.1076272  38.2577170  20.6289101 118.7087716  38.1208710  21.1913634
 106.5205657  39.2273691  11.0201328 106.2751699  38.3236021  11.2181539
 106.6901572  39.2290841  10.0780806 114.2102367  30.0997367  20.4026084
 114.7284311  30.8358394  20.0772573 113.8557500  30.4061361  21.2372843
 105.7901305  34.9602048   8.5187490 105.0970550  35.0346403   7.8627526
 105.5453057  34.1962392   9.0409007 112.2648430  45.6956644   7.4852007
 111.6922397  46.3146831   7.0322479 112.8381224  46.2456005   8.0191929
 118.3323820  34.9415284  19.6698556 119.2841243  35.0413381  19.6910780
 118.1627270  34.1493552  20.1796640 116.3538199  32.0270867  19.8557957
 115.7588131  32.3075880  19.1604445 116.0687896  32.5164768  20.6274698
 120.8111897  38.1621403  18.7840855 120.7788218  37.2237404  18.9700539
 121.4212521  38.2405440  18.0506680 112.5333921  41.0835203  26.2868716
 113.4536930  41.2613802  26.4808763 112.4983504  40.1391248  26.1348416
 101.7516086  36.2773796  15.2121991 101.4318870  35.4239104  14.9196365
 101.2049514  36.4922374  15.9679958 105.5295993  38.9936237  18.9291498
 105.7482003  39.9253345  18.9479531 105.9421767  38.6344212  19.7146301
 110.4023859  34.5669443  28.3194246 110.3020586  35.5163800  28.2506338
 110.1845401  34.2387682  27.4470317 101.6204346  39.8976708  17.1815113
 100.9267817  39.4830661  16.6685067 102.3677337  39.9397244  16.5848532
 110.2655129  37.9966582  27.1359308 109.7822210  38.7966942  27.3423197
 110.3516068  38.0074527  26.1826752 103.5341088  39.8294962  15.0581127
 103.5111777  39.9282649  14.1063011 103.8441725  40.6760112  15.3798294
 106.1928466  41.8871117  19.1727742 107.1471720  41.8555059  19.1057673
 105.9940990  41.4261740  19.9877968 106.7827848  40.4572233  21.7398540
 107.6020737  40.9516311  21.7633377 107.0564656  39.5404201  21.7116107
 104.5478695  47.4290736  16.1897940 104.4133163  46.6691137  15.6235938
 104.1310757  48.1531636  15.7226729 107.7047821  48.3260053  16.4016382
 107.5880205  49.2705486  16.2995073 106.8840267  48.0233615  16.7902182
 102.0362763  34.7910366  22.4390737 102.6821626  34.2809320  22.9277962
 101.8279914  35.5279048  23.0134162 114.5616155  41.8591214  27.9382877
 115.4307314  42.0331866  27.5769512 114.0822906  42.6785631  27.8158607
 108.7302335  48.9788315  19.6172311 109.6329582  49.0111925  19.9338806
 108.5039705  48.0488766  19.6318647 110.4855937  47.7319301  16.2782389
 109.5351568  47.7321163  16.1646762 110.7888423  46.9852036  15.7618424
 106.3760254  31.9377984  26.5365751 107.2391715  31.5814788  26.7469075
 105.8025664  31.5991878  27.2241155 126.2208631  53.5679840  17.3428152
 126.8587041  53.4486587  16.6391492 126.1029473  54.5160684  17.4016104
 123.0298337  53.5207268  17.2789677 122.6916848  53.4048333  16.3910211
 123.8988105  53.1198433  17.2590683 118.8885153  55.3742744  13.2686568
 118.3250018  55.2832681  12.5002855 118.7737548  54.5542649  13.7489060
 123.5118120  54.6742120  23.2375882 123.5006761  54.2794918  22.3656386
 123.6738759  53.9408192  23.8309654 116.4349584  56.8693936  16.1070788
 117.2270876  56.5284761  15.6917087 116.6746235  56.9788911  17.0272941
 124.4684711  59.0413712   8.5801032 123.8172691  59.6267793   8.1935046
 125.2629074  59.5719907   8.6396070 118.3940338  56.1302849   8.9788167
 119.1671214  55.5831836   8.8401043 118.7465737  56.9947099   9.1902628
 120.2325381  57.4579232  22.1855066 119.9415247  58.3624862  22.0701732
 120.8682365  57.4995759  22.8999136 121.1581588  54.8356080  18.7756426
 121.7545160  54.6112102  18.0613389 121.2156559  54.0940826  19.3781874
 120.4502905  54.1923621   8.8130992 120.3339163  53.5168525   9.4812076
 120.5605165  53.7055995   7.9963145 122.7934446  53.6533768  12.5177681
 122.4292653  53.1264389  13.2290602 123.6501562  53.2632237  12.3444166
 128.6983747  44.9428101  19.7808947 128.3667071  45.8123512  19.5570162
 128.1029360  44.6264385  20.4602977 125.1915266  57.1440647  19.1804860
 124.8915989  58.0465686  19.0720667 124.8466326  56.8772830  20.0326013
 118.6427748  53.5954444  15.2141564 117.7178244  53.4630658  15.4219256
 118.8912161  54.3748663  15.7111507 128.5912410  49.6623187  16.8602297
 127.6829287  49.5938596  16.5661058 128.5400006  50.1395132  17.6884123
 116.0036559  53.2387717  16.0485353 116.1328940  53.4922196  16.9624765
 115.3234010  53.8315425  15.7290008 120.1736046  63.9084967  12.1475827
 120.0960076  64.8592792  12.2264308 119.5697689  63.5630840  12.8050754
 122.6653276  51.0812833  24.8037194 121.8886610  51.6406753  24.7940059
 123.3043839  51.5669616  25.3252064 120.9199648  53.8898286  24.3655161
 121.6614332  54.4283330  24.0889985 120.2136633  54.5164575  24.5226713
 126.3954988  56.0327427  22.9627323 126.8038344  55.5909837  22.2181955
 125.6732249  55.4580054  23.2161516 122.7486058  50.9700033  20.3360880
 123.5947253  51.3939447  20.4795529 122.6884695  50.3133658  21.0299443
 126.7183802  56.5928617  16.7179612 126.0892665  56.7574331  16.0155680
 126.3309464  57.0070227  17.4890576 130.5973034  57.5283055  14.0723975
 129.9124072  57.9081956  13.5221009 130.6816883  58.1378382  14.8055923
 125.8985503  48.6304402  21.9942053 125.6546435  49.3846462  21.4576329
 126.1745433  49.0089749  22.8289300 127.8523966  55.1743014  20.6719319
 128.0640861  55.8174774  19.9953700 127.8053714  54.3405331  20.2041249
 125.4550195  47.7860835  17.5755891 124.5934674  48.0842088  17.8672629
 125.4812629  48.0031234  16.6436924 122.2711764  56.3303025  13.9829697
 122.7350110  56.6090728  13.1934319 122.0068562  55.4286470  13.8002787
 119.1635845  55.8774507  16.9209460 119.7337202  56.3061775  16.2826945
 119.7543957  55.5957092  17.6193646 121.2080650  52.4526178  10.7919262
 121.9104693  52.9047221  11.2593188 120.8761279  51.8109997  11.4199155
 119.6561012  51.0437934  25.1670471 119.0259672  51.7254215  25.4005868
 119.5497100  50.9321016  24.2223610 114.9505984  50.7109730  16.0936396
 114.1605038  50.9667259  15.6176506 115.4417231  51.5258068  16.1988436
 128.9669794  58.0514970  18.8441676 129.7887237  57.6495157  18.5624358
 128.9632197  57.9483204  19.7957792 116.9020729  51.0754310  13.0519872
 116.1051893  51.1873004  13.5703368 116.6746322  51.4140962  12.1860763
 122.7326397  57.5999013  21.0002387 122.7970830  58.0619420  21.8360559
 122.0237321  56.9696378  21.1284697 113.2343687  50.9640221  18.5251386
 113.4851726  51.8487231  18.7908962 113.7703235  50.7844822  17.7526478
 122.4474415  59.2667120  10.8681367 122.3120090  60.1118656  11.2966215
 122.9884227  59.4686398  10.1047301 118.9341754  45.3458700  27.5295722
 118.5408700  44.7924899  28.2043367 119.7507895  45.6569279  27.9202240
 115.9003812  56.7842558  11.4409292 116.4128333  57.5785809  11.5914857
 116.5526525  56.0868849  11.3742894 117.7098697  59.9008315  13.5232045
 117.8865325  60.8226279  13.3353029 118.5055530  59.5866734  13.9526425
 121.8509715  46.7616579  25.1215979 122.5919429  47.3623732  25.0420441
 122.0827638  46.0194217  24.5634022 116.9951053  51.9472947  23.3994209
 116.8804569  51.0458204  23.7001308 116.1395571  52.1936643  23.0479025
 124.0742891  59.8890687  24.9981709 123.6306745  59.1027065  24.6802614
 124.7360105  60.0769837  24.3325600 118.8330012  61.4186488  19.5242388
 119.3837437  61.2903552  18.7519382 117.9941488  61.7181377  19.1737281
 126.1724129  60.1693487  23.0263111 126.1542605  60.9902368  22.5343380
 127.0944049  60.0447562  23.2513252 122.6297183  57.6837616  23.8686619
 123.1625520  56.9225904  23.6385927 122.1011264  57.3911268  24.6110773
 113.8652729  55.1131213  12.2168863 114.7027951  55.5228221  12.0002571
 114.0430997  54.1730655  12.1869057 124.8763419  45.1602337  17.3629494
 124.3728214  45.1232473  16.5497299 125.1694026  46.0695080  17.4226151
 121.1206305  45.2441067  16.3695676 121.9859301  45.0483876  16.0101565
 121.1883814  45.0151419  17.2965032 123.9949896  56.8123609  11.3805431
 123.4671258  56.0776368  11.0678668 123.4937399  57.5898285  11.1345399
 128.9742742  55.0072629  16.4972477 128.3166417  55.6971891  16.5852606
 129.7783141  55.3969061  16.8406464 118.7268624  47.4743275  13.7412042
 119.3012376  47.2518457  13.0085235 119.3139606  47.5431970  14.4940644
 125.0470575  63.3401326   7.3037090 124.3732274  63.6433023   7.9122048
 125.4336397  64.1430407   6.9542547 124.2629032  50.8366457  16.7934759
 123.3451593  51.0581404  16.6356448 124.6789175  50.9112768  15.9346467
 128.5509997  58.3423003  12.6755562 128.0972324  57.5013913  12.7320752
 127.9203964  58.9784402  13.0130342 126.9942936  60.1799500  13.6105380
 127.2865911  60.7404557  12.8917745 127.5041557  60.4728061  14.3658539
 113.8878900  52.4521928  12.8879596 113.6903300  51.8591289  12.1630663
 113.3325564  52.1474138  13.6055535 121.8675624  52.3445034  15.0074189
 121.9224234  51.3918871  14.9316666 121.0566826  52.5004474  15.4915488
 119.8067984  50.9622094  12.7664568 118.9935849  51.2616265  13.1729760
 120.3026978  50.5677783  13.4839051 121.9576562  60.9579851  14.6998833
 121.9152740  61.1840697  13.7707365 122.8739260  60.7243226  14.8484634
 125.4042195  51.4263919  21.5979462 125.7591583  51.6535392  22.4573928
 126.0514327  51.7582295  20.9756717 119.2982058  48.5340450  18.3825803
 119.9381438  48.3929209  17.6848767 118.4659589  48.2474963  18.0064405
 131.1609312  56.6158882  17.3140063 131.5945819  56.5234171  18.1623117
 131.8740893  56.5916382  16.6760079 120.0742362  57.8342880  14.4960796
 120.8682961  57.3393200  14.2943371 119.3634055  57.3060743  14.1328501
 124.8937207  60.2160976  18.8473163 124.9474229  60.7851912  19.6150879
 124.0251988  60.3862861  18.4827200 116.3825126  51.9785962  10.5720548
 115.4522714  51.9170417  10.7890510 116.4782598  51.4561915   9.7757190
 116.3010675  48.5040775  13.1598790 116.5617492  49.4186108  13.0507950
 117.1227847  48.0365217  13.3095403 117.7735600  49.9178532  20.3297615
 118.4458654  49.7095894  19.6810263 116.9465387  49.7200618  19.8902847
 132.0224861  56.6582582  19.8472948 132.2160752  57.5628393  20.0932223
 131.9225480  56.1990001  20.6811533 123.6761172  46.5440473  22.3463275
 123.0289087  47.2430422  22.2527752 124.4462188  46.9776617  22.7139524
 127.0839970  56.8089325  25.4213829 126.9325477  56.5799877  24.5043912
 127.0744650  57.7659926  25.4345174 123.8525307  54.3821238  20.4060095
 124.7817367  54.5332397  20.2329062 123.4316337  54.4705259  19.5508742
 122.6513638  58.4071902  18.1758633 122.5124724  58.0390687  19.0484571
 121.8628235  58.9219542  18.0042591 123.2461790  63.5080999   9.5184169
 123.4213546  63.0369042  10.3329792 122.5594578  64.1346765   9.7465430
 124.2018853  57.7853505  15.5647471 123.8668686  57.7454275  16.4605120
 123.7022799  57.1198221  15.0917881 118.1763097  53.1921135  21.0900052
 118.0382895  52.4601374  21.6911591 119.0868021  53.1030035  20.8084239
 120.8045398  52.9041094  20.5783731 121.5145017  52.2634286  20.5370350
 120.7614706  53.1553989  21.5009912 128.7932177  59.8408448  23.4990311
 128.7344723  59.1567668  22.8320894 129.1951695  60.5827438  23.0470937
 119.5174332  49.8906312  22.3979371 118.9811689  49.4397051  23.0500967
 118.9291041  50.0252221  21.6549835 117.8122876  66.6570361  16.2924029
 118.0519474  67.2888886  16.9703048 116.9692072  66.3058401  16.5789389
 128.7949584  57.8048031  21.7304290 127.9076363  57.4673953  21.8530689
 129.3648135  57.0731063  21.9673056 110.4478731  54.1372123  15.0547342
 111.1349771  53.8233853  14.4668357 110.2926860  55.0413488  14.7814593
 115.2513453  49.0262320  19.4832365 115.1671642  48.4187989  18.7482775
 114.4296160  49.5171338  19.4841862 122.3250737  62.4649484  18.6965533
 122.2520909  63.2704455  19.2084838 121.8828131  62.6641450  17.8713555
 122.1140517  61.7021254  12.2068355 121.3308039  62.2442934  12.3006580
 122.8133262  62.2195233  12.6062596 124.7849421  62.3636318  20.8523692
 125.4977393  62.9983783  20.7799594 124.2939450  62.4600184  20.0363694
 126.5066948  56.2687571  12.4240984 125.5723227  56.3889033  12.2545688
 126.6843616  55.3660037  12.1600994 122.0072136  49.6533266  14.5774245
 121.6369923  49.1004307  15.2655151 122.5031228  49.0491400  14.0249245
 119.8361334  60.1130761  21.6729263 120.5370794  60.7467244  21.8258657
 119.3656449  60.4545493  20.9124902 127.6362620  52.6675369  19.4981813
 126.9834071  52.9151276  18.8434266 128.0143000  51.8539507  19.1644291
 124.5969794  62.7035062  13.6009984 124.7792189  61.8856718  14.0637736
 125.4202780  62.9202754  13.1634874 124.9311960  61.6303247  10.8625032
 125.4599726  61.1195702  10.2495194 125.1940179  61.3145777  11.7270565
 123.6850193  53.4095180  25.9847850 123.0090831  53.3089309  26.6550226
 124.5077827  53.2534394  26.4483848 115.4329053  59.6467116  18.6060366
 116.0182489  58.9010804  18.7388270 115.2353891  59.9571073  19.4897030
 118.2867708  62.6818364  13.6222808 117.6178083  63.1664491  13.1386848
 118.1480577  62.9287584  14.5366187 110.0246707  52.2172717  17.3264809
 110.0630807  51.6836307  18.1201927 109.5187000  51.6907922  16.7075786
 122.4272976  64.7162107  20.2205466 122.9791284  64.8793729  20.9854552
 122.7679170  65.3066545  19.5485491 117.4037470  47.0637257  20.8227351
 117.4678796  47.9252088  20.4104749 117.3404590  46.4511259  20.0899710
 116.8789742  49.1360390  24.4700385 117.5061781  48.7537467  25.0837910
 116.0217661  48.9174592  24.8356078 127.2783851  59.5423365  26.0754121
 127.8223755  60.1553323  25.5809076 126.6970696  60.1002943  26.5921134
 113.6555285  50.9436819  10.4018740 113.9508726  50.0347497  10.3485794
 112.7543321  50.9224558  10.0799742 125.5641364  62.6644083  17.2069149
 125.4392503  61.8633823  16.6980094 126.2220455  63.1590276  16.7183118
 117.1849532  49.0192815  16.3846289 116.4636118  49.6328783  16.2453762
 117.9742788  49.5550580  16.3062935 127.6276272  60.4653103  18.8348699
 126.6806608  60.3458454  18.7627025 127.9759045  59.5775601  18.9174960
 119.9875845  46.3547242  22.6586941 120.5110247  46.6009538  23.4213250
 119.7688179  47.1867277  22.2390078 115.3843126  48.6250916  10.5258065
 115.0555833  47.7448295  10.3433171 115.7382497  48.5698585  11.4134455
 124.6322705  60.2605819  15.0353051 124.4847668  59.3322527  15.2160621
 125.4576199  60.2825910  14.5510126 118.4984950  48.9123886  10.8933543
 118.8381022  49.4409807  10.1712151 118.9457070  49.2504292  11.6692110
 128.2356827  61.0834378  16.1217924 129.1603375  60.8777239  15.9842375
 128.0672131  60.8350779  17.0307265 121.1928390  47.2960937  20.3436611
 120.8525211  46.4968750  20.7457291 120.4867397  47.5962648  19.7713444
 121.8444862  44.3810249  18.7963934 122.6670932  43.9070728  18.6742824
 122.0882926  45.1600733  19.2962620 119.3683441  51.0729370  16.6055913
 119.2228022  51.3869673  17.4980194 118.8908645  51.6914270  16.0526811
 121.2279824  48.0631918  16.6536802 121.2141393  47.1673011  16.3169100
 121.9452252  48.0702582  17.2875088 123.0805955  48.4969258  18.6989930
 122.8223732  49.4186329  18.6974260 122.5490995  48.0999693  19.3890394
 128.0252143  61.6020045  11.4780015 128.1989021  61.0366468  10.7253867
 128.5181035  62.4020940  11.2959505 113.8429103  53.6134714  19.5443574
 113.2982571  54.3894522  19.6763848 114.7208453  53.9605519  19.3862695
 114.6295125  52.7404611  22.4373731 113.8876861  52.8887246  23.0238361
 114.3087869  53.0012876  21.5740480 122.5738788  62.2820589  22.2354121
 122.8825914  62.0369736  23.1076820 123.3714270  62.4867227  21.7472991
 122.5959400  64.4358498  14.4659497 122.1564390  63.9434877  15.1592354
 123.3467517  63.8931466  14.2251573 115.0751739  60.6270039  14.4684125
 115.9009759  60.3273811  14.0882769 114.7245791  59.8577662  14.9173914
 120.0433272  59.9796508  16.5381799 119.4213281  59.3167213  16.2384027
 120.7138139  60.0057639  15.8555447 113.2760344  58.5456366  15.4273059
 112.4392252  58.1178540  15.2457060 113.2483989  58.7388809  16.3643850
 120.1157799  48.4578296  26.1314305 120.1645955  49.3340418  25.7492075
 120.6580314  47.9155689  25.5585948 130.6012645  59.0019419  25.4115442
 129.8108189  58.9843558  24.8719941 130.3646000  59.5407713  26.1664479
 130.7210520  55.8511885  22.7248171 130.7708525  55.6861893  23.6663693
 130.6124443  54.9839144  22.3346051 119.6046779  58.5300431  10.0140259
 119.7534899  59.2135895   9.3606932 120.4113222  58.5105521  10.5289715
 128.0114283  51.8342813  24.0407477 128.9124145  51.6949278  23.7491475
 128.0862257  51.9997268  24.9805655 122.3457088  49.2109668  22.8860664
 121.4760397  49.5043234  22.6143252 122.5816568  49.7950113  23.6067927
 132.2228717  58.2708827  22.9690192 131.9313525  58.6338807  23.8053653
 131.6100848  57.5575835  22.7903524 130.4715905  53.3941441  21.4370250
 130.9470027  53.5869088  20.6289101 129.5481471  53.4500627  21.1913634
 117.3599412  54.5565609  11.0201328 117.1145454  53.6527939  11.2181539
 117.5295326  54.5582759  10.0780806 125.0496122  45.4289285  20.4026084
 125.5678066  46.1650312  20.0772573 124.6951254  45.7353278  21.2372843
 116.6295059  50.2893966   8.5187490 115.9364304  50.3638321   7.8627526
 116.3846811  49.5254310   9.0409007 123.1042184  61.0248561   7.4852007
 122.5316151  61.6438748   7.0322479 123.6774978  61.5747923   8.0191929
 129.1717574  50.2707201  19.6698556 130.1234997  50.3705299  19.6910780
 129.0021025  49.4785470  20.1796640 127.1931954  47.3562785  19.8557957
 126.5981886  47.6367797  19.1604445 126.9081650  47.8456686  20.6274698
 131.6505652  53.4913321  18.7840855 131.6181972  52.5529322  18.9700539
 132.2606276  53.5697358  18.0506680 123.3727675  56.4127120  26.2868716
 124.2930685  56.5905719  26.4808763 123.3377258  55.4683166  26.1348416
 112.5909840  51.6065714  15.2121991 112.2712625  50.7531022  14.9196365
 112.0443269  51.8214292  15.9679958 116.3689748  54.3228155  18.9291498
 116.5875758  55.2545263  18.9479531 116.7815522  53.9636129  19.7146301
 121.2417613  49.8961361  28.3194246 121.1414340  50.8455718  28.2506338
 121.0239155  49.5679600  27.4470317 112.4598100  55.2268625  17.1815113
 111.7661572  54.8122578  16.6685067 113.2071091  55.2689162  16.5848532
 121.1048883  53.3258500  27.1359308 120.6215965  54.1258860  27.3423197
 121.1909822  53.3366444  26.1826752 114.3734843  55.1586879  15.0581127
 114.3505531  55.2574566  14.1063011 114.6835479  56.0052030  15.3798294
 117.0322221  57.2163034  19.1727742 117.9865474  57.1846977  19.1057673
 116.8334744  56.7553658  19.9877968 117.6221603  55.7864150  21.7398540
 118.4414492  56.2808229  21.7633377 117.8958411  54.8696118  21.7116107
 115.3872450  62.7582654  16.1897940 115.2526917  61.9983055  15.6235938
 114.9704512  63.4823554  15.7226729 118.5441575  63.6551971  16.4016382
 118.4273960  64.5997403  16.2995073 117.7234022  63.3525532  16.7902182
 112.8756517  50.1202284  22.4390737 113.5215381  49.6101238  22.9277962
 112.6673668  50.8570966  23.0134162 125.4009909  57.1883132  27.9382877
 126.2701069  57.3623784  27.5769512 124.9216661  58.0077548  27.8158607
 119.5696090  64.3080233  19.6172311 120.4723336  64.3403843  19.9338806
 119.3433460  63.3780684  19.6318647 121.3249692  63.0611219  16.2782389
 120.3745323  63.0613081  16.1646762 121.6282178  62.3143954  15.7618424
 117.2154008  47.2669901  26.5365751 118.0785470  46.9106706  26.7469075
 116.6419419  46.9283796  27.2241155 133.8692091  68.8499186  17.2789677
 133.5310603  68.7340250  16.3910211 134.7381860  68.4490351  17.2590683
 129.7278907  70.7034662  13.2686568 129.1643772  70.6124599  12.5002855
 129.6131302  69.8834567  13.7489060 134.3511874  70.0034037  23.2375882
 134.3400515  69.6086836  22.3656386 134.5132514  69.2700110  23.8309654
 127.2743339  72.1985854  16.1070788 128.0664631  71.8576678  15.6917087
 127.5139989  72.3080829  17.0272941 131.0719135  72.7871149  22.1855066
 130.7809001  73.6916780  22.0701732 131.7076120  72.8287677  22.8999136
 131.9975342  70.1647998  18.7756426 132.5938915  69.9404020  18.0613389
 132.0550314  69.4232743  19.3781874 133.6328200  68.9825686  12.5177681
 133.2686408  68.4556307  13.2290602 134.4895316  68.5924155  12.3444166
 136.0309021  72.4732565  19.1804860 135.7309744  73.3757604  19.0720667
 135.6860080  72.2064748  20.0326013 129.4821502  68.9246362  15.2141564
 128.5571999  68.7922576  15.4219256 129.7305915  69.7040581  15.7111507
 126.8430313  68.5679635  16.0485353 126.9722694  68.8214114  16.9624765
 126.1627764  69.1607343  15.7290008 133.5047030  66.4104750  24.8037194
 132.7280364  66.9698671  24.7940059 134.1437593  66.8961533  25.3252064
 131.7593402  69.2190204  24.3655161 132.5008087  69.7575248  24.0889985
 131.0530388  69.8456493  24.5226713 137.2348742  71.3619344  22.9627323
 137.6432098  70.9201755  22.2181955 136.5126004  70.7871972  23.2161516
 133.5879812  66.2991951  20.3360880 134.4341007  66.7231365  20.4795529
 133.5278450  65.6425575  21.0299443 137.5577557  71.9220535  16.7179612
 136.9286419  72.0866249  16.0155680 137.1703219  72.3362144  17.4890576
 136.7379257  63.9596319  21.9942053 136.4940189  64.7138380  21.4576329
 137.0139188  64.3381667  22.8289300 136.2943949  63.1152752  17.5755891
 135.4328428  63.4134006  17.8672629 136.3206384  63.3323151  16.6436924
 133.1105519  71.6594943  13.9829697 133.5743864  71.9382646  13.1934319
 132.8462317  70.7578388  13.8002787 130.0029600  71.2066425  16.9209460
 130.5730957  71.6353693  16.2826945 130.5937712  70.9249009  17.6193646
 132.0474405  67.7818095  10.7919262 132.7498448  68.2339139  11.2593188
 131.7155033  67.1401914  11.4199155 130.4954766  66.3729852  25.1670471
 129.8653427  67.0546133  25.4005868 130.3890854  66.2612934  24.2223610
 125.7899739  66.0401648  16.0936396 124.9998793  66.2959177  15.6176506
 126.2810986  66.8549986  16.1988436 127.7414484  66.4046227  13.0519872
 126.9445647  66.5164922  13.5703368 127.5140076  66.7432880  12.1860763
 133.5720152  72.9290931  21.0002387 133.6364584  73.3911338  21.8360559
 132.8631075  72.2988295  21.1284697 124.0737442  66.2932138  18.5251386
 124.3245480  67.1779148  18.7908962 124.6096990  66.1136740  17.7526478
 129.7735509  60.6750618  27.5295722 129.3802454  60.1216816  28.2043367
 130.5901649  60.9861196  27.9202240 126.7397567  72.1134476  11.4409292
 127.2522087  72.9077726  11.5914857 127.3920279  71.4160766  11.3742894
 132.6903470  62.0908497  25.1215979 133.4313183  62.6915650  25.0420441
 132.9221393  61.3486135  24.5634022 127.8344808  67.2764864  23.3994209
 127.7198323  66.3750121  23.7001308 126.9789326  67.5228561  23.0479025
 134.9136646  75.2182605  24.9981709 134.4700500  74.4318983  24.6802614
 135.5753859  75.4061755  24.3325600 129.6723767  76.7478406  19.5242388
 130.2231192  76.6195469  18.7519382 128.8335243  77.0473295  19.1737281
 133.4690938  73.0129534  23.8686619 134.0019275  72.2517822  23.6385927
 132.9405019  72.7203186  24.6110773 124.7046483  70.4423130  12.2168863
 125.5421705  70.8520139  12.0002571 124.8824751  69.5022573  12.1869057
 135.7157173  60.4894255  17.3629494 135.2121969  60.4524390  16.5497299
 136.0087780  61.3986998  17.4226151 131.9600059  60.5732985  16.3695676
 132.8253056  60.3775793  16.0101565 132.0277568  60.3443337  17.2965032
 129.5662378  62.8035193  13.7412042 130.1406130  62.5810374  13.0085235
 130.1533361  62.8723887  14.4940644 135.1022786  66.1658375  16.7934759
 134.1845348  66.3873322  16.6356448 135.5182930  66.2404686  15.9346467
 124.7272655  67.7813846  12.8879596 124.5297054  67.1883206  12.1630663
 124.1719319  67.4766056  13.6055535 132.7069378  67.6736952  15.0074189
 132.7617988  66.7210789  14.9316666 131.8960580  67.8296391  15.4915488
 130.6461738  66.2914012  12.7664568 129.8329604  66.5908182  13.1729760
 131.1420732  65.8969701  13.4839051 136.2435950  66.7555836  21.5979462
 136.5985338  66.9827309  22.4573928 136.8908081  67.0874213  20.9756717
 130.1375813  63.8632367  18.3825803 130.7775192  63.7221127  17.6848767
 129.3053343  63.5766881  18.0064405 130.9136117  73.1634798  14.4960796
 131.7076715  72.6685118  14.2943371 130.2027809  72.6352661  14.1328501
 135.7330961  75.5452893  18.8473163 135.7867984  76.1143830  19.6150879
 134.8645743  75.7154778  18.4827200 127.2218880  67.3077880  10.5720548
 126.2916468  67.2462335  10.7890510 127.3176352  66.7853832   9.7757190
 127.1404429  63.8332692  13.1598790 127.4011247  64.7478026  13.0507950
 127.9621602  63.3657135  13.3095403 128.6129355  65.2470450  20.3297615
 129.2852408  65.0387812  19.6810263 127.7859141  65.0492536  19.8902847
 134.5154927  61.8732390  22.3463275 133.8682842  62.5722340  22.2527752
 135.2855942  62.3068534  22.7139524 134.6919061  69.7113155  20.4060095
 135.6211121  69.8624315  20.2329062 134.2710091  69.7997176  19.5508742
 133.4907393  73.7363820  18.1758633 133.3518479  73.3682604  19.0484571
 132.7021989  74.2511459  18.0042591 135.0412608  73.1145423  15.5647471
 134.7062441  73.0746192  16.4605120 134.5416554  72.4490138  15.0917881
 129.0156852  68.5213053  21.0900052 128.8776650  67.7893291  21.6911591
 129.9261775  68.4321953  20.8084239 131.6439153  68.2333012  20.5783731
 132.3538771  67.5926204  20.5370350 131.6008461  68.4845907  21.5009912
 130.3568087  65.2198230  22.3979371 129.8205444  64.7688968  23.0500967
 129.7684795  65.3544139  21.6549835 121.2872486  69.4664041  15.0547342
 121.9743525  69.1525771  14.4668357 121.1320614  70.3705406  14.7814593
 126.0907208  64.3554237  19.4832365 126.0065397  63.7479907  18.7482775
 125.2689914  64.8463256  19.4841862 133.1644492  77.7941401  18.6965533
 133.0914663  78.5996373  19.2084838 132.7221885  77.9933367  17.8713555
 135.6243175  77.6928236  20.8523692 136.3371148  78.3275700  20.7799594
 135.1333204  77.7892102  20.0363694 132.8465890  64.9825184  14.5774245
 132.4763678  64.4296224  15.2655151 133.3424983  64.3783317  14.0249245
 130.6755089  75.4422679  21.6729263 131.3764548  76.0759162  21.8258657
 130.2050204  75.7837411  20.9124902 134.5243948  68.7387097  25.9847850
 133.8484585  68.6381227  26.6550226 135.3471582  68.5826311  26.4483848
 126.2722807  74.9759034  18.6060366 126.8576244  74.2302722  18.7388270
 126.0747646  75.2862991  19.4897030 120.8640462  67.5464634  17.3264809
 120.9024561  67.0128225  18.1201927 120.3580755  67.0199840  16.7075786
 133.2666731  80.0454025  20.2205466 133.8185039  80.2085646  20.9854552
 133.6072924  80.6358463  19.5485491 128.2431224  62.3929175  20.8227351
 128.3072551  63.2544006  20.4104749 128.1798344  61.7803176  20.0899710
 127.7183497  64.4652307  24.4700385 128.3455535  64.0829385  25.0837910
 126.8611415  64.2466509  24.8356078 124.4949039  66.2728736  10.4018740
 124.7902480  65.3639415  10.3485794 123.5937075  66.2516476  10.0799742
 128.0243286  64.3484733  16.3846289 127.3029872  64.9620701  16.2453762
 128.8136542  64.8842498  16.3062935 130.8269600  61.6839159  22.6586941
 131.3504002  61.9301456  23.4213250 130.6081933  62.5159194  22.2390078
 126.2236881  63.9542834  10.5258065 125.8949587  63.0740213  10.3433171
 126.5776252  63.8990503  11.4134455 129.3378704  64.2415804  10.8933543
 129.6774777  64.7701725  10.1712151 129.7850825  64.5796210  11.6692110
 132.0322145  62.6252855  20.3436611 131.6918965  61.8260668  20.7457291
 131.3261151  62.9254565  19.7713444 132.6838617  59.7102167  18.7963934
 133.5064686  59.2362645  18.6742824 132.9276680  60.4892651  19.2962620
 130.2077196  66.4021288  16.6055913 130.0621776  66.7161591  17.4980194
 129.7302399  67.0206188  16.0526811 132.0673578  63.3923836  16.6536802
 132.0535147  62.4964929  16.3169100 132.7846007  63.3994499  17.2875088
 133.9199709  63.8261176  18.6989930 133.6617487  64.7478246  18.6974260
 133.3884749  63.4291610  19.3890394 124.6822858  68.9426632  19.5443574
 124.1376326  69.7186440  19.6763848 125.5602208  69.2897437  19.3862695
 125.4688880  68.0696528  22.4373731 124.7270616  68.2179164  23.0238361
 125.1481624  68.3304794  21.5740480 133.4132542  77.6112507  22.2354121
 133.7219669  77.3661653  23.1076820 134.2108024  77.8159145  21.7472991
 125.9145493  75.9561957  14.4684125 126.7403513  75.6565729  14.0882769
 125.5639545  75.1869579  14.9173914 130.8827026  75.3088425  16.5381799
 130.2607036  74.6459130  16.2384027 131.5531893  75.3349557  15.8555447
 124.1154098  73.8748283  15.4273059 123.2786007  73.4470458  15.2457060
 124.0877744  74.0680727  16.3643850 130.9551554  63.7870213  26.1314305
 131.0039709  64.6632336  25.7492075 131.4974068  63.2447606  25.5585948
 133.1850842  64.5401586  22.8860664 132.3154152  64.8335152  22.6143252
 133.4210323  65.1242031  23.6067927 128.1993166  69.8857526  11.0201328
 127.9539208  68.9819856  11.2181539 128.3689081  69.8874677  10.0780806
 135.8889876  60.7581203  20.4026084 136.4071820  61.4942230  20.0772573
 135.5345009  61.0645196  21.2372843 127.4688814  65.6185884   8.5187490
 126.7758059  65.6930239   7.8627526 127.2240566  64.8546227   9.0409007
 134.2121430  71.7419038  26.2868716 135.1324439  71.9197637  26.4808763
 134.1771013  70.7975083  26.1348416 123.4303595  66.9357632  15.2121991
 123.1106379  66.0822940  14.9196365 122.8837023  67.1506210  15.9679958
 127.2083502  69.6520073  18.9291498 127.4269512  70.5837180  18.9479531
 127.6209276  69.2928047  19.7146301 132.0811368  65.2253278  28.3194246
 131.9808095  66.1747635  28.2506338 131.8632910  64.8971517  27.4470317
 123.2991855  70.5560543  17.1815113 122.6055326  70.1414496  16.6685067
 124.0464846  70.5981080  16.5848532 131.9442638  68.6550417  27.1359308
 131.4609719  69.4550777  27.3423197 132.0303577  68.6658362  26.1826752
 125.2128597  70.4878797  15.0581127 125.1899285  70.5866484  14.1063011
 125.5229234  71.3343948  15.3798294 127.8715975  72.5454952  19.1727742
 128.8259229  72.5138894  19.1057673 127.6728499  72.0845576  19.9877968
 128.4615357  71.1156068  21.7398540 129.2808246  71.6100147  21.7633377
 128.7352165  70.1988036  21.7116107 126.2266204  78.0874571  16.1897940
 126.0920672  77.3274972  15.6235938 125.8098266  78.8115471  15.7226729
 129.3835330  78.9843888  16.4016382 129.2667714  79.9289321  16.2995073
 128.5627776  78.6817450  16.7902182 123.7150272  65.4494202  22.4390737
 124.3609135  64.9393156  22.9277962 123.5067423  66.1862883  23.0134162
 136.2403664  72.5175049  27.9382877 137.1094823  72.6915702  27.5769512
 135.7610415  73.3369466  27.8158607 130.4089844  79.6372150  19.6172311
 131.3117091  79.6695761  19.9338806 130.1827214  78.7072601  19.6318647
 128.0547763  62.5961819  26.5365751 128.9179224  62.2398624  26.7469075
 127.4813173  62.2575714  27.2241155 136.9300962  79.6846155  19.4832365
 136.8459151  79.0771825  18.7482775 136.1083669  80.1755173  19.4841862
 136.3082634  83.3988446  22.4373731 135.5664370  83.5471081  23.0238361
 135.9875378  83.6596712  21.5740480 134.5544026  80.7786119  22.4390737
 135.2002890  80.2685073  22.9277962 134.3461177  81.5154801  23.0134162
   6.9850724  77.3891601 108.1209498   6.2314432  76.8198999 107.9653503
   7.1198265  77.3554265 109.0680133   1.0614870  77.5420237 105.2311642
   0.9232768  77.7321833 104.3032831   0.7051088  78.3039620 105.6879693
   1.0884249  79.6096764 110.2422913   1.5220756  79.5172053 111.0905967
   1.8015830  79.5854265 109.6042929   1.9499799  79.6520465 112.7755799
   2.1435689  80.5566275 113.0215073   1.8500417  79.1927884 113.6094384
   3.2041862  76.2094132 109.4203702   3.1931738  77.0918847 109.0497635
   2.3359241  75.8565682 109.2258239   3.8066472  77.3594351 106.0253165
   4.2497618  76.6101676 105.6272288   2.9292982  77.3504487 105.6426897
   0.8393676  81.3624398 103.0347095   1.3645000  81.7011671 102.3096415
   0.7516029  80.4271413 102.8510229   0.6485457  78.8449768 115.6531021
   0.6983462  78.6799775 116.5946544   0.5399381  77.9777027 115.2628902
   2.1503654  81.2646709 115.8973043   1.8588463  81.6276690 116.7336504
   1.5375786  80.5513718 115.7186375   3.3499337  78.8299589 108.4175613
   4.1846228  79.2689393 108.5813173   3.4858465  78.3538242 107.5983859
   1.5780589  76.4851204 111.7123706   1.5456909  75.5467205 111.8983390
   2.1881213  76.5635241 110.9789531   1.7275078  73.2762247 111.7581989
   1.2114126  72.4920704 111.5711918   2.6115026  72.9480964 111.9228508
   7.3957139  77.5467211 110.8529743   8.1260528  77.2852499 111.4137446
   6.7864085  76.8095933 110.8931811   5.4772436  75.6875073 111.4504194
   4.7505600  75.5531038 110.8420685   5.0619723  75.9951902 112.2560912
   3.0950231  71.9086926 108.8037625   3.6894722  71.6682661 108.0930934
   3.1676815  71.1894056 109.4311162   1.0908966  72.4757053 105.0709755
   0.8345900  72.0753689 105.9017963   0.4661834  73.1900847 104.9459894
   5.4021304  75.2153126 107.5781047   4.8420862  75.2846316 108.3512609
   4.7964807  75.0394111 106.8580543   6.9877322  91.8909640 110.2711002
   7.6255732  91.7716388 109.5674342   6.8698165  92.8390484 110.3298954
   3.7967029  91.8437068 110.2072527   3.4585540  91.7278133 109.3193062
   4.6656797  91.4428233 110.1873533   5.2353403  97.3643513 101.5083883
   4.5841383  97.9497593 101.1217897   6.0297766  97.8949707 101.5678920
   1.9250280  93.1585880 111.7039276   2.5213852  92.9341903 110.9896239
   1.9825251  92.4170626 112.3064724   1.4975308  90.6125316  99.5389467
   1.7500829  90.0906837  98.7772930   0.5599867  90.4491461  99.6416151
   6.5418591  89.6161094 107.3464210   7.3281680  89.1980517 106.9954627
   6.8057295  90.5207186 107.5145859   6.7128668  95.0533944 102.0452867
   6.0774501  95.1268571 102.7573772   6.3826075  95.6427543 101.3671946
  11.9427018  89.5536327 108.2497189  12.6752190  88.9835544 108.4835018
  11.1866374  89.1657928 108.6903694   1.2171597  92.5153422 101.7413842
   1.1007855  91.8398325 102.4094926   1.3273857  92.0285796 100.9245995
   3.5603138  91.9763569 105.4460531   3.1961345  91.4494190 106.1573453
   4.4170254  91.5862038 105.2727017   9.4652438  83.2657901 112.7091797
   9.1335763  84.1353312 112.4853012   8.8698052  82.9494185 113.3885828
   3.2008625  87.0053469 100.4421880   3.3683027  87.8733705 100.8092351
   3.0105794  87.1680750  99.5183169   5.9583958  95.4670447 112.1087710
   5.6584681  96.3695486 112.0003517   5.6135017  95.2002631 112.9608863
   9.3581102  87.9852988 109.7885148   8.4497979  87.9168396 109.4943908
   9.3068697  88.4624933 110.6166973   3.1797846  89.4611126 101.4268547
   3.0597471  89.9068177 102.2654027   2.4850434  89.8096444 100.8682085
  11.2242748  86.1869426 111.5663021  10.5817128  86.4801959 110.9202816
  10.7197677  86.0722346 112.3716218   8.8782912  89.9332599 102.2548881
   9.7900768  90.1659986 102.0796578   8.3692559  90.5169643 101.6923959
   3.5154749  89.2929834 113.2643730   4.3615945  89.7169247 113.4078379
   3.4553387  88.6363458 113.9582293   7.4852494  94.9158418 109.6462462
   6.8561356  95.0804132 108.9438530   7.0978156  95.3300027 110.4173426
  11.3641726  95.8512856 107.0006826  10.6792764  96.2311757 106.4503859
  11.4485575  96.4608182 107.7338774   6.6654195  86.9534202 114.9224904
   6.4215127  87.7076263 114.3859180   6.9414125  87.3319550 115.7572151
   8.6192658  93.4972815 113.6002169   8.8309553  94.1404574 112.9236551
   8.5722406  92.6635131 113.1324100   6.2218886  86.1090635 110.5038742
   5.3603366  86.4071889 110.7955479   6.2481321  86.3261034 109.5719774
   3.0380456  94.6532826 106.9112547   3.5018801  94.9320529 106.1217170
   2.7737254  93.7516270 106.7285638   1.9749342  90.7755978 103.7202112
   2.6773385  91.2277022 104.1876039   1.6429970  90.1339797 104.3482006
   9.7338485  96.3744770 111.7724527  10.5555929  95.9724957 111.4907208
   9.7300888  96.2713004 112.7240643  17.8244479  92.7183518 108.1209498
  17.0708187  92.1490917 107.9653503  17.9592020  92.6846183 109.0680133
   3.2143107  97.5896921 103.7964218   3.0788781  98.4348456 104.2249065
   3.7552919  97.7916198 103.0330151   6.5635570  81.1127483 112.3263111
   6.2199840  82.0029124 112.2502222   6.9314533  80.9229140 111.4632696
   6.5285853  91.1036094 100.8335546   6.0132476  91.8740698 101.0723934
   6.2563161  90.4301230 101.4568608   4.1132964  85.9485795 105.8920785
   3.2574560  85.5592645 105.7126423   4.5259916  86.0277755 105.0320570
   5.6432111  83.4832138 110.2912344   5.1396906  83.4462273 109.4780150
   5.9362717  84.3924880 110.3509001   1.8874996  83.5670867 109.2978526
   2.7527993  83.3713676 108.9384416   1.9552505  83.3381219 110.2247883
  11.5020127  93.8568448 102.7688720  10.7249570  93.5179608 102.3243882
  12.1811608  93.8621072 102.0943685   6.3172156  88.9763186 102.6595327
   6.0122292  89.2909335 103.5105471   7.2702598  89.0544606 102.7022660
   4.7618588  95.1353409 104.3088281   4.2339949  94.4006169 103.9961519
   4.2606091  95.9128085 104.0628250   9.7411434  93.3302430 109.4255328
   9.0835108  94.0201691 109.5135456  10.5451833  93.7198862 109.7689314
   8.5516893  91.6846802 107.4759269   9.0648774  92.3176794 107.9780979
   9.2018117  91.0847998 107.1102629   1.7959983  82.6714324 105.3969962
   1.1424396  82.3563342 104.7726577   1.7540457  82.0490065 106.1229785
   2.9071188  92.9533619  97.3123254   1.9998250  92.7222873  97.5114403
   3.4042220  92.1571239  97.4997236   5.8139267 101.6631127 100.2319941
   5.1400966 101.9662823 100.8404898   6.2005089 102.4660207  99.8825398
   5.0297724  89.1596258 109.7217610   4.1120285  89.3811205 109.5639298
   5.4457867  89.2342568 108.8629317   5.8132771  90.5587674 104.8520290
   6.5604590  91.0709071 104.5427412   6.0824361  90.2371726 105.7124684
   4.0859422  93.0546214 101.8347244   3.1770641  92.7705247 101.9319714
   4.1154505  93.4745293 100.9750551   9.3178689  96.6652804 105.6038412
   8.8641016  95.8243714 105.6603603   8.6872656  97.3014202 105.9413192
   8.2611608  87.5944790 106.8339079   7.5234365  87.0822176 107.1649322
   8.5138382  87.1545171 106.0222356   7.7611628  98.5029300 106.5388230
   8.0534603  99.0634358 105.8200596   8.2710249  98.7957861 107.2941389
   8.3623236  80.3721042 107.4280849   8.6682113  79.5118405 107.1406764
   9.0875841  80.9638662 107.2279843   2.6344316  90.6674835 107.9357040
   2.6892925  89.7148671 107.8599516   1.8235518  90.8234274 108.4198338
   3.7835509  94.5954958  99.1735323   3.3454939  93.8790817  98.7140960
   4.5245950  94.8231073  98.6120414   2.7245253  99.2809652 107.6281683
   2.6821432  99.5070498 106.6990215   3.6407952  99.0473026 107.7767485
   6.1710887  89.7493719 114.5262313   6.5260275  89.9765192 115.3856778
   6.8183018  90.0812096 113.9039568  11.9008624  92.8712155 105.2311642
  11.7626523  93.0613751 104.3032831  11.5444843  93.6331538 105.6879693
  11.9278004  94.9388682 110.2422913  12.3614510  94.8463971 111.0905967
  12.6409584  94.9146182 109.6042929  12.7893553  94.9812383 112.7755799
  12.9829443  95.8858193 113.0215073  12.6894171  94.5219802 113.6094384
   4.4429864  84.8670273 115.2746126   3.7957779  85.5660223 115.1810602
   5.2130879  85.3006417 115.6422374   4.6193998  92.7051038 113.3342946
   5.5486058  92.8562198 113.1611913   4.1985028  92.7935059 112.4791592
   4.0130482 101.8310799 102.4467020   4.1882238 101.3598842 103.2612642
   3.3263270 102.4576565 102.6748280   4.9687545  96.1083305 108.4930321
   4.6337378  96.0684075 109.3887971   4.4691491  95.4428021 108.0200731
   7.9046737  93.4539340  98.7667381   7.2875908  92.7286168  98.6700433
   7.4363225  94.2148700  98.4234455   9.5618276  96.1277832 114.6587141
   8.6745055  95.7903754 114.7813540  10.1316827  95.3960863 114.8955906
   2.8809209 100.0251054 105.1351205   2.0976731 100.5672734 105.2289430
   3.5801954 100.5425034 105.5345447   6.1905859  85.8345684 107.7785411
   6.6874559  85.0815646 107.4586481   5.4192840  85.8710000 107.2128620
  14.0435616  91.5386049 109.4203702  14.0325493  92.4210765 109.0497635
  13.1752996  91.1857600 109.2258239   7.2735640  94.5917371 105.3523834
   6.3391918  94.7118833 105.1828539   7.4512308  93.6889838 105.0883844
   2.7740828  87.9763067 107.5057095   2.4038615  87.4234107 108.1938001
   3.2699920  87.3721200 106.9532095  10.6608191  90.4334690 105.8873868
  11.1268643  91.2662682 105.8134171  11.1115692  89.9679672 106.5919127
   8.7284422  96.7778512 102.8860020   9.0044266  96.6635106 103.7953894
   7.8588921  96.3795996 102.8472193   8.6324854  82.8015277 109.9264770
   7.7187934  83.0319504 110.0946977   9.0617955  82.8853721 110.7778802
   8.4031312  90.9905169 112.4264664   7.7502763  91.2381077 111.7717116
   8.7811692  90.1769307 112.0927141   5.3638486 101.0264862 106.5292834
   5.5460881 100.2086518 106.9920586   6.1871472 101.2432555 106.0917724
   5.6980652  99.9533047 103.7907883   6.2268418  99.4425502 103.1778045
   5.9608871  99.6375578 104.6553416   6.3310055 100.9873883 110.1351999
   6.2061195 100.1863623 109.6262944   6.9889147 101.4820077 109.6465969
   8.3944964  98.7882903 111.7631549   7.4475299  98.6688254 111.6909876
   8.7427737  97.9005401 111.8457810   0.7544537  84.6777042 115.5869791
   1.2778939  84.9239339 116.3496100   0.5356870  85.5097077 115.1672928
   5.3991397  98.5835620 107.9635901   5.2516360  97.6552327 108.1443471
   6.2244891  98.6055710 107.4792977   9.0025519  99.4064178 109.0500774
   9.9272066  99.2007040 108.9125225   8.8340822  99.1580579 109.9590116
   1.9597082  85.6190737 113.2719461   1.6193903  84.8198550 113.6740141
   1.2536089  85.9192448 112.6996295   2.6113554  82.7040050 111.7246784
   3.4339623  82.2300528 111.6025675   2.8551618  83.4830533 112.2245471
   1.2521789  85.7328308 102.0209686   1.9730151  86.1109561 101.5173403
   0.6287093  86.4517185 102.1244664   5.3952911  86.4373457 102.9568019
   5.6116526  87.3198095 102.6556847   4.9146979  86.0459671 102.2273661
   1.9948516  86.3861718 109.5819653   1.9810084  85.4902812 109.2451951
   2.7120944  86.3932382 110.2157939   3.8474646  86.8199059 111.6272780
   3.5892424  87.7416129 111.6257111   3.3159687  86.4229493 112.3173244
   8.7920835  99.9249846 104.4062865   8.9657713  99.3596268 103.6536718
   9.2849726 100.7250741 104.2242355   1.3985412  85.2676099 104.8507223
   1.5201323  84.3392745 105.0498110   1.1087454  85.2814785 103.9385538
   4.2676602  82.9531009 107.9873943   4.2898299  83.0170342 107.0325922
   4.6844661  82.1135518 108.1814449  14.6460226  92.6886269 106.0253165
  15.0891372  91.9393594 105.6272288  13.7686737  92.6796405 105.6426897
   9.7796008  99.2416610 101.5059764  10.4746912  99.8623303 101.7247078
  10.1219158  98.3911961 101.7812142  11.6787431  96.6916316 103.0347095
  12.2038755  97.0303588 102.3096415  11.5909783  95.7563331 102.8510229
  11.4879212  94.1741686 115.6531021  11.5377217  94.0091693 116.5946544
  11.3793135  93.3068945 115.2628902   8.7782974  90.1572614 116.9690328
   9.6792837  90.0179079 116.6774326   8.8530949  90.3227068 117.9088505
  12.9897409  96.5938627 115.8973043  12.6982217  96.9568608 116.7336504
  12.3769540  95.8805635 115.7186375  14.1893091  94.1591507 108.4175613
  15.0239982  94.5981311 108.5813173  14.3252220  93.6830160 107.5983859
  11.2384597  91.7171242 114.3653101  11.7138719  91.9098888 113.5571952
  10.3150162  91.7730428 114.1196484   5.8164813  83.7519085 113.3308934
   6.3346757  84.4880112 113.0055423   5.4619946  84.0583079 114.1655694
   6.0677408  80.1719368 108.8509831   6.3479161  79.5042557 109.4770258
   6.8528015  80.3648463 108.3384495   3.8710876  99.3478362 100.4134857
   3.2984843  99.9668549  99.9605329   4.4443670  99.8977723 100.9474779
   9.9386266  88.5937002 112.5981406  10.8903689  88.6935100 112.6193630
   9.7689716  87.8015270 113.1079491   7.9600645  85.6792585 112.7840807
   7.3650578  85.9597598 112.0887296   7.6750342  86.1686486 113.5557548
   7.0908136  99.6315512 101.5443440   8.0238809  99.5661074 101.7476315
   7.0031349 100.4671779 101.0857972   9.7196153  98.9481382  98.5047387
   9.6409784  98.6141246  99.3983145  10.5405819  99.4403150  98.5038860
  12.4174344  91.8143122 111.7123706  12.3850664  90.8759122 111.8983390
  13.0274967  91.8927158 110.9789531   4.2557675  90.6839175  97.7550910
   5.2016779  90.5545383  97.8239328   3.8771920  89.9453836  98.2320338
  12.5668832  88.6054165 111.7581989  12.0507881  87.8212622 111.5711918
  13.4508781  88.2772882 111.9228508  10.2279559  82.3495181 107.7177802
  10.0304380  82.0410269 108.6021134  10.8379265  83.0756819 107.8475732
  18.2350894  92.8759128 110.8529743  18.9654282  92.6144417 111.4137446
  17.6257839  92.1387850 110.8931811  16.3166191  91.0166991 111.4504194
  15.5899354  90.8822956 110.8420685  15.9013478  91.3243820 112.2560912
   2.4400592  88.6089151  97.6905795   1.5332047  88.3122264  97.7668509
   2.7176573  88.3118969  96.8240081   4.0562658  83.1526041 103.8450036
   3.2463386  82.8073126 104.2205282   4.7447074  82.8433584 104.4337648
   5.9853206  82.2304087 105.4674333   6.5384244  82.6499541 106.1264356
   6.2223292  81.3039836 105.5097289   1.2099376  85.4676086  97.8317774
   2.0718540  85.7930984  98.0913592   1.3949721  84.6807582  97.3190840
   9.3632013  84.3404613 104.9752997   8.7830682  84.9989417 104.5931050
   9.0967946  83.5181957 104.5640415   7.8135579  83.7409670 107.1774318
   8.3135358  83.8526205 106.3688636   8.4571187  83.4370723 107.8175126
   8.1456891  86.5004703 104.0309346   7.2582746  86.7854354 103.8129540
   8.5610880  86.3398466 103.1836622  11.4971427  86.5251224 107.7463685
  12.2731817  87.0147676 108.0188302  10.7719561  86.9509278 108.2035554
  13.9343986  87.2378843 108.8037625  14.5288476  86.9974579 108.0930934
  14.0070569  86.5185974 109.4311162   7.2900104  96.2649378  98.1257366
   7.9935954  96.4699380  98.7415021   6.5662753  96.8326140  98.3906449
   8.1197915  92.0159239 104.2459636   8.0633116  92.4727790 103.4067268
   8.6726257  91.2549924 104.0682478  11.9302721  87.8048971 105.0709755
  11.6739655  87.4045606 105.9017963  11.3055589  88.5192765 104.9459894
  16.2415058  90.5445044 107.5781047  15.6814616  90.6138233 108.3512609
  15.6358562  90.3686029 106.8580543   9.1986802  96.7031907 100.1755826
  10.0332406  96.2713105  99.9933300   9.0371145  96.5313921 101.1032720
   8.8532694  93.2064020 101.5412165   8.7981498  93.0408292 100.6000609
   8.2278749  93.9140053 101.6974355   2.1628819  82.7072129 101.1197483
   2.1507489  83.6513969 101.2765754   3.0552241  82.5242275 100.8256944
   5.9780939  79.3014906 105.3743420   5.2113335  78.7473393 105.5200102
   6.3891644  79.3736775 106.2357572  17.8271077 107.2201558 110.2711002
  18.4649487 107.1008305 109.5674342  17.7091920 108.1682402 110.3298954
  14.6360783 107.1728986 110.2072527  14.2979295 107.0570051 109.3193062
  15.5050551 106.7720151 110.1873533  10.4947599 109.0264462 106.1969418
   9.9312464 108.9354399 105.4285706  10.3799994 108.2064367 106.6771910
  16.0747158 112.6935430 101.5083883  15.4235137 113.2789511 101.1217897
  16.8691520 113.2241625 101.5678920  10.0002785 109.7824567 101.9071017
  10.7733661 109.2353554 101.7683893  10.3528184 110.6468817 102.1185479
  12.7644034 108.4877798 111.7039276  13.3607606 108.2633821 110.9896239
  12.8219006 107.7462544 112.3064724  12.3369063 105.9417233  99.5389467
  12.5894583 105.4198755  98.7772930  11.3993622 105.7783379  99.6416151
  17.3812345 104.9453012 107.3464210  18.1675435 104.5272435 106.9954627
  17.6451050 105.8499104 107.5145859  17.5522423 110.3825862 102.0452867
  16.9168256 110.4560489 102.7573772  17.2219829 110.9719461 101.3671946
  22.7820772 104.8828245 108.2497189  23.5145944 104.3127462 108.4835018
  22.0260128 104.4949845 108.6903694  12.0565351 107.8445339 101.7413842
  11.9401609 107.1690243 102.4094926  12.1667611 107.3577713 100.9245995
  14.3996892 107.3055487 105.4460531  14.0355099 106.7786107 106.1573453
  15.2564008 106.9153956 105.2727017  20.3046193  98.5949819 112.7091797
  19.9729518  99.4645230 112.4853012  19.7091806  98.2786103 113.3885828
  14.0402379 102.3345386 100.4421880  14.2076782 103.2025623 100.8092351
  13.8499548 102.4972668  99.5183169  16.7977712 110.7962365 112.1087710
  16.4978435 111.6987404 112.0003517  16.4528772 110.5294548 112.9608863
  10.2490194 107.2476162 108.1424415   9.3240690 107.1152376 108.3502106
  10.4974607 108.0270381 108.6394357  20.1974856 103.3144905 109.7885148
  19.2891733 103.2460314 109.4943908  20.1462452 103.7916850 110.6166973
  14.0191600 104.7903044 101.4268547  13.8991225 105.2360094 102.2654027
  13.3244188 105.1388361 100.8682085  11.7798492 117.5606685 105.0758678
  11.7022522 118.5114511 105.1547158  11.1760136 117.2152558 105.7333604
  22.0636503 101.5161344 111.5663021  21.4210883 101.8093877 110.9202816
  21.5591431 101.4014264 112.3716218  19.7176666 105.2624517 102.2548881
  20.6294522 105.4951904 102.0796578  19.2086313 105.8461561 101.6923959
  14.3548504 104.6221751 113.2643730  15.2009699 105.0461165 113.4078379
  14.2947142 103.9655376 113.9582293  18.3246249 110.2450335 109.6462462
  17.6955111 110.4096049 108.9438530  17.9371911 110.6591945 110.4173426
  22.2035480 111.1804773 107.0006826  21.5186519 111.5603675 106.4503859
  22.2879330 111.7900100 107.7338774  17.5047949 102.2826120 114.9224904
  17.2608881 103.0368180 114.3859180  17.7807880 102.6611467 115.7572151
  19.4586412 108.8264732 113.6002169  19.6703307 109.4696492 112.9236551
  19.4116160 107.9927049 113.1324100  17.0612641 101.4382553 110.5038742
  16.1997120 101.7363806 110.7955479  17.0875076 101.6552952 109.5719774
  13.8774210 109.9824743 106.9112547  14.3412556 110.2612446 106.1217170
  13.6131009 109.0808188 106.7285638  10.7698291 109.5296225 109.8492311
  11.3399649 109.9583493 109.2109795  11.3606403 109.2478810 110.5476496
  12.8143096 106.1047896 103.7202112  13.5167140 106.5568939 104.1876039
  12.4823725 105.4631715 104.3482006   6.5568430 104.3631448 109.0219246
   5.7667484 104.6188977 108.5459357   7.0479678 105.1779786 109.1271287
  20.5732240 111.7036688 111.7724527  21.3949684 111.3016875 111.4907208
  20.5694643 111.6004922 112.7240643   8.5083176 104.7276028 105.9802723
   7.7114339 104.8394722 106.4986218   8.2808768 105.0662680 105.1143613
  28.6638233 108.0475436 108.1209498  27.9101941 107.4782834 107.9653503
  28.7985774 108.0138101 109.0680133  14.0536861 112.9188838 103.7964218
  13.9182536 113.7640374 104.2249065  14.5946674 113.1208116 103.0330151
   7.5066258 110.4364276 104.3692143   8.0190779 111.2307527 104.5197707
   8.1588971 109.7390567 104.3025744  17.4029325  96.4419400 112.3263111
  17.0593594  97.3321042 112.2502222  17.7708287  96.2521058 111.4632696
   5.4715175 108.7652931 105.1451713   6.3090397 109.1749939 104.9285421
   5.6493443 107.8252373 105.1151907  17.3679607 106.4328011 100.8335546
  16.8526231 107.2032616 101.0723934  17.0956916 105.7593148 101.4568608
  14.9526718 101.2777712 105.8920785  14.0968315 100.8884563 105.7126423
  15.3653670 101.3569673 105.0320570  16.4825865  98.8124055 110.2912344
  15.9790661  98.7754191 109.4780150  16.7756472  99.7216798 110.3509001
  12.7268751  98.8962785 109.2978526  13.5921748  98.7005594 108.9384416
  12.7946260  98.6673137 110.2247883  22.3413881 109.1860366 102.7688720
  21.5643324 108.8471526 102.3243882  23.0205362 109.1912989 102.0943685
  17.1565911 104.3055104 102.6595327  16.8516046 104.6201253 103.5105471
  18.1096353 104.3836523 102.7022660  15.6012342 110.4645327 104.3088281
  15.0733704 109.7298086 103.9961519  15.0999845 111.2420003 104.0628250
  20.5805188 108.6594347 109.4255328  19.9228863 109.3493609 109.5135456
  21.3845588 109.0490779 109.7689314  10.3331070 101.1264993 106.6694893
  10.9074822 100.9040175 105.9368086  10.9202052 101.1953688 107.4223494
  19.3910647 107.0138720 107.4759269  19.9042529 107.6468712 107.9780979
  20.0411871 106.4139916 107.1102629  10.6600657 103.1569454 100.6890778
   9.8237969 103.4944141 101.0100053  10.5205427 103.0218434  99.7517915
  12.6353738  98.0006242 105.3969962  11.9818150  97.6855259 104.7726577
  12.5934212  97.3781982 106.1229785  13.7464943 108.2825537  97.3123254
  12.8392004 108.0514791  97.5114403  14.2435975 107.4863156  97.4997236
  16.6533021 116.9923044 100.2319941  15.9794720 117.2954741 100.8404898
  17.0398843 117.7952125  99.8825398  15.8691478 104.4888176 109.7217610
  14.9514039 104.7103123 109.5639298  16.2851622 104.5634486 108.8629317
  16.6526526 105.8879591 104.8520290  17.3998345 106.4000988 104.5427412
  16.9218115 105.5663644 105.7124684  14.9253176 108.3838132 101.8347244
  14.0164395 108.0997165 101.9319714  14.9548260 108.8037211 100.9750551
  20.1572443 111.9944721 105.6038412  19.7034771 111.1535631 105.6603603
  19.5266410 112.6306120 105.9413192  19.1005363 102.9236707 106.8339079
  18.3628120 102.4114094 107.1649322  19.3532137 102.4837089 106.0222356
  18.6005383 113.8321218 106.5388230  18.8928357 114.3926275 105.8200596
  19.1104003 114.1249779 107.2941389  19.2016990  95.7012959 107.4280849
  19.5075867  94.8410323 107.1406764  19.9269595  96.2930580 107.2279843
   5.4941346 106.1043646 105.8162447   5.2965746 105.5113007 105.0913513
   4.9388010 105.7995856 106.5338385  13.4738070 105.9966753 107.9357040
  13.5286680 105.0440589 107.8599516  12.6629272 106.1526192 108.4198338
  14.6229264 109.9246876  99.1735323  14.1848694 109.2082735  98.7140960
  15.3639705 110.1522990  98.6120414  11.4130430 104.6143812 105.6947419
  10.5998296 104.9137983 106.1012611  11.9089424 104.2199501 106.4121901
  13.5639008 114.6101569 107.6281683  13.5215187 114.8362416 106.6990215
  14.4801707 114.3764944 107.7767485  17.0104642 105.0785637 114.5262313
  17.3654029 105.3057110 115.3856778  17.6576773 105.4104014 113.9039568
  22.7402379 108.2004073 105.2311642  22.6020277 108.3905669 104.3032831
  22.3838597 108.9623455 105.6879693  10.9044505 102.1862168 111.3108654
  11.5443884 102.0450927 110.6131617  10.0722035 101.8996681 110.9347256
  22.7671758 110.2680600 110.2422913  23.2008265 110.1755889 111.0905967
  23.4803339 110.2438100 109.6042929  11.6804809 111.4864598 107.4243646
  12.4745407 110.9914918 107.2226221  10.9696501 110.9582461 107.0611352
   7.9887572 105.6307680 103.5003399   7.0585160 105.5692135 103.7173361
   8.0845044 105.1083633 102.7040040   7.9073121 102.1562493 106.0881640
   8.1679938 103.0707826 105.9790801   8.7290293 101.6886935 106.2378253
  23.6287308 110.3104300 112.7755799  23.8223198 111.2150111 113.0215073
  23.5287926 109.8511719 113.6094384  15.2823618 100.1962191 115.2746126
  14.6351534 100.8952141 115.1810602  16.0524634 100.6298335 115.6422374
  15.4587753 108.0342956 113.3342946  16.3879813 108.1854115 113.1611913
  15.0378783 108.1226977 112.4791592  14.8524237 117.1602717 102.4467020
  15.0275992 116.6890760 103.2612642  14.1657025 117.7868483 102.6748280
  15.8081300 111.4375223 108.4930321  15.4731132 111.3975993 109.3887971
  15.3085245 110.7719939 108.0200731  18.7440491 108.7831257  98.7667381
  18.1269662 108.0578085  98.6700433  18.2756980 109.5440618  98.4234455
  10.5339037 103.0016682  97.8888685   9.6568504 102.8805482  97.5250932
  11.0096790 102.2102760  97.6367574  20.4012030 111.4569750 114.6587141
  19.5138809 111.1195671 114.7813540  20.9710581 110.7252781 114.8955906
  13.7202963 115.3542972 105.1351205  12.9370485 115.8964652 105.2289430
  14.4195709 115.8716952 105.5345447  17.0299613 101.1637601 107.7785411
  17.5268313 100.4107564 107.4586481  16.2586595 101.2001918 107.2128620
  24.8829371 106.8677967 109.4203702  24.8719247 107.7502682 109.0497635
  24.0146750 106.5149518 109.2258239  18.1129394 109.9209289 105.3523834
  17.1785673 110.0410751 105.1828539  18.2906063 109.0181755 105.0883844
  13.6134582 103.3054984 107.5057095  13.2432370 102.7526025 108.1938001
  14.1093675 102.7013118 106.9532095  21.5001946 105.7626608 105.8873868
  21.9662398 106.5954599 105.8134171  21.9509446 105.2971589 106.5919127
  19.5678177 112.1070429 102.8860020  19.8438021 111.9927024 103.7953894
  18.6982675 111.7087914 102.8472193  19.4718608  98.1307195 109.9264770
  18.5581688  98.3611422 110.0946977  19.9011710  98.2145639 110.7778802
  19.2425067 106.3197087 112.4264664  18.5896517 106.5672994 111.7717116
  19.6205447 105.5061225 112.0927141  16.2032241 116.3556780 106.5292834
  16.3854635 115.5378436 106.9920586  17.0265227 116.5724472 106.0917724
  16.5374406 115.2824965 103.7907883  17.0662173 114.7717420 103.1778045
  16.8002626 114.9667495 104.6553416   9.0099916 100.7158975 113.7510201
   9.0741242 101.5773806 113.3387599   8.9467036 100.1032977 113.0182560
   5.2617731 104.5958537 103.3301591   5.5571172 103.6869215 103.2768644
   4.3605767 104.5746276 103.0082593  17.1703810 116.3165801 110.1351999
  17.0454949 115.5155541 109.6262944  17.8282901 116.8111994 109.6465969
   8.7911978 102.6714533 109.3129139   8.0698564 103.2850501 109.1736612
   9.5805234 103.2072298 109.2345785  19.2338718 114.1174821 111.7631549
  18.2869054 113.9980172 111.6909876  19.5821491 113.2297319 111.8457810
  11.5938292 100.0068960 115.5869791  12.1172694 100.2531256 116.3496100
  11.3750625 100.8388995 115.1672928   6.9905573 102.2772634 103.4540916
   6.6618279 101.3970013 103.2716022   7.3444943 102.2220303 104.3417305
  16.2385152 113.9127537 107.9635901  16.0910114 112.9844245 108.1443471
  17.0638645 113.9347628 107.4792977  10.1047396 102.5645604 103.8216393
  10.4443468 103.0931526 103.0995002  10.5519516 102.9026010 104.5974960
  19.8419273 114.7356096 109.0500774  20.7665821 114.5298957 108.9125225
  19.6734577 114.4872497 109.9590116  12.7990837 100.9482655 113.2719461
  12.4587657 100.1490468 113.6740141  12.0929843 101.2484366 112.6996295
  13.4507309  98.0331967 111.7246784  14.2733378  97.5592446 111.6025675
  13.6945372  98.8122451 112.2245471  12.0915543 101.0620226 102.0209686
  12.8123906 101.4401479 101.5173403  11.4680847 101.7809103 102.1244664
  16.2346666 101.7665375 102.9568019  16.4510280 102.6490013 102.6556847
  15.7540733 101.3751588 102.2273661  10.9745887 104.7251088 109.5338763
  10.8290468 105.0391391 110.4263045  10.4971091 105.3435988 108.9809662
  12.8342270 101.7153636 109.5819653  12.8203839 100.8194729 109.2451951
  13.5514698 101.7224300 110.2157939  14.6868401 102.1490976 111.6272780
  14.4286179 103.0708047 111.6257111  14.1553441 101.7521411 112.3173244
  19.6314590 115.2541763 104.4062865  19.8051467 114.6888186 103.6536718
  20.1243481 116.0542658 104.2242355  12.2379166 100.5968016 104.8507223
  12.3595077  99.6684662 105.0498110  11.9481209 100.6106702 103.9385538
  15.1070357  98.2822927 107.9873943  15.1292053  98.3462260 107.0325922
  15.5238416  97.4427435 108.1814449  25.4853981 108.0178186 106.0253165
  25.9285127 107.2685512 105.6272288  24.6080491 108.0088323 105.6426897
  20.6189762 114.5708528 101.5059764  21.3140667 115.1915220 101.7247078
  20.9612912 113.7203879 101.7812142  22.5181185 112.0208233 103.0347095
  23.0432509 112.3595506 102.3096415  22.4303538 111.0855249 102.8510229
  22.3272966 109.5033603 115.6531021  22.3770971 109.3383611 116.5946544
  22.2186890 108.6360862 115.2628902  11.2109225 112.1822149 102.9423110
  11.3597345 112.8657613 102.2889783  12.0175669 112.1627239 103.4572566
  19.6176729 105.4864531 116.9690328  20.5186592 105.3470996 116.6774326
  19.6924703 105.6518986 117.9088505  23.8291163 111.9230545 115.8973043
  23.5375972 112.2860525 116.7336504  23.2163295 111.2097553 115.7186375
  25.0286846 109.4883425 108.4175613  25.8633737 109.9273229 108.5813173
  25.1645974 109.0122078 107.5983859  22.0778351 107.0463159 114.3653101
  22.5532473 107.2390806 113.5571952  21.1543917 107.1022345 114.1196484
   8.9661858 108.2087327 103.9484179   8.7207900 107.3049657 104.1464389
   9.1357773 108.2104477 103.0063657  16.6558568  99.0811003 113.3308934
  17.1740512  99.8172030 113.0055423  16.3013701  99.3874996 114.1655694
   8.2357506 103.9415684 101.4470340   7.5426751 104.0160039 100.7910376
   7.9909258 103.1776028 101.9691857  16.9071162  95.5011286 108.8509831
  17.1872916  94.8334475 109.4770258  17.6921769  95.6940381 108.3384495
  14.7104631 114.6770279 100.4134857  14.1378598 115.2960467  99.9605329
  15.2837424 115.2269641 100.9474779  20.7780020 103.9228920 112.5981406
  21.7297443 104.0227017 112.6193630  20.6083471 103.1307188 113.1079491
  18.7994400 101.0084503 112.7840807  18.2044332 101.2889515 112.0887296
  18.5144097 101.4978404 113.5557548  17.9301890 114.9607430 101.5443440
  18.8632564 114.8952991 101.7476315  17.8425103 115.7963696 101.0857972
  20.5589907 114.2773300  98.5047387  20.4803539 113.9433164  99.3983145
  21.3799574 114.7695068  98.5038860  23.2568098 107.1435039 111.7123706
  23.2244418 106.2051040 111.8983390  23.8668722 107.2219076 110.9789531
  15.0951429 106.0131092  97.7550910  16.0410534 105.8837300  97.8239328
  14.7165674 105.2745754  98.2320338  23.4062587 103.9346083 111.7581989
  22.8901635 103.1504539 111.5711918  24.2902535 103.6064799 111.9228508
  21.0673314  97.6787098 107.7177802  20.8698135  97.3702186 108.6021134
  21.6773019  98.4048737 107.8475732  29.0744648 108.2051046 110.8529743
  29.8048037 107.9436334 111.4137446  28.4651594 107.4679768 110.8931811
  27.1559945 106.3458909 111.4504194  26.4293109 106.2114874 110.8420685
  26.7407232 106.6535737 112.2560912  13.2794346 103.9381069  97.6905795
  12.3725802 103.6414181  97.7668509  13.5570327 103.6410887  96.8240081
  14.8956412  98.4817958 103.8450036  14.0857140  98.1365043 104.2205282
  15.5840829  98.1725502 104.4337648  16.8246960  97.5596005 105.4674333
  17.3777999  97.9791459 106.1264356  17.0617047  96.6331753 105.5097289
  12.0493131 100.7968004  97.8317774  12.9112295 101.1222902  98.0913592
  12.2343475 100.0099500  97.3190840  20.2025767  99.6696530 104.9752997
  19.6224436 100.3281334 104.5931050  19.9361700  98.8473875 104.5640415
  18.6529334  99.0701588 107.1774318  19.1529112  99.1818123 106.3688636
  19.2964942  98.7662641 107.8175126  18.9850645 101.8296621 104.0309346
  18.0976500 102.1146271 103.8129540  19.4004634 101.6690384 103.1836622
  22.3365182 101.8543142 107.7463685  23.1125572 102.3439594 108.0188302
  21.6113316 102.2801196 108.2035554  24.7737740 102.5670761 108.8037625
  25.3682231 102.3266497 108.0930934  24.8464324 101.8477891 109.4311162
  18.1293859 111.5941295  98.1257366  18.8329709 111.7991298  98.7415021
  17.4056508 112.1618057  98.3906449  18.9591669 107.3451157 104.2459636
  18.9026871 107.8019708 103.4067268  19.5120012 106.5841841 104.0682478
  22.7696475 103.1340888 105.0709755  22.5133409 102.7337524 105.9017963
  22.1449343 103.8484682 104.9459894  27.0808813 105.8736962 107.5781047
  26.5208371 105.9430151 108.3512609  26.4752316 105.6977946 106.8580543
  20.0380556 112.0323825 100.1755826  20.8726160 111.6005023  99.9933300
  19.8764899 111.8605838 101.1032720  19.6926448 108.5355938 101.5412165
  19.6375252 108.3700209 100.6000609  19.0672504 109.2431971 101.6974355
  13.0022574  98.0364047 101.1197483  12.9901244  98.9805887 101.2765754
  13.8945996  97.8534192 100.8256944  16.8174693  94.6306823 105.3743420
  16.0507089  94.0765310 105.5200102  17.2285398  94.7028692 106.2357572
  28.6664831 122.5493476 110.2711002  29.3043241 122.4300223 109.5674342
  28.5485674 123.4974320 110.3298954  25.4754538 122.5020904 110.2072527
  25.1373049 122.3861968 109.3193062  26.3444306 122.1012069 110.1873533
  21.3341353 124.3556380 106.1969418  20.7706218 124.2646317 105.4285706
  21.2193748 123.5356285 106.6771910  23.6037789 123.8169716 111.7039276
  24.2001361 123.5925738 110.9896239  23.6612760 123.0754461 112.3064724
  23.1762817 121.2709151  99.5389467  23.4288338 120.7490672  98.7772930
  22.2387376 121.1075297  99.6416151  28.2206100 120.2744929 107.3464210
  29.0069189 119.8564353 106.9954627  28.4844804 121.1791022 107.5145859
  28.3916177 125.7117780 102.0452867  27.7562010 125.7852406 102.7573772
  28.0613584 126.3011379 101.3671946  33.6214527 120.2120163 108.2497189
  34.3539699 119.6419379 108.4835018  32.8653883 119.8241763 108.6903694
  22.8959106 123.1737257 101.7413842  22.7795364 122.4982160 102.4094926
  23.0061366 122.6869631 100.9245995  25.2390647 122.6347404 105.4460531
  24.8748854 122.1078025 106.1573453  26.0957763 122.2445873 105.2727017
  31.1439947 113.9241737 112.7091797  30.8123272 114.7937148 112.4853012
  30.5485561 113.6078021 113.3885828  24.8796134 117.6637304 100.4421880
  25.0470536 118.5317540 100.8092351  24.6893303 117.8264586  99.5183169
  27.6371467 126.1254283 112.1087710  27.3372190 127.0279322 112.0003517
  27.2922526 125.8586466 112.9608863  21.0883948 122.5768080 108.1424415
  20.1634445 122.4444294 108.3502106  21.3368362 123.3562299 108.6394357
  31.0368611 118.6436823 109.7885148  30.1285488 118.5752231 109.4943908
  30.9856206 119.1208768 110.6166973  24.8585355 120.1194961 101.4268547
  24.7384980 120.5652012 102.2654027  24.1637943 120.4680279 100.8682085
  32.9030257 116.8453261 111.5663021  32.2604637 117.1385795 110.9202816
  32.3985186 116.7306182 112.3716218  30.5570421 120.5916435 102.2548881
  31.4688277 120.8243821 102.0796578  30.0480068 121.1753479 101.6923959
  25.1942258 119.9513669 113.2643730  26.0403454 120.3753083 113.4078379
  25.1340896 119.2947293 113.9582293  29.1640003 125.5742253 109.6462462
  28.5348865 125.7387967 108.9438530  28.7765665 125.9883863 110.4173426
  33.0429235 126.5096691 107.0006826  32.3580273 126.8895592 106.4503859
  33.1273084 127.1192018 107.7338774  28.3441704 117.6118038 114.9224904
  28.1002636 118.3660098 114.3859180  28.6201634 117.9903385 115.7572151
  30.2980167 124.1556650 113.6002169  30.5097062 124.7988410 112.9236551
  30.2509915 123.3218966 113.1324100  27.9006395 116.7674471 110.5038742
  27.0390875 117.0655724 110.7955479  27.9268830 116.9844869 109.5719774
  24.7167965 125.3116661 106.9112547  25.1806310 125.5904364 106.1217170
  24.4524763 124.4100106 106.7285638  23.6536851 121.4339813 103.7202112
  24.3560894 121.8860857 104.1876039  23.3217479 120.7923632 104.3482006
  17.3962185 119.6923366 109.0219246  16.6061239 119.9480895 108.5459357
  17.8873432 120.5071704 109.1271287  31.4125994 127.0328605 111.7724527
  32.2343438 126.6308793 111.4907208  31.4088397 126.9296839 112.7240643
  19.3476930 120.0567945 105.9802723  18.5508094 120.1686640 106.4986218
  19.1202522 120.3954598 105.1143613  39.5031988 123.3767354 108.1209498
  38.7495696 122.8074752 107.9653503  39.6379529 123.3430018 109.0680133
  28.2423079 111.7711318 112.3263111  27.8987349 112.6612960 112.2502222
  28.6102042 111.5812976 111.4632696  28.2073362 121.7619929 100.8335546
  27.6919985 122.5324534 101.0723934  27.9350670 121.0885065 101.4568608
  25.7920473 116.6069630 105.8920785  24.9362069 116.2176480 105.7126423
  26.2047425 116.6861591 105.0320570  27.3219620 114.1415973 110.2912344
  26.8184415 114.1046108 109.4780150  27.6150226 115.0508716 110.3509001
  23.5662505 114.2254703 109.2978526  24.4315502 114.0297512 108.9384416
  23.6340014 113.9965055 110.2247883  33.1807636 124.5152284 102.7688720
  32.4037079 124.1763443 102.3243882  33.8599117 124.5204907 102.0943685
  27.9959665 119.6347021 102.6595327  27.6909801 119.9493170 103.5105471
  28.9490107 119.7128441 102.7022660  31.4198943 123.9886265 109.4255328
  30.7622617 124.6785526 109.5135456  32.2239342 124.3782697 109.7689314
  21.1724824 116.4556911 106.6694893  21.7468576 116.2332092 105.9368086
  21.7595807 116.5245605 107.4223494  30.2304402 122.3430638 107.4759269
  30.7436283 122.9760630 107.9780979  30.8805626 121.7431833 107.1102629
  21.4994412 118.4861372 100.6890778  20.6631724 118.8236058 101.0100053
  21.3599181 118.3510352  99.7517915  23.4747492 113.3298160 105.3969962
  22.8211905 113.0147177 104.7726577  23.4327966 112.7073900 106.1229785
  24.5858697 123.6117455  97.3123254  23.6785759 123.3806708  97.5114403
  25.0829729 122.8155074  97.4997236  26.7085233 119.8180093 109.7217610
  25.7907794 120.0395040 109.5639298  27.1245376 119.8926404 108.8629317
  27.4920280 121.2171509 104.8520290  28.2392099 121.7292906 104.5427412
  27.7611870 120.8955562 105.7124684  25.7646930 123.7130050 101.8347244
  24.8558150 123.4289082 101.9319714  25.7942014 124.1329128 100.9750551
  30.9966198 127.3236639 105.6038412  30.5428525 126.4827549 105.6603603
  30.3660165 127.9598037 105.9413192  29.9399117 118.2528625 106.8339079
  29.2021874 117.7406011 107.1649322  30.1925891 117.8129007 106.0222356
  30.0410745 111.0304877 107.4280849  30.3469622 110.1702241 107.1406764
  30.7663350 111.6222497 107.2279843  16.3335101 121.4335564 105.8162447
  16.1359501 120.8404924 105.0913513  15.7781765 121.1287774 106.5338385
  24.3131825 121.3258670 107.9357040  24.3680434 120.3732507 107.8599516
  23.5023027 121.4818109 108.4198338  25.4623018 125.2538793  99.1735323
  25.0242448 124.5374652  98.7140960  26.2033459 125.4814908  98.6120414
  22.2524184 119.9435730 105.6947419  21.4392050 120.2429901 106.1012611
  22.7483179 119.5491419 106.4121901  27.8498396 120.4077554 114.5262313
  28.2047784 120.6349028 115.3856778  28.4970527 120.7395931 113.9039568
  33.5796133 123.5295990 105.2311642  33.4414032 123.7197586 104.3032831
  33.2232352 124.2915373 105.6879693  21.7438259 117.5154085 111.3108654
  22.3837639 117.3742845 110.6131617  20.9115790 117.2288599 110.9347256
  33.6065513 125.5972517 110.2422913  34.0402019 125.5047806 111.0905967
  34.3197093 125.5730018 109.6042929  18.8281327 120.9599598 103.5003399
  17.8978915 120.8984053 103.7173361  18.9238799 120.4375550 102.7040040
  18.7466876 117.4854410 106.0881640  19.0073693 118.3999744 105.9790801
  19.5684048 117.0178853 106.2378253  34.4681062 125.6396218 112.7755799
  34.6616952 126.5442028 113.0215073  34.3681680 125.1803637 113.6094384
  26.1217373 115.5254109 115.2746126  25.4745288 116.2244058 115.1810602
  26.8918388 115.9590252 115.6422374  26.2981507 123.3634873 113.3342946
  27.2273567 123.5146033 113.1611913  25.8772537 123.4518894 112.4791592
  29.5834246 124.1123175  98.7667381  28.9663417 123.3870003  98.6700433
  29.1150734 124.8732535  98.4234455  21.3732792 118.3308599  97.8888685
  20.4962258 118.2097400  97.5250932  21.8490545 117.5394678  97.6367574
  31.2405785 126.7861667 114.6587141  30.3532564 126.4487589 114.7813540
  31.8104336 126.0544698 114.8955906  27.8693368 116.4929519 107.7785411
  28.3662068 115.7399481 107.4586481  27.0980349 116.5293836 107.2128620
  35.7223125 122.1969885 109.4203702  35.7113002 123.0794600 109.0497635
  34.8540505 121.8441435 109.2258239  28.9523149 125.2501206 105.3523834
  28.0179427 125.3702669 105.1828539  29.1299817 124.3473673 105.0883844
  24.4528337 118.6346902 107.5057095  24.0826124 118.0817942 108.1938001
  24.9487429 118.0305036 106.9532095  32.3395700 121.0918526 105.8873868
  32.8056152 121.9246517 105.8134171  32.7903201 120.6263507 106.5919127
  30.4071931 127.4362347 102.8860020  30.6831775 127.3218941 103.7953894
  29.5376430 127.0379832 102.8472193  30.3112363 113.4599113 109.9264770
  29.3975443 113.6903339 110.0946977  30.7405464 113.5437557 110.7778802
  30.0818821 121.6489005 112.4264664  29.4290271 121.8964912 111.7717116
  30.4599201 120.8353143 112.0927141  19.8493670 116.0450893 113.7510201
  19.9134997 116.9065724 113.3387599  19.7860791 115.4324894 113.0182560
  16.1011486 119.9250454 103.3301591  16.3964927 119.0161133 103.2768644
  15.1999521 119.9038194 103.0082593  19.6305733 118.0006451 109.3129139
  18.9092318 118.6142419 109.1736612  20.4198988 118.5364216 109.2345785
  22.4332046 115.3360878 115.5869791  22.9566448 115.5823174 116.3496100
  22.2144379 116.1680912 115.1672928  17.8299327 117.6064552 103.4540916
  17.5012033 116.7261931 103.2716022  18.1838698 117.5512221 104.3417305
  20.9441150 117.8937522 103.8216393  21.2837223 118.4223443 103.0995002
  21.3913271 118.2317928 104.5974960  23.6384591 116.2774573 113.2719461
  23.2981412 115.4782386 113.6740141  22.9323597 116.5776284 112.6996295
  24.2901063 113.3623885 111.7246784  25.1127132 112.8884363 111.6025675
  24.5339127 114.1414369 112.2245471  22.9309298 116.3912144 102.0209686
  23.6517660 116.7693396 101.5173403  22.3074602 117.1101020 102.1244664
  27.0740420 117.0957293 102.9568019  27.2904035 117.9781930 102.6556847
  26.5934488 116.7043506 102.2273661  21.8139642 120.0543006 109.5338763
  21.6684223 120.3683309 110.4263045  21.3364845 120.6727906 108.9809662
  23.6736025 117.0445554 109.5819653  23.6597593 116.1486647 109.2451951
  24.3908453 117.0516217 110.2157939  25.5262155 117.4782894 111.6272780
  25.2679933 118.3999965 111.6257111  24.9947196 117.0813328 112.3173244
  23.0772921 115.9259934 104.8507223  23.1988832 114.9976580 105.0498110
  22.7874963 115.9398620 103.9385538  25.9464111 113.6114844 107.9873943
  25.9685808 113.6754178 107.0325922  26.3632170 112.7719353 108.1814449
  36.3247735 123.3470104 106.0253165  36.7678881 122.5977429 105.6272288
  35.4474246 123.3380240 105.6426897  33.3574940 127.3500151 103.0347095
  33.8826264 127.6887424 102.3096415  33.2697292 126.4147166 102.8510229
  33.1666721 124.8325521 115.6531021  33.2164726 124.6675528 116.5946544
  33.0580644 123.9652780 115.2628902  30.4570483 120.8156449 116.9690328
  31.3580346 120.6762914 116.6774326  30.5318458 120.9810904 117.9088505
  34.6684918 127.2522463 115.8973043  34.3769726 127.6152443 116.7336504
  34.0557049 126.5389471 115.7186375  35.8680600 124.8175342 108.4175613
  36.7027491 125.2565146 108.5813173  36.0039729 124.3413995 107.5983859
  32.9172106 122.3755077 114.3653101  33.3926228 122.5682723 113.5571952
  31.9937671 122.4314263 114.1196484  19.8055613 123.5379244 103.9484179
  19.5601655 122.6341574 104.1464389  19.9751527 123.5396395 103.0063657
  27.4952322 114.4102921 113.3308934  28.0134266 115.1463948 113.0055423
  27.1407455 114.7166914 114.1655694  19.0751260 119.2707602 101.4470340
  18.3820505 119.3451957 100.7910376  18.8303012 118.5067946 101.9691857
  27.7464917 110.8303203 108.8509831  28.0266670 110.1626392 109.4770258
  28.5315524 111.0232299 108.3384495  31.6173775 119.2520837 112.5981406
  32.5691198 119.3518935 112.6193630  31.4477225 118.4599106 113.1079491
  29.6388154 116.3376420 112.7840807  29.0438087 116.6181433 112.0887296
  29.3537851 116.8270321 113.5557548  34.0961853 122.4726957 111.7123706
  34.0638173 121.5342958 111.8983390  34.7062476 122.5510994 110.9789531
  25.9345184 121.3423010  97.7550910  26.8804288 121.2129218  97.8239328
  25.5559429 120.6037672  98.2320338  34.2456341 119.2638000 111.7581989
  33.7295390 118.4796457 111.5711918  35.1296290 118.9356717 111.9228508
  31.9067068 113.0079016 107.7177802  31.7091889 112.6994104 108.6021134
  32.5166774 113.7340655 107.8475732  39.9138403 123.5342964 110.8529743
  40.6441791 123.2728252 111.4137446  39.3045348 122.7971686 110.8931811
  37.9953700 121.6750826 111.4504194  37.2686863 121.5406791 110.8420685
  37.5800987 121.9827655 112.2560912  24.1188101 119.2672986  97.6905795
  23.2119556 118.9706099  97.7668509  24.3964082 118.9702804  96.8240081
  25.7350166 113.8109876 103.8450036  24.9250895 113.4656961 104.2205282
  26.4234583 113.5017420 104.4337648  27.6640715 112.8887923 105.4674333
  28.2171753 113.3083376 106.1264356  27.9010801 111.9623671 105.5097289
  22.8886885 116.1259921  97.8317774  23.7506049 116.4514820  98.0913592
  23.0737230 115.3391417  97.3190840  31.0419522 114.9988448 104.9752997
  30.4618191 115.6573252 104.5931050  30.7755455 114.1765793 104.5640415
  29.4923088 114.3993506 107.1774318  29.9922867 114.5110040 106.3688636
  30.1358696 114.0954559 107.8175126  29.8244400 117.1588538 104.0309346
  28.9370255 117.4438189 103.8129540  30.2398389 116.9982302 103.1836622
  33.1758936 117.1835059 107.7463685  33.9519326 117.6731512 108.0188302
  32.4507070 117.6093114 108.2035554  35.6131495 117.8962679 108.8037625
  36.2075985 117.6558414 108.0930934  35.6858078 117.1769809 109.4311162
  29.7985424 122.6743074 104.2459636  29.7420625 123.1311626 103.4067268
  30.3513766 121.9133759 104.0682478  33.6090230 118.4632806 105.0709755
  33.3527164 118.0629442 105.9017963  32.9843098 119.1776600 104.9459894
  37.9202567 121.2028879 107.5781047  37.3602125 121.2722069 108.3512609
  37.3146071 121.0269864 106.8580543  30.8774311 127.3615742 100.1755826
  31.7119915 126.9296941  99.9933300  30.7158654 127.1897756 101.1032720
  30.5320203 123.8647856 101.5412165  30.4769007 123.6992127 100.6000609
  29.9066258 124.5723888 101.6974355  23.8416328 113.3655965 101.1197483
  23.8294998 114.3097804 101.2765754  24.7339750 113.1826110 100.8256944
  27.6568448 109.9598741 105.3743420  26.8900844 109.4057228 105.5200102
  28.0679153 110.0320610 106.2357572  41.9833702 129.2533654 112.7091797
  41.6517027 130.1229065 112.4853012  41.3879315 128.9369938 113.3885828
  43.7424012 132.1745179 111.5663021  43.0998392 132.4677712 110.9202816
  43.2378940 132.0598099 112.3716218  39.0816834 127.1003236 112.3263111
  38.7381103 127.9904877 112.2502222  39.4495796 126.9104893 111.4632696
  38.1613374 129.4707891 110.2912344  37.6578170 129.4338026 109.4780150
  38.4543981 130.3800634 110.3509001  34.4056260 129.5546621 109.2978526
  35.2709257 129.3589429 108.9384416  34.4733769 129.3256972 110.2247883
  34.3141247 128.6590077 105.3969962  33.6605659 128.3439095 104.7726577
  34.2721721 128.0365818 106.1229785  40.8804499 126.3596795 107.4280849
  41.1863376 125.4994158 107.1406764  41.6057104 126.9514415 107.2279843
  41.1506117 128.7891030 109.9264770  40.2369197 129.0195257 110.0946977
  41.5799219 128.8729474 110.7778802  35.1294818 128.6915803 111.7246784
  35.9520887 128.2176281 111.6025675  35.3732881 129.4706287 112.2245471
  36.7857866 128.9406762 107.9873943  36.8079562 129.0046095 107.0325922
  37.2025925 128.1011271 108.1814449  38.3346077 129.7394838 113.3308934
  38.8528021 130.4755865 113.0055423  37.9801210 130.0458832 114.1655694
  38.5858671 126.1595121 108.8509831  38.8660425 125.4918310 109.4770258
  39.3709278 126.3524217 108.3384495  42.7460823 128.3370934 107.7177802
  42.5485644 128.0286022 108.6021134  43.3560528 129.0632573 107.8475732
  36.5743921 129.1401794 103.8450036  35.7644649 128.7948879 104.2205282
  37.2628338 128.8309337 104.4337648  38.5034469 128.2179840 105.4674333
  39.0565508 128.6375294 106.1264356  38.7404556 127.2915589 105.5097289
  41.8813276 130.3280366 104.9752997  41.3011945 130.9865170 104.5931050
  41.6149209 129.5057710 104.5640415  40.3316843 129.7285423 107.1774318
  40.8316621 129.8401958 106.3688636  40.9752451 129.4246476 107.8175126
  46.4525249 133.2254596 108.8037625  47.0469740 132.9850332 108.0930934
  46.5251833 132.5061727 109.4311162  34.6810083 128.6947882 101.1197483
  34.6688753 129.6389722 101.2765754  35.5733505 128.5118028 100.8256944
  38.4962202 125.2890659 105.3743420  37.7294598 124.7349146 105.5200102
  38.9072907 125.3612528 106.2357572   6.9850725  54.3953723  94.8454805
   6.2314434  53.8261121  94.6898809   7.1198267  54.3616388  95.7925440
   1.0614871  54.5482360  91.9556948   0.9232769  54.7383956  91.0278137
   0.7051090  55.3101743  92.4124999   1.0884250  56.6158887  96.9668220
   1.5220757  56.5234176  97.8151274   1.8015831  56.5916387  96.3288236
   1.9499800  56.6582588  99.5001105   2.1435690  57.5628398  99.7460380
   1.8500418  56.1990007 100.3339690   3.2041863  53.2156254  96.1449009
   3.1931739  54.0980970  95.7742942   2.3359243  52.8627805  95.9503546
   3.8066473  54.3656474  92.7498472   4.2497619  53.6163799  92.3517595
   2.9292983  54.3566610  92.3672204   0.8393678  58.3686521  89.7592401
   1.3645002  58.7073793  89.0341721   0.7516030  57.4333536  89.5755536
   0.6485459  55.8511891 102.3776328   0.6983464  55.6861898 103.3191850
   0.5399382  54.9839150 101.9874208   2.1503656  58.2708832 102.6218349
   1.8588464  58.6338813 103.4581810   1.5375787  57.5575840 102.4431681
   3.3499338  55.8361712  95.1420919   4.1846229  56.2751516  95.3058480
   3.4858467  55.3600365  94.3229165   1.5780591  53.4913326  98.4369012
   1.5456911  52.5529327  98.6228696   2.1881214  53.5697363  97.7034837
   1.7275079  50.2824370  98.4827296   1.2114128  49.4982827  98.2957224
   2.6115028  49.9543087  98.6473815   7.3957140  54.5529333  97.5775049
   8.1260529  54.2914621  98.1382753   6.7864086  53.8158055  97.6177117
   5.4772438  52.6937196  98.1749500   4.7505601  52.5593161  97.5665992
   5.0619724  53.0014025  98.9806218   3.0950232  48.9149048  95.5282932
   3.6894723  48.6744784  94.8176240   3.1676816  48.1956179  96.1556468
   1.0908967  49.4819176  91.7955062   0.8345902  49.0815811  92.6263270
   0.4661835  50.1962970  91.6705201   5.4021305  52.2215249  94.3026353
   4.8420863  52.2908438  95.0757915   4.7964809  52.0456234  93.5825849
   6.9877324  68.8971763  96.9956309   7.6255734  68.7778510  96.2919649
   6.8698167  69.8452607  97.0544261   3.7967030  68.8499191  96.9317834
   3.4585541  68.7340256  96.0438369   4.6656798  68.4490356  96.9118840
   4.2786813  70.0034043 102.8904039   4.2675454  69.6086841 102.0184543
   4.4407452  69.2700115 103.4837811   5.2353404  74.3705635  88.2329190
   4.5841384  74.9559716  87.8463203   6.0297767  74.9011830  88.2924227
   0.9994074  72.7871155 101.8383223   0.7083940  73.6916785 101.7229889
   1.6351058  72.8287682 102.5527293   1.9250281  70.1648003  98.4284583
   2.5213853  69.9404025  97.7141546   1.9825252  69.4232749  99.0310031
   1.4975309  67.6187438  86.2634774   1.7500830  67.0968960  85.5018237
   0.5599868  67.4553584  86.3661457   6.5418592  66.6223217  94.0709517
   7.3281681  66.2042640  93.7199934   6.8057296  67.5269309  94.2391165
   6.7128669  72.0596067  88.7698174   6.0774502  72.1330694  89.4819078
   6.3826076  72.6489666  88.0917253  11.9427019  66.5598450  94.9742496
  12.6752191  65.9897667  95.2080325  11.1866375  66.1720050  95.4149001
   1.2171598  69.5215544  88.4659149   1.1007856  68.8460448  89.1340233
   1.3273858  69.0347918  87.6491302   3.5603139  68.9825691  92.1705838
   3.1961346  68.4556312  92.8818759   4.4170255  68.5924160  91.9972323
   9.4652440  60.2720024  99.4337104   9.1335764  61.1415435  99.2098319
   8.8698053  59.9556308 100.1131135   3.2008626  64.0115591  87.1667186
   3.3683028  64.8795828  87.5337658   3.0105795  64.1742873  86.2428476
   5.9583959  72.4732570  98.8333017   5.6584682  73.3757609  98.7248824
   5.6135019  72.2064753  99.6854170   9.3581103  64.9915110  96.5130454
   8.4497980  64.9230519  96.2189215   9.3068699  65.4687055  97.3412280
   3.1797847  66.4673249  88.1513853   3.0597472  66.9130299  88.9899334
   2.4850435  66.8158566  87.5927391   3.4321969  66.4104756 104.4565351
   2.6555303  66.9698676 104.4468216   4.0712532  66.8961539 104.9780222
  11.2242749  63.1931549  98.2908328  10.5817130  63.4864082  97.6448123
  10.7197678  63.0784469  99.0961525   8.8782913  66.9394722  88.9794187
   9.7900769  67.1722109  88.8041885   8.3692560  67.5231766  88.4169266
   1.6868341  69.2190209 104.0183318   2.4283025  69.7575253 103.7418142
   0.9805326  69.8456498 104.1754870   7.1623681  71.3619350 102.6155480
   7.5707037  70.9201760 101.8710112   6.4400942  70.7871977 102.8689673
   3.5154751  66.2991956  99.9889037   4.3615946  66.7231370 100.1323686
   3.4553388  65.6425581 100.6827600   7.4852495  71.9220540  96.3707769
   6.8561358  72.0866254  95.6683837   7.0978157  72.3362150  97.1418733
  11.3641727  72.8574978  93.7252133  10.6792765  73.2373879  93.1749166
  11.4485577  73.4670305  94.4584080   6.6654196  63.9596325 101.6470211
   6.4215128  64.7138385 101.1104486   6.9414127  64.3381672 102.4817458
   8.6192659  70.5034937 100.3247476   8.8309554  71.1466697  99.6481857
   8.5722407  69.6697254  99.8569406   6.2218888  63.1152758  97.2284048
   5.3603367  63.4134011  97.5200786   6.2481322  63.3323157  96.2965081
   3.0380457  71.6594948  93.6357854   3.5018803  71.9382651  92.8462476
   2.7737255  70.7578393  93.4530945   1.9749343  67.7818101  90.4447419
   2.6773387  68.2339144  90.9121345   1.6429972  67.1401920  91.0727312
   9.7338487  73.3806893  98.4969833  10.5555930  72.9787080  98.2152515
   9.7300890  73.2775127  99.4485949   3.4995090  72.9290936 100.6530544
   3.5639523  73.3911343 101.4888716   2.7906014  72.2988301 100.7812854
  17.8244480  69.7245641  94.8454805  17.0708188  69.1553039  94.6898809
  17.9592021  69.6908306  95.7925440   3.2143108  74.5959043  90.5209524
   3.0788783  75.4410579  90.9494372   3.7552920  74.7978321  89.7575458
   2.6178408  62.0908502 104.7744136   3.3588122  62.6915655 104.6948599
   2.8496331  61.3486140 104.2162179   4.8411584  75.2182610 104.6509866
   4.3975438  74.4318988 104.3330771   5.5028798  75.4061760 103.9853757
   6.9392822  75.4985410 102.6791268   6.9211298  76.3194291 102.1871537
   7.8612742  75.3739485 102.9041409   3.3965876  73.0129539 103.5214776
   3.9294213  72.2517827 103.2914084   2.8679958  72.7203191 104.2638930
   6.5635571  58.1189605  99.0508418   6.2199841  59.0091247  98.9747528
   6.9314534  57.9291263  98.1878003   6.5285854  68.1098216  87.5580853
   6.0132478  68.8802821  87.7969240   6.2563163  67.4363352  88.1813914
   4.1132965  62.9547917  92.6166091   3.2574562  62.5654767  92.4371730
   4.5259917  63.0339878  91.7565877   5.6432112  60.4894260  97.0157651
   5.1396907  60.4524396  96.2025456   5.9362719  61.3987003  97.0754308
   1.8874998  60.5732990  96.0223833   2.7527994  60.3775799  95.6629722
   1.9552507  60.3443342  96.9493189  11.5020128  70.8630571  89.4934026
  10.7249571  70.5241730  89.0489188  12.1811609  70.8683194  88.8188991
   6.3172157  65.9825308  89.3840634   6.0122293  66.2971458  90.2350777
   7.2702599  66.0606728  89.4267967   4.7618589  72.1415532  91.0333588
   4.2339951  71.4068291  90.7206825   4.2606092  72.9190208  90.7873556
   9.7411435  70.3364552  96.1500634   9.0835110  71.0263814  96.2380763
  10.5451834  70.7260984  96.4934621   8.5516894  68.6908925  94.2004576
   9.0648776  69.3238917  94.7026286   9.2018118  68.0910120  93.8347936
   1.7959984  59.6776447  92.1215269   1.1424397  59.3625464  91.4971884
   1.7540459  59.0552187  92.8475092   2.9071189  69.9595742  84.0368561
   1.9998251  69.7284995  84.2359710   3.4042221  69.1633361  84.2242543
   5.8139268  78.6693249  86.9565247   5.1400967  78.9724946  87.5650205
   6.2005090  79.4722330  86.6070704   5.0297725  66.1658380  96.4462917
   4.1120286  66.3873327  96.2884605   5.4457868  66.2404691  95.5874624
   5.8132773  67.5649796  91.5765597   6.5604592  68.0771193  91.2672719
   6.0824362  67.2433849  92.4369990   4.0859423  70.0608337  88.5592551
   3.1770642  69.7767370  88.6565021   4.1154507  70.4807415  87.6995858
   9.3178690  73.6714926  92.3283719   8.8641017  72.8305836  92.3848909
   8.6872657  74.3076325  92.6658499   8.2611610  64.6006912  93.5584386
   7.5234367  64.0884299  93.8894629   8.5138383  64.1607294  92.7467663
   7.7611629  75.5091423  93.2633537   8.0534604  76.0696480  92.5445902
   8.2710250  75.8019984  94.0186696   8.3623237  57.3783164  94.1526155
   8.6682114  56.5180528  93.8652070   9.0875842  57.9700785  93.9525149
   2.6344317  67.6736957  94.6602346   2.6892927  66.7210794  94.5844823
   1.8235519  67.8296397  95.1443645   3.7835511  71.6017081  85.8980630
   3.3454941  70.8852939  85.4386267   4.5245951  71.8293195  85.3365721
   2.7245255  76.2871774  94.3526990   2.6821433  76.5132620  93.4235522
   3.6407953  76.0535149  94.5012791   6.1710888  66.7555842 101.2507619
   6.5260276  66.9827315 102.1102085   6.8183020  67.0874218 100.6284875
  11.9008625  69.8774278  91.9556948  11.7626524  70.0675874  91.0278137
  11.5444844  70.6393660  92.4124999  11.9278005  71.9450805  96.9668220
  12.3614512  71.8526094  97.8151274  12.6409586  71.9208305  96.3288236
   5.6605900  75.5452899  98.5001320   5.7142922  76.1143835  99.2679036
   4.7920681  75.7154784  98.1355358  12.7893555  71.9874505  99.5001105
  12.9829445  72.8920316  99.7460380  12.6894173  71.5281924 100.3339690
   4.4429865  61.8732396 101.9991433   3.7957780  62.5722345 101.9055909
   5.2130881  62.3068540 102.3667681   7.8508663  72.1381248 105.0741986
   7.6994170  71.9091800 104.1572069   7.8413343  73.0951849 105.0873331
   4.6194000  69.7113161 100.0588252   5.5486060  69.8624320  99.8857220
   4.1985030  69.7997182  99.2036899   3.4182331  73.7363825  97.8286790
   3.2793417  73.3682610  98.7012728   2.6296928  74.2511465  97.6570748
   4.0130483  78.8372922  89.1712326   4.1882239  78.3660965  89.9857949
   3.3263271  79.4638688  89.3993587   4.9687547  73.1145428  95.2175628
   4.6337379  73.0746198  96.1133278   4.4691492  72.4490144  94.7446038
   7.9046738  70.4601462  85.4912687   7.2875909  69.7348290  85.3945740
   7.4363227  71.2210822  85.1479762   1.5714091  68.2333017 100.2311888
   2.2813710  67.5926209 100.1898507   1.5283399  68.4845912 101.1538069
   9.5600870  75.1700371 103.1518468   9.5013416  74.4859591 102.4849051
   9.9620388  75.9119361 102.6999094   9.5618277  73.1339954 101.3832447
   8.6745056  72.7965876 101.5058846  10.1316828  72.4022986 101.6201213
   3.0919431  77.7941407  98.3493691   3.0189602  78.5996378  98.8612995
   2.6496824  77.9933373  97.5241712   2.8809210  77.0313177  91.8596512
   2.0976732  77.5734857  91.9534737   3.5801955  77.5487156  92.2590753
   6.1905860  62.8407806  94.5030717   6.6874560  62.0877769  94.1831788
   5.4192842  62.8772123  93.9373927  14.0435618  68.5448172  96.1449009
  14.0325494  69.4272887  95.7742942  13.1752997  68.1919723  95.9503546
   5.5518114  77.6928241 100.5051849   6.2646086  78.3275706 100.4327751
   5.0608143  77.7892107  99.6891851   7.2735641  71.5979494  92.0769141
   6.3391920  71.7180956  91.9073845   7.4512309  70.6951960  91.8129151
   2.7740829  64.9825189  94.2302402   2.4038617  64.4296230  94.9183308
   3.2699921  64.3783323  93.6777402  10.6608192  67.4396813  92.6119175
  11.1268644  68.2724804  92.5379478  11.1115693  66.9741794  93.3164433
   8.7284423  73.7840634  89.6105327   9.0044267  73.6697229  90.5199201
   7.8588922  73.3858119  89.5717500   8.6324855  59.8077400  96.6510076
   7.7187935  60.0381627  96.8192283   9.0617956  59.8915844  97.5024109
   8.4031314  67.9967292  99.1509970   7.7502764  68.2443199  98.4962423
   8.7811693  67.1831430  98.8172448   5.3638487  78.0326985  93.2538141
   5.5460882  77.2148641  93.7165893   6.1871473  78.2494677  92.8163031
   5.6980653  76.9595170  90.5153189   6.2268419  76.4487625  89.9023351
   5.9608872  76.6437700  91.3798722   4.4518887  68.7387103 105.6376007
   3.7759524  68.6381232 106.3078383   5.2746520  68.5826317 106.1012005
   3.1941669  80.0454030  99.8733623   3.7459977  80.2085652 100.6382709
   3.5347863  80.6358468  99.2013648   8.0452544  74.8715288 105.7282278
   8.5892448  75.4845246 105.2337233   7.4639389  75.4294866 106.2449291
   6.3310057  77.9936006  96.8597306   6.2061196  77.1925746  96.3508251
   6.9889148  78.4882199  96.3711276   8.3944965  75.7945026  98.4876856
   7.4475301  75.6750377  98.4155182   8.7427738  74.9067524  98.5703117
   0.7544538  61.6839165 102.3115098   1.2778940  61.9301461 103.0741407
   0.5356872  62.5159200 101.8918235   5.3991398  75.5897742  94.6881208
   5.2516361  74.6614450  94.8688778   6.2244892  75.6117833  94.2038283
   9.0025520  76.4126301  95.7746081   9.9272068  76.2069162  95.6370532
   8.8340824  76.1642702  96.6835422   1.9597084  62.6252860  99.9964768
   1.6193904  61.8260673 100.3985448   1.2536090  62.9254571  99.4241601
   2.6113555  59.7102172  98.4492091   3.4339625  59.2362651  98.3270981
   2.8551619  60.4892656  98.9490777   1.2521790  62.7390431  88.7454993
   1.9730152  63.1171684  88.2418710   0.6287094  63.4579308  88.8489971
   5.3952913  63.4435580  89.6813325   5.6116527  64.3260218  89.3802153
   4.9146980  63.0521793  88.9518967   1.9948517  63.3923841  96.3064959
   1.9810086  62.4964934  95.9697257   2.7120945  63.3994505  96.9403245
   3.8474648  63.8261181  98.3518087   3.5892426  64.7478252  98.3502417
   3.3159688  63.4291616  99.0418551   8.7920836  76.9311968  91.1308172
   8.9657714  76.3658391  90.3782025   9.2849728  77.7312863  90.9487662
   1.3985413  62.2738221  91.5752529   1.5201324  61.3454867  91.7743417
   1.1087455  62.2876907  90.6630845   4.2676603  59.9593132  94.7119249
   4.2898300  60.0232465  93.7571229   4.6844662  59.1197640  94.9059755
  14.6460228  69.6948391  92.7498472  15.0891374  68.9455716  92.3517595
  13.7686738  69.6858528  92.3672204   9.7796009  76.2478733  88.2305070
  10.4746914  76.8685425  88.4492385  10.1219159  75.3974084  88.5057448
  11.6787432  73.6978438  89.7592401  12.2038756  74.0365711  89.0341721
  11.5909785  72.7625454  89.5755536   3.3407481  77.6112512 101.8882278
   3.6494607  77.3661659 102.7604977   4.1382963  77.8159150 101.4001148
   3.3628093  79.7650421  94.1187654   2.9233083  79.2726800  94.8120511
   4.1136210  79.2223389  93.8779730   0.8826492  63.7870219 105.7842462
   0.9314648  64.6632341 105.4020232   1.4249007  63.2447612 105.2114105
  11.3681338  74.3311342 105.0643599  10.5776882  74.3135481 104.5248099
  11.1314693  74.8699636 105.8192636  11.4879213  71.1803808 102.3776328
  11.5377218  71.0153816 103.3191850  11.3793137  70.3131067 101.9874208
   8.7782976  67.1634736 103.6935634   9.6792838  67.0241201 103.4019632
   8.8530950  67.3289191 104.6333812   3.1125781  64.5401591 102.5388821
   2.2429090  64.8335157 102.2671409   3.3485261  65.1242036 103.2596084
  12.9897410  73.6000750 102.6218349  12.6982218  73.9630730 103.4581810
  12.3769541  72.8867758 102.4431681  14.1893092  71.1653630  95.1420919
  15.0239984  71.6043434  95.3058480  14.3252221  70.6892283  94.3229165
  11.2384598  68.7233364 101.0898407  11.7138720  68.9161011 100.2817259
  10.3150164  68.7792550 100.8441791   5.8164815  60.7581208 100.0554241
   6.3346759  61.4942235  99.7300730   5.4619948  61.0645201 100.8901000
   6.0677409  57.1781490  95.5755138   6.3479163  56.5104680  96.2015564
   6.8528016  57.3710586  95.0629802   3.8710877  76.3540484  87.1380164
   3.2984844  76.9730672  86.6850636   4.4443671  76.9039846  87.6720086
   9.9386267  65.5999124  99.3226713  10.8903690  65.6997222  99.3438937
   9.7689718  64.8077393  99.8324797   7.9600647  62.6854708  99.5086114
   7.3650579  62.9659720  98.8132602   7.6750343  63.1748609 100.2802855
   7.0908137  76.6377635  88.2688746   8.0238810  76.5723196  88.4721622
   7.0031350  77.4733901  87.8103279   9.7196154  75.9543505  85.2292694
   9.6409785  75.6203368  86.1228452  10.5405821  76.4465273  85.2284166
  12.4174345  68.8205244  98.4369012  12.3850665  67.8821245  98.6228696
  13.0274969  68.8989281  97.7034837   4.2557676  67.6901297  84.4796216
   5.2016781  67.5607505  84.5484635   3.8771921  66.9515959  84.9565645
  12.5668834  65.6116288  98.4827296  12.0507882  64.8274744  98.2957224
  13.4508782  65.2835004  98.6473815  10.2279560  59.3557303  94.4423108
  10.0304382  59.0472391  95.3266440  10.8379266  60.0818942  94.5721038
  18.2350895  69.8821251  97.5775049  18.9654283  69.6206539  98.1382753
  17.6257840  69.1449973  97.6177117  16.3166192  68.0229114  98.1749500
  15.5899356  67.8885079  97.5665992  15.9013479  68.3305942  98.9806218
   4.1396368  71.7419043 105.9396873   5.0599378  71.9197642 106.1336920
   4.1045951  70.7975089 105.7876573   2.4400593  65.6151274  84.4151102
   1.5332048  65.3184386  84.4913815   2.7176574  65.3181092  83.5485388
   4.0562659  60.1588163  90.5695343   3.2463387  59.8135248  90.9450589
   4.7447076  59.8495707  91.1582955   5.9853207  59.2366210  92.1919640
   6.5384246  59.6561663  92.8509663   6.2223293  58.3101958  92.2342596
   2.0086306  65.2253284 107.9722404   1.9083033  66.1747641 107.9034495
   1.7907848  64.8971523 107.0998474   1.2099378  62.4738209  84.5563081
   2.0718542  62.7993107  84.8158898   1.3949722  61.6869705  84.0436147
   9.3632014  61.3466735  91.6998304   8.7830683  62.0051539  91.3176356
   9.0967947  60.5244080  91.2885721   7.8135581  60.7471793  93.9019624
   8.3135359  60.8588327  93.0933943   8.4571188  60.4432846  94.5420433
   1.8717576  68.6550423 106.7887465   1.3884658  69.4550783 106.9951354
   1.9578515  68.6658367 105.8354909   8.1456892  63.5066826  90.7554652
   7.2582747  63.7916476  90.5374847   8.5610881  63.3460589  89.9081929
  11.4971428  63.5313347  94.4708991  12.2731818  64.0209799  94.7433608
  10.7719562  63.9571401  94.9280861  13.9343987  64.2440966  95.5282932
  14.5288478  64.0036702  94.8176240  14.0070571  63.5248096  96.1556468
   7.2900106  73.2711500  84.8502672   7.9935956  73.4761503  85.4660328
   6.5662754  73.8388262  85.1151756   8.1197916  69.0221362  90.9704942
   8.0633117  69.4789913  90.1312575   8.6726258  68.2612046  90.7927785
  11.9302722  64.8111093  91.7955062  11.6739656  64.4107729  92.6263270
  11.3055590  65.5254887  91.6705201  16.2415060  67.5507167  94.3026353
  15.6814618  67.6200356  95.0757915  15.6358563  67.3748151  93.5825849
   9.1986803  73.7094029  86.9001132  10.0332407  73.2775228  86.7178607
   9.0371146  73.5376043  87.8278027   8.8532695  70.2126143  88.2657472
   8.7981499  70.0470414  87.3245916   8.2278750  70.9202176  88.4219661
   6.1678602  72.5175055 107.5911034   7.0369762  72.6915707 107.2297669
   5.6885354  73.3369471 107.4686764   2.1628821  59.7134252  87.8442790
   2.1507491  60.6576092  88.0011061   3.0552243  59.5304397  87.5502251
   2.0918385  78.3903142  95.9310547   1.1414016  78.3905004  95.8174919
   2.3950871  77.6435877  95.4146581   5.9780940  56.3077028  92.0988727
   5.2113336  55.7535515  92.2445409   6.3891645  56.3798897  92.9602878
  17.8271078  84.2263681  96.9956309  18.4649488  84.1070428  96.2919649
  17.7091921  85.1744525  97.0544261  14.6360784  84.1791109  96.9317834
  14.2979296  84.0632173  96.0438369  15.5050553  83.7782274  96.9118840
  10.4947600  86.0326585  92.9214725   9.9312465  85.9416522  92.1531012
  10.3799995  85.2126490  93.4017217  15.1180567  85.3325960 102.8904039
  15.1069208  84.9378759 102.0184543  15.2801207  84.5992033 103.4837811
   8.0412032  87.5277777  95.7598945   8.8333324  87.1868601  95.3445244
   8.2808682  87.6372752  96.6801098  16.0747159  89.6997553  88.2329190
  15.4235139  90.2851633  87.8463203  16.8691522  90.2303748  88.2924227
  10.0002786  86.7886690  88.6316324  10.7733662  86.2415677  88.4929200
  10.3528185  87.6530939  88.8430785  11.8387829  88.1163072 101.8383223
  11.5477695  89.0208703 101.7229889  12.4744813  88.1579600 102.5527293
  12.7644035  85.4939921  98.4284583  13.3607608  85.2695943  97.7141546
  12.8219007  84.7524666  99.0310031  12.3369064  82.9479356  86.2634774
  12.5894584  82.4260877  85.5018237  11.3993623  82.7845501  86.3661457
  17.3812347  81.9515134  94.0709517  18.1675436  81.5334558  93.7199934
  17.6451051  82.8561227  94.2391165  17.5522424  87.3887985  88.7698174
  16.9168257  87.4622611  89.4819078  17.2219830  87.9781584  88.0917253
  22.7820774  81.8890368  94.9742496  23.5145946  81.3189584  95.2080325
  22.0260129  81.5011968  95.4149001  12.0565353  84.8507462  88.4659149
  11.9401611  84.1752365  89.1340233  12.1667612  84.3639836  87.6491302
  14.3996893  84.3117609  92.1705838  14.0355101  83.7848230  92.8818759
  15.2564009  83.9216078  91.9972323  20.3046194  75.6011942  99.4337104
  19.9729519  76.4707353  99.2098319  19.7091807  75.2848226 100.1131135
  14.0402380  79.3407509  87.1667186  14.2076783  80.2087745  87.5337658
  13.8499550  79.5034791  86.2428476  16.7977714  87.8024488  98.8333017
  16.4978437  88.7049527  98.7248824  16.4528773  87.5356671  99.6854170
  10.2490195  84.2538285  94.8669721   9.3240692  84.1214499  95.0747413
  10.4974608  85.0332504  95.3639664  20.1974857  80.3207028  96.5130454
  19.2891735  80.2522436  96.2189215  20.1462453  80.7978973  97.3412280
  14.0191601  81.7965166  88.1513853  13.8991227  82.2422217  88.9899334
  13.3244190  82.1450484  87.5927391   7.6099006  83.8971558  95.7013510
   7.7391387  84.1506037  96.6152922   6.9296457  84.4899266  95.3818165
  11.7798493  94.5668808  91.8003985  11.7022523  95.5176633  91.8792465
  11.1760137  94.2214681  92.4578911  14.2715723  81.7396673 104.4565351
  13.4949057  82.2990594 104.4468216  14.9106286  82.2253456 104.9780222
  22.0636504  78.5223466  98.2908328  21.4210884  78.8155999  97.6448123
  21.5591432  78.4076387  99.0961525  19.7176667  82.2686639  88.9794187
  20.6294524  82.5014026  88.8041885  19.2086315  82.8523684  88.4169266
  12.5262095  84.5482127 104.0183318  13.2676780  85.0867171 103.7418142
  11.8199081  85.1748416 104.1754870  18.0017435  86.6911267 102.6155480
  18.4100791  86.2493678 101.8710112  17.2794697  86.1163895 102.8689673
  14.3548505  81.6283874  99.9889037  15.2009700  82.0523288 100.1323686
  14.2947143  80.9717498 100.6827600  18.3246250  87.2512458  96.3707769
  17.6955112  87.4158172  95.6683837  17.9371912  87.6654067  97.1418733
  22.2035482  88.1866896  93.7252133  21.5186520  88.5665797  93.1749166
  22.2879331  88.7962222  94.4584080  17.5047951  79.2888242 101.6470211
  17.2608882  80.0430303 101.1104486  17.7807881  79.6673590 102.4817458
  19.4586413  85.8326855 100.3247476  19.6703309  86.4758615  99.6481857
  19.4116162  84.9989171  99.8569406  17.0612642  78.4444675  97.2284048
  16.1997121  78.7425929  97.5200786  17.0875077  78.6615074  96.2965081
  13.8774212  86.9886866  93.6357854  14.3412557  87.2674569  92.8462476
  13.6131010  86.0870311  93.4530945  10.7698293  86.5358348  96.5737617
  11.3399650  86.9645616  95.9355102  11.3606405  86.2540932  97.2721803
  12.8143098  83.1110018  90.4447419  13.5167141  83.5631062  90.9121345
  12.4823726  82.4693837  91.0727312  11.2623459  81.7021775 104.8198628
  10.6322120  82.3838056 105.0534025  11.1559547  81.5904857 103.8751767
   6.5568432  81.3693571  95.7464553   5.7667486  81.6251100  95.2704663
   7.0479679  82.1841909  95.8516593  20.5732241  88.7098810  98.4969833
  21.3949685  88.3078998  98.2152515  20.5694644  88.6067044  99.4485949
   8.5083177  81.7338150  92.7048029   7.7114340  81.8456845  93.2231525
   8.2808769  82.0724803  91.8388920  14.3388845  88.2582854 100.6530544
  14.4033277  88.7203261 101.4888716  13.6299769  87.6280218 100.7812854
   4.8406135  81.6224061  98.1779543   5.0914173  82.5071071  98.4437119
   5.3765683  81.4428663  97.4054635  28.6638234  85.0537559  94.8454805
  27.9101943  84.4844957  94.6898809  28.7985775  85.0200223  95.7925440
  14.0536862  89.9250961  90.5209524  13.9182537  90.7702497  90.9494372
  14.5946675  90.1270239  89.7575458  10.5404202  76.0042541 107.1823879
  10.1471148  75.4508739 107.8571524  11.3570342  76.3153119 107.5730397
   7.5066260  87.4426399  91.0937449   8.0190780  88.2369649  91.2443014
   8.1588973  86.7452690  91.0271051   9.3161144  90.5592155  93.1760203
   9.4927773  91.4810120  92.9881186  10.1117978  90.2450575  93.6054582
  13.4572163  77.4200420 104.7744136  14.1981876  78.0207573 104.6948599
  13.6890086  76.6778058 104.2162179   8.6013501  82.6056787 103.0522366
   8.4867016  81.7042044 103.3529465   7.7458019  82.8520484 102.7007182
  15.6805339  90.5474528 104.6509866  15.2369193  89.7610906 104.3330771
  16.3422552  90.7353678 103.9853757  10.4392460  92.0770329  99.1770545
  10.9899885  91.9487392  98.4047539   9.6003936  92.3765218  98.8265438
  17.7786577  90.8277327 102.6791268  17.7605052  91.6486208 102.1871537
  18.7006497  90.7031403 102.9041409  14.2359631  88.3421457 103.5214776
  14.7687968  87.5809745 103.2914084  13.7073712  88.0495109 104.2638930
  17.4029326  73.4481523  99.0508418  17.0593595  74.3383165  98.9747528
  17.7708289  73.2583181  98.1878003   5.4715177  85.7715053  91.8697020
   6.3090399  86.1812062  91.6530728   5.6493444  84.8314496  91.8397214
  17.3679609  83.4390134  87.5580853  16.8526232  84.2094739  87.7969240
  17.0956917  82.7655270  88.1813914  14.9526720  78.2839835  92.6166091
  14.0968316  77.8946685  92.4371730  15.3653671  78.3631796  91.7565877
  16.4825866  75.8186178  97.0157651  15.9790662  75.7816313  96.2025456
  16.7756473  76.7278921  97.0754308  12.7268752  75.9024908  96.0223833
  13.5921749  75.7067716  95.6629722  12.7946261  75.6735260  96.9493189
  22.3413883  86.1922489  89.4934026  21.5643326  85.8533648  89.0489188
  23.0205364  86.1975112  88.8188991  17.1565912  81.3117226  89.3840634
  16.8516047  81.6263375  90.2350777  18.1096354  81.3898646  89.4267967
  15.6012344  87.4707449  91.0333588  15.0733705  86.7360209  90.7206825
  15.0999846  88.2482126  90.7873556  20.5805190  85.6656470  96.1500634
  19.9228864  86.3555731  96.2380763  21.3845589  86.0552902  96.4934621
  10.3331071  78.1327116  93.3940200  10.9074823  77.9102297  92.6613392
  10.9202054  78.2015810  94.1468801  19.3910648  84.0200843  94.2004576
  19.9042530  84.6530834  94.7026286  20.0411872  83.4202038  93.8347936
  10.6600658  80.1631577  87.4136085   9.8237971  80.5006263  87.7345360
  10.5205428  80.0280557  86.4763222  12.6353739  75.0068365  92.1215269
  11.9818151  74.6917382  91.4971884  12.5934213  74.3844105  92.8475092
  13.7464944  85.2887660  84.0368561  12.8392006  85.0576913  84.2359710
  14.2435976  84.4925279  84.2242543  16.6533023  93.9985167  86.9565247
  15.9794721  94.3016864  87.5650205  17.0398845  94.8014247  86.6070704
  15.8691479  81.4950298  96.4462917  14.9514041  81.7165245  96.2884605
  16.2851623  81.5696609  95.5874624  16.6526527  82.8941714  91.5765597
  17.3998346  83.4063111  91.2672719  16.9218117  82.5725767  92.4369990
  14.9253177  85.3900255  88.5592551  14.0164397  85.1059287  88.6565021
  14.9548261  85.8099333  87.6995858  20.1572445  89.0006844  92.3283719
  19.7034772  88.1597754  92.3848909  19.5266411  89.6368242  92.6658499
  19.1005364  79.9298830  93.5584386  18.3628121  79.4176216  93.8894629
  19.3532138  79.4899212  92.7467663  18.6005384  90.8383341  93.2633537
  18.8928358  91.3988398  92.5445902  19.1104004  91.1311902  94.0186696
  19.2016992  72.7075082  94.1526155  19.5075868  71.8472446  93.8652070
  19.9269596  73.2992702  93.9525149   5.4941348  83.1105769  92.5407753
   5.2965747  82.5175129  91.8158820   4.9388012  82.8057979  93.2583692
  13.4738071  83.0028875  94.6602346  13.5286681  82.0502712  94.5844823
  12.6629273  83.1588314  95.1443645  14.6229265  86.9308998  85.8980630
  14.1848695  86.2144857  85.4386267  15.3639706  87.1585113  85.3365721
  11.4130431  81.6205935  92.4192725  10.5998297  81.9200105  92.8257917
  11.9089425  81.2261624  93.1367208  13.5639009  91.6163692  94.3526990
  13.5215188  91.8424538  93.4235522  14.4801708  91.3827066  94.5012791
  17.0104643  82.0847759 101.2507619  17.3654031  82.3119233 102.1102085
  17.6576774  82.4166136 100.6284875  22.7402380  85.2066195  91.9556948
  22.6020278  85.3967791  91.0278137  22.3838599  85.9685578  92.4124999
  10.9044506  79.1924290  98.0353960  11.5443885  79.0513050  97.3376924
  10.0722037  78.9058804  97.6592562  22.7671759  87.2742722  96.9668220
  23.2008266  87.1818011  97.8151274  23.4803340  87.2500223  96.3288236
  11.6804810  88.4926721  94.1488953  12.4745408  87.9977041  93.9471528
  10.9696502  87.9644584  93.7856658  16.4999654  90.8744816  98.5001320
  16.5536677  91.4435753  99.2679036  15.6314436  91.0446701  98.1355358
   7.9887573  82.6369803  90.2248705   7.0585161  82.5754258  90.4418668
   8.0845045  82.1145755  89.4285347   7.9073122  79.1624615  92.8126947
   8.1679940  80.0769949  92.7036108   8.7290295  78.6949058  92.9623560
   9.3798048  80.5762373  99.9825772  10.0521101  80.3679735  99.3338421
   8.5527834  80.3784459  99.5431004  23.6287309  87.3166423  99.5001105
  23.8223199  88.2212233  99.7460380  23.5287927  86.8573842 100.3339690
  15.2823620  77.2024313 101.9991433  14.6351535  77.9014263 101.9055909
  16.0524635  77.6360457 102.3667681  18.6902418  87.4673166 105.0741986
  18.5387924  87.2383717 104.1572069  18.6807097  88.4243767 105.0873331
  15.4587754  85.0405078 100.0588252  16.3879814  85.1916238  99.8857220
  15.0378784  85.1289099  99.2036899  14.2576086  89.0655743  97.8286790
  14.1187172  88.6974527  98.7012728  13.4690682  89.5803382  97.6570748
  14.8524238  94.1664839  89.1712326  15.0275994  93.6952882  89.9857949
  14.1657026  94.7930605  89.3993587  15.8081301  88.4437346  95.2175628
  15.4731134  88.4038115  96.1133278  15.3085247  87.7782061  94.7446038
   9.7825545  83.8504976 100.7428209   9.6445343  83.1185214 101.3439748
  10.6930468  83.7613876 100.4612397  18.7440493  85.7893380  85.4912687
  18.1269663  85.0640208  85.3945740  18.2756981  86.5502740  85.1479762
  12.4107846  83.5624935 100.2311888  13.1207464  82.9218127 100.1898507
  12.3677154  83.8137830 101.1538069  20.3994624  90.4992288 103.1518468
  20.3407170  89.8151508 102.4849051  20.8014143  91.2411278 102.6999094
  11.1236780  80.5490153 102.0507528  10.5874137  80.0980891 102.7029124
  10.5353488  80.6836062 101.3077992   9.4185323  97.3154202  95.9452187
   9.6581921  97.9472726  96.6231205   8.5754520  96.9642242  96.2317546
  10.5339039  80.0078804  84.6133992   9.6568505  79.8867605  84.2496238
  11.0096792  79.2164882  84.3612880  20.4012032  88.4631872 101.3832447
  19.5138810  88.1257794 101.5058846  20.9710583  87.7314903 101.6201213
   2.0541179  84.7955964  94.7075499   2.7412219  84.4817694  94.1196514
   1.8989307  85.6997329  94.4342750   6.8575901  79.6846160  99.1360522
   6.7734090  79.0771830  98.4010932   6.0358607  80.1755179  99.1370019
  13.9313185  93.1233324  98.3493691  13.8583356  93.9288296  98.8612995
  13.4890578  93.3225290  97.5241712  13.7202965  92.3605095  91.8596512
  12.9370487  92.9026775  91.9534737  14.4195710  92.8779074  92.2590753
  17.0299615  78.1699724  94.5030717  17.5268314  77.4169686  94.1831788
  16.2586596  78.2064041  93.9373927  24.8829372  83.8740090  96.1449009
  24.8719248  84.7564805  95.7742942  24.0146752  83.5211640  95.9503546
  16.3911869  93.0220159 100.5051849  17.1039841  93.6567623 100.4327751
  15.9001897  93.1184025  99.6891851  18.1129395  86.9271411  92.0769141
  17.1785674  87.0472874  91.9073845  18.2906064  86.0243878  91.8129151
  13.6134583  80.3117107  94.2302402  13.2432371  79.7588147  94.9183308
  14.1093676  79.7075240  93.6777402  21.5001947  82.7688730  92.6119175
  21.9662399  83.6016722  92.5379478  21.9509447  82.3033712  93.3164433
  11.4423782  90.7714602 101.3257420  12.1433242  91.4051085 101.4786814
  10.9718897  91.1129334 100.5653059  19.5678178  89.1132552  89.6105327
  19.8438022  88.9989146  90.5199201  18.6982677  88.7150037  89.5717500
  19.4718610  75.1369317  96.6510076  18.5581689  75.3673544  96.8192283
  19.9011711  75.2207762  97.5024109  19.2425068  83.3259209  99.1509970
  18.5896518  83.5735117  98.4962423  19.6205448  82.5123348  98.8172448
  16.2032242  93.3618903  93.2538141  16.3854636  92.5440559  93.7165893
  17.0265228  93.5786595  92.8163031  16.5374407  92.2887088  90.5153189
  17.0662174  91.7779542  89.9023351  16.8002627  91.9729618  91.3798722
  15.2912641  84.0679020 105.6376007  14.6153278  83.9673150 106.3078383
  16.1140275  83.9118234 106.1012005   7.0391500  90.3050957  98.2588523
   7.6244937  89.5594645  98.3916427   6.8416339  90.6154914  99.1425187
   9.8930155  93.3402204  93.2750965   9.2240531  93.8248332  92.7915005
   9.7543025  93.5871425  94.1894344   1.6309155  82.8756557  96.9792966
   1.6693254  82.3420148  97.7730084   1.1249448  82.3491763  96.3603943
  14.0335424  95.3745948  99.8733623  14.5853732  95.5377569 100.6382709
  14.3741617  95.9650386  99.2013648   9.0099917  77.7221098 100.4755508
   9.0741244  78.5835929 100.0632906   8.9467037  77.1095099  99.7427867
   8.4852190  79.7944230 104.1228542   9.1124228  79.4121308 104.7366067
   7.6280109  79.5758432 104.4884235  18.8846298  90.2007205 105.7282278
  19.4286202  90.8137164 105.2337233  18.3033143  90.7586784 106.2449291
   5.2617732  81.6020659  90.0546897   5.5571174  80.6931338  90.0013951
   4.3605768  81.5808399  89.7327900  17.1703811  93.3227923  96.8597306
  17.0454951  92.5217663  96.3508251  17.8282902  93.8174117  96.3711276
   8.7911979  79.6776656  96.0374446   8.0698565  80.2912624  95.8981919
   9.5805235  80.2134421  95.9591092  19.2338720  91.1236944  98.4876856
  18.2869055  91.0042295  98.4155182  19.5821493  90.2359442  98.5703117
  11.5938293  77.0131082 102.3115098  12.1172695  77.2593379 103.0741407
  11.3750626  77.8451117 101.8918235   6.9905574  79.2834757  90.1786222
   6.6618280  78.4032136  89.9961328   7.3444945  79.2282426  91.0662612
  16.2385153  90.9189660  94.6881208  16.0910115  89.9906367  94.8688778
  17.0638646  90.9409750  94.2038283  10.1047397  79.5707727  90.5461700
  10.4443470  80.0993648  89.8240308  10.5519518  79.9088133  91.3220267
  19.8419275  91.7418219  95.7746081  20.7665822  91.5361080  95.6370532
  19.6734578  91.4934620  96.6835422  12.7990838  77.9544778  99.9964768
  12.4587658  77.1552591 100.3985448  12.0929844  78.2546488  99.4241601
  13.4507310  75.0394090  98.4492091  14.2733379  74.5654568  98.3270981
  13.6945373  75.8184574  98.9490777  12.0915544  78.0682348  88.7454993
  12.8123907  78.4463601  88.2418710  11.4680848  78.7871225  88.8489971
  16.2346667  78.7727497  89.6813325  16.4510282  79.6552135  89.3802153
  15.7540734  78.3813711  88.9518967  10.9745889  81.7313211  96.2584070
  10.8290469  82.0453514  97.1508351  10.4971092  82.3498111  95.7054968
  12.8342271  78.7215759  96.3064959  12.8203840  77.8256852  95.9697257
  13.5514700  78.7286422  96.9403245  14.6868402  79.1553099  98.3518087
  14.4286180  80.0770169  98.3502417  14.1553443  78.7583533  99.0418551
  19.6314591  92.2603886  91.1308172  19.8051468  91.6950308  90.3782025
  20.1243482  93.0604781  90.9487662   5.4491551  84.2718555  99.1971731
   4.9045019  85.0478363  99.3292005   6.3270901  84.6189360  99.0390852
  12.2379167  77.6030139  91.5752529  12.3595079  76.6746785  91.7743417
  11.9481210  77.6168825  90.6630845  15.1070358  75.2885049  94.7119249
  15.1292055  75.3524382  93.7571229  15.5238417  74.4489558  94.9059755
  25.4853982  85.0240309  92.7498472  25.9285128  84.2747634  92.3517595
  24.6080492  85.0150445  92.3672204  20.6189763  91.5770650  88.2305070
  21.3140668  92.1977343  88.4492385  20.9612914  90.7266002  88.5057448
   6.2357573  83.3988451 102.0901888   5.4939309  83.5471087 102.6766518
   5.9150317  83.6596717 101.2268637  22.5181187  89.0270356  89.7592401
  23.0432511  89.3657629  89.0341721  22.4303539  88.0917371  89.5755536
  14.1801235  92.9404430 101.8882278  14.4888362  92.6953576 102.7604977
  14.9776717  93.1451068 101.4001148  14.2021847  95.0942339  94.1187654
  13.7626838  94.6018718  94.8120511  14.9529964  94.5515307  93.8779730
   6.6814186  91.2853880  94.1212282   7.5072206  90.9857652  93.7410926
   6.3308238  90.5161502  94.5702071  11.6495719  90.6380348  96.1909956
  11.0275729  89.9751053  95.8912184  12.3200586  90.6641480  95.5083604
   4.8822791  89.2040206  95.0801216   4.0454700  88.7762381  94.8985217
   4.8546437  89.3972650  96.0172007  11.7220247  79.1162136 105.7842462
  11.7708402  79.9924259 105.4020232  12.2642761  78.5739529 105.2114105
  22.2075093  89.6603260 105.0643599  21.4170636  89.6427398 104.5248099
  21.9708447  90.1991553 105.8192636  22.3272968  86.5095726 102.3776328
  22.3770973  86.3445733 103.3191850  22.2186891  85.6422985 101.9874208
  11.2109226  89.1884272  89.6668417  11.3597347  89.8719736  89.0135089
  12.0175670  89.1689362  90.1817872  19.6176730  82.4926654 103.6935634
  20.5186593  82.3533119 103.4019632  19.6924705  82.6581109 104.6333812
  13.9519535  79.8693509 102.5388821  13.0822845  80.1627075 102.2671409
  14.1879016  80.4533954 103.2596084  23.8291164  88.9292667 102.6218349
  23.5375973  89.2922648 103.4581810  23.2163296  88.2159676 102.4431681
  25.0286847  86.4945547  95.1420919  25.8633738  86.9335351  95.3058480
  25.1645976  86.0184200  94.3229165  22.0778353  84.0525282 101.0898407
  22.5532474  84.2452928 100.2817259  21.1543918  84.1084468 100.8441791
   8.9661859  85.2149449  90.6729485   8.7207901  84.3111779  90.8709696
   9.1357774  85.2166600  89.7308963  16.6558569  76.0873126 100.0554241
  17.1740513  76.8234153  99.7300730  16.3013702  76.3937119 100.8901000
   8.2357507  80.9477807  88.1715647   7.5426752  81.0222162  87.5155683
   7.9909259  80.1838150  88.6937164  16.9071163  72.5073408  95.5755138
  17.1872917  71.8396597  96.2015564  17.6921770  72.7002504  95.0629802
  14.7104632  91.6832402  87.1380164  14.1378599  92.3022589  86.6850636
  15.2837426  92.2331764  87.6720086  20.7780022  80.9291042  99.3226713
  21.7297445  81.0289140  99.3438937  20.6083472  80.1369311  99.8324797
  18.7994401  78.0146625  99.5086114  18.2044333  78.2951638  98.8132602
  18.5144098  78.5040526 100.2802855  17.9301892  91.9669552  88.2688746
  18.8632565  91.9015114  88.4721622  17.8425104  92.8025819  87.8103279
  20.5589908  91.2835423  85.2292694  20.4803540  90.9495286  86.1228452
  21.3799575  91.7757190  85.2284166  23.2568100  84.1497162  98.4369012
  23.2244420  83.2113163  98.6228696  23.8668723  84.2281199  97.7034837
  15.0951430  83.0193215  84.4796216  16.0410535  82.8899423  84.5484635
  14.7165675  82.2807877  84.9565645  23.4062588  80.9408205  98.4827296
  22.8901637  80.1566662  98.2957224  24.2902537  80.6126922  98.6473815
  21.0673315  74.6849221  94.4423108  20.8698136  74.3764309  95.3266440
  21.6773021  75.4110860  94.5721038  29.0744649  85.2113169  97.5775049
  29.8048038  84.9498457  98.1382753  28.4651595  84.4741891  97.6177117
  27.1559946  83.3521031  98.1749500  26.4293110  83.2176996  97.5665992
  26.7407233  83.6597860  98.9806218  14.9790123  87.0710961 105.9396873
  15.8993132  87.2489560 106.1336920  14.9439706  86.1267006 105.7876573
  13.2794348  80.9443191  84.4151102  12.3725803  80.6476304  84.4913815
  13.5570329  80.6473009  83.5485388   4.1972288  82.2649555  94.8650148
   3.8775072  81.4114863  94.5724522   3.6505716  82.4798133  95.6208115
   7.9752195  84.9811996  98.5819655   8.1938205  85.9129103  98.6007688
   8.3877969  84.6219970  99.3674458  14.8956413  75.4880081  90.5695343
  14.0857142  75.1427166  90.9450589  15.5840830  75.1787625  91.1582955
  16.8246962  74.5658128  92.1919640  17.3778000  74.9853581  92.8509663
  17.0617048  73.6393876  92.2342596  12.8480061  80.5545201 107.9722404
  12.7476788  81.5039558 107.9034495  12.6301603  80.2263440 107.0998474
  12.0493132  77.8030126  84.5563081  12.9112296  78.1285025  84.8158898
  12.2343476  77.0161622  84.0436147   4.0660548  85.8852466  96.8343270
   3.3724019  85.4706419  96.3213224   4.8133539  85.9273003  96.2376689
  20.2025769  76.6758653  91.6998304  19.6224438  77.3343457  91.3176356
  19.9361701  75.8535997  91.2885721  18.6529335  76.0763711  93.9019624
  19.1529113  76.1880245  93.0933943  19.2964943  75.7724763  94.5420433
  12.7111331  83.9842340 106.7887465  12.2278413  84.7842700 106.9951354
  12.7972270  83.9950285 105.8354909   5.9797290  85.8170720  94.7109285
   5.9567979  85.9158407  93.7591168   6.2897927  86.6635871  95.0326451
   8.6384668  87.8746875  98.8255899   9.5927922  87.8430817  98.7585831
   8.4397192  87.4137499  99.6406125   9.2284050  86.4447991 101.3926697
  10.0476939  86.9392070 101.4161534   9.5020858  85.5279959 101.3644264
  18.9850647  78.8358743  90.7554652  18.0976502  79.1208394  90.5374847
  19.4004636  78.6752507  89.9081929  22.3365183  78.8605264  94.4708991
  23.1125573  79.3501717  94.7433608  21.6113317  79.2863318  94.9280861
  24.7737741  79.5732883  95.5282932  25.3682232  79.3328619  94.8176240
  24.8464325  78.8540014  96.1556468   6.9934897  93.4166494  95.8426097
   6.8589365  92.6566895  95.2764095   6.5766959  94.1407394  95.3754886
  18.1293860  88.6003418  84.8502672  18.8329710  88.8053420  85.4660328
  17.4056509  89.1680180  85.1151756  18.9591670  84.3513279  90.9704942
  18.9026872  84.8081831  90.1312575  19.5120013  83.5903964  90.7927785
  22.7696476  80.1403011  91.7955062  22.5133411  79.7399647  92.6263270
  22.1449344  80.8546805  91.6705201  27.0808814  82.8799084  94.3026353
  26.5208372  82.9492274  95.0757915  26.4752318  82.7040069  93.5825849
  10.1504023  94.3135811  96.0544540  10.0336407  95.2581244  95.9523230
   9.3296469  94.0109373  96.4430339  20.0380558  89.0385947  86.9001132
  20.8726161  88.6067146  86.7178607  19.8764900  88.8667961  87.8278027
  19.6926450  85.5418060  88.2657472  19.6375253  85.3762332  87.3245916
  19.0672505  86.2494093  88.4219661   4.4818965  80.7786125 102.0918894
   5.1277828  80.2685079 102.5806119   4.2736116  81.5154806 102.6662319
  17.0072357  87.8466972 107.5911034  17.8763517  88.0207625 107.2297669
  16.5279108  88.6661389 107.4686764  13.0022575  75.0426169  87.8442790
  12.9901245  75.9868009  88.0011061  13.8945997  74.8596315  87.5502251
  11.1758537  94.9664073  99.2700468  12.0785784  94.9987684  99.5866963
  10.9495907  94.0364524  99.2846804  12.9312139  93.7195060  95.9310547
  11.9807770  93.7196921  95.8174919  13.2344625  92.9727794  95.4146581
  16.8174695  71.6368946  92.0988727  16.0507090  71.0827433  92.2445409
  17.2285400  71.7090815  92.9602878   8.8216456  77.9253742 106.1893908
   9.6847917  77.5690547 106.3997233   8.2481866  77.5867637 106.8769312
  28.6664833  99.5555598  96.9956309  29.3043243  99.4362346  96.2919649
  28.5485676 100.5036442  97.0544261  25.4754539  99.5083026  96.9317834
  25.1373050  99.3924091  96.0438369  26.3444307  99.1074191  96.9118840
  21.3341355 101.3618503  92.9214725  20.7706220 101.2708440  92.1531012
  21.2193750 100.5418407  93.4017217  25.9574322 100.6617878 102.8904039
  25.9462963 100.2670676 102.0184543  26.1194961  99.9283951 103.4837811
  18.8805787 102.8569694  95.7598945  19.6727078 102.5160519  95.3445244
  19.1202437 102.9664669  96.6801098  26.9140913 105.0289470  88.2329190
  26.2628893 105.6143551  87.8463203  27.7085276 105.5595665  88.2924227
  20.8396540 102.1178608  88.6316324  21.6127416 101.5707595  88.4929200
  21.1921939 102.9822857  88.8430785  22.6781583 103.4454990 101.8383223
  22.3871449 104.3500621 101.7229889  23.3138567 103.4871517 102.5527293
  23.6037790 100.8231838  98.4284583  24.2001362 100.5987861  97.7141546
  23.6612761 100.0816584  99.0310031  23.1762818  98.2771274  86.2634774
  23.4288339  97.7552795  85.5018237  22.2387377  98.1137419  86.3661457
  28.2206101  97.2807052  94.0709517  29.0069190  96.8626475  93.7199934
  28.4844805  98.1853144  94.2391165  28.3916178 102.7179902  88.7698174
  27.7562011 102.7914529  89.4819078  28.0613585 103.3073501  88.0917253
  33.6214528  97.2182285  94.9742496  34.3539700  96.6481502  95.2080325
  32.8653884  96.8303886  95.4149001  22.8959107 100.1799380  88.4659149
  22.7795365  99.5044283  89.1340233  23.0061367  99.6931754  87.6491302
  25.2390648  99.6409527  92.1705838  24.8748855  99.1140148  92.8818759
  26.0957764  99.2507996  91.9972323  31.1439949  90.9303859  99.4337104
  30.8123273  91.7999270  99.2098319  30.5485562  90.6140143 100.1131135
  24.8796135  94.6699426  87.1667186  25.0470537  95.5379663  87.5337658
  24.6893304  94.8326708  86.2428476  27.6371468 103.1316405  98.8333017
  27.3372191 104.0341444  98.7248824  27.2922528 102.8648589  99.6854170
  21.0883950  99.5830202  94.8669721  20.1634446  99.4506416  95.0747413
  21.3368363 100.3624421  95.3639664  31.0368612  95.6498946  96.5130454
  30.1285489  95.5814354  96.2189215  30.9856208  96.1270891  97.3412280
  24.8585356  97.1257084  88.1513853  24.7384981  97.5714135  88.9899334
  24.1637944  97.4742402  87.5927391  18.4492761  99.2263476  95.7013510
  18.5785142  99.4797955  96.6152922  17.7690212  99.8191184  95.3818165
  22.6192248 109.8960726  91.8003985  22.5416278 110.8468551  91.8792465
  22.0153892 109.5506598  92.4578911  25.1109478  97.0688591 104.4565351
  24.3342812  97.6282511 104.4468216  25.7500041  97.5545374 104.9780222
  32.9030258  93.8515384  98.2908328  32.2604639  94.1447917  97.6448123
  32.3985187  93.7368304  99.0961525  30.5570422  97.5978557  88.9794187
  31.4688278  97.8305944  88.8041885  30.0480069  98.1815601  88.4169266
  23.3655850  99.8774045 104.0183318  24.1070534 100.4159088 103.7418142
  22.6592835 100.5040333 104.1754870  28.8411190 102.0203185 102.6155480
  29.2494546 101.5785596 101.8710112  28.1188451 101.4455812 102.8689673
  25.1942260  96.9575792  99.9889037  26.0403455  97.3815205 100.1323686
  25.1340897  96.3009416 100.6827600  29.1640004 102.5804376  96.3707769
  28.5348867 102.7450090  95.6683837  28.7765666 102.9945985  97.1418733
  33.0429236 103.5158813  93.7252133  32.3580274 103.8957715  93.1749166
  33.1273085 104.1254140  94.4584080  28.3441705  94.6180160 101.6470211
  28.1002637  95.3722221 101.1104486  28.6201636  94.9965508 102.4817458
  30.2980168 101.1618772 100.3247476  30.5097063 101.8050532  99.6481857
  30.2509916 100.3281089  99.8569406  27.9006397  93.7736593  97.2284048
  27.0390876  94.0717847  97.5200786  27.9268831  93.9906992  96.2965081
  24.7167966 102.3178784  93.6357854  25.1806312 102.5966487  92.8462476
  24.4524764 101.4162228  93.4530945  21.6092047 101.8650265  96.5737617
  22.1793404 102.2937534  95.9355102  22.2000159 101.5832850  97.2721803
  23.6536852  98.4401936  90.4447419  24.3560896  98.8922980  90.9121345
  23.3217481  97.7985755  91.0727312  22.1017214  97.0313693 104.8198628
  21.4715874  97.7129974 105.0534025  21.9953302  96.9196774 103.8751767
  17.3962186  96.6985489  95.7464553  16.6061240  96.9543017  95.2704663
  17.8873434  97.5133827  95.8516593  31.4125996 104.0390728  98.4969833
  32.2343439 103.6370915  98.2152515  31.4088399 103.9358962  99.4485949
  19.3476932  97.0630068  92.7048029  18.5508095  97.1748762  93.2231525
  19.1202524  97.4016720  91.8388920  25.1782599 103.5874771 100.6530544
  25.2427032 104.0495178 101.4888716  24.4693523 102.9572136 100.7812854
  15.6799889  96.9515979  98.1779543  15.9307928  97.8362989  98.4437119
  16.2159438  96.7720581  97.4054635  39.5031989 100.3829476  94.8454805
  38.7495697  99.8136874  94.6898809  39.6379530 100.3492141  95.7925440
  24.8930617 105.2542879  90.5209524  24.7576292 106.0994414  90.9494372
  25.4340429 105.4562156  89.7575458  21.3797956  91.3334459 107.1823879
  20.9864902  90.7800657 107.8571524  22.1964097  91.6445037 107.5730397
  18.3460014 102.7718317  91.0937449  18.8584535 103.5661567  91.2443014
  18.9982727 102.0744607  91.0271051  20.1554899 105.8884073  93.1760203
  20.3321527 106.8102038  92.9881186  20.9511732 105.5742492  93.6054582
  24.2965917  92.7492338 104.7744136  25.0375631  93.3499491 104.6948599
  24.5283840  92.0069975 104.2162179  19.4407255  97.9348705 103.0522366
  19.3260771  97.0333962 103.3529465  18.5851773  98.1812402 102.7007182
  26.5199093 105.8766445 104.6509866  26.0762947 105.0902824 104.3330771
  27.1816307 106.0645596 103.9853757  21.2786214 107.4062247  99.1770545
  21.8293640 107.2779310  98.4047539  20.4397690 107.7057136  98.8265438
  28.6180331 106.1569245 102.6791268  28.5998807 106.9778126 102.1871537
  29.5400251 106.0323320 102.9041409  25.0753385 103.6713375 103.5214776
  25.6081722 102.9101663 103.2914084  24.5467467 103.3787026 104.2638930
  28.2423080  88.7773441  99.0508418  27.8987350  89.6675082  98.9747528
  28.6102043  88.5875098  98.1878003  16.3108931 101.1006971  91.8697020
  17.1484153 101.5103979  91.6530728  16.4887199 100.1606413  91.8397214
  28.2073363  98.7682052  87.5580853  27.6919987  99.5386656  87.7969240
  27.9350672  98.0947188  88.1813914  25.7920474  93.6131752  92.6166091
  24.9362070  93.2238603  92.4371730  26.2047426  93.6923713  91.7565877
  27.3219621  91.1478096  97.0157651  26.8184416  91.1108231  96.2025456
  27.6150228  92.0570838  97.0754308  23.5662507  91.2316825  96.0223833
  24.4315503  91.0359634  95.6629722  23.6340016  91.0027177  96.9493189
  33.1807637 101.5214406  89.4934026  32.4037080 101.1825566  89.0489188
  33.8599118 101.5267029  88.8188991  27.9959666  96.6409144  89.3840634
  27.6909802  96.9555293  90.2350777  28.9490108  96.7190564  89.4267967
  26.4406098 102.7999367  91.0333588  25.9127460 102.0652127  90.7206825
  25.9393601 103.5774043  90.7873556  31.4198944 100.9948388  96.1500634
  30.7622619 101.6847649  96.2380763  32.2239343 101.3844820  96.4934621
  21.1724826  93.4619033  93.3940200  21.7468578  93.2394215  92.6613392
  21.7595808  93.5307728  94.1468801  30.2304403  99.3492760  94.2004576
  30.7436285  99.9822752  94.7026286  30.8805627  98.7493956  93.8347936
  21.4994413  95.4923494  87.4136085  20.6631725  95.8298181  87.7345360
  21.3599182  95.3572474  86.4763222  23.4747493  90.3360282  92.1215269
  22.8211906  90.0209299  91.4971884  23.4327968  89.7136023  92.8475092
  24.5858698 100.6179577  84.0368561  23.6785760 100.3868831  84.2359710
  25.0829730  99.8217197  84.2242543  27.4926777 109.3277085  86.9565247
  26.8188476 109.6308781  87.5650205  27.8792599 110.1306165  86.6070704
  26.7085234  96.8242216  96.4462917  25.7907795  97.0457163  96.2884605
  27.1245377  96.8988526  95.5874624  27.4920282  98.2233631  91.5765597
  28.2392101  98.7355029  91.2672719  27.7611871  97.9017684  92.4369990
  25.7646932 100.7192172  88.5592551  24.8558151 100.4351205  88.6565021
  25.7942016 101.1391251  87.6995858  30.9966199 104.3298762  92.3283719
  30.5428526 103.4889672  92.3848909  30.3660166 104.9660160  92.6658499
  29.9399119  95.2590748  93.5584386  29.2021876  94.7468134  93.8894629
  30.1925892  94.8191129  92.7467663  29.4399138 106.1675258  93.2633537
  29.7322113 106.7280316  92.5445902  29.9497759 106.4603819  94.0186696
  30.0410746  88.0367000  94.1526155  30.3469623  87.1764363  93.8652070
  30.7663351  88.6284620  93.9525149  16.3335102  98.4397686  92.5407753
  16.1359502  97.8467047  91.8158820  15.7781766  98.1349897  93.2583692
  24.3131826  98.3320793  94.6602346  24.3680436  97.3794629  94.5844823
  23.5023028  98.4880232  95.1443645  25.4623020 102.2600916  85.8980630
  25.0242449 101.5436775  85.4386267  26.2033460 102.4877031  85.3365721
  22.2524186  96.9497853  92.4192725  21.4392051  97.2492023  92.8257917
  22.7483180  96.5553541  93.1367208  24.4032764 106.9455609  94.3526990
  24.3608942 107.1716456  93.4235522  25.3195462 106.7118984  94.5012791
  27.8498397  97.4139677 101.2507619  28.2047785  97.6411150 102.1102085
  28.4970529  97.7458054 100.6284875  33.5796134 100.5358113  91.9556948
  33.4414033 100.7259709  91.0278137  33.2232353 101.2977496  92.4124999
  21.7438260  94.5216208  98.0353960  22.3837640  94.3804967  97.3376924
  20.9115791  94.2350721  97.6592562  33.6065514 102.6034640  96.9668220
  34.0402021 102.5109929  97.8151274  34.3197095 102.5792140  96.3288236
  22.5198564 103.8218639  94.1488953  23.3139163 103.3268959  93.9471528
  21.8090257 103.2936502  93.7856658  27.3393409 106.2036734  98.5001320
  27.3930431 106.7727670  99.2679036  26.4708190 106.3738619  98.1355358
  18.8281328  97.9661720  90.2248705  17.8978916  97.9046176  90.4418668
  18.9238800  97.4437673  89.4285347  18.7466877  94.4916533  92.8126947
  19.0073694  95.4061866  92.7036108  19.5684049  94.0240976  92.9623560
  20.2191802  95.9054290  99.9825772  20.8914856  95.6971652  99.3338421
  19.3921589  95.7076376  99.5431004  34.4681064 102.6458341  99.5001105
  34.6616954 103.5504151  99.7460380  34.3681682 102.1865760 100.3339690
  26.1217374  92.5316231 101.9991433  25.4745289  93.2306181 101.9055909
  26.8918390  92.9652375 102.3667681  29.5296172 102.7965083 105.0741986
  29.3781679 102.5675635 104.1572069  29.5200852 103.7535685 105.0873331
  26.2981509 100.3696996 100.0588252  27.2273569 100.5208156  99.8857220
  25.8772539 100.4581017  99.2036899  25.0969840 104.3947661  97.8286790
  24.9580926 104.0266445  98.7012728  24.3084437 104.9095300  97.6570748
  25.6917992 109.4956757  89.1712326  25.8669748 109.0244800  89.9857949
  25.0050780 110.1222523  89.3993587  26.6475056 103.7729263  95.2175628
  26.3124888 103.7330033  96.1133278  26.1479001 103.1073979  94.7446038
  20.6219299  99.1796893 100.7428209  20.4839097  98.4477132 101.3439748
  21.5324223  99.0905793 100.4612397  29.5834247 101.1185298  85.4912687
  28.9663418 100.3932126  85.3945740  29.1150736 101.8794658  85.1479762
  23.2501600  98.8916853 100.2311888  23.9601219  98.2510045 100.1898507
  23.2070908  99.1429747 101.1538069  31.2388379 105.8284206 103.1518468
  31.1800925 105.1443426 102.4849051  31.6407897 106.5703196 102.6999094
  21.9630534  95.8782070 102.0507528  21.4267891  95.4272809 102.7029124
  21.3747243  96.0127979 101.3077992  20.2579078 112.6446120  95.9452187
  20.4975676 113.2764644  96.6231205  19.4148274 112.2934160  96.2317546
  21.3732793  95.3370722  84.6133992  20.4962259  95.2159523  84.2496238
  21.8490546  94.5456800  84.3612880  31.2405786 103.7923790 101.3832447
  30.3532565 103.4549712 101.5058846  31.8104337 103.0606821 101.6201213
  12.8934933 100.1247882  94.7075499  13.5805973  99.8109612  94.1196514
  12.7383062 101.0289246  94.4342750  17.6969655  95.0138078  99.1360522
  17.6127844  94.4063748  98.4010932  16.8752362  95.5047096  99.1370019
  24.7706939 108.4525242  98.3493691  24.6977111 109.2580214  98.8612995
  24.3284333 108.6517208  97.5241712  24.5596719 107.6897012  91.8596512
  23.7764241 108.2318692  91.9534737  25.2589464 108.2070992  92.2590753
  27.8693369  93.4991642  94.5030717  28.3662069  92.7461604  94.1831788
  27.0980351  93.5355958  93.9373927  35.7223127  99.2032007  96.1449009
  35.7113003 100.0856723  95.7742942  34.8540506  98.8503558  95.9503546
  27.2305623 108.3512076 100.5051849  27.9433595 108.9859541 100.4327751
  26.7395652 108.4475942  99.6891851  28.9523150 102.2563329  92.0769141
  28.0179429 102.3764791  91.9073845  29.1299818 101.3535796  91.8129151
  24.4528338  95.6409025  94.2302402  24.0826126  95.0880065  94.9183308
  24.9487430  95.0367158  93.6777402  32.3395701  98.0980648  92.6119175
  32.8056153  98.9308640  92.5379478  32.7903202  97.6325630  93.3164433
  22.2817537 106.1006520 101.3257420  22.9826996 106.7343003 101.4786814
  21.8112652 106.4421251 100.5653059  30.4071932 104.4424469  89.6105327
  30.6831776 104.3281064  90.5199201  29.5376431 104.0441954  89.5717500
  30.3112364  90.4661235  96.6510076  29.3975444  90.6965462  96.8192283
  30.7405465  90.5499679  97.5024109  30.0818823  98.6551127  99.1509970
  29.4290273  98.9027035  98.4962423  30.4599202  97.8415265  98.8172448
  27.0425996 108.6910820  93.2538141  27.2248391 107.8732476  93.7165893
  27.8658982 108.9078513  92.8163031  27.3768162 107.6179005  90.5153189
  27.9055928 107.1071460  89.9023351  27.6396381 107.3021536  91.3798722
  26.1306396  99.3970938 105.6376007  25.4547033  99.2965068 106.3078383
  26.9534029  99.2410152 106.1012005  17.8785255 105.6342875  98.2588523
  18.4638691 104.8886563  98.3916427  17.6810093 105.9446831  99.1425187
  20.7323910 108.6694122  93.2750965  20.0634285 109.1540250  92.7915005
  20.5936780 108.9163343  94.1894344  12.4702909  98.2048475  96.9792966
  12.5087009  97.6712066  97.7730084  11.9643202  97.6783680  96.3603943
  24.8729178 110.7037866  99.8733623  25.4247486 110.8669487 100.6382709
  25.2135372 111.2942303  99.2013648  19.8493672  93.0513015 100.4755508
  19.9134998  93.9127846 100.0632906  19.7860792  92.4387017  99.7427867
  19.3245944  95.1236148 104.1228542  19.9517983  94.7413225 104.7366067
  18.4673863  94.9050350 104.4884235  29.7240053 105.5299123 105.7282278
  30.2679957 106.1429081 105.2337233  29.1426898 106.0878702 106.2449291
  16.1011487  96.9312577  90.0546897  16.3964928  96.0223255  90.0013951
  15.1999523  96.9100317  89.7327900  28.0097566 108.6519841  96.8597306
  27.8848705 107.8509581  96.3508251  28.6676657 109.1466035  96.3711276
  19.6305734  95.0068574  96.0374446  18.9092320  95.6204541  95.8981919
  20.4198990  95.5426338  95.9591092  30.0732474 106.4528861  98.4876856
  29.1262810 106.3334212  98.4155182  30.4215247 105.5651359  98.5703117
  22.4332047  92.3423000 102.3115098  22.9566449  92.5885297 103.0741407
  22.2144381  93.1743035 101.8918235  17.8299329  94.6126675  90.1786222
  17.5012035  93.7324054  89.9961328  18.1838699  94.5574343  91.0662612
  27.0778907 106.2481577  94.6881208  26.9303870 105.3198285  94.8688778
  27.9032401 106.2701668  94.2038283  20.9441152  94.8999645  90.5461700
  21.2837224  95.4285566  89.8240308  21.3913272  95.2380051  91.3220267
  30.6813029 107.0710136  95.7746081  31.6059577 106.8652998  95.6370532
  30.5128333 106.8226537  96.6835422  23.6384592  93.2836695  99.9964768
  23.2981413  92.4844508 100.3985448  22.9323599  93.5838406  99.4241601
  24.2901064  90.3686008  98.4492091  25.1127134  89.8946486  98.3270981
  24.5339128  91.1476491  98.9490777  22.9309299  93.3974266  88.7454993
  23.6517661  93.7755519  88.2418710  22.3074603  94.1163143  88.8489971
  27.0740422  94.1019415  89.6813325  27.2904036  94.9844053  89.3802153
  26.5934489  93.7105629  88.9518967  21.8139643  97.0605128  96.2584070
  21.6684224  97.3745431  97.1508351  21.3364847  97.6790029  95.7054968
  23.6736026  94.0507676  96.3064959  23.6597595  93.1548770  95.9697257
  24.3908454  94.0578340  96.9403245  25.5262157  94.4845017  98.3518087
  25.2679934  95.4062087  98.3502417  24.9947197  94.0875451  99.0418551
  30.4708345 107.5895804  91.1308172  30.6445223 107.0242226  90.3782025
  30.9637237 108.3896699  90.9487662  16.2885305  99.6010473  99.1971731
  15.7438773 100.3770281  99.3292005  17.1664655  99.9481277  99.0390852
  23.0772922  92.9322057  91.5752529  23.1988833  92.0038703  91.7743417
  22.7874964  92.9460743  90.6630845  25.9464112  90.6176967  94.7119249
  25.9685809  90.6816300  93.7571229  26.3632171  89.7781476  94.9059755
  36.3247737 100.3532227  92.7498472  36.7678883  99.6039552  92.3517595
  35.4474247 100.3442363  92.3672204  31.4583518 106.9062568  88.2305070
  32.1534423 107.5269261  88.4492385  31.8006668 106.0557919  88.5057448
  17.0751327  98.7280369 102.0901888  16.3333063  98.8763004 102.6766518
  16.7544071  98.9888635 101.2268637  33.3574941 104.3562274  89.7592401
  33.8826265 104.6949546  89.0341721  33.2697294 103.4209289  89.5755536
  25.0194990 108.2696347 101.8882278  25.3282116 108.0245494 102.7604977
  25.8170472 108.4742986 101.4001148  25.0415602 110.4234257  94.1187654
  24.6020592 109.9310636  94.8120511  25.7923719 109.8807225  93.8779730
  17.5207941 106.6145798  94.1212282  18.3465961 106.3149570  93.7410926
  17.1701993 105.8453420  94.5702071  22.4889474 105.9672266  96.1909956
  21.8669483 105.3042971  95.8912184  23.1594341 105.9933398  95.5083604
  15.7216546 104.5332124  95.0801216  14.8848454 104.1054299  94.8985217
  15.6940191 104.7264568  96.0172007  22.5614001  94.4454054 105.7842462
  22.6102157  95.3216177 105.4020232  23.1036516  93.9031447 105.2114105
  33.0468847 104.9895177 105.0643599  32.2564391 104.9719316 104.5248099
  32.8102202 105.5283471 105.8192636  33.1666722 101.8387644 102.3776328
  33.2164727 101.6737651 103.3191850  33.0580645 100.9714903 101.9874208
  22.0502981 104.5176189  89.6668417  22.1991101 105.2011654  89.0135089
  22.8569424 104.4981279  90.1817872  30.4570485  97.8218572 103.6935634
  31.3580347  97.6825036 103.4019632  30.5318459  97.9873026 104.6333812
  24.7913290  95.1985426 102.5388821  23.9216599  95.4918992 102.2671409
  25.0272770  95.7825871 103.2596084  34.6684919 104.2584585 102.6218349
  34.3769727 104.6214566 103.4581810  34.0557050 103.5451593 102.4431681
  35.8680601 101.8237465  95.1420919  36.7027493 102.2627269  95.3058480
  36.0039730 101.3476118  94.3229165  32.9172107  99.3817200 101.0898407
  33.3926229  99.5744846 100.2817259  31.9937673  99.4376386 100.8441791
  19.8055614 100.5441367  90.6729485  19.5601656  99.6403697  90.8709696
  19.9751528 100.5458517  89.7308963  27.4952324  91.4165043 100.0554241
  28.0134268  92.1526070  99.7300730  27.1407456  91.7229037 100.8901000
  19.0751261  96.2769724  88.1715647  18.3820506  96.3514079  87.5155683
  18.8303013  95.5130068  88.6937164  27.7464918  87.8365326  95.5755138
  28.0266672  87.1688515  96.2015564  28.5315525  88.0294421  95.0629802
  25.5498386 107.0124320  87.1380164  24.9772353 107.6314507  86.6850636
  26.1231180 107.5623681  87.6720086  31.6173776  96.2582960  99.3226713
  32.5691199  96.3581057  99.3438937  31.4477227  95.4661228  99.8324797
  29.6388156  93.3438543  99.5086114  29.0438088  93.6243556  98.8132602
  29.3537852  93.8332444 100.2802855  28.7695646 107.2961470  88.2688746
  29.7026319 107.2307032  88.4721622  28.6818859 108.1317737  87.8103279
  31.3983663 106.6127340  85.2292694  31.3197294 106.2787204  86.1228452
  32.2193330 107.1049108  85.2284166  34.0961854  99.4789080  98.4369012
  34.0638174  98.5405080  98.6228696  34.7062478  99.5573116  97.7034837
  25.9345185  98.3485132  84.4796216  26.8804290  98.2191341  84.5484635
  25.5559430  97.6099794  84.9565645  34.2456342  96.2700123  98.4827296
  33.7295391  95.4858580  98.2957224  35.1296291  95.9418840  98.6473815
  31.9067069  90.0141139  94.4423108  31.7091891  89.7056227  95.3266440
  32.5166775  90.7402777  94.5721038  39.9138404 100.5405086  97.5775049
  40.6441792 100.2790374  98.1382753  39.3045349  99.8033808  97.6177117
  37.9953701  98.6812949  98.1749500  37.2686865  98.5468914  97.5665992
  37.5800988  98.9889778  98.9806218  25.8183877 102.4002879 105.9396873
  26.7386887 102.5781478 106.1336920  25.7833460 101.4558924 105.7876573
  24.1188102  96.2735109  84.4151102  23.2119557  95.9768222  84.4913815
  24.3964083  95.9764927  83.5485388  15.0366042  97.5941472  94.8650148
  14.7168827  96.7406780  94.5724522  14.4899471  97.8090050  95.6208115
  18.8145950 100.3103913  98.5819655  19.0331960 101.2421021  98.6007688
  19.2271724  99.9511888  99.3674458  25.7350168  90.8171999  90.5695343
  24.9250896  90.4719084  90.9450589  26.4234585  90.5079542  91.1582955
  27.6640716  89.8950045  92.1919640  28.2171755  90.3145499  92.8509663
  27.9010802  88.9685794  92.2342596  23.6873815  95.8837119 107.9722404
  23.5870542  96.8331476 107.9034495  23.4695357  95.5555358 107.0998474
  22.8886887  93.1322044  84.5563081  23.7506051  93.4576942  84.8158898
  23.0737231  92.3453540  84.0436147  14.9054302 101.2144384  96.8343270
  14.2117774 100.7998337  96.3213224  15.6527293 101.2564920  96.2376689
  31.0419523  92.0050571  91.6998304  30.4618192  92.6635375  91.3176356
  30.7755456  91.1827915  91.2885721  29.4923089  91.4055628  93.9019624
  29.9922868  91.5172163  93.0933943  30.1358697  91.1016681  94.5420433
  23.5505085  99.3134258 106.7887465  23.0672167 100.1134618 106.9951354
  23.6366024  99.3242203 105.8354909  16.8191045 101.1462638  94.7109285
  16.7961733 101.2450325  93.7591168  17.1291681 101.9927788  95.0326451
  19.4778423 103.2038793  98.8255899  20.4321676 103.1722735  98.7585831
  19.2790946 102.7429416  99.6406125  20.0677805 101.7739909 101.3926697
  20.8870694 102.2683987 101.4161534  20.3414613 100.8571877 101.3644264
  29.8244401  94.1650661  90.7554652  28.9370256  94.4500312  90.5374847
  30.2398390  94.0044424  89.9081929  33.1758937  94.1897182  94.4708991
  33.9519327  94.6793634  94.7433608  32.4507071  94.6155236  94.9280861
  35.6131496  94.9024801  95.5282932  36.2075987  94.6620537  94.8176240
  35.6858080  94.1831932  96.1556468  17.8328652 108.7458412  95.8426097
  17.6983120 107.9858813  95.2764095  17.4160714 109.4699312  95.3754886
  28.9687615 103.9295336  84.8502672  29.6723465 104.1345338  85.4660328
  28.2450263 104.4972097  85.1151756  29.7985425  99.6805197  90.9704942
  29.7420626 100.1373748  90.1312575  30.3513767  98.9195881  90.7927785
  33.6090231  95.4694929  91.7955062  33.3527165  95.0691564  92.6263270
  32.9843099  96.1838723  91.6705201  37.9202569  98.2091002  94.3026353
  37.3602127  98.2784191  95.0757915  37.3146072  98.0331987  93.5825849
  20.9897777 109.6427729  96.0544540  20.8730162 110.5873162  95.9523230
  20.1690224 109.3401291  96.4430339  30.8774312 104.3677865  86.9001132
  31.7119916 103.9359063  86.7178607  30.7158655 104.1959878  87.8278027
  30.5320204 100.8709978  88.2657472  30.4769008 100.7054250  87.3245916
  29.9066259 101.5786011  88.4219661  15.3212719  96.1078042 102.0918894
  15.9671583  95.5976996 102.5806119  15.1129870  96.8446724 102.6662319
  27.8466111 103.1758890 107.5911034  28.7157271 103.3499542 107.2297669
  27.3672863 103.9953307 107.4686764  23.8416330  90.3718087  87.8442790
  23.8294999  91.3159927  88.0011061  24.7339752  90.1888233  87.5502251
  22.0152292 110.2955991  99.2700468  22.9179538 110.3279601  99.5866963
  21.7889662 109.3656442  99.2846804  23.7705894 109.0486978  95.9310547
  22.8201525 109.0488839  95.8174919  24.0738380 108.3019712  95.4146581
  27.6568449  86.9660864  92.0988727  26.8900845  86.4119350  92.2445409
  28.0679154  87.0382733  92.9602878  19.6610210  93.2545660 106.1893908
  20.5241672  92.8982464 106.3997233  19.0875621  92.9159554 106.8769312
  39.5058587 114.8847516  96.9956309  40.1436997 114.7654263  96.2919649
  39.3879430 115.8328360  97.0544261  36.3148293 114.8374944  96.9317834
  35.9766805 114.7216009  96.0438369  37.1838062 114.4366109  96.9118840
  32.1735109 116.6910420  92.9214725  31.6099974 116.6000357  92.1531012
  32.0587504 115.8710325  93.4017217  36.7968076 115.9909796 102.8904039
  36.7856717 115.5962594 102.0184543  36.9588716 115.2575868 103.4837811
  29.7199541 118.1861612  95.7598945  30.5120833 117.8452437  95.3445244
  29.9596191 118.2956587  96.6801098  37.7534668 120.3581388  88.2329190
  37.1022648 120.9435469  87.8463203  38.5479031 120.8887583  88.2924227
  31.6790295 117.4470525  88.6316324  32.4521171 116.8999512  88.4929200
  32.0315694 118.3114775  88.8430785  33.5175338 118.7746908 101.8383223
  33.2265203 119.6792538 101.7229889  34.1532322 118.8163435 102.5527293
  34.4431544 116.1523756  98.4284583  35.0395117 115.9279778  97.7141546
  34.5006516 115.4108502  99.0310031  34.0156573 113.6063191  86.2634774
  34.2682093 113.0844713  85.5018237  33.0781132 113.4429337  86.3661457
  39.0599856 112.6098970  94.0709517  39.8462945 112.1918393  93.7199934
  39.3238560 113.5145062  94.2391165  39.2309933 118.0471820  88.7698174
  38.5955766 118.1206447  89.4819078  38.9007339 118.6365419  88.0917253
  44.4608283 112.5474203  94.9742496  45.1933455 111.9773420  95.2080325
  43.7047638 112.1595803  95.4149001  33.7352862 115.5091297  88.4659149
  33.6189120 114.8336201  89.1340233  33.8455121 115.0223671  87.6491302
  36.0784402 114.9701444  92.1705838  35.7142610 114.4432065  92.8818759
  36.9351518 114.5799914  91.9972323  41.9833703 106.2595777  99.4337104
  41.6517028 107.1291188  99.2098319  41.3879316 105.9432061 100.1131135
  35.7189889 109.9991344  87.1667186  35.8864292 110.8671581  87.5337658
  35.5287058 110.1618626  86.2428476  38.4765223 118.4608323  98.8333017
  38.1765946 119.3633362  98.7248824  38.1316282 118.1940506  99.6854170
  31.9277704 114.9122120  94.8669721  31.0028201 114.7798334  95.0747413
  32.1762117 115.6916339  95.3639664  41.8762366 110.9790863  96.5130454
  40.9679244 110.9106272  96.2189215  41.8249962 111.4562808  97.3412280
  35.6979110 112.4549002  88.1513853  35.5778735 112.9006052  88.9899334
  35.0031699 112.8034319  87.5927391  29.2886515 114.5555393  95.7013510
  29.4178896 114.8089872  96.6152922  28.6083966 115.1483101  95.3818165
  33.4586002 125.2252643  91.8003985  33.3810032 126.1760468  91.8792465
  32.8547646 124.8798516  92.4578911  35.9503232 112.3980509 104.4565351
  35.1736566 112.9574429 104.4468216  36.5893795 112.8837292 104.9780222
  43.7424013 109.1807302  98.2908328  43.0998393 109.4739835  97.6448123
  43.2378941 109.0660222  99.0961525  41.3964176 112.9270475  88.9794187
  42.3082033 113.1597862  88.8041885  40.8873824 113.5107519  88.4169266
  34.2049604 115.2065962 104.0183318  34.9464289 115.7451006 103.7418142
  33.4986590 115.8332251 104.1754870  39.6804944 117.3495103 102.6155480
  40.0888300 116.9077513 101.8710112  38.9582206 116.7747730 102.8689673
  36.0336014 112.2867709  99.9889037  36.8797209 112.7107123 100.1323686
  35.9734652 111.6301334 100.6827600  40.0033759 117.9096293  96.3707769
  39.3742621 118.0742007  95.6683837  39.6159421 118.3237903  97.1418733
  43.8822991 118.8450731  93.7252133  43.1974029 119.2249632  93.1749166
  43.9666840 119.4546058  94.4584080  39.1835459 109.9472078 101.6470211
  38.9396391 110.7014138 101.1104486  39.4595390 110.3257425 102.4817458
  41.1373922 116.4910690 100.3247476  41.3490818 117.1342450  99.6481857
  41.0903671 115.6573007  99.8569406  38.7400151 109.1028511  97.2284048
  37.8784630 109.4009764  97.5200786  38.7662586 109.3198910  96.2965081
  35.5561721 117.6470701  93.6357854  36.0200066 117.9258404  92.8462476
  35.2918519 116.7454146  93.4530945  32.4485802 117.1942183  96.5737617
  33.0187159 117.6229451  95.9355102  33.0393914 116.9124768  97.2721803
  34.4930607 113.7693854  90.4447419  35.1954650 114.2214897  90.9121345
  34.1611235 113.1277673  91.0727312  32.9410968 112.3605610 104.8198628
  32.3109629 113.0421891 105.0534025  32.8347056 112.2488692 103.8751767
  28.2355941 112.0277406  95.7464553  27.4454995 112.2834935  95.2704663
  28.7267188 112.8425744  95.8516593  42.2519750 119.3682646  98.4969833
  43.0737194 118.9662833  98.2152515  42.2482153 119.2650880  99.4485949
  30.1870686 112.3921986  92.7048029  29.3901849 112.5040680  93.2231525
  29.9596278 112.7308638  91.8388920  36.0176354 118.9166689 100.6530544
  36.0820786 119.3787096 101.4888716  35.3087278 118.2864054 100.7812854
  26.5193644 112.2807897  98.1779543  26.7701682 113.1654907  98.4437119
  27.0553192 112.1012498  97.4054635  50.3425743 115.7121394  94.8454805
  49.5889452 115.1428792  94.6898809  50.4773284 115.6784059  95.7925440
  35.7324371 120.5834796  90.5209524  35.5970046 121.4286332  90.9494372
  36.2734184 120.7854074  89.7575458  32.2191711 106.6626376 107.1823879
  31.8258657 106.1092575 107.8571524  33.0357851 106.9736955 107.5730397
  29.1853769 118.1010234  91.0937449  29.6978289 118.8953485  91.2443014
  29.8376482 117.4036525  91.0271051  30.9948653 121.2175991  93.1760203
  31.1715282 122.1393955  92.9881186  31.7905487 120.9034410  93.6054582
  35.1359672 108.0784255 104.7744136  35.8769385 108.6791408 104.6948599
  35.3677595 107.3361893 104.2162179  30.2801010 113.2640623 103.0522366
  30.1654525 112.3625880 103.3529465  29.4245528 113.5104319 102.7007182
  37.3592848 121.2058363 104.6509866  36.9156702 120.4194741 104.3330771
  38.0210061 121.3937513 103.9853757  32.1179969 122.7354164  99.1770545
  32.6687394 122.6071228  98.4047539  31.2791445 123.0349053  98.8265438
  39.4574086 121.4861163 102.6791268  39.4392561 122.3070044 102.1871537
  40.3794006 121.3615238 102.9041409  35.9147140 119.0005292 103.5214776
  36.4475477 118.2393580 103.2914084  35.3861221 118.7078944 104.2638930
  39.0816835 104.1065358  99.0508418  38.7381104 104.9967000  98.9747528
  39.4495797 103.9167016  98.1878003  27.1502685 116.4298889  91.8697020
  27.9877907 116.8395897  91.6530728  27.3280953 115.4898331  91.8397214
  39.0467118 114.0973969  87.5580853  38.5313741 114.8678574  87.7969240
  38.7744426 113.4239106  88.1813914  36.6314229 108.9423670  92.6166091
  35.7755825 108.5530521  92.4371730  37.0441180 109.0215631  91.7565877
  38.1613375 106.4770013  97.0157651  37.6578171 106.4400149  96.2025456
  38.4543982 107.3862756  97.0754308  34.4056261 106.5608743  96.0223833
  35.2709258 106.3651552  95.6629722  34.4733770 106.3319095  96.9493189
  44.0201392 116.8506324  89.4934026  43.2430835 116.5117483  89.0489188
  44.6992873 116.8558947  88.8188991  38.8353421 111.9701061  89.3840634
  38.5303556 112.2847211  90.2350777  39.7883863 112.0482481  89.4267967
  37.2799853 118.1291285  91.0333588  36.7521214 117.3944044  90.7206825
  36.7787355 118.9065961  90.7873556  42.2592699 116.3240305  96.1500634
  41.6016373 117.0139567  96.2380763  43.0633098 116.7136737  96.4934621
  32.0118580 108.7910951  93.3940200  32.5862332 108.5686133  92.6613392
  32.5989563 108.8599646  94.1468801  41.0698157 114.6784678  94.2004576
  41.5830039 115.3114670  94.7026286  41.7199381 114.0785873  93.8347936
  32.3388167 110.8215412  87.4136085  31.5025480 111.1590099  87.7345360
  32.1992937 110.6864392  86.4763222  34.3141248 105.6652200  92.1215269
  33.6605660 105.3501217  91.4971884  34.2721722 105.0427940  92.8475092
  35.4252453 115.9471495  84.0368561  34.5179515 115.7160748  84.2359710
  35.9223485 115.1509114  84.2242543  38.3320532 124.6569002  86.9565247
  37.6582230 124.9600699  87.5650205  38.7186354 125.4598083  86.6070704
  37.5478988 112.1534133  96.4462917  36.6301550 112.3749080  96.2884605
  37.9639132 112.2280444  95.5874624  38.3314036 113.5525549  91.5765597
  39.0785855 114.0646946  91.2672719  38.6005626 113.2309602  92.4369990
  36.6040686 116.0484090  88.5592551  35.6951906 115.7643123  88.6565021
  36.6335770 116.4683168  87.6995858  41.8359954 119.6590679  92.3283719
  41.3822281 118.8181589  92.3848909  41.2053920 120.2952078  92.6658499
  40.7792873 110.5882665  93.5584386  40.0415630 110.0760052  93.8894629
  41.0319647 110.1483047  92.7467663  40.2792893 121.4967176  93.2633537
  40.5715867 122.0572233  92.5445902  40.7891513 121.7895737  94.0186696
  40.8804501 103.3658917  94.1526155  41.1863377 102.5056281  93.8652070
  41.6057105 103.9576538  93.9525149  27.1728857 113.7689604  92.5407753
  26.9753256 113.1758965  91.8158820  26.6175521 113.4641814  93.2583692
  35.1525580 113.6612710  94.6602346  35.2074190 112.7086547  94.5844823
  34.3416782 113.8172150  95.1443645  36.3016774 117.5892834  85.8980630
  35.8636204 116.8728692  85.4386267  37.0427215 117.8168948  85.3365721
  33.0917940 112.2789770  92.4192725  32.2785806 112.5783941  92.8257917
  33.5876934 111.8845459  93.1367208  35.2426518 122.2747527  94.3526990
  35.2002697 122.5008373  93.4235522  36.1589217 122.0410902  94.5012791
  38.6892152 112.7431595 101.2507619  39.0441540 112.9703068 102.1102085
  39.3364283 113.0749972 100.6284875  44.4189889 115.8650031  91.9556948
  44.2807787 116.0551627  91.0278137  44.0626108 116.6269413  92.4124999
  32.5832015 109.8508126  98.0353960  33.2231394 109.7096885  97.3376924
  31.7509546 109.5642639  97.6592562  44.4459268 117.9326558  96.9668220
  44.8795775 117.8401847  97.8151274  45.1590849 117.9084058  96.3288236
  33.3592319 119.1510556  94.1488953  34.1532917 118.6560876  93.9471528
  32.6484011 118.6228419  93.7856658  38.1787163 121.5328652  98.5001320
  38.2324186 122.1019588  99.2679036  37.3101945 121.7030537  98.1355358
  29.6675082 113.2953638  90.2248705  28.7372670 113.2338093  90.4418668
  29.7632554 112.7729591  89.4285347  29.5860631 109.8208451  92.8126947
  29.8467449 110.7353784  92.7036108  30.4077804 109.3532893  92.9623560
  31.0585557 111.2346208  99.9825772  31.7308610 111.0263570  99.3338421
  30.2315343 111.0368294  99.5431004  45.3074818 117.9750258  99.5001105
  45.5010708 118.8796069  99.7460380  45.2075436 117.5157677 100.3339690
  36.9611129 107.8608149 101.9991433  36.3139044 108.5598099 101.9055909
  37.7312144 108.2944293 102.3667681  40.3689927 118.1257001 105.0741986
  40.2175433 117.8967553 104.1572069  40.3594606 119.0827602 105.0873331
  37.1375263 115.6988914 100.0588252  38.0667323 115.8500073  99.8857220
  36.7166293 115.7872935  99.2036899  35.9363595 119.7239578  97.8286790
  35.7974681 119.3558363  98.7012728  35.1478191 120.2387218  97.6570748
  36.5311747 124.8248675  89.1712326  36.7063503 124.3536718  89.9857949
  35.8444535 125.4514441  89.3993587  37.4868810 119.1021181  95.2175628
  37.1518643 119.0621951  96.1133278  36.9872756 118.4365897  94.7446038
  31.4613054 114.5088811 100.7428209  31.3232852 113.7769050 101.3439748
  32.3717977 114.4197711 100.4612397  40.4228002 116.4477215  85.4912687
  39.8057172 115.7224043  85.3945740  39.9544490 117.2086575  85.1479762
  34.0895355 114.2208770 100.2311888  34.7994973 113.5801962 100.1898507
  34.0464663 114.4721665 101.1538069  42.0782133 121.1576124 103.1518468
  42.0194679 120.4735344 102.4849051  42.4801652 121.8995114 102.6999094
  32.8024289 111.2073988 102.0507528  32.2661646 110.7564727 102.7029124
  32.2140997 111.3419897 101.3077992  32.2126548 110.6662640  84.6133992
  31.3356014 110.5451440  84.2496238  32.6884301 109.8748718  84.3612880
  42.0799541 119.1215708 101.3832447  41.1926319 118.7841629 101.5058846
  42.6498092 118.3898739 101.6201213  23.7328688 115.4539799  94.7075499
  24.4199728 115.1401529  94.1196514  23.5776816 116.3581164  94.4342750
  28.5363410 110.3429996  99.1360522  28.4521599 109.7355665  98.4010932
  27.7146116 110.8339014  99.1370019  35.6100694 123.7817160  98.3493691
  35.5370865 124.5872131  98.8612995  35.1678087 123.9809126  97.5241712
  35.3990474 123.0188930  91.8596512  34.6157995 123.5610610  91.9534737
  36.0983219 123.5362910  92.2590753  38.7087124 108.8283559  94.5030717
  39.2055823 108.0753522  94.1831788  37.9374105 108.8647876  93.9373927
  46.5616881 114.5323925  96.1449009  46.5506757 115.4148640  95.7742942
  45.6934261 114.1795476  95.9503546  38.0699378 123.6803994 100.5051849
  38.7827350 124.3151459 100.4327751  37.5789406 123.7767860  99.6891851
  39.7916904 117.5855247  92.0769141  38.8573183 117.7056709  91.9073845
  39.9693573 116.6827713  91.8129151  35.2922092 110.9700942  94.2302402
  34.9219880 110.4171983  94.9183308  35.7881185 110.3659076  93.6777402
  43.1789456 113.4272566  92.6119175  43.6449908 114.2600557  92.5379478
  43.6296956 112.9617547  93.3164433  33.1211291 121.4298437 101.3257420
  33.8220751 122.0634920 101.4786814  32.6506406 121.7713169 100.5653059
  41.2465687 119.7716387  89.6105327  41.5225531 119.6572982  90.5199201
  40.3770186 119.3733872  89.5717500  41.1506119 105.7953153  96.6510076
  40.2369198 106.0257380  96.8192283  41.5799220 105.8791597  97.5024109
  40.9212577 113.9843045  99.1509970  40.2684027 114.2318952  98.4962423
  41.2992957 113.1707183  98.8172448  37.8819751 124.0202738  93.2538141
  38.0642145 123.2024394  93.7165893  38.7052737 124.2370430  92.8163031
  38.2161916 122.9470923  90.5153189  38.7449683 122.4363378  89.9023351
  38.4790136 122.6313453  91.3798722  36.9700150 114.7262856 105.6376007
  36.2940787 114.6256985 106.3078383  37.7927784 114.5702070 106.1012005
  28.7179009 120.9634792  98.2588523  29.3032446 120.2178480  98.3916427
  28.5203848 121.2738749  99.1425187  31.5717664 123.9986040  93.2750965
  30.9028040 124.4832167  92.7915005  31.4330534 124.2455260  94.1894344
  23.3096664 113.5340393  96.9792966  23.3480763 113.0003983  97.7730084
  22.8036957 113.0075598  96.3603943  35.7122933 126.0329783  99.8733623
  36.2641241 126.1961405 100.6382709  36.0529126 126.6234221  99.2013648
  30.6887426 108.3804933 100.4755508  30.7528753 109.2419764 100.0632906
  30.6254546 107.7678935  99.7427867  30.1639699 110.4528066 104.1228542
  30.7911737 110.0705143 104.7366067  29.3067618 110.2342268 104.4884235
  40.5633807 120.8591041 105.7282278  41.1073711 121.4720999 105.2337233
  39.9820652 121.4170619 106.2449291  26.9405241 112.2604495  90.0546897
  27.2358682 111.3515173  90.0013951  26.0393277 112.2392234  89.7327900
  38.8491320 123.9811759  96.8597306  38.7242460 123.1801499  96.3508251
  39.5070411 124.4757952  96.3711276  30.4699488 110.3360491  96.0374446
  29.7486074 110.9496459  95.8981919  31.2592744 110.8718256  95.9591092
  40.9126229 121.7820779  98.4876856  39.9656564 121.6626130  98.4155182
  41.2609002 120.8943277  98.5703117  33.2725802 107.6714918 102.3115098
  33.7960204 107.9177214 103.0741407  33.0538135 108.5034953 101.8918235
  28.6693083 109.9418592  90.1786222  28.3405789 109.0615971  89.9961328
  29.0232454 109.8866261  91.0662612  37.9172662 121.5773495  94.6881208
  37.7697624 120.6490203  94.8688778  38.7426155 121.5993586  94.2038283
  31.7834906 110.2291562  90.5461700  32.1230979 110.7577483  89.8240308
  32.2307027 110.5671968  91.3220267  41.5206784 122.4002054  95.7746081
  42.4453331 122.1944915  95.6370532  41.3522087 122.1518455  96.6835422
  34.4778347 108.6128613  99.9964768  34.1375167 107.8136426 100.3985448
  33.7717353 108.9130324  99.4241601  35.1294819 105.6977925  98.4492091
  35.9520888 105.2238404  98.3270981  35.3732882 106.4768409  98.9490777
  33.7703053 108.7266184  88.7454993  34.4911416 109.1047437  88.2418710
  33.1468357 109.4455061  88.8489971  37.9134176 109.4311333  89.6813325
  38.1297791 110.3135971  89.3802153  37.4328243 109.0397546  88.9518967
  32.6533398 112.3897046  96.2584070  32.5077978 112.7037349  97.1508351
  32.1758601 113.0081946  95.7054968  34.5129780 109.3799594  96.3064959
  34.4991349 108.4840687  95.9697257  35.2302209 109.3870258  96.9403245
  36.3655911 109.8136934  98.3518087  36.1073689 110.7354005  98.3502417
  35.8340952 109.4167369  99.0418551  41.3102100 122.9187721  91.1308172
  41.4838977 122.3534144  90.3782025  41.8030991 123.7188616  90.9487662
  27.1279060 114.9302390  99.1971731  26.5832528 115.7062198  99.3292005
  28.0058410 115.2773195  99.0390852  33.9166676 108.2613974  91.5752529
  34.0382588 107.3330620  91.7743417  33.6268719 108.2752660  90.6630845
  36.7857867 105.9468885  94.7119249  36.8079564 106.0108218  93.7571229
  37.2025926 105.1073393  94.9059755  47.1641491 115.6824144  92.7498472
  47.6072637 114.9331469  92.3517595  46.2868001 115.6734281  92.3672204
  42.2977272 122.2354486  88.2305070  42.9928177 122.8561178  88.4492385
  42.6400423 121.3849837  88.5057448  27.9145082 114.0572287 102.0901888
  27.1726818 114.2054922 102.6766518  27.5937826 114.3180552 101.2268637
  44.1968696 119.6854191  89.7592401  44.7220020 120.0241464  89.0341721
  44.1091048 118.7501207  89.5755536  35.8588744 123.5988265 101.8882278
  36.1675871 123.3537412 102.7604977  36.6564226 123.8034903 101.4001148
  35.8809356 125.7526175  94.1187654  35.4414347 125.2602553  94.8120511
  36.6317473 125.2099142  93.8779730  28.3601695 121.9437715  94.1212282
  29.1859715 121.6441487  93.7410926  28.0095747 121.1745338  94.5702071
  33.3283228 121.2964184  96.1909956  32.7063238 120.6334889  95.8912184
  33.9988095 121.3225316  95.5083604  26.5610300 119.8624042  95.0801216
  25.7242209 119.4346216  94.8985217  26.5333946 120.0556485  96.0172007
  33.4007756 109.7745972 105.7842462  33.4495911 110.6508094 105.4020232
  33.9430270 109.2323365 105.2114105  43.8862602 120.3187095 105.0643599
  43.0958145 120.3011234 104.5248099  43.6495956 120.8575389 105.8192636
  44.0060477 117.1679561 102.3776328  44.0558482 117.0029569 103.3191850
  43.8974400 116.3006820 101.9874208  32.8896735 119.8468107  89.6668417
  33.0384856 120.5303571  89.0135089  33.6963179 119.8273197  90.1817872
  41.2964239 113.1510489 103.6935634  42.1974102 113.0116954 103.4019632
  41.3712214 113.3164944 104.6333812  35.6307044 110.5277344 102.5388821
  34.7610354 110.8210910 102.2671409  35.8666525 111.1117789 103.2596084
  45.5078673 119.5876503 102.6218349  45.2163482 119.9506483 103.4581810
  44.8950805 118.8743511 102.4431681  46.7074356 117.1529383  95.1420919
  47.5421247 117.5919187  95.3058480  46.8433485 116.6768036  94.3229165
  43.7565862 114.7109117 101.0898407  44.2319983 114.9036764 100.2817259
  42.8331427 114.7668303 100.8441791  30.6449368 115.8733285  90.6729485
  30.3995410 114.9695615  90.8709696  30.8145283 115.8750435  89.7308963
  38.3346078 106.7456961 100.0554241  38.8528022 107.4817988  99.7300730
  37.9801211 107.0520954 100.8901000  29.9145016 111.6061642  88.1715647
  29.2214261 111.6805997  87.5155683  29.6696768 110.8421986  88.6937164
  38.5858672 103.1657244  95.5755138  38.8660426 102.4980433  96.2015564
  39.3709279 103.3586339  95.0629802  36.3892141 122.3416237  87.1380164
  35.8166108 122.9606425  86.6850636  36.9624935 122.8915599  87.6720086
  42.4567531 111.5874877  99.3226713  43.4084954 111.6872975  99.3438937
  42.2870981 110.7953146  99.8324797  40.4781910 108.6730461  99.5086114
  39.8831842 108.9535473  98.8132602  40.1931607 109.1624362 100.2802855
  39.6089401 122.6253388  88.2688746  40.5420074 122.5598949  88.4721622
  39.5212613 123.4609654  87.8103279  42.2377417 121.9419258  85.2292694
  42.1591049 121.6079121  86.1228452  43.0587084 122.4341026  85.2284166
  44.9355608 114.8080997  98.4369012  44.9031929 113.8696998  98.6228696
  45.5456232 114.8865034  97.7034837  36.7738939 113.6777050  84.4796216
  37.7198044 113.5483258  84.5484635  36.3953184 112.9391712  84.9565645
  45.0850097 111.5992041  98.4827296  44.5689146 110.8150497  98.2957224
  45.9690046 111.2710757  98.6473815  42.7460824 105.3433056  94.4423108
  42.5485645 105.0348144  95.3266440  43.3560529 106.0694695  94.5721038
  50.7532158 115.8697004  97.5775049  51.4835547 115.6082292  98.1382753
  50.1439104 115.1325726  97.6177117  48.8347455 114.0104867  98.1749500
  48.1080619 113.8760832  97.5665992  48.4194742 114.3181695  98.9806218
  36.6577632 117.7294796 105.9396873  37.5780641 117.9073395 106.1336920
  36.6227215 116.7850842 105.7876573  34.9581857 111.6027027  84.4151102
  34.0513312 111.3060139  84.4913815  35.2357838 111.3056845  83.5485388
  25.8759797 112.9233390  94.8650148  25.5562581 112.0698698  94.5724522
  25.3293225 113.1381968  95.6208115  29.6539704 115.6395831  98.5819655
  29.8725714 116.5712939  98.6007688  30.0665478 115.2803805  99.3674458
  36.5743922 106.1463916  90.5695343  35.7644651 105.8011001  90.9450589
  37.2628339 105.8371460  91.1582955  38.5034471 105.2241963  92.1919640
  39.0565509 105.6437416  92.8509663  38.7404557 104.2977711  92.2342596
  34.5267570 111.2129037 107.9722404  34.4264297 112.1623394 107.9034495
  34.3089112 110.8847276 107.0998474  33.7280641 108.4613962  84.5563081
  34.5899805 108.7868860  84.8158898  33.9130985 107.6745458  84.0436147
  25.7448057 116.5436301  96.8343270  25.0511528 116.1290254  96.3213224
  26.4921048 116.5856838  96.2376689  41.8813278 107.3342488  91.6998304
  41.3011947 107.9927292  91.3176356  41.6149210 106.5119833  91.2885721
  40.3316844 106.7347546  93.9019624  40.8316622 106.8464080  93.0933943
  40.9752452 106.4308599  94.5420433  34.3898840 114.6426176 106.7887465
  33.9065922 115.4426536 106.9951354  34.4759779 114.6534120 105.8354909
  27.6584799 116.4754555  94.7109285  27.6355488 116.5742242  93.7591168
  27.9685436 117.3219706  95.0326451  30.3172177 118.5330710  98.8255899
  31.2715431 118.5014653  98.7585831  30.1184701 118.0721334  99.6406125
  30.9071559 117.1031826 101.3926697  31.7264448 117.5975905 101.4161534
  31.1808367 116.1863794 101.3644264  40.6638156 109.4942579  90.7554652
  39.7764011 109.7792229  90.5374847  41.0792145 109.3336342  89.9081929
  44.0152692 109.5189100  94.4708991  44.7913082 110.0085552  94.7433608
  43.2900826 109.9447154  94.9280861  46.4525250 110.2316719  95.5282932
  47.0469741 109.9912455  94.8176240  46.5251834 109.5123849  96.1556468
  28.6722406 124.0750330  95.8426097  28.5376874 123.3150731  95.2764095
  28.2554468 124.7991230  95.3754886  39.8081369 119.2587253  84.8502672
  40.5117219 119.4637256  85.4660328  39.0844018 119.8264015  85.1151756
  40.6379179 115.0097115  90.9704942  40.5814381 115.4665666  90.1312575
  41.1907522 114.2487799  90.7927785  44.4483985 110.7986846  91.7955062
  44.1920920 110.3983482  92.6263270  43.8236853 111.5130640  91.6705201
  48.7596323 113.5382920  94.3026353  48.1995881 113.6076109  95.0757915
  48.1539827 113.3623904  93.5825849  31.8291532 124.9719647  96.0544540
  31.7123916 125.9165079  95.9523230  31.0083978 124.6693208  96.4430339
  41.7168067 119.6969782  86.9001132  42.5513670 119.2650981  86.7178607
  41.5552409 119.5251796  87.8278027  41.3713959 116.2001896  88.2657472
  41.3162762 116.0346167  87.3245916  40.7460014 116.9077929  88.4219661
  26.1606474 111.4369960 102.0918894  26.8065337 110.9268914 102.5806119
  25.9523625 112.1738642 102.6662319  38.6859866 118.5050808 107.5911034
  39.5551025 118.6791460 107.2297669  38.2066617 119.3245224 107.4686764
  34.6810084 105.7010005  87.8442790  34.6688754 106.6451845  88.0011061
  35.5733506 105.5180150  87.5502251  32.8546046 125.6247909  99.2700468
  33.7573293 125.6571519  99.5866963  32.6283416 124.6948360  99.2846804
  34.6099648 124.3778895  95.9310547  33.6595279 124.3780757  95.8174919
  34.9132134 123.6311630  95.4146581  38.4962204 102.2952781  92.0988727
  37.7294599 101.7411268  92.2445409  38.9072909 102.3674650  92.9602878
  30.5003965 108.5837577 106.1893908  31.3635426 108.2274382 106.3997233
  29.9269375 108.2451472 106.8769312  50.3452342 130.2139434  96.9956309
  50.9830752 130.0946181  96.2919649  50.2273184 131.1620278  97.0544261
  47.1542048 130.1666862  96.9317834  46.8160559 130.0507926  96.0438369
  48.0231816 129.7658027  96.9118840  43.0128864 132.0202338  92.9214725
  42.4493729 131.9292275  92.1531012  42.8981259 131.2002243  93.4017217
  47.6361831 131.3201713 102.8904039  47.6250472 130.9254512 102.0184543
  47.7982470 130.5867786 103.4837811  45.2825299 131.4815674  98.4284583
  45.8788871 131.2571696  97.7141546  45.3400270 130.7400419  99.0310031
  44.8550327 128.9355109  86.2634774  45.1075848 128.4136630  85.5018237
  43.9174886 128.7721255  86.3661457  49.8993610 127.9390887  94.0709517
  50.6856699 127.5210311  93.7199934  50.1632314 128.8436980  94.2391165
  50.0703687 133.3763738  88.7698174  49.4349520 133.4498364  89.4819078
  49.7401094 133.9657337  88.0917253  55.3002037 127.8766121  94.9742496
  56.0327209 127.3065337  95.2080325  54.5441393 127.4887721  95.4149001
  44.5746616 130.8383215  88.4659149  44.4582874 130.1628118  89.1340233
  44.6848876 130.3515589  87.6491302  46.9178157 130.2993362  92.1705838
  46.5536364 129.7723983  92.8818759  47.7745273 129.9091831  91.9972323
  52.8227458 121.5887695  99.4337104  52.4910782 122.4583106  99.2098319
  52.2273071 121.2723979 100.1131135  46.5583644 125.3283262  87.1667186
  46.7258046 126.1963498  87.5337658  46.3680813 125.4910544  86.2428476
  49.3158977 133.7900241  98.8333017  49.0159700 134.6925280  98.7248824
  48.9710037 133.5232424  99.6854170  42.7671459 130.2414038  94.8669721
  41.8421955 130.1090252  95.0747413  43.0155872 131.0208257  95.3639664
  52.7156121 126.3082781  96.5130454  51.8072998 126.2398189  96.2189215
  52.6643717 126.7854726  97.3412280  46.5372865 127.7840919  88.1513853
  46.4172490 128.2297970  88.9899334  45.8425453 128.1326237  87.5927391
  40.1280270 129.8847311  95.7013510  40.2572651 130.1381790  96.6152922
  39.4477721 130.4775019  95.3818165  46.7896987 127.7272427 104.4565351
  46.0130321 128.2866347 104.4468216  47.4287550 128.2129209 104.9780222
  54.5817767 124.5099219  98.2908328  53.9392148 124.8031752  97.6448123
  54.0772696 124.3952140  99.0961525  52.2357931 128.2562393  88.9794187
  53.1475787 128.4889779  88.8041885  51.7267578 128.8399437  88.4169266
  45.0443359 130.5357880 104.0183318  45.7858043 131.0742924 103.7418142
  44.3380344 131.1624169 104.1754870  50.5198699 132.6787020 102.6155480
  50.9282055 132.2369431 101.8710112  49.7975960 132.1039648 102.8689673
  46.8729769 127.6159627  99.9889037  47.7190964 128.0399041 100.1323686
  46.8128406 126.9593251 100.6827600  50.8427513 133.2388211  96.3707769
  50.2136376 133.4033925  95.6683837  50.4553175 133.6529821  97.1418733
  54.7216745 134.1742649  93.7252133  54.0367783 134.5541550  93.1749166
  54.8060594 134.7837975  94.4584080  50.0229214 125.2763995 101.6470211
  49.7790146 126.0306056 101.1104486  50.2989144 125.6549343 102.4817458
  51.9767677 131.8202608 100.3247476  52.1884572 132.4634368  99.6481857
  51.9297425 130.9864924  99.8569406  49.5793906 124.4320428  97.2284048
  48.7178385 124.7301682  97.5200786  49.6056340 124.6490827  96.2965081
  46.3955475 132.9762619  93.6357854  46.8593821 133.2550322  92.8462476
  46.1312273 132.0746064  93.4530945  45.3324361 129.0985771  90.4447419
  46.0348405 129.5506815  90.9121345  45.0004990 128.4569590  91.0727312
  43.7804723 127.6897528 104.8198628  43.1503383 128.3713809 105.0534025
  43.6740811 127.5780610 103.8751767  39.0749695 127.3569324  95.7464553
  38.2848749 127.6126853  95.2704663  39.5660943 128.1717662  95.8516593
  53.0913505 134.6974563  98.4969833  53.9130948 134.2954751  98.2152515
  53.0875908 134.5942797  99.4485949  41.0264441 127.7213903  92.7048029
  40.2295604 127.8332598  93.2231525  40.7990033 128.0600556  91.8388920
  37.3587398 127.6099815  98.1779543  37.6095437 128.4946824  98.4437119
  37.8946947 127.4304416  97.4054635  61.1819498 131.0413312  94.8454805
  60.4283206 130.4720710  94.6898809  61.3167039 131.0075976  95.7925440
  43.0585465 121.9918294 107.1823879  42.6652411 121.4384492 107.8571524
  43.8751606 122.3028872 107.5730397  45.9753426 123.4076173 104.7744136
  46.7163140 124.0083326 104.6948599  46.2071349 122.6653811 104.2162179
  41.1194764 128.5932540 103.0522366  41.0048280 127.6917797 103.3529465
  40.2639282 128.8396237 102.7007182  49.9210589 119.4357276  99.0508418
  49.5774859 120.3258918  98.9747528  50.2889552 119.2458934  98.1878003
  49.8860872 129.4265887  87.5580853  49.3707496 130.1970492  87.7969240
  49.6138181 128.7531023  88.1813914  47.4707983 124.2715588  92.6166091
  46.6149579 123.8822438  92.4371730  47.8834935 124.3507549  91.7565877
  49.0007130 121.8061931  97.0157651  48.4971925 121.7692066  96.2025456
  49.2937737 122.7154674  97.0754308  45.2450016 121.8900661  96.0223833
  46.1103012 121.6943469  95.6629722  45.3127525 121.6611013  96.9493189
  54.8595146 132.1798242  89.4934026  54.0824589 131.8409401  89.0489188
  55.5386627 132.1850865  88.8188991  49.6747175 127.2992979  89.3840634
  49.3697311 127.6139128  90.2350777  50.6277617 127.3774399  89.4267967
  53.0986453 131.6532223  96.1500634  52.4410128 132.3431484  96.2380763
  53.9026852 132.0428655  96.4934621  42.8512335 124.1202869  93.3940200
  43.4256087 123.8978050  92.6613392  43.4383317 124.1891563  94.1468801
  51.9091912 130.0076596  94.2004576  52.4223794 130.6406587  94.7026286
  52.5593136 129.4077791  93.8347936  43.1781922 126.1507330  87.4136085
  42.3419234 126.4882016  87.7345360  43.0386691 126.0156310  86.4763222
  45.1535002 120.9944118  92.1215269  44.4999415 120.6793135  91.4971884
  45.1115477 120.3719858  92.8475092  46.2646207 131.2763413  84.0368561
  45.3573269 131.0452666  84.2359710  46.7617239 130.4801032  84.2242543
  48.3872743 127.4826051  96.4462917  47.4695304 127.7040998  96.2884605
  48.8032886 127.5572362  95.5874624  49.1707791 128.8817467  91.5765597
  49.9179610 129.3938864  91.2672719  49.4399380 128.5601520  92.4369990
  47.4434441 131.3776008  88.5592551  46.5345660 131.0935040  88.6565021
  47.4729525 131.7975086  87.6995858  52.6753708 134.9882597  92.3283719
  52.2216035 134.1473507  92.3848909  52.0447675 135.6243995  92.6658499
  51.6186628 125.9174583  93.5584386  50.8809385 125.4051969  93.8894629
  51.8713401 125.4774965  92.7467663  51.7198255 118.6950835  94.1526155
  52.0257132 117.8348199  93.8652070  52.4450860 119.2868455  93.9525149
  38.0122611 129.0981522  92.5407753  37.8147011 128.5050882  91.8158820
  37.4569275 128.7933732  93.2583692  45.9919335 128.9904628  94.6602346
  46.0467945 128.0378465  94.5844823  45.1810537 129.1464067  95.1443645
  47.1410529 132.9184751  85.8980630  46.7029958 132.2020610  85.4386267
  47.8820969 133.1460866  85.3365721  43.9311695 127.6081688  92.4192725
  43.1179560 127.9075858  92.8257917  44.4270689 127.2137377  93.1367208
  49.5285906 128.0723512 101.2507619  49.8835294 128.2994986 102.1102085
  50.1758038 128.4041889 100.6284875  55.2583643 131.1941948  91.9556948
  55.1201542 131.3843544  91.0278137  54.9019862 131.9561331  92.4124999
  43.4225769 125.1800043  98.0353960  44.0625149 125.0388803  97.3376924
  42.5903300 124.8934557  97.6592562  55.2853023 133.2618475  96.9668220
  55.7189530 133.1693764  97.8151274  55.9984604 133.2375976  96.3288236
  40.5068837 128.6245556  90.2248705  39.5766425 128.5630011  90.4418668
  40.6026309 128.1021508  89.4285347  40.4254386 125.1500368  92.8126947
  40.6861203 126.0645702  92.7036108  41.2471558 124.6824811  92.9623560
  41.8979311 126.5638126  99.9825772  42.5702365 126.3555488  99.3338421
  41.0709098 126.3660212  99.5431004  56.1468572 133.3042176  99.5001105
  56.3404463 134.2087986  99.7460380  56.0469191 132.8449595 100.3339690
  47.8004883 123.1900067 101.9991433  47.1532798 123.8890016 101.9055909
  48.5705899 123.6236210 102.3667681  51.2083681 133.4548919 105.0741986
  51.0569188 133.2259470 104.1572069  51.1988361 134.4119520 105.0873331
  47.9769018 131.0280831 100.0588252  48.9061078 131.1791991  99.8857220
  47.5560048 131.1164852  99.2036899  42.3006808 129.8380729 100.7428209
  42.1626606 129.1060967 101.3439748  43.2111732 129.7489629 100.4612397
  51.2621756 131.7769133  85.4912687  50.6450927 131.0515961  85.3945740
  50.7938245 132.5378493  85.1479762  44.9289109 129.5500688 100.2311888
  45.6388728 128.9093880 100.1898507  44.8858417 129.8013583 101.1538069
  43.6418043 126.5365906 102.0507528  43.1055400 126.0856644 102.7029124
  43.0534752 126.6711815 101.3077992  43.0520302 125.9954557  84.6133992
  42.1749768 125.8743358  84.2496238  43.5278055 125.2040635  84.3612880
  52.9193295 134.4507625 101.3832447  52.0320074 134.1133547 101.5058846
  53.4891846 133.7190656 101.6201213  39.3757164 125.6721913  99.1360522
  39.2915353 125.0647583  98.4010932  38.5539871 126.1630932  99.1370019
  49.5480878 124.1575477  94.5030717  50.0449578 123.4045439  94.1831788
  48.7767860 124.1939794  93.9373927  57.4010636 129.8615843  96.1449009
  57.3900512 130.7440558  95.7742942  56.5328015 129.5087393  95.9503546
  50.6310659 132.9147164  92.0769141  49.6966938 133.0348627  91.9073845
  50.8087327 132.0119631  91.8129151  46.1315847 126.2992860  94.2302402
  45.7613634 125.7463900  94.9183308  46.6274939 125.6950993  93.6777402
  54.0183210 128.7564484  92.6119175  54.4843662 129.5892475  92.5379478
  54.4690711 128.2909465  93.3164433  52.0859441 135.1008305  89.6105327
  52.3619285 134.9864899  90.5199201  51.2163940 134.7025790  89.5717500
  51.9899873 121.1245071  96.6510076  51.0762953 121.3549297  96.8192283
  52.4192974 121.2083515  97.5024109  51.7606331 129.3134962  99.1509970
  51.1077782 129.5610870  98.4962423  52.1386711 128.4999101  98.8172448
  47.8093905 130.0554774 105.6376007  47.1334542 129.9548903 106.3078383
  48.6321538 129.8993987 106.1012005  34.1490418 128.8632310  96.9792966
  34.1874518 128.3295901  97.7730084  33.6430711 128.3367516  96.3603943
  41.5281181 123.7096851 100.4755508  41.5922507 124.5711682 100.0632906
  41.4648301 123.0970852  99.7427867  41.0033453 125.7819983 104.1228542
  41.6305492 125.3997061 104.7366067  40.1461372 125.5634185 104.4884235
  37.7798996 127.5896412  90.0546897  38.0752437 126.6807091  90.0013951
  36.8787032 127.5684152  89.7327900  41.3093243 125.6652409  96.0374446
  40.5879829 126.2788377  95.8981919  42.0986499 126.2010174  95.9591092
  44.1119556 123.0006836 102.3115098  44.6353958 123.2469132 103.0741407
  43.8931890 123.8326870 101.8918235  39.5086837 125.2710510  90.1786222
  39.1799544 124.3907889  89.9961328  39.8626208 125.2158179  91.0662612
  42.6228661 125.5583480  90.5461700  42.9624733 126.0869401  89.8240308
  43.0700781 125.8963886  91.3220267  45.3172101 123.9420531  99.9964768
  44.9768922 123.1428344 100.3985448  44.6111108 124.2422241  99.4241601
  45.9688573 121.0269843  98.4492091  46.7914643 120.5530321  98.3270981
  46.2126637 121.8060327  98.9490777  44.6096808 124.0558101  88.7454993
  45.3305170 124.4339354  88.2418710  43.9862112 124.7746978  88.8489971
  48.7527931 124.7603250  89.6813325  48.9691545 125.6427888  89.3802153
  48.2721998 124.3689464  88.9518967  43.4927152 127.7188964  96.2584070
  43.3471733 128.0329267  97.1508351  43.0152356 128.3373864  95.7054968
  45.3523535 124.7091512  96.3064959  45.3385104 123.8132605  95.9697257
  46.0695963 124.7162175  96.9403245  47.2049666 125.1428852  98.3518087
  46.9467443 126.0645923  98.3502417  46.6734706 124.7459286  99.0418551
  44.7560431 123.5905892  91.5752529  44.8776342 122.6622538  91.7743417
  44.4662473 123.6044578  90.6630845  47.6251621 121.2760802  94.7119249
  47.6473318 121.3400135  93.7571229  48.0419680 120.4365311  94.9059755
  58.0035246 131.0116062  92.7498472  58.4466392 130.2623387  92.3517595
  57.1261756 131.0026198  92.3672204  38.7538836 129.3864204 102.0901888
  38.0120572 129.5346840 102.6766518  38.4331580 129.6472470 101.2268637
  55.0362450 135.0146109  89.7592401  55.5613774 135.3533382  89.0341721
  54.9484803 134.0793124  89.5755536  44.2401510 125.1037889 105.7842462
  44.2889666 125.9800012 105.4020232  44.7824025 124.5615282 105.2114105
  54.7256356 135.6479013 105.0643599  53.9351900 135.6303151 104.5248099
  54.4889711 136.1867306 105.8192636  54.8454231 132.4971479 102.3776328
  54.8952236 132.3321486 103.3191850  54.7368154 131.6298738 101.9874208
  52.1357994 128.4802407 103.6935634  53.0367856 128.3408872 103.4019632
  52.2105968 128.6456862 104.6333812  46.4700799 125.8569262 102.5388821
  45.6004108 126.1502828 102.2671409  46.7060279 126.4409707 103.2596084
  56.3472428 134.9168420 102.6218349  56.0557236 135.2798401 103.4581810
  55.7344559 134.2035429 102.4431681  57.5468110 132.4821300  95.1420919
  58.3815002 132.9211104  95.3058480  57.6827239 132.0059953  94.3229165
  54.5959616 130.0401035 101.0898407  55.0713738 130.2328681 100.2817259
  53.6725182 130.0960221 100.8441791  41.4843123 131.2025202  90.6729485
  41.2389165 130.2987532  90.8709696  41.6539037 131.2042353  89.7308963
  49.1739833 122.0748879 100.0554241  49.6921777 122.8109906  99.7300730
  48.8194965 122.3812872 100.8901000  40.7538770 126.9353560  88.1715647
  40.0608015 127.0097915  87.5155683  40.5090522 126.1713903  88.6937164
  49.4252427 118.4949161  95.5755138  49.7054181 117.8272350  96.2015564
  50.2103034 118.6878257  95.0629802  53.2961285 126.9166795  99.3226713
  54.2478708 127.0164893  99.3438937  53.1264736 126.1245064  99.8324797
  51.3175665 124.0022378  99.5086114  50.7225597 124.2827391  98.8132602
  51.0325361 124.4916279 100.2802855  55.7749363 130.1372915  98.4369012
  55.7425683 129.1988916  98.6228696  56.3849987 130.2156952  97.7034837
  47.6132694 129.0068968  84.4796216  48.5591799 128.8775176  84.5484635
  47.2346939 128.2683630  84.9565645  55.9243851 126.9283958  98.4827296
  55.4082900 126.1442415  98.2957224  56.8083800 126.6002675  98.6473815
  53.5854578 120.6724974  94.4423108  53.3879400 120.3640062  95.3266440
  54.1954284 121.3986613  94.5721038  61.5925913 131.1988922  97.5775049
  62.3229301 130.9374210  98.1382753  60.9832858 130.4617644  97.6177117
  59.6741210 129.3396784  98.1749500  58.9474374 129.2052749  97.5665992
  59.2588497 129.6473613  98.9806218  47.4971386 133.0586714 105.9396873
  48.4174396 133.2365313 106.1336920  47.4620969 132.1142759 105.7876573
  45.7975611 126.9318944  84.4151102  44.8907066 126.6352057  84.4913815
  46.0751592 126.6348762  83.5485388  36.7153551 128.2525308  94.8650148
  36.3956336 127.3990616  94.5724522  36.1686980 128.4673886  95.6208115
  47.4137677 121.4755834  90.5695343  46.6038405 121.1302919  90.9450589
  48.1022094 121.1663378  91.1582955  49.3428225 120.5533881  92.1919640
  49.8959264 120.9729334  92.8509663  49.5798311 119.6269629  92.2342596
  45.3661324 126.5420954 107.9722404  45.2658051 127.4915311 107.9034495
  45.1482866 126.2139193 107.0998474  44.5674396 123.7905879  84.5563081
  45.4293560 124.1160778  84.8158898  44.7524740 123.0037375  84.0436147
  52.7207032 122.6634406  91.6998304  52.1405701 123.3219210  91.3176356
  52.4542965 121.8411750  91.2885721  51.1710598 122.0639464  93.9019624
  51.6710377 122.1755998  93.0933943  51.8146206 121.7600516  94.5420433
  45.2292594 129.9718093 106.7887465  44.7459676 130.7718453 106.9951354
  45.3153533 129.9826038 105.8354909  51.5031910 124.8234496  90.7554652
  50.6157765 125.1084147  90.5374847  51.9185899 124.6628260  89.9081929
  54.8546446 124.8481017  94.4708991  55.6306836 125.3377470  94.7433608
  54.1294580 125.2739071  94.9280861  57.2919005 125.5608636  95.5282932
  57.8863496 125.3204372  94.8176240  57.3645589 124.8415767  96.1556468
  51.4772934 130.3389032  90.9704942  51.4208135 130.7957584  90.1312575
  52.0301276 129.5779717  90.7927785  55.2877740 126.1278764  91.7955062
  55.0314674 125.7275400  92.6263270  54.6630608 126.8422558  91.6705201
  59.5990078 128.8674837  94.3026353  59.0389636 128.9368027  95.0757915
  58.9933581 128.6915822  93.5825849  52.5561821 135.0261700  86.9001132
  53.3907425 134.5942899  86.7178607  52.3946164 134.8543714  87.8278027
  52.2107713 131.5293813  88.2657472  52.1556517 131.3638085  87.3245916
  51.5853768 132.2369846  88.4219661  37.0000228 126.7661878 102.0918894
  37.6459092 126.2560832 102.5806119  36.7917379 127.5030559 102.6662319
  49.5253620 133.8342725 107.5911034  50.3944780 134.0083378 107.2297669
  49.0460372 134.6537142 107.4686764  45.5203839 121.0301922  87.8442790
  45.5082508 121.9743762  88.0011061  46.4127261 120.8472068  87.5502251
  49.3355958 117.6244699  92.0988727  48.5688354 117.0703186  92.2445409
  49.7466663 117.6966568  92.9602878  41.3397719 123.9129495 106.1893908
  42.2029181 123.5566300 106.3997233  40.7663130 123.5743390 106.8769312
  63.6621212 136.9179612  99.4337104  63.3304537 137.7875023  99.2098319
  63.0666825 136.6015896 100.1131135  65.4211522 139.8391137  98.2908328
  64.7785902 140.1323670  97.6448123  64.9166450 139.7244057  99.0961525
  60.7604344 134.7649194  99.0508418  60.4168613 135.6550835  98.9747528
  61.1283306 134.5750851  98.1878003  59.8400884 137.1353849  97.0157651
  59.3365680 137.0983984  96.2025456  60.1331491 138.0446591  97.0754308
  56.0843770 137.2192578  96.0223833  56.9496767 137.0235387  95.6629722
  56.1521279 136.9902930  96.9493189  55.9928757 136.3236035  92.1215269
  55.3393169 136.0085052  91.4971884  55.9509231 135.7011776  92.8475092
  62.5592010 134.0242753  94.1526155  62.8650886 133.1640116  93.8652070
  63.2844614 134.6160373  93.9525149  62.8293627 136.4536988  96.6510076
  61.9156707 136.6841215  96.8192283  63.2586729 136.5375432  97.5024109
  56.8082328 136.3561761  98.4492091  57.6308397 135.8822239  98.3270981
  57.0520391 137.1352244  98.9490777  58.4645376 136.6052720  94.7119249
  58.4867073 136.6692053  93.7571229  58.8813435 135.7657229  94.9059755
  60.0133587 137.4040796 100.0554241  60.5315531 138.1401823  99.7300730
  59.6588720 137.7104790 100.8901000  60.2646181 133.8241079  95.5755138
  60.5447935 133.1564268  96.2015564  61.0496788 134.0170174  95.0629802
  64.4248333 136.0016892  94.4423108  64.2273154 135.6931980  95.3266440
  65.0348038 136.7278530  94.5721038  58.2531431 136.8047752  90.5695343
  57.4432160 136.4594837  90.9450589  58.9415848 136.4955295  91.1582955
  60.1821980 135.8825798  92.1919640  60.7353018 136.3021252  92.8509663
  60.4192066 134.9561547  92.2342596  63.5600787 137.9926324  91.6998304
  62.9799456 138.6511128  91.3176356  63.2936719 137.1703668  91.2885721
  62.0104353 137.3931381  93.9019624  62.5104131 137.5047916  93.0933943
  62.6539961 137.0892434  94.5420433  68.1312759 140.8900554  95.5282932
  68.7257250 140.6496290  94.8176240  68.2039343 140.1707685  96.1556468
  56.3597593 136.3593840  87.8442790  56.3476263 137.3035680  88.0011061
  57.2521015 136.1763986  87.5502251  60.1749713 132.9536617  92.0988727
  59.4082108 132.3995103  92.2445409  60.5860418 133.0258486  92.9602878
   6.9850727  31.4015846  81.5700112   6.2314435  30.8323244  81.4144116
   7.1198268  31.3678510  82.5170746   1.0614872  31.5544482  78.6802255
   0.9232771  31.7446078  77.7523444   0.7051091  32.3163865  79.1370306
   1.0884252  33.6221009  83.6913526   1.5220758  33.5296299  84.5396580
   1.8015832  33.5978510  83.0533542   1.9499801  33.6644710  86.2246412
   2.1435691  34.5690521  86.4705687   1.8500419  33.2052129  87.0584997
   3.2041864  30.2218377  82.8694316   3.1931741  31.1043092  82.4988249
   2.3359244  29.8689928  82.6748853   3.8066474  31.3718596  79.4743779
   4.2497620  30.6225921  79.0762902   2.9292985  31.3628733  79.0917510
   0.8393679  35.3748643  76.4837708   1.3645003  35.7135916  75.7587028
   0.7516031  34.4395658  76.3000842   0.6485460  32.8574013  89.1021634
   0.6983465  32.6924021  90.0437157   0.5399383  31.9901272  88.7119515
   2.1503657  35.2770955  89.3463656   1.8588465  35.6400935  90.1827117
   1.5375788  34.5637963  89.1676988   3.3499339  32.8423834  81.8666226
   4.1846230  33.2813639  82.0303786   3.4858468  32.3662488  81.0474472
   1.5780592  30.4975449  85.1614319   1.5456912  29.5591450  85.3474003
   2.1881215  30.5759486  84.4280144   1.7275080  27.2886493  85.2072602
   1.2114129  26.5044949  85.0202531   2.6115029  26.9605209  85.3719122
   7.3957142  31.5591456  84.3020356   8.1260530  31.2976744  84.8628059
   6.7864087  30.8220178  84.3422424   5.4772439  29.6999318  84.8994807
   4.7505602  29.5655283  84.2911299   5.0619726  30.0076147  85.7051525
   3.0950234  25.9211171  82.2528239   3.6894724  25.6806907  81.5421547
   3.1676817  25.2018301  82.8801775   1.0908969  26.4881298  78.5200368
   0.8345903  26.0877934  79.3508576   0.4661837  27.2025092  78.3950508
   5.4021306  29.2277372  81.0271660   4.8420864  29.2970561  81.8003222
   4.7964810  29.0518356  80.3071156   6.9877325  45.9033885  83.7201616
   7.6255735  45.7840633  83.0164956   6.8698168  46.8514729  83.7789568
   3.7967031  45.8561314  83.6563140   3.4585543  45.7402378  82.7683675
   4.6656799  45.4552479  83.6364146   4.2786814  47.0096165  89.6149346
   4.2675455  46.6148964  88.7429849   4.4407454  46.2762238  90.2083117
   5.2353406  51.3767758  74.9574496   4.5841385  51.9621838  74.5708510
   6.0297768  51.9073953  75.0169534   0.9994075  49.7933277  88.5628530
   0.7083941  50.6978908  88.4475196   1.6351060  49.8349805  89.2772599
   1.9250282  47.1710126  85.1529889   2.5213854  46.9466148  84.4386852
   1.9825254  46.4294871  85.7555337   1.4975311  44.6249561  72.9880080
   1.7500831  44.1031082  72.2263543   0.5599870  44.4615706  73.0906764
   6.5418593  43.6285339  80.7954824   7.3281683  43.2104762  80.4445241
   6.8057298  44.5331432  80.9636472   6.7128671  49.0658190  75.4943480
   6.0774504  49.1392816  76.2064385   6.3826077  49.6551788  74.8162560
  11.9427021  43.5660573  81.6987802  12.6752192  42.9959789  81.9325632
  11.1866376  43.1782173  82.1394308   1.2171599  46.5277667  75.1904455
   1.1007857  45.8522570  75.8585540   1.3273859  46.0410041  74.3736608
   3.5603140  45.9887814  78.8951145   3.1961347  45.4618435  79.6064066
   4.4170256  45.5986283  78.7217630   9.4652441  37.2782147  86.1582411
   9.1335766  38.1477558  85.9343626   8.8698054  36.9618431  86.8376441
   3.2008627  41.0177714  73.8912493   3.3683030  41.8857950  74.2582964
   3.0105796  41.1804995  72.9673782   5.9583960  49.4794693  85.5578323
   5.6584683  50.3819731  85.4494131   5.6135020  49.2126876  86.4099476
   9.3581104  41.9977233  83.2375761   8.4497982  41.9292641  82.9434522
   9.3068700  42.4749178  84.0657586   3.1797848  43.4735371  74.8759160
   3.0597473  43.9192422  75.7144640   2.4850436  43.8220689  74.3172698
   3.4321970  43.4166878  91.1810658   2.6555304  43.9760799  91.1713523
   4.0712533  43.9023661  91.7025528  11.2242751  40.1993671  85.0153635
  10.5817131  40.4926204  84.3693429  10.7197679  40.0846592  85.8206831
   8.8782914  43.9456844  75.7039494   9.7900770  44.1784231  75.5287192
   8.3692561  44.5293889  75.1414573   1.6868342  46.2252332  90.7428625
   2.4283027  46.7637376  90.4663449   0.9805328  46.8518621  90.9000177
   7.1623682  48.3681472  89.3400787   7.5707038  47.9263883  88.5955419
   6.4400943  47.7934100  89.5934979   3.5154752  43.3054079  86.7134344
   4.3615947  43.7293493  86.8568993   3.4553390  42.6487703  87.4072907
   7.4852497  48.9282663  83.0953075   6.8561359  49.0928377  82.3929143
   7.0978159  49.3424272  83.8664039  11.3641728  49.8637101  80.4497439
  10.6792767  50.2436002  79.8994473  11.4485578  50.4732427  81.1829387
   6.6654197  40.9658447  88.3715517   6.4215129  41.7200508  87.8349793
   6.9414128  41.3443795  89.2062764   8.6192660  47.5097060  87.0492783
   8.8309555  48.1528820  86.3727164   8.5722408  46.6759376  86.5814713
   6.2218889  40.1214880  83.9529355   5.3603368  40.4196134  84.2446092
   6.2481324  40.3385279  83.0210388   3.0380458  48.6657071  80.3603161
   3.5018804  48.9444774  79.5707783   2.7737257  47.7640516  80.1776251
   1.9749344  44.7880223  77.1692726   2.6773388  45.2401267  77.6366652
   1.6429973  44.1464042  77.7972619   9.7338488  50.3869015  85.2215140
  10.5555932  49.9849202  84.9397822   9.7300891  50.2837249  86.1731256
   3.4995091  49.9353058  87.3775851   3.5639524  50.3973466  88.2134022
   2.7906015  49.3050423  87.5058160  17.8244481  46.7307764  81.5700112
  17.0708189  46.1615162  81.4144116  17.9592022  46.6970428  82.5170746
   3.2143109  51.6021166  77.2454831   3.0788784  52.4472702  77.6739679
   3.7552922  51.8040444  76.4820765   2.6178410  39.0970625  91.4989443
   3.3588123  39.6977778  91.4193905   2.8496333  38.3548263  90.9407485
   4.8411585  52.2244732  91.3755173   4.3975440  51.4381111  91.0576077
   5.5028799  52.4123883  90.7099064   6.9392824  52.5047532  89.4036574
   6.9211299  53.3256413  88.9116843   7.8612744  52.3801608  89.6286715
   3.3965878  50.0191662  90.2460083   3.9294215  49.2579950  90.0159391
   2.8679959  49.7265314  90.9884237   6.5635573  35.1251728  85.7753724
   6.2199842  36.0153369  85.6992835   6.9314535  34.9353385  84.9123309
   6.5285855  45.1160339  74.2826159   6.0132479  45.8864944  74.5214547
   6.2563164  44.4425475  74.9059221   4.1132966  39.9610040  79.3411398
   3.2574563  39.5716890  79.1617037   4.5259918  40.0402001  78.4811183
   5.6432113  37.4956383  83.7402958   5.1396909  37.4586518  82.9270763
   5.9362720  38.4049126  83.7999614   1.8874999  37.5795113  82.7469139
   2.7527996  37.3837921  82.3875029   1.9552508  37.3505464  83.6738496
  11.5020130  47.8692694  76.2179333  10.7249572  47.5303853  75.7734495
  12.1811611  47.8745317  75.5434298   6.3172159  42.9887431  76.1085941
   6.0122294  43.3033580  76.9596084   7.2702601  43.0668851  76.1513274
   4.7618590  49.1477654  77.7578895   4.2339952  48.4130414  77.4452132
   4.2606093  49.9252331  77.5118863   9.7411436  47.3426675  82.8745941
   9.0835111  48.0325936  82.9626070  10.5451836  47.7323107  83.2179927
   8.5516895  45.6971048  80.9249883   9.0648777  46.3301039  81.4271592
   9.2018119  45.0972243  80.5593243   1.7959986  36.6838570  78.8460576
   1.1424398  36.3687587  78.2217190   1.7540460  36.0614310  79.5720399
   2.9071191  46.9657865  70.7613868   1.9998252  46.7347118  70.9605017
   3.4042223  46.1695484  70.9487849   5.8139269  55.6755372  73.6810554
   5.1400968  55.9787069  74.2895512   6.2005091  56.4784452  73.3316011
   5.0297726  43.1720503  83.1708223   4.1120287  43.3935450  83.0129911
   5.4457870  43.2466814  82.3119931   5.8132774  44.5711919  78.3010903
   6.5604593  45.0833316  77.9918026   6.0824363  44.2495971  79.1615297
   4.0859424  47.0670459  75.2837858   3.1770643  46.7829492  75.3810328
   4.1154508  47.4869538  74.4241165   9.3178691  50.6777049  79.0529025
   8.8641019  49.8367959  79.1094216   8.6872658  51.3138447  79.3903805
   8.2611611  41.6069035  80.2829693   7.5234368  41.0946421  80.6139935
   8.5138385  41.1669417  79.4712970   7.7611631  52.5153546  79.9878843
   8.0534605  53.0758603  79.2691209   8.2710251  52.8082107  80.7432003
   8.3623238  34.3845287  80.8771462   8.6682115  33.5242650  80.5897377
   9.0875843  34.9762907  80.6770456   2.6344318  44.6799080  81.3847653
   2.6892928  43.7272916  81.3090130   1.8235520  44.8358519  81.8688952
   3.7835512  48.6079203  72.6225936   3.3454942  47.8915062  72.1631574
   4.5245953  48.8355318  72.0611028   2.7245256  53.2933897  81.0772297
   2.6821435  53.5194743  80.1480829   3.6407955  53.0597271  81.2258098
   6.1710890  43.7617964  87.9752926   6.5260277  43.9889437  88.8347392
   6.8183021  44.0936341  87.3530181  11.9008627  46.8836400  78.6802255
  11.7626525  47.0737996  77.7523444  11.5444845  47.6455783  79.1370306
  11.9278006  48.9512927  83.6913526  12.3614513  48.8588216  84.5396580
  12.6409587  48.9270428  83.0533542   5.6605901  52.5515021  85.2246627
   5.7142923  53.1205958  85.9924343   4.7920682  52.7216906  84.8600664
  12.7893556  48.9936628  86.2246412  12.9829446  49.8982438  86.4705687
  12.6894174  48.5344047  87.0584997   4.4429867  38.8794518  88.7236739
   3.7957782  39.5784468  88.6301216   5.2130882  39.3130662  89.0912987
   7.8508664  49.1443371  91.7987292   7.6994171  48.9153922  90.8817376
   7.8413344  50.1013972  91.8118637   4.6194001  46.7175283  86.7833559
   5.5486061  46.8686443  86.6102526   4.1985031  46.8059304  85.9282205
   3.4182333  50.7425948  84.5532096   3.2793418  50.3744732  85.4258035
   2.6296929  51.2573587  84.3816054   4.0130485  55.8435044  75.8957633
   4.1882240  55.3723087  76.7103256   3.3263273  56.4700810  76.1238894
   4.9687548  50.1207550  81.9420934   4.6337380  50.0808320  82.8378584
   4.4691493  49.4552266  81.4691345   7.9046739  47.4663585  72.2157994
   7.2875910  46.7410413  72.1191047   7.4363228  48.2272945  71.8725068
   1.5714092  45.2395140  86.9557195   2.2813711  44.5988332  86.9143814
   1.5283401  45.4908035  87.8783376   9.5600871  52.1762493  89.8763774
   9.5013417  51.4921713  89.2094357   9.9620389  52.9181483  89.4244400
   9.5618278  50.1402077  88.1077754   8.6745057  49.8027999  88.2304153
  10.1316829  49.4085108  88.3446519   3.0919432  54.8003529  85.0738997
   3.0189603  55.6058501  85.5858302   2.6496825  54.9995495  84.2487019
   2.8809211  54.0375299  78.5841819   2.0976733  54.5796980  78.6780043
   3.5801957  54.5549279  78.9836060   6.1905862  39.8469929  81.2276024
   6.6874561  39.0939891  80.9077094   5.4192843  39.8834246  80.6619233
  14.0435619  45.5510294  82.8694316  14.0325495  46.4335010  82.4988249
  13.1752998  45.1981845  82.6748853   5.5518115  54.6990363  87.2297156
   6.2646087  55.3337828  87.1573057   5.0608144  54.7954229  86.4137158
   7.2735642  48.6041616  78.8014448   6.3391921  48.7243079  78.6319152
   7.4512311  47.7014083  78.5374457   2.7740830  41.9887312  80.9547709
   2.4038618  41.4358352  81.6428614   3.2699923  41.3845445  80.4022709
  10.6608194  44.4458935  79.3364482  11.1268646  45.2786927  79.2624784
  11.1115694  43.9803917  80.0409740   8.7284425  50.7902757  76.3350634
   9.0044269  50.6759351  77.2444508   7.8588923  50.3920242  76.2962807
   8.6324856  36.8139522  83.3755383   7.7187936  37.0443749  83.5437590
   9.0617958  36.8977966  84.2269415   8.4031315  45.0029414  85.8755277
   7.7502765  45.2505322  85.2207730   8.7811695  44.1893553  85.5417754
   5.3638489  55.0389108  79.9783447   5.5460883  54.2210763  80.4411200
   6.1871475  55.2556800  79.5408337   5.6980654  53.9657293  77.2398496
   6.2268421  53.4549747  76.6268658   5.9608874  53.6499823  78.1044029
   4.4518888  45.7449225  92.3621314   3.7759525  45.6443355  93.0323689
   5.2746522  45.5888439  92.8257311   3.1941671  57.0516153  86.5978930
   3.7459979  57.2147774  87.3628015   3.5347864  57.6420591  85.9258955
   8.0452545  51.8777410  92.4527585   8.5892449  52.4907369  91.9582539
   7.4639390  52.4356989  92.9694598   6.3310058  54.9998128  83.5842612
   6.2061197  54.1987868  83.0753558   6.9889149  55.4944322  83.0956582
   8.3944966  52.8007148  85.2122162   7.4475302  52.6812500  85.1400489
   8.7427739  51.9129647  85.2948424   0.7544540  38.6901287  89.0360404
   1.2778942  38.9363584  89.7986714   0.5356873  39.5221322  88.6163542
   5.3991400  52.5959865  81.4126515   5.2516362  51.6676572  81.5934085
   6.2244893  52.6179955  80.9283590   9.0025521  53.4188423  82.4991387
   9.9272069  53.2131285  82.3615838   8.8340825  53.1704825  83.4080729
   1.9597085  39.6314983  86.7210075   1.6193905  38.8322796  87.1230755
   1.2536091  39.9316693  86.1486908   2.6113557  36.7164295  85.1737398
   3.4339626  36.2424773  85.0516288   2.8551620  37.4954779  85.6736084
   1.2521791  39.7452553  75.4700299   1.9730154  40.1233806  74.9664016
   0.6287095  40.4641430  75.5735277   5.3952914  40.4497702  76.4058632
   5.6116528  41.3322340  76.1047460   4.9146981  40.0583916  75.6764274
   1.9948518  40.3985964  83.0310266   1.9810087  39.5027057  82.6942564
   2.7120946  40.4056627  83.6648552   3.8474649  40.8323304  85.0763393
   3.5892427  41.7540374  85.0747724   3.3159689  40.4353738  85.7663858
   8.7920838  53.9374091  77.8553479   8.9657715  53.3720513  77.1027331
   9.2849729  54.7374986  77.6732969   1.3985414  39.2800344  78.2997836
   1.5201325  38.3516990  78.4988724   1.1087457  39.2939030  77.3876152
   4.2676605  36.9655254  81.4364556   4.2898301  37.0294587  80.4816535
   4.6844664  36.1259763  81.6305062  14.6460229  46.7010514  79.4743779
  15.0891375  45.9517839  79.0762902  13.7686739  46.6920650  79.0917510
   9.7796010  53.2540855  74.9550377  10.4746915  53.8747548  75.1737692
  10.1219160  52.4036207  75.2302755  11.6787433  50.7040561  76.4837708
  12.2038757  51.0427834  75.7587028  11.5909786  49.7687576  76.3000842
   3.3407482  54.6174634  88.6127584   3.6494608  54.3723781  89.4850284
   4.1382964  54.8221273  88.1246455   3.3628094  56.7712544  80.8432961
   2.9233084  56.2788923  81.5365818   4.1136211  56.2285512  80.6025036
   0.8826494  40.7932341  92.5087769   0.9314649  41.6694464  92.1265538
   1.4249008  40.2509734  91.9359412  11.3681339  51.3373464  91.7888906
  10.5776883  51.3197603  91.2493405  11.1314694  51.8761758  92.5437942
  11.4879214  48.1865931  89.1021634  11.5377219  48.0215938  90.0437157
  11.3793138  47.3193190  88.7119515   8.7782977  44.1696859  90.4180941
   9.6792840  44.0303324  90.1264939   8.8530951  44.3351314  91.3579118
   3.1125782  41.5463714  89.2634127   2.2429092  41.8397280  88.9916716
   3.3485263  42.1304159  89.9841391  12.9897411  50.6062872  89.3463656
  12.6982220  50.9692853  90.1827117  12.3769543  49.8929881  89.1676988
  14.1893094  48.1715752  81.8666226  15.0239985  48.6105556  82.0303786
  14.3252222  47.6954405  81.0474472  11.2384600  45.7295487  87.8143714
  11.7138721  45.9223133  87.0062565  10.3150165  45.7854673  87.5687097
   5.8164816  37.7643331  86.7799548   6.3346760  38.5004357  86.4546036
   5.4619949  38.0707324  87.6146307   6.0677410  34.1843613  82.3000444
   6.3479164  33.5166802  82.9260871   6.8528017  34.3772709  81.7875108
   3.8710879  53.3602607  73.8625471   3.2984846  53.9792794  73.4095942
   4.4443672  53.9101969  74.3965393   9.9386268  42.6061247  86.0472019
  10.8903691  42.7059345  86.0684243   9.7689719  41.8139516  86.5570104
   7.9600648  39.6916830  86.2331420   7.3650580  39.9721843  85.5377909
   7.6750345  40.1810731  87.0048161   7.0908138  53.6439757  74.9934053
   8.0238812  53.5785319  75.1966928   7.0031351  54.4796024  74.5348586
   9.7196155  52.9605627  71.9538000   9.6409787  52.6265491  72.8473758
  10.5405822  53.4527395  71.9529473  12.4174346  45.8267367  85.1614319
  12.3850666  44.8883367  85.3474003  13.0274970  45.9051403  84.4280144
   4.2557677  44.6963420  71.2041523   5.2016782  44.5669628  71.2729941
   3.8771922  43.9578082  71.6810951  12.5668835  42.6178410  85.2072602
  12.0507883  41.8336867  85.0202531  13.4508783  42.2897127  85.3719122
  10.2279562  36.3619426  81.1668415  10.0304383  36.0534514  82.0511747
  10.8379267  37.0881065  81.2966345  18.2350896  46.8883374  84.3020356
  18.9654285  46.6268662  84.8628059  17.6257842  46.1512096  84.3422424
  16.3166193  45.0291236  84.8994807  15.5899357  44.8947201  84.2911299
  15.9013480  45.3368065  85.7051525   4.1396370  48.7481166  92.6642180
   5.0599379  48.9259765  92.8582227   4.1045953  47.8037211  92.5121879
   2.4400594  42.6213396  71.1396408   1.5332050  42.3246509  71.2159122
   2.7176575  42.3243214  70.2730695   4.0562660  37.1650286  77.2940650
   3.2463388  36.8197371  77.6695896   4.7447077  36.8557830  77.8828261
   5.9853208  36.2428333  78.9164946   6.5384247  36.6623786  79.5754969
   6.2223295  35.3164081  78.9587902   2.0086308  42.2315406  94.6967710
   1.9083034  43.1809763  94.6279801   1.7907850  41.9033645  93.8243780
   1.2099379  39.4800331  71.2808388   2.0718543  39.8055230  71.5404205
   1.3949723  38.6931827  70.7681453   9.3632015  38.3528858  78.4243611
   8.7830684  39.0113662  78.0421663   9.0967948  37.5306202  78.0131028
   7.8135582  37.7533916  80.6264931   8.3135360  37.8650450  79.8179250
   8.4571190  37.4494968  81.2665739   1.8717578  45.6612545  93.5132772
   1.3884659  46.4612905  93.7196661   1.9578517  45.6720490  92.5600216
   8.1456893  40.5128948  77.4799959   7.2582748  40.7978599  77.2620154
   8.5610882  40.3522712  76.6327236  11.4971430  40.5375469  81.1954298
  12.2731820  41.0271922  81.4678915  10.7719564  40.9633523  81.6526168
  13.9343988  41.2503088  82.2528239  14.5288479  41.0098824  81.5421547
  14.0070572  40.5310219  82.8801775   7.2900107  50.2773623  71.5747979
   7.9935957  50.4823625  72.1905634   6.5662756  50.8450385  71.8397062
   8.1197917  46.0283484  77.6950249   8.0633119  46.4852036  76.8557881
   8.6726260  45.2674169  77.5173092  11.9302723  41.8173216  78.5200368
  11.6739657  41.4169852  79.3508576  11.3055591  42.5317010  78.3950508
  16.2415061  44.5569289  81.0271660  15.6814619  44.6262479  81.8003222
  15.6358564  44.3810274  80.3071156   9.1986804  50.7156152  73.6246439
  10.0332408  50.2837351  73.4423914   9.0371147  50.5438166  74.5523333
   8.8532696  47.2188265  74.9902778   8.7981500  47.0532537  74.0491222
   8.2278752  47.9264298  75.1464968   6.1678604  49.5237177  94.3156341
   7.0369763  49.6977830  93.9542976   5.6885355  50.3431594  94.1932070
   2.1628822  36.7196374  74.5688097   2.1507492  37.6638214  74.7256367
   3.0552244  36.5366520  74.2747558   2.0918386  55.3965265  82.6555853
   1.1414017  55.3967126  82.5420225   2.3950872  54.6497999  82.1391888
   5.9780941  33.3139151  78.8234033   5.2113337  32.7597638  78.9690716
   6.3891646  33.3861020  79.6848185  17.8271079  61.2325803  83.7201616
  18.4649489  61.1132551  83.0164956  17.7091922  62.1806647  83.7789568
  14.6360786  61.1853231  83.6563140  14.2979297  61.0694296  82.7683675
  15.5050554  60.7844396  83.6364146  10.4947601  63.0388708  79.6460031
   9.9312466  62.9478645  78.8776319  10.3799996  62.2188612  80.1262524
  15.1180569  62.3388083  89.6149346  15.1069209  61.9440881  88.7429849
  15.2801208  61.6054156  90.2083117   8.0412033  64.5339899  82.4844252
   8.8333325  64.1930724  82.0690551   8.2808683  64.6434874  83.4046405
  16.0747160  66.7059675  74.9574496  15.4235140  67.2913756  74.5708510
  16.8691523  67.2365870  75.0169534  10.0002787  63.7948813  75.3561630
  10.7733663  63.2477800  75.2174506  10.3528186  64.6593062  75.5676092
  11.8387830  65.1225195  88.5628530  11.5477696  66.0270826  88.4475196
  12.4744814  65.1641722  89.2772599  12.7644037  62.5002043  85.1529889
  13.3607609  62.2758066  84.4386852  12.8219008  61.7586789  85.7555337
  12.3369065  59.9541479  72.9880080  12.5894586  59.4323000  72.2263543
  11.3993624  59.7907624  73.0906764  17.3812348  58.9577257  80.7954824
  18.1675437  58.5396680  80.4445241  17.6451052  59.8623349  80.9636472
  17.5522425  64.3950107  75.4943480  16.9168258  64.4684734  76.2064385
  17.2219832  64.9843706  74.8162560  12.0565354  61.8569585  75.1904455
  11.9401612  61.1814488  75.8585540  12.1667614  61.3701959  74.3736608
  14.3996895  61.3179732  78.8951145  14.0355102  60.7910353  79.6064066
  15.2564011  60.9278201  78.7217630  14.0402382  56.3469631  73.8912493
  14.2076784  57.2149868  74.2582964  13.8499551  56.5096913  72.9673782
  16.7977715  64.8086610  85.5578323  16.4978438  65.7111649  85.4494131
  16.4528774  64.5418794  86.4099476  10.2490196  61.2600407  81.5915028
   9.3240693  61.1276621  81.7992720  10.4974610  62.0394626  82.0884970
  14.0191603  58.8027289  74.8759160  13.8991228  59.2484340  75.7144640
  13.3244191  59.1512607  74.3172698   7.6099007  60.9033681  82.4258817
   7.7391389  61.1568160  83.3398229   6.9296459  61.4961389  82.1063472
  11.7798495  71.5730931  78.5249291  11.7022524  72.5238756  78.6037772
  11.1760138  71.2276803  79.1824217  14.2715724  58.7458796  91.1810658
  13.4949059  59.3052716  91.1713523  14.9106288  59.2315579  91.7025528
  19.7176669  59.2748762  75.7039494  20.6294525  59.5076149  75.5287192
  19.2086316  59.8585806  75.1414573  12.5262097  61.5544249  90.7428625
  13.2676781  62.0929293  90.4663449  11.8199082  62.1810538  90.9000177
  18.0017436  63.6973390  89.3400787  18.4100792  63.2555800  88.5955419
  17.2794698  63.1226017  89.5934979  14.3548506  58.6345997  86.7134344
  15.2009702  59.0585410  86.8568993  14.2947144  57.9779621  87.4072907
  18.3246251  64.2574581  83.0953075  17.6955113  64.4220295  82.3929143
  17.9371913  64.6716190  83.8664039  22.2035483  65.1929018  80.4497439
  21.5186521  65.5727920  79.8994473  22.2879332  65.8024345  81.1829387
  17.5047952  56.2950365  88.3715517  17.2608884  57.0492426  87.8349793
  17.7807882  56.6735713  89.2062764  19.4586415  62.8388977  87.0492783
  19.6703310  63.4820737  86.3727164  19.4116163  62.0051294  86.5814713
  13.8774213  63.9948989  80.3603161  14.3412558  64.2736692  79.5707783
  13.6131011  63.0932433  80.1776251  10.7698294  63.5420470  83.2982924
  11.3399651  63.9707739  82.6600408  11.3606406  63.2603055  83.9967109
  12.8143099  60.1172141  77.1692726  13.5167142  60.5693185  77.6366652
  12.4823727  59.4755960  77.7972619  11.2623461  58.7083898  91.5443935
  10.6322121  59.3900178  91.7779332  11.1559548  58.5966979  90.5997073
   6.5568433  58.3755694  82.4709859   5.7667487  58.6313222  81.9949970
   7.0479680  59.1904032  82.5761900  20.5732242  65.7160933  85.2215140
  21.3949686  65.3141120  84.9397822  20.5694645  65.6129167  86.1731256
   8.5083178  58.7400273  79.4293336   7.7114342  58.8518967  79.9476832
   8.2808771  59.0786925  78.5634226  14.3388846  65.2644976  87.3775851
  14.4033278  65.7265383  88.2134022  13.6299770  64.6342341  87.5058160
   4.8406136  58.6286184  84.9024850   5.0914174  59.5133194  85.1682426
   5.3765684  58.4490786  84.1299942  14.0536864  66.9313084  77.2454831
  13.9182538  67.7764619  77.6739679  14.5946676  67.1332361  76.4820765
  10.5404203  53.0104663  93.9069186  10.1471149  52.4570862  94.5816830
  11.3570344  53.3215242  94.2975704   7.5066261  64.4488522  77.8182756
   8.0190782  65.2431772  77.9688321   8.1588974  63.7514812  77.7516357
   9.3161146  67.5654278  79.9005509   9.4927774  68.4872243  79.7126493
  10.1117979  67.2512697  80.3299889  13.4572164  54.4262543  91.4989443
  14.1981878  55.0269696  91.4193905  13.6890087  53.6840180  90.9407485
   8.6013502  59.6118910  89.7767672   8.4867017  58.7104167  90.0774771
   7.7458020  59.8582607  89.4252489  15.6805340  67.5536650  91.3755173
  15.2369194  66.7673029  91.0576077  16.3422554  67.7415801  90.7099064
  10.4392461  69.0832452  85.9015852  10.9899886  68.9549515  85.1292845
   9.6003937  69.3827341  85.5510744  17.7786578  67.8339450  89.4036574
  17.7605053  68.6548331  88.9116843  18.7006498  67.7093525  89.6286715
  14.2359632  65.3483580  90.2460083  14.7687969  64.5871868  90.0159391
  13.7073713  65.0557231  90.9884237   5.4715178  62.7777176  78.5942327
   6.3090400  63.1874184  78.3776034   5.6493445  61.8376618  78.5642520
  17.3679610  60.4452257  74.2826159  16.8526233  61.2156861  74.5214547
  17.0956918  59.7717393  74.9059221  12.7268753  52.9087030  82.7469139
  13.5921750  52.7129839  82.3875029  12.7946262  52.6797382  83.6738496
  22.3413884  63.1984611  76.2179333  21.5643327  62.8595771  75.7734495
  23.0205365  63.2037234  75.5434298  17.1565913  58.3179349  76.1085941
  16.8516049  58.6325498  76.9596084  18.1096355  58.3960769  76.1513274
  15.6012345  64.4769572  77.7578895  15.0733706  63.7422332  77.4452132
  15.0999848  65.2544248  77.5118863  20.5805191  62.6718593  82.8745941
  19.9228865  63.3617854  82.9626070  21.3845590  63.0615024  83.2179927
  10.3331073  55.1389238  80.1185506  10.9074824  54.9164420  79.3858699
  10.9202055  55.2077933  80.8714107  19.3910650  61.0262965  80.9249883
  19.9042531  61.6592957  81.4271592  20.0411874  60.4264161  80.5593243
  10.6600660  57.1693699  74.1381391   9.8237972  57.5068386  74.4590666
  10.5205429  57.0342679  73.2008528  12.6353740  52.0130487  78.8460576
  11.9818153  51.6979504  78.2217190  12.5934214  51.3906228  79.5720399
  13.7464945  62.2949782  70.7613868  12.8392007  62.0639036  70.9605017
  14.2435977  61.4987402  70.9487849  16.6533024  71.0047289  73.6810554
  15.9794723  71.3078986  74.2895512  17.0398846  71.8076370  73.3316011
  15.8691481  58.5012421  83.1708223  14.9514042  58.7227368  83.0129911
  16.2851624  58.5758731  82.3119931  16.6526528  59.9003836  78.3010903
  17.3998347  60.4125234  77.9918026  16.9218118  59.5787889  79.1615297
  14.9253179  62.3962377  75.2837858  14.0164398  62.1121410  75.3810328
  14.9548262  62.8161456  74.4241165  20.1572446  66.0068967  79.0529025
  19.7034773  65.1659877  79.1094216  19.5266413  66.6430365  79.3903805
  18.6005385  67.8445463  79.9878843  18.8928360  68.4050520  79.2691209
  19.1104006  68.1374024  80.7432003  19.2016993  49.7137205  80.8771462
  19.5075870  48.8534568  80.5897377  19.9269598  50.3054825  80.6770456
   5.4941349  60.1167891  79.2653060   5.2965749  59.5237252  78.5404127
   4.9388013  59.8120101  79.9828999  13.4738073  60.0090998  81.3847653
  13.5286682  59.0564834  81.3090130  12.6629275  60.1650437  81.8688952
  14.6229266  63.9371121  72.6225936  14.1848696  63.2206980  72.1631574
  15.3639707  64.1647236  72.0611028  11.4130432  58.6268057  79.1438032
  10.5998298  58.9262228  79.5503224  11.9089427  58.2323746  79.8612514
  13.5639010  68.6225814  81.0772297  13.5215189  68.8486661  80.1480829
  14.4801709  68.3889189  81.2258098  17.0104644  59.0909882  87.9752926
  17.3654032  59.3181355  88.8347392  17.6576775  59.4228259  87.3530181
  22.7402381  62.2128318  78.6802255  22.6020280  62.4029914  77.7523444
  22.3838600  62.9747701  79.1370306  10.9044507  56.1986413  84.7599267
  11.5443887  56.0575172  84.0622230  10.0722038  55.9120926  84.3837869
  22.7671761  64.2804845  83.6913526  23.2008267  64.1880134  84.5396580
  23.4803341  64.2562345  83.0533542  11.6804811  65.4988843  80.8734259
  12.4745410  65.0039164  80.6716834  10.9696504  64.9706707  80.5101965
  16.4999656  67.8806939  85.2246627  16.5536678  68.4497875  85.9924343
  15.6314437  68.0508824  84.8600664   7.9887575  59.6431925  76.9494012
   7.0585163  59.5816381  77.1663974   8.0845047  59.1207878  76.1530653
   7.9073124  56.1686738  79.5372254   8.1679941  57.0832071  79.4281414
   8.7290296  55.7011181  79.6868867   9.3798049  57.5824495  86.7071078
  10.0521102  57.3741857  86.0583727   8.5527836  57.3846581  86.2676311
  23.6287310  64.3228546  86.2246412  23.8223200  65.2274356  86.4705687
  23.5287928  63.8635965  87.0584997  15.2823621  54.2086436  88.7236739
  14.6351536  54.9076386  88.6301216  16.0524636  54.6422580  89.0912987
  18.6902419  64.4735288  91.7987292  18.5387925  64.2445840  90.8817376
  18.6807098  65.4305890  91.8118637  15.4587755  62.0467201  86.7833559
  16.3879815  62.1978361  86.6102526  15.0378785  62.1351222  85.9282205
  14.2576087  66.0717865  84.5532096  14.1187173  65.7036650  85.4258035
  13.4690683  66.5865505  84.3816054  14.8524239  71.1726962  75.8957633
  15.0275995  70.7015005  76.7103256  14.1657027  71.7992728  76.1238894
  15.8081302  65.4499468  81.9420934  15.4731135  65.4100238  82.8378584
  15.3085248  64.7844184  81.4691345   9.7825546  60.8567098  87.4673515
   9.6445344  60.1247337  88.0685054  10.6930470  60.7675998  87.1857703
  18.7440494  62.7955502  72.2157994  18.1269665  62.0702331  72.1191047
  18.2756982  63.5564863  71.8725068  12.4107847  60.5687057  86.9557195
  13.1207465  59.9280250  86.9143814  12.3677155  60.8199952  87.8783376
  20.3994626  67.5054411  89.8763774  20.3407172  66.8213631  89.2094357
  20.8014144  68.2473401  89.4244400  11.1236781  57.5552275  88.7752835
  10.5874138  57.1043014  89.4274431  10.5353489  57.6898184  88.0323299
   9.4185324  74.3216325  82.6697493   9.6581923  74.9534849  83.3476512
   8.5754521  73.9704365  82.9562852  10.5339040  57.0140927  71.3379298
   9.6568506  56.8929728  70.9741545  11.0096793  56.2227005  71.0858187
  20.4012033  65.4693995  88.1077754  19.5138812  65.1319917  88.2304153
  20.9710584  64.7377026  88.3446519   2.0541180  61.8018086  81.4320805
   2.7412220  61.4879817  80.8441821   1.8989309  62.7059451  81.1588057
   6.8575902  56.6908283  85.8605829   6.7734091  56.0833953  85.1256239
   6.0358609  57.1817301  85.8615325  13.9313186  70.1295447  85.0738997
  13.8583358  70.9350419  85.5858302  13.4890579  70.3287413  84.2487019
  13.7202966  69.3667217  78.5841819  12.9370488  69.9088897  78.6780043
  14.4195711  69.8841197  78.9836060  24.8829373  60.8802212  82.8694316
  24.8719250  61.7626928  82.4988249  24.0146753  60.5273763  82.6748853
  16.3911870  70.0282281  87.2297156  17.1039842  70.6629746  87.1573057
  15.9001898  70.1246147  86.4137158  18.1129397  63.9333534  78.8014448
  17.1785675  64.0534996  78.6319152  18.2906065  63.0306001  78.5374457
  13.6134585  57.3179230  80.9547709  13.2432372  56.7650270  81.6428614
  14.1093677  56.7137363  80.4022709  11.4423783  67.7776725  88.0502727
  12.1433243  68.4113208  88.2032121  10.9718898  68.1191456  87.2898366
  19.5678179  66.1194674  76.3350634  19.8438023  66.0051269  77.2444508
  18.6982678  65.7212159  76.2962807  19.2425069  60.3321332  85.8755277
  18.5896520  60.5797239  85.2207730  19.6205449  59.5185470  85.5417754
  16.2032243  70.3681025  79.9783447  16.3854638  69.5502681  80.4411200
  17.0265229  70.5848717  79.5408337  16.5374409  69.2949210  77.2398496
  17.0662175  68.7841665  76.6268658  16.8002628  68.9791741  78.1044029
  15.2912642  61.0741143  92.3621314  14.6153279  60.9735272  93.0323689
  16.1140276  60.9180357  92.8257311   7.0391501  67.3113080  84.9833829
   7.6244938  66.5656768  85.1161734   6.8416340  67.6217036  85.8670493
   9.8930157  70.3464327  79.9996272   9.2240532  70.8310455  79.5160312
   9.7543026  70.5933547  80.9139650   1.6309156  59.8818680  83.7038272
   1.6693256  59.3482271  84.4975391   1.1249449  59.3553885  83.0849250
  14.0335425  72.3808071  86.5978930  14.5853733  72.5439692  87.3628015
  14.3741619  72.9712508  85.9258955   9.0099918  54.7283220  87.2000815
   9.0741245  55.5898051  86.7878212   8.9467039  54.1157222  86.4673173
   8.4852191  56.8006353  90.8473849   9.1124230  56.4183430  91.4611373
   7.6280110  56.5820555  91.2129542  18.8846300  67.2069328  92.4527585
  19.4286203  67.8199286  91.9582539  18.3033144  67.7648906  92.9694598
   5.2617734  58.6082782  76.7792204   5.5571175  57.6993460  76.7259258
   4.3605769  58.5870521  76.4573206  17.1703812  70.3290046  83.5842612
  17.0454952  69.5279786  83.0753558  17.8282904  70.8236239  83.0956582
   8.7911981  56.6838779  82.7619752   8.0698566  57.2974746  82.6227226
   9.5805236  57.2196543  82.6836398  19.2338721  68.1299066  85.2122162
  18.2869056  68.0104417  85.1400489  19.5821494  67.2421564  85.2948424
  11.5938294  54.0193205  89.0360404  12.1172696  54.2655502  89.7986714
  11.3750627  54.8513240  88.6163542   6.9905575  56.2896880  76.9031529
   6.6618281  55.4094259  76.7206635   7.3444946  56.2344548  77.7907918
  16.2385154  67.9251782  81.4126515  16.0910117  66.9968490  81.5934085
  17.0638648  67.9471873  80.9283590  10.1047398  56.5769849  77.2707007
  10.4443471  57.1055771  76.5485615  10.5519519  56.9150256  78.0465573
  19.8419276  68.7480341  82.4991387  20.7665823  68.5423202  82.3615838
  19.6734579  68.4996742  83.4080729  12.7990839  54.9606900  86.7210075
  12.4587660  54.1614713  87.1230755  12.0929846  55.2608611  86.1486908
  13.4507311  52.0456213  85.1737398  14.2733380  51.5716691  85.0516288
  13.6945375  52.8246696  85.6736084  12.0915546  55.0744471  75.4700299
  12.8123908  55.4525724  74.9664016  11.4680850  55.7933348  75.5735277
  16.2346668  55.7789620  76.4058632  16.4510283  56.6614258  76.1047460
  15.7540736  55.3875833  75.6764274  10.9745890  58.7375333  82.9829376
  10.8290471  59.0515636  83.8753658  10.4971093  59.3560234  82.4300275
  12.8342273  55.7277881  83.0310266  12.8203841  54.8318975  82.6942564
  13.5514701  55.7348545  83.6648552  14.6868403  56.1615221  85.0763393
  14.4286181  57.0832292  85.0747724  14.1553444  55.7645656  85.7663858
  19.6314592  69.2666009  77.8553479  19.8051470  68.7012431  77.1027331
  20.1243483  70.0666903  77.6732969   5.4491552  61.2780678  85.9217038
   4.9045020  62.0540486  86.0537312   6.3270902  61.6251482  85.7636159
  12.2379169  54.6092262  78.2997836  12.3595080  53.6808908  78.4988724
  11.9481211  54.6230947  77.3876152  20.6189765  68.5832773  74.9550377
  21.3140669  69.2039466  75.1737692  20.9612915  67.7328124  75.2302755
   6.2357574  60.4050574  88.8147194   5.4939310  60.5533209  89.4011825
   5.9150318  60.6658840  87.9513944  22.5181188  66.0332478  76.4837708
  23.0432512  66.3719751  75.7587028  22.4303540  65.0979494  76.3000842
  14.1801237  69.9466552  88.6127584  14.4888363  69.7015699  89.4850284
  14.9776719  70.1513191  88.1246455  14.2021849  72.1004462  80.8432961
  13.7626839  71.6080840  81.5365818  14.9529966  71.5577429  80.6025036
   6.6814188  68.2916003  80.8457589   7.5072207  67.9919774  80.4656233
   6.3308240  67.5223625  81.2947378  11.6495721  67.6442471  82.9155263
  11.0275730  66.9813176  82.6157491  12.3200588  67.6703603  82.2328910
   4.8822793  66.2102329  81.8046523   4.0454701  65.7824503  81.6230524
   4.8546438  66.4034772  82.7417314  11.7220248  56.1224259  92.5087769
  11.7708404  56.9986382  92.1265538  12.2642762  55.5801652  91.9359412
  22.2075094  66.6665382  91.7888906  21.4170638  66.6489521  91.2493405
  21.9708448  67.2053676  92.5437942  22.3272969  63.5157849  89.1021634
  22.3770974  63.3507856  90.0437157  22.2186892  62.6485108  88.7119515
  11.2109228  66.1946394  76.3913723  11.3597348  66.8781859  75.7380396
  12.0175671  66.1751484  76.9063179  19.6176731  59.4988777  90.4180941
  20.5186594  59.3595241  90.1264939  19.6924706  59.6643231  91.3579118
  13.9519537  56.8755631  89.2634127  13.0822846  57.1689197  88.9916716
  14.1879017  57.4596076  89.9841391  23.8291166  65.9354790  89.3463656
  23.5375974  66.2984771  90.1827117  23.2163297  65.2221798  89.1676988
  25.0286848  63.5007670  81.8666226  25.8633739  63.9397474  82.0303786
  25.1645977  63.0246323  81.0474472  22.0778354  61.0587405  87.8143714
  22.5532476  61.2515051  87.0062565  21.1543919  61.1146590  87.5687097
   8.9661861  62.2211572  77.3974792   8.7207903  61.3173902  77.5955002
   9.1357775  62.2228722  76.4554270  16.6558570  53.0935248  86.7799548
  17.1740514  53.8296275  86.4546036  16.3013703  53.3999242  87.6146307
   8.2357508  57.9539929  74.8960954   7.5426753  58.0284284  74.2400990
   7.9909260  57.1900273  75.4182470  14.7104633  68.6894525  73.8625471
  14.1378600  69.3084712  73.4095942  15.2837427  69.2393886  74.3965393
  20.7780023  57.9353165  86.0472019  21.7297446  58.0351262  86.0684243
  20.6083473  57.1431433  86.5570104  17.9301893  68.9731675  74.9934053
  18.8632566  68.9077236  75.1966928  17.8425106  69.8087942  74.5348586
  20.5589910  68.2897545  71.9538000  20.4803541  67.9557409  72.8473758
  21.3799576  68.7819313  71.9529473  23.2568101  61.1559284  85.1614319
  23.2244421  60.2175285  85.3474003  23.8668724  61.2343321  84.4280144
  15.0951432  60.0255337  71.2041523  16.0410536  59.8961546  71.2729941
  14.7165677  59.2869999  71.6810951  23.4062589  57.9470328  85.2072602
  22.8901638  57.1628784  85.0202531  24.2902538  57.6189044  85.3719122
  29.0744651  62.2175291  84.3020356  29.8048039  61.9560579  84.8628059
  28.4651596  61.4804013  84.3422424  27.1559948  60.3583154  84.8994807
  26.4293111  60.2239119  84.2911299  26.7407235  60.6659982  85.7051525
  14.9790124  64.0773084  92.6642180  15.8993134  64.2551683  92.8582227
  14.9439707  63.1329129  92.5121879  13.2794349  57.9505314  71.1396408
  12.3725804  57.6538426  71.2159122  13.5570330  57.6535132  70.2730695
   4.1972289  59.2711677  81.5895455   3.8775074  58.4176985  81.2969829
   3.6505717  59.4860255  82.3453422   7.9752197  61.9874118  85.3064961
   8.1938206  62.9191226  85.3252995   8.3877971  61.6282093  86.0919765
  14.8956415  52.4942204  77.2940650  14.0857143  52.1489288  77.6695896
  15.5840831  52.1849747  77.8828261  12.8480062  57.5607324  94.6967710
  12.7476789  58.5101681  94.6279801  12.6301604  57.2325563  93.8243780
  12.0493133  54.8092249  71.2808388  12.9112297  55.1347147  71.5404205
  12.2343478  54.0223745  70.7681453   4.0660549  62.8914589  83.5588576
   3.3724021  62.4768541  83.0458531   4.8133540  62.9335125  82.9621995
  12.7111332  60.9904463  93.5132772  12.2278414  61.7904823  93.7196661
  12.7972271  61.0012408  92.5600216   5.9797292  62.8232842  81.4354591
   5.9567980  62.9220530  80.4836474   6.2897928  63.6697993  81.7571757
   8.6384670  64.8808997  85.5501206   9.5927923  64.8492940  85.4831137
   8.4397193  64.4199621  86.3651432   9.2284052  63.4510114  88.1172003
  10.0476941  63.9454192  88.1406841   9.5020859  62.5342082  88.0889571
   6.9934898  70.4228617  82.5671404   6.8589366  69.6629018  82.0009402
   6.5766961  71.1469517  82.1000192  18.1293861  65.6065541  71.5747979
  18.8329711  65.8115543  72.1905634  17.4056510  66.1742302  71.8397062
  18.9591672  61.3575402  77.6950249  18.9026873  61.8143953  76.8557881
  19.5120014  60.5966086  77.5173092  10.1504024  71.3197934  82.7789846
  10.0336408  72.2643366  82.6768536   9.3296471  71.0171496  83.1675645
  20.0380559  66.0448070  73.6246439  20.8726163  65.6129268  73.4423914
  19.8764902  65.8730083  74.5523333  19.6926451  62.5480183  74.9902778
  19.6375255  62.3824454  74.0491222  19.0672506  63.2556216  75.1464968
   4.4818966  57.7848247  88.8164200   5.1277830  57.2747201  89.3051426
   4.2736117  58.5216929  89.3907626  17.0072358  64.8529095  94.3156341
  17.8763518  65.0269747  93.9542976  16.5279110  65.6723512  94.1932070
  13.0022576  52.0488292  74.5688097  12.9901246  52.9930132  74.7256367
  13.8945998  51.8658437  74.2747558  11.1758538  71.9726196  85.9945775
  12.0785785  72.0049806  86.3112270  10.9495908  71.0426647  86.0092110
  12.9312140  70.7257182  82.6555853  11.9807771  70.7259044  82.5420225
  13.2344627  69.9789917  82.1391888  16.8174696  48.6431069  78.8234033
  16.0507092  48.0889555  78.9690716  17.2285401  48.7152937  79.6848185
   8.8216457  54.9315864  92.9139215   9.6847919  54.5752669  93.1242539
   8.2481868  54.5929759  93.6014619  28.6664834  76.5617721  83.7201616
  29.3043244  76.4424468  83.0164956  28.5485677  77.5098565  83.7789568
  25.4754540  76.5145149  83.6563140  25.1373052  76.3986214  82.7683675
  26.3444308  76.1136314  83.6364146  21.3341356  78.3680625  79.6460031
  20.7706221  78.2770562  78.8776319  21.2193751  77.5480530  80.1262524
  25.9574323  77.6680001  89.6149346  25.9462964  77.2732799  88.7429849
  26.1194963  76.9346073  90.2083117  18.8805788  79.8631817  82.4844252
  19.6727080  79.5222642  82.0690551  19.1202438  79.9726792  83.4046405
  26.9140915  82.0351593  74.9574496  26.2628894  82.6205673  74.5708510
  27.7085277  82.5657788  75.0169534  20.8396542  79.1240730  75.3561630
  21.6127418  78.5769717  75.2174506  21.1921941  79.9884980  75.5676092
  22.6781584  80.4517112  88.5628530  22.3871450  81.3562743  88.4475196
  23.3138569  80.4933640  89.2772599  23.6037791  77.8293961  85.1529889
  24.2001363  77.6049983  84.4386852  23.6612763  77.0878706  85.7555337
  23.1762820  75.2833396  72.9880080  23.4288340  74.7614918  72.2263543
  22.2387379  75.1199542  73.0906764  28.2206102  74.2869175  80.7954824
  29.0069192  73.8688598  80.4445241  28.4844807  75.1915267  80.9636472
  28.3916180  79.7242025  75.4943480  27.7562013  79.7976652  76.2064385
  28.0613586  80.3135624  74.8162560  33.6214529  74.2244408  81.6987802
  34.3539701  73.6543625  81.9325632  32.8653885  73.8366008  82.1394308
  22.8959108  77.1861502  75.1904455  22.7795366  76.5106406  75.8585540
  23.0061368  76.6993876  74.3736608  25.2390649  76.6471649  78.8951145
  24.8748856  76.1202270  79.6064066  26.0957765  76.2570118  78.7217630
  31.1439950  67.9365982  86.1582411  30.8123275  68.8061393  85.9343626
  30.5485563  67.6202266  86.8376441  24.8796136  71.6761549  73.8912493
  25.0470539  72.5441785  74.2582964  24.6893305  71.8388831  72.9673782
  27.6371469  80.1378528  85.5578323  27.3372192  81.0403567  85.4494131
  27.2922529  79.8710711  86.4099476  21.0883951  76.5892325  81.5915028
  20.1634447  76.4568539  81.7992720  21.3368364  77.3686544  82.0884970
  31.0368613  72.6561068  83.2375761  30.1285490  72.5876477  82.9434522
  30.9856209  73.1333013  84.0657586  24.8585357  74.1319207  74.8759160
  24.7384982  74.5776257  75.7144640  24.1637945  74.4804524  74.3172698
  18.4492762  76.2325598  82.4258817  18.5785143  76.4860077  83.3398229
  17.7690213  76.8253306  82.1063472  22.6192249  86.9022848  78.5249291
  22.5416279  87.8530673  78.6037772  22.0153893  86.5568721  79.1824217
  25.1109479  74.0750714  91.1810658  24.3342813  74.6344634  91.1713523
  25.7500042  74.5607497  91.7025528  32.9030260  70.8577507  85.0153635
  32.2604640  71.1510040  84.3693429  32.3985188  70.7430427  85.8206831
  30.5570423  74.6040680  75.7039494  31.4688279  74.8368067  75.5287192
  30.0480070  75.1877724  75.1414573  23.3655851  76.8836167  90.7428625
  24.1070536  77.4221211  90.4663449  22.6592837  77.5102456  90.9000177
  28.8411191  79.0265308  89.3400787  29.2494547  78.5847718  88.5955419
  28.1188452  78.4517935  89.5934979  25.1942261  73.9637914  86.7134344
  26.0403456  74.3877328  86.8568993  25.1340899  73.3071539  87.4072907
  29.1640006  79.5866498  83.0953075  28.5348868  79.7512212  82.3929143
  28.7765668  80.0008108  83.8664039  33.0429237  80.5220936  80.4497439
  32.3580276  80.9019837  79.8994473  33.1273087  81.1316263  81.1829387
  28.3441706  71.6242283  88.3715517  28.1002638  72.3784343  87.8349793
  28.6201637  72.0027630  89.2062764  30.2980169  78.1680895  87.0492783
  30.5097064  78.8112655  86.3727164  30.2509917  77.3343212  86.5814713
  27.9006398  70.7798716  83.9529355  27.0390877  71.0779969  84.2446092
  27.9268833  70.9969115  83.0210388  24.7167967  79.3240906  80.3603161
  25.1806313  79.6028609  79.5707783  24.4524766  78.4224351  80.1776251
  21.6092048  78.8712388  83.2982924  22.1793406  79.2999656  82.6600408
  22.2000160  78.5894973  83.9967109  23.6536853  75.4464059  77.1692726
  24.3560897  75.8985102  77.6366652  23.3217482  74.8047878  77.7972619
  22.1017215  74.0375815  91.5443935  21.4715876  74.7192096  91.7779332
  21.9953303  73.9258897  90.5997073  17.3962187  73.7047611  82.4709859
  16.6061241  73.9605140  81.9949970  17.8873435  74.5195949  82.5761900
  31.4125997  81.0452851  85.2215140  32.2343441  80.6433038  84.9397822
  31.4088400  80.9421085  86.1731256  19.3476933  74.0692191  79.4293336
  18.5508096  74.1810885  79.9476832  19.1202525  74.4078843  78.5634226
  25.1782600  80.5936894  87.3775851  25.2427033  81.0557301  88.2134022
  24.4693524  79.9634259  87.5058160  15.6799890  73.9578102  84.9024850
  15.9307929  74.8425112  85.1682426  16.2159439  73.7782703  84.1299942
  39.5031990  77.3891599  81.5700112  38.7495698  76.8198997  81.4144116
  39.6379531  77.3554263  82.5170746  24.8930618  82.2605001  77.2454831
  24.7576293  83.1056537  77.6739679  25.4340431  82.4624279  76.4820765
  21.3797958  68.3396581  93.9069186  20.9864903  67.7862780  94.5816830
  22.1964098  68.6507160  94.2975704  18.3460015  79.7780439  77.8182756
  18.8584536  80.5723690  77.9688321  18.9982728  79.0806730  77.7516357
  20.1554900  82.8946196  79.9005509  20.3321529  83.8164160  79.7126493
  20.9511734  82.5804615  80.3299889  24.2965919  69.7554460  91.4989443
  25.0375632  70.3561613  91.4193905  24.5283842  69.0132098  90.9407485
  19.4407257  74.9410827  89.7767672  19.3260772  74.0396085  90.0774771
  18.5851774  75.1874524  89.4252489  26.5199094  82.8828568  91.3755173
  26.0762949  82.0964946  91.0576077  27.1816308  83.0707718  90.7099064
  21.2786216  84.4124369  85.9015852  21.8293641  84.2841433  85.1292845
  20.4397692  84.7119258  85.5510744  28.6180333  83.1631368  89.4036574
  28.5998808  83.9840249  88.9116843  29.5400253  83.0385443  89.6286715
  25.0753387  80.6775497  90.2460083  25.6081723  79.9163785  90.0159391
  24.5467468  80.3849149  90.9884237  28.2423082  65.7835563  85.7753724
  27.8987351  66.6737205  85.6992835  28.6102044  65.5937221  84.9123309
  16.3108932  78.1069094  78.5942327  17.1484154  78.5166102  78.3776034
  16.4887200  77.1668536  78.5642520  28.2073364  75.7744174  74.2826159
  27.6919988  76.5448779  74.5214547  27.9350673  75.1009310  74.9059221
  25.7920475  70.6193875  79.3411398  24.9362072  70.2300725  79.1617037
  26.2047427  70.6985836  78.4811183  27.3219622  68.1540218  83.7402958
  26.8184418  68.1170353  82.9270763  27.6150229  69.0632961  83.7999614
  23.5662508  68.2378948  82.7469139  24.4315505  68.0421757  82.3875029
  23.6340017  68.0089300  83.6738496  33.1807639  78.5276529  76.2179333
  32.4037081  78.1887688  75.7734495  33.8599119  78.5329152  75.5434298
  27.9959668  73.6471266  76.1085941  27.6909803  73.9617416  76.9596084
  28.9490110  73.7252686  76.1513274  26.4406099  79.8061490  77.7578895
  25.9127461  79.0714249  77.4452132  25.9393602  80.5836166  77.5118863
  31.4198945  78.0010510  82.8745941  30.7622620  78.6909772  82.9626070
  32.2239345  78.3906942  83.2179927  21.1724827  70.4681156  80.1185506
  21.7468579  70.2456337  79.3858699  21.7595809  70.5369850  80.8714107
  30.2304404  76.3554883  80.9249883  30.7436286  76.9884875  81.4271592
  30.8805628  75.7556078  80.5593243  21.4994414  72.4985617  74.1381391
  20.6631726  72.8360304  74.4590666  21.3599184  72.3634597  73.2008528
  23.4747495  67.3422405  78.8460576  22.8211907  67.0271422  78.2217190
  23.4327969  66.7198145  79.5720399  24.5858700  77.6241700  70.7613868
  23.6785761  77.3930953  70.9605017  25.0829732  76.8279319  70.9487849
  27.4926778  86.3339207  73.6810554  26.8188477  86.6370904  74.2895512
  27.8792600  87.1368287  73.3316011  26.7085235  73.8304338  83.1708223
  25.7907796  74.0519285  83.0129911  27.1245379  73.9050649  82.3119931
  27.4920283  75.2295754  78.3010903  28.2392102  75.7417151  77.9918026
  27.7611872  74.9079807  79.1615297  25.7646933  77.7254295  75.2837858
  24.8558152  77.4413328  75.3810328  25.7942017  78.1453373  74.4241165
  30.9966200  81.3360884  79.0529025  30.5428528  80.4951794  79.1094216
  30.3660167  81.9722283  79.3903805  29.9399120  72.2652870  80.2829693
  29.2021877  71.7530257  80.6139935  30.1925894  71.8253252  79.4712970
  29.4399140  83.1737381  79.9878843  29.7322114  83.7342438  79.2691209
  29.9497760  83.4665942  80.7432003  30.0410747  65.0429122  80.8771462
  30.3469624  64.1826486  80.5897377  30.7663352  65.6346743  80.6770456
  16.3335103  75.4459809  79.2653060  16.1359503  74.8529170  78.5404127
  15.7781767  75.1412019  79.9828999  24.3131827  75.3382915  81.3847653
  24.3680437  74.3856752  81.3090130  23.5023029  75.4942355  81.8688952
  25.4623021  79.2663038  72.6225936  25.0242451  78.5498897  72.1631574
  26.2033462  79.4939153  72.0611028  22.2524187  73.9559975  79.1438032
  21.4392053  74.2554146  79.5503224  22.7483181  73.5615664  79.8612514
  24.4032765  83.9517732  81.0772297  24.3608944  84.1778578  80.1480829
  25.3195464  83.7181107  81.2258098  27.8498399  74.4201800  87.9752926
  28.2047786  74.6473273  88.8347392  28.4970530  74.7520176  87.3530181
  33.5796136  77.5420236  78.6802255  33.4414034  77.7321832  77.7523444
  33.2232354  78.3039618  79.1370306  21.7438262  71.5278331  84.7599267
  22.3837641  71.3867090  84.0622230  20.9115792  71.2412844  84.3837869
  33.6065515  79.6096763  83.6913526  34.0402022  79.5172052  84.5396580
  34.3197096  79.5854263  83.0533542  22.5198566  80.8280761  80.8734259
  23.3139164  80.3331081  80.6716834  21.8090258  80.2998624  80.5101965
  27.3393410  83.2098857  85.2246627  27.3930432  83.7789793  85.9924343
  26.4708191  83.3800742  84.8600664  18.8281329  74.9723843  76.9494012
  17.8978917  74.9108298  77.1663974  18.9238801  74.4499796  76.1530653
  18.7466878  71.4978656  79.5372254  19.0073695  72.4123989  79.4281414
  19.5684050  71.0303098  79.6868867  20.2191803  72.9116413  86.7071078
  20.8914857  72.7033775  86.0583727  19.3921590  72.7138499  86.2676311
  34.4681065  79.6520463  86.2246412  34.6616955  80.5566274  86.4705687
  34.3681683  79.1927882  87.0584997  26.1217375  69.5378354  88.7236739
  25.4745291  70.2368303  88.6301216  26.8918391  69.9714498  89.0912987
  29.5296173  79.8027206  91.7987292  29.3781680  79.5737758  90.8817376
  29.5200853  80.7597807  91.8118637  26.2981510  77.3759119  86.7833559
  27.2273570  77.5270278  86.6102526  25.8772540  77.4643139  85.9282205
  25.0969842  81.4009783  84.5532096  24.9580927  81.0328567  85.4258035
  24.3084438  81.9157423  84.3816054  25.6917994  86.5018880  75.8957633
  25.8669749  86.0306923  76.7103256  25.0050782  87.1284646  76.1238894
  26.6475057  80.7791386  81.9420934  26.3124889  80.7392156  82.8378584
  26.1479002  80.1136102  81.4691345  20.6219301  76.1859016  87.4673515
  20.4839099  75.4539255  88.0685054  21.5324224  76.0967916  87.1857703
  29.5834248  78.1247420  72.2157994  28.9663419  77.3994248  72.1191047
  29.1150737  78.8856780  71.8725068  23.2501601  75.8978975  86.9557195
  23.9601220  75.2572167  86.9143814  23.2070910  76.1491870  87.8783376
  31.2388380  82.8346328  89.8763774  31.1800926  82.1505549  89.2094357
  31.6407898  83.5765318  89.4244400  21.9630535  72.8844193  88.7752835
  21.4267892  72.4334931  89.4274431  21.3747244  73.0190102  88.0323299
  20.2579079  89.6508242  82.6697493  20.4975677  90.2826766  83.3476512
  19.4148275  89.2996282  82.9562852  21.3732794  72.3432844  71.3379298
  20.4962261  72.2221645  70.9741545  21.8490547  71.5518923  71.0858187
  31.2405787  80.7985912  88.1077754  30.3532566  80.4611834  88.2304153
  31.8104338  80.0668944  88.3446519  12.8934934  77.1310004  81.4320805
  13.5805974  76.8171734  80.8441821  12.7383063  78.0351369  81.1588057
  17.6969657  72.0200201  85.8605829  17.6127845  71.4125870  85.1256239
  16.8752363  72.5109219  85.8615325  24.7706941  85.4587365  85.0738997
  24.6977112  86.2642336  85.5858302  24.3284334  85.6579331  84.2487019
  24.5596720  84.6959135  78.5841819  23.7764242  85.2380815  78.6780043
  25.2589466  85.2133114  78.9836060  27.8693370  70.5053764  81.2276024
  28.3662070  69.7523727  80.9077094  27.0980352  70.5418081  80.6619233
  35.7223128  76.2094130  82.8694316  35.7113004  77.0918845  82.4988249
  34.8540507  75.8565681  82.6748853  27.2305624  85.3574199  87.2297156
  27.9433596  85.9921664  87.1573057  26.7395653  85.4538065  86.4137158
  28.9523151  79.2625451  78.8014448  28.0179430  79.3826914  78.6319152
  29.1299820  78.3597918  78.5374457  24.4528339  72.6471147  80.9547709
  24.0826127  72.0942188  81.6428614  24.9487432  72.0429281  80.4022709
  32.3395703  75.1042771  79.3364482  32.8056155  75.9370762  79.2624784
  32.7903203  74.6387752  80.0409740  22.2817538  83.1068642  88.0502727
  22.9826997  83.7405125  88.2032121  21.8112653  83.4483374  87.2898366
  30.4071934  81.4486592  76.3350634  30.6831778  81.3343187  77.2444508
  29.5376432  81.0504077  76.2962807  30.3112365  67.4723358  83.3755383
  29.3975445  67.7027585  83.5437590  30.7405467  67.5561802  84.2269415
  30.0818824  75.6613250  85.8755277  29.4290274  75.9089157  85.2207730
  30.4599204  74.8477388  85.5417754  27.0425998  85.6972943  79.9783447
  27.2248392  84.8794599  80.4411200  27.8658984  85.9140635  79.5408337
  27.3768163  84.6241128  77.2398496  27.9055930  84.1133583  76.6268658
  27.6396383  84.3083658  78.1044029  26.1306397  76.4033061  92.3621314
  25.4547034  76.3027190  93.0323689  26.9534031  76.2472275  92.8257311
  17.8785256  82.6404997  84.9833829  18.4638693  81.8948685  85.1161734
  17.6810094  82.9508954  85.8670493  20.7323911  85.6756245  79.9996272
  20.0634286  86.1602372  79.5160312  20.5936781  85.9225465  80.9139650
  12.4702911  75.2110598  83.7038272  12.5087010  74.6774188  84.4975391
  11.9643203  74.6845803  83.0849250  24.8729180  87.7099988  86.5978930
  25.4247488  87.8731610  87.3628015  25.2135373  88.3004426  85.9258955
  19.8493673  70.0575138  87.2000815  19.9134999  70.9189969  86.7878212
  19.7860793  69.4449140  86.4673173  19.3245945  72.1298271  90.8473849
  19.9517984  71.7475348  91.4611373  18.4673864  71.9112473  91.2129542
  29.7240054  82.5361246  92.4527585  30.2679958  83.1491204  91.9582539
  29.1426899  83.0940824  92.9694598  16.1011488  73.9374700  76.7792204
  16.3964929  73.0285378  76.7259258  15.1999524  73.9162439  76.4573206
  28.0097567  85.6581964  83.5842612  27.8848706  84.8571704  83.0753558
  28.6676658  86.1528157  83.0956582  19.6305735  72.0130696  82.7619752
  18.9092321  72.6266664  82.6227226  20.4198991  72.5488461  82.6836398
  30.0732475  83.4590984  85.2122162  29.1262811  83.3396335  85.1400489
  30.4215248  82.5713482  85.2948424  22.4332049  69.3485123  89.0360404
  22.9566451  69.5947419  89.7986714  22.2144382  70.1805158  88.6163542
  17.8299330  71.6188797  76.9031529  17.5012036  70.7386176  76.7206635
  18.1838700  71.5636466  77.7907918  27.0778909  83.2543700  81.4126515
  26.9303871  82.3260407  81.5934085  27.9032402  83.2763791  80.9283590
  20.9441153  71.9061767  77.2707007  21.2837225  72.4347688  76.5485615
  21.3913273  72.2442173  78.0465573  30.6813030  84.0772259  82.4991387
  31.6059578  83.8715120  82.3615838  30.5128334  83.8288660  83.4080729
  23.6384594  70.2898818  86.7210075  23.2981414  69.4906631  87.1230755
  22.9323600  70.5900529  86.1486908  24.2901066  67.3748130  85.1737398
  25.1127135  66.9008608  85.0516288  24.5339129  68.1538614  85.6736084
  22.9309300  70.4036389  75.4700299  23.6517663  70.7817642  74.9664016
  22.3074604  71.1225266  75.5735277  27.0740423  71.1081538  76.4058632
  27.2904037  71.9906176  76.1047460  26.5934490  70.7167751  75.6764274
  21.8139644  74.0667251  82.9829376  21.6684225  74.3807554  83.8753658
  21.3364848  74.6852151  82.4300275  23.6736027  71.0569799  83.0310266
  23.6597596  70.1610892  82.6942564  24.3908455  71.0640463  83.6648552
  25.5262158  71.4907139  85.0763393  25.2679936  72.4124210  85.0747724
  24.9947198  71.0937574  85.7663858  30.4708347  84.5957926  77.8553479
  30.6445224  84.0304349  77.1027331  30.9637238  85.3958821  77.6732969
  16.2885306  76.6072595  85.9217038  15.7438775  77.3832403  86.0537312
  17.1664656  76.9543400  85.7636159  23.0772923  69.9384179  78.2997836
  23.1988834  69.0100825  78.4988724  22.7874966  69.9522865  77.3876152
  25.9464114  67.6239090  81.4364556  25.9685810  67.6878423  80.4816535
  26.3632173  66.7843598  81.6305062  36.3247738  77.3594349  79.4743779
  36.7678884  76.6101674  79.0762902  35.4474248  77.3504486  79.0917510
  31.4583519  83.9124691  74.9550377  32.1534424  84.5331383  75.1737692
  31.8006669  83.0620042  75.2302755  17.0751328  75.7342492  88.8147194
  16.3333064  75.8825127  89.4011825  16.7544073  75.9950757  87.9513944
  33.3574942  81.3624396  76.4837708  33.8826266  81.7011669  75.7587028
  33.2697295  80.4271411  76.3000842  25.0194991  85.2758470  88.6127584
  25.3282117  85.0307617  89.4850284  25.8170473  85.4805108  88.1246455
  25.0415603  87.4296379  80.8432961  24.6020593  86.9372758  81.5365818
  25.7923720  86.8869347  80.6025036  17.5207942  83.6207920  80.8457589
  18.3465962  83.3211692  80.4656233  17.1701994  82.8515543  81.2947378
  22.4889475  82.9734389  82.9155263  21.8669484  82.3105094  82.6157491
  23.1594342  82.9995520  82.2328910  15.7216547  81.5394247  81.8046523
  14.8848455  81.1116421  81.6230524  15.6940192  81.7326690  82.7417314
  22.5614003  71.4516177  92.5087769  22.6102158  72.3278299  92.1265538
  23.1036517  70.9093570  91.9359412  33.0468848  81.9957300  91.7888906
  32.2564392  81.9781439  91.2493405  32.8102203  82.5345594  92.5437942
  33.1666723  78.8449766  89.1021634  33.2164728  78.6799774  90.0437157
  33.0580647  77.9777025  88.7119515  22.0502982  81.5238312  76.3913723
  22.1991102  82.2073776  75.7380396  22.8569426  81.5043402  76.9063179
  30.4570486  74.8280694  90.4180941  31.3580349  74.6887159  90.1264939
  30.5318460  74.9935149  91.3579118  24.7913291  72.2047549  89.2634127
  23.9216601  72.4981115  88.9916716  25.0272771  72.7887994  89.9841391
  34.6684920  81.2646708  89.3463656  34.3769729  81.6276688  90.1827117
  34.0557052  80.5513716  89.1676988  35.8680603  78.8299587  81.8666226
  36.7027494  79.2689392  82.0303786  36.0039731  78.3538241  81.0474472
  32.9172108  76.3879322  87.8143714  33.3926230  76.5806969  87.0062565
  31.9937674  76.4438508  87.5687097  19.8055615  77.5503490  77.3974792
  19.5601657  76.6465820  77.5955002  19.9751530  77.5520640  76.4554270
  27.4952325  68.4227166  86.7799548  28.0134269  69.1588193  86.4546036
  27.1407458  68.7291159  87.6146307  19.0751263  73.2831847  74.8960954
  18.3820508  73.3576202  74.2400990  18.8303015  72.5192191  75.4182470
  27.7464919  64.8427448  82.3000444  28.0266673  64.1750637  82.9260871
  28.5315526  65.0356544  81.7875108  25.5498388  84.0186442  73.8625471
  24.9772355  84.6376629  73.4095942  26.1231181  84.5685804  74.3965393
  31.6173777  73.2645082  86.0472019  32.5691200  73.3643180  86.0684243
  31.4477228  72.4723351  86.5570104  29.6388157  70.3500666  86.2331420
  29.0438089  70.6305678  85.5377909  29.3537854  70.8394567  87.0048161
  28.7695647  84.3023592  74.9934053  29.7026321  84.2369154  75.1966928
  28.6818860  85.1379859  74.5348586  31.3983664  83.6189463  71.9538000
  31.3197296  83.2849326  72.8473758  32.2193331  84.1111231  71.9529473
  34.0961855  76.4851202  85.1614319  34.0638175  75.5467203  85.3474003
  34.7062479  76.5635239  84.4280144  25.9345186  75.3547255  71.2041523
  26.8804291  75.2253463  71.2729941  25.5559431  74.6161917  71.6810951
  34.2456344  73.2762246  85.2072602  33.7295392  72.4920702  85.0202531
  35.1296292  72.9480962  85.3719122  31.9067071  67.0203261  81.1668415
  31.7091892  66.7118349  82.0511747  32.5166776  67.7464900  81.2966345
  39.9138405  77.5467209  84.3020356  40.6441794  77.2852497  84.8628059
  39.3045351  76.8095931  84.3422424  37.9953702  75.6875072  84.8994807
  37.2686866  75.5531036  84.2911299  37.5800989  75.9951900  85.7051525
  25.8183879  79.4065001  92.6642180  26.7386888  79.5843600  92.8582227
  25.7833462  78.4621047  92.5121879  24.1188103  73.2797231  71.1396408
  23.2119559  72.9830344  71.2159122  24.3964084  72.9827050  70.2730695
  15.0366044  74.6003595  81.5895455  14.7168828  73.7468903  81.2969829
  14.4899472  74.8152173  82.3453422  18.8145951  77.3166036  85.3064961
  19.0331961  78.2483144  85.3252995  19.2271725  76.9574010  86.0919765
  25.7350169  67.8234121  77.2940650  24.9250897  67.4781206  77.6695896
  26.4234586  67.5141665  77.8828261  27.6640717  66.9012168  78.9164946
  28.2171756  67.3207621  79.5754969  27.9010804  65.9747916  78.9587902
  23.6873817  72.8899242  94.6967710  23.5870543  73.8393599  94.6279801
  23.4695359  72.5617481  93.8243780  14.9054304  78.2206506  83.5588576
  14.2117775  77.8060459  83.0458531  15.6527295  78.2627043  82.9621995
  31.0419524  69.0112693  78.4243611  30.4618193  69.6697497  78.0421663
  30.7755457  68.1890038  78.0131028  29.4923091  68.4117751  80.6264931
  29.9922869  68.5234285  79.8179250  30.1358699  68.1078804  81.2665739
  23.5505087  76.3196380  93.5132772  23.0672168  77.1196741  93.7196661
  23.6366026  76.3304325  92.5600216  16.8191046  78.1524760  81.4354591
  16.7961734  78.2512447  80.4836474  17.1291683  78.9989911  81.7571757
  19.4778424  80.2100915  85.5501206  20.4321678  80.1784858  85.4831137
  19.2790948  79.7491539  86.3651432  20.0677806  78.7802031  88.1172003
  20.8870695  79.2746110  88.1406841  20.3414614  77.8633999  88.0889571
  29.8244402  71.1712784  77.4799959  28.9370257  71.4562434  77.2620154
  30.2398391  71.0106547  76.6327236  33.1758939  71.1959305  81.1954298
  33.9519329  71.6855757  81.4678915  32.4507073  71.6217359  81.6526168
  35.6131497  71.9086924  82.2528239  36.2075988  71.6682660  81.5421547
  35.6858081  71.1894054  82.8801775  17.8328653  85.7520535  82.5671404
  17.6983121  84.9920936  82.0009402  17.4160715  86.4761435  82.1000192
  28.9687616  80.9357458  71.5747979  29.6723466  81.1407461  72.1905634
  28.2450265  81.5034220  71.8397062  29.7985426  76.6867319  77.6950249
  29.7420628  77.1435871  76.8557881  30.3513769  75.9258004  77.5173092
  33.6090232  72.4757051  78.5200368  33.3527166  72.0753687  79.3508576
  32.9843100  73.1900845  78.3950508  37.9202570  75.2153125  81.0271660
  37.3602128  75.2846314  81.8003222  37.3146073  75.0394109  80.3071156
  20.9897779  86.6489852  82.7789846  20.8730163  87.5935284  82.6768536
  20.1690225  86.3463413  83.1675645  30.8774313  81.3739987  73.6246439
  31.7119917  80.9421186  73.4423914  30.7158656  81.2022001  74.5523333
  30.5320205  77.8772101  74.9902778  30.4769009  77.7116372  74.0491222
  29.9066261  78.5848134  75.1464968  15.3212720  73.1140165  88.8164200
  15.9671584  72.6039119  89.3051426  15.1129872  73.8508847  89.3907626
  27.8466113  80.1821013  94.3156341  28.7157272  80.3561665  93.9542976
  27.3672864  81.0015429  94.1932070  23.8416331  67.3780210  74.5688097
  23.8295001  68.3222050  74.7256367  24.7339753  67.1950355  74.2747558
  22.0152293  87.3018114  85.9945775  22.9179540  87.3341724  86.3112270
  21.7889663  86.3718565  86.0092110  23.7705895  86.0549100  82.6555853
  22.8201526  86.0550962  82.5420225  24.0738381  85.3081835  82.1391888
  19.6610211  70.2607782  92.9139215  20.5241673  69.9044587  93.1242539
  19.0875622  69.9221677  93.6014619  39.5058588  91.8909639  83.7201616
  40.1436998  91.7716386  83.0164956  39.3879431  92.8390482  83.7789568
  36.3148295  91.8437067  83.6563140  35.9766806  91.7278131  82.7683675
  37.1838063  91.4428232  83.6364146  32.1735110  93.6972543  79.6460031
  31.6099975  93.6062480  78.8776319  32.0587505  92.8772447  80.1262524
  36.7968078  92.9971918  89.6149346  36.7856718  92.6024717  88.7429849
  36.9588717  92.2637991  90.2083117  29.7199542  95.1923735  82.4844252
  30.5120834  94.8514559  82.0690551  29.9596192  95.3018710  83.4046405
  37.7534669  97.3643511  74.9574496  37.1022649  97.9497591  74.5708510
  38.5479032  97.8949706  75.0169534  31.6790296  94.4532648  75.3561630
  32.4521172  93.9061635  75.2174506  32.0315695  95.3176897  75.5676092
  33.5175339  95.7809030  88.5628530  33.2265205  96.6854661  88.4475196
  34.1532323  95.8225558  89.2772599  34.4431546  93.1585879  85.1529889
  35.0395118  92.9341901  84.4386852  34.5006517  92.4170624  85.7555337
  34.0156574  90.6125314  72.9880080  34.2682095  90.0906835  72.2263543
  33.0781133  90.4491459  73.0906764  39.0599857  89.6161092  80.7954824
  39.8462946  89.1980516  80.4445241  39.3238561  90.5207185  80.9636472
  39.2309934  95.0533943  75.4943480  38.5955767  95.1268569  76.2064385
  38.9007341  95.6427542  74.8162560  44.4608284  89.5536326  81.6987802
  45.1933456  88.9835542  81.9325632  43.7047640  89.1657926  82.1394308
  33.7352863  92.5153420  75.1904455  33.6189121  91.8398323  75.8585540
  33.8455123  92.0285794  74.3736608  36.0784404  91.9763567  78.8951145
  35.7142611  91.4494188  79.6064066  36.9351520  91.5862036  78.7217630
  41.9833704  83.2657900  86.1582411  41.6517029  84.1353311  85.9343626
  41.3879318  82.9494184  86.8376441  35.7189891  87.0053467  73.8912493
  35.8864293  87.8733703  74.2582964  35.5287060  87.1680748  72.9673782
  38.4765224  95.4670446  85.5578323  38.1765947  96.3695484  85.4494131
  38.1316283  95.2002629  86.4099476  31.9277705  91.9184243  81.5915028
  31.0028202  91.7860457  81.7992720  32.1762119  92.6978462  82.0884970
  41.8762368  87.9852986  83.2375761  40.9679245  87.9168394  82.9434522
  41.8249963  88.4624931  84.0657586  35.6979112  89.4611124  74.8759160
  35.5778737  89.9068175  75.7144640  35.0031700  89.8096442  74.3172698
  29.2886516  91.5617516  82.4258817  29.4178898  91.8151995  83.3398229
  28.6083968  92.1545224  82.1063472  33.4586004 102.2314766  78.5249291
  33.3810033 103.1822591  78.6037772  32.8547647 101.8860639  79.1824217
  35.9503233  89.4042631  91.1810658  35.1736567  89.9636552  91.1713523
  36.5893796  89.8899414  91.7025528  43.7424014  86.1869424  85.0153635
  43.0998394  86.4801957  84.3693429  43.2378943  86.0722345  85.8206831
  41.3964178  89.9332597  75.7039494  42.3082034  90.1659984  75.5287192
  40.8873825  90.5169642  75.1414573  34.2049606  92.2128085  90.7428625
  34.9464290  92.7513129  90.4663449  33.4986591  92.8394374  90.9000177
  39.6804945  94.3557225  89.3400787  40.0888301  93.9139636  88.5955419
  38.9582207  93.7809853  89.5934979  36.0336015  89.2929832  86.7134344
  36.8797211  89.7169246  86.8568993  35.9734653  88.6363456  87.4072907
  40.0033760  94.9158416  83.0953075  39.3742622  95.0804130  82.3929143
  39.6159422  95.3300025  83.8664039  43.8822992  95.8512854  80.4497439
  43.1974030  96.2311755  79.8994473  43.9666841  96.4608180  81.1829387
  39.1835461  86.9534200  88.3715517  38.9396393  87.7076261  87.8349793
  39.4595391  87.3319548  89.2062764  41.1373924  93.4972813  87.0492783
  41.3490819  94.1404573  86.3727164  41.0903672  92.6635129  86.5814713
  38.7400152  86.1090633  83.9529355  37.8784632  86.4071887  84.2446092
  38.7662587  86.3261032  83.0210388  35.5561722  94.6532824  80.3603161
  36.0200067  94.9320527  79.5707783  35.2918520  93.7516269  80.1776251
  32.4485803  94.2004306  83.2982924  33.0187160  94.6291574  82.6600408
  33.0393915  93.9186890  83.9967109  34.4930608  90.7755976  77.1692726
  35.1954651  91.2277020  77.6366652  34.1611236  90.1339795  77.7972619
  32.9410969  89.3667733  91.5443935  32.3109630  90.0484014  91.7779332
  32.8347057  89.2550815  90.5997073  28.2355942  89.0339529  82.4709859
  27.4454996  89.2897058  81.9949970  28.7267189  89.8487867  82.5761900
  42.2519751  96.3744768  85.2215140  43.0737195  95.9724955  84.9397822
  42.2482154  96.2713002  86.1731256  30.1870687  89.3984108  79.4293336
  29.3901851  89.5102803  79.9476832  29.9596279  89.7370760  78.5634226
  36.0176355  95.9228811  87.3775851  36.0820787  96.3849219  88.2134022
  35.3087279  95.2926176  87.5058160  26.5193645  89.2870019  84.9024850
  26.7701683  90.1717029  85.1682426  27.0553193  89.1074621  84.1299942
  50.3425745  92.7183517  81.5700112  49.5889453  92.1490915  81.4144116
  50.4773286  92.6846181  82.5170746  35.7324373  97.5896919  77.2454831
  35.5970047  98.4348455  77.6739679  36.2734185  97.7916197  76.4820765
  32.2191712  83.6688499  93.9069186  31.8258658  83.1154697  94.5816830
  33.0357853  83.9799077  94.2975704  29.1853770  95.1072357  77.8182756
  29.6978291  95.9015607  77.9688321  29.8376483  94.4098647  77.7516357
  30.9948655  98.2238113  79.9005509  31.1715283  99.1456078  79.7126493
  31.7905488  97.9096532  80.3299889  35.1359673  85.0846378  91.4989443
  35.8769387  85.6853531  91.4193905  35.3677596  84.3424016  90.9407485
  30.2801011  90.2702745  89.7767672  30.1654526  89.3688002  90.0774771
  29.4245529  90.5166442  89.4252489  37.3592849  98.2120485  91.3755173
  36.9156703  97.4256864  91.0576077  38.0210063  98.3999636  90.7099064
  32.1179970  99.7416287  85.9015852  32.6687395  99.6133350  85.1292845
  31.2791446 100.0411176  85.5510744  39.4574087  98.4923285  89.4036574
  39.4392562  99.3132166  88.9116843  40.3794007  98.3677361  89.6286715
  35.9147141  96.0067415  90.2460083  36.4475478  95.2455703  90.0159391
  35.3861222  95.7141067  90.9884237  39.0816836  81.1127481  85.7753724
  38.7381106  82.0029123  85.6992835  39.4495799  80.9229138  84.9123309
  27.1502687  93.4361011  78.5942327  27.9877909  93.8458020  78.3776034
  27.3280954  92.4960453  78.5642520  39.0467119  91.1036092  74.2826159
  38.5313742  91.8740697  74.5214547  38.7744427  90.4301228  74.9059221
  36.6314230  85.9485793  79.3411398  35.7755826  85.5592643  79.1617037
  37.0441182  86.0277754  78.4811183  38.1613377  83.4832136  83.7402958
  37.6578172  83.4462271  82.9270763  38.4543983  84.3924879  83.7999614
  34.4056262  83.5670866  82.7469139  35.2709259  83.3713674  82.3875029
  34.4733771  83.3381217  83.6738496  44.0201393  93.8568447  76.2179333
  43.2430836  93.5179606  75.7734495  44.6992874  93.8621070  75.5434298
  38.8353422  88.9763184  76.1085941  38.5303558  89.2909333  76.9596084
  39.7883864  89.0544604  76.1513274  37.2799854  95.1353407  77.7578895
  36.7521215  94.4006167  77.4452132  36.7787357  95.9128084  77.5118863
  42.2592700  93.3302428  82.8745941  41.6016374  94.0201689  82.9626070
  43.0633099  93.7198860  83.2179927  32.0118581  85.7973074  80.1185506
  32.5862333  85.5748255  79.3858699  32.5989564  85.8661768  80.8714107
  41.0698159  91.6846801  80.9249883  41.5830040  92.3176792  81.4271592
  41.7199383  91.0847996  80.5593243  32.3388169  87.8277535  74.1381391
  31.5025481  88.1652221  74.4590666  32.1992938  87.6926514  73.2008528
  34.3141249  82.6714323  78.8460576  33.6605662  82.3563340  78.2217190
  34.2721723  82.0490063  79.5720399  35.4252454  92.9533618  70.7613868
  34.5179516  92.7222871  70.9605017  35.9223486  92.1571237  70.9487849
  38.3320533 101.6631125  73.6810554  37.6582232 101.9662822  74.2895512
  38.7186355 102.4660205  73.3316011  37.5478990  89.1596256  83.1708223
  36.6301551  89.3811203  83.0129911  37.9639133  89.2342567  82.3119931
  38.3314037  90.5587672  78.3010903  39.0785856  91.0709069  77.9918026
  38.6005627  90.2371724  79.1615297  36.6040687  93.0546212  75.2837858
  35.6951907  92.7705245  75.3810328  36.6335771  93.4745291  74.4241165
  41.8359955  96.6652802  79.0529025  41.3822282  95.8243712  79.1094216
  41.2053922  97.3014200  79.3903805  40.7792874  87.5944788  80.2829693
  40.0415631  87.0822174  80.6139935  41.0319648  87.1545170  79.4712970
  40.2792894  98.5029299  79.9878843  40.5715869  99.0634356  79.2691209
  40.7891515  98.7957860  80.7432003  40.8804502  80.3721040  80.8771462
  41.1863379  79.5118403  80.5897377  41.6057107  80.9638660  80.6770456
  27.1728858  90.7751727  79.2653060  26.9753258  90.1821087  78.5404127
  26.6175522  90.4703937  79.9828999  35.1525582  90.6674833  81.3847653
  35.2074191  89.7148669  81.3090130  34.3416784  90.8234272  81.8688952
  36.3016775  94.5954956  72.6225936  35.8636205  93.8790815  72.1631574
  37.0427216  94.8231071  72.0611028  33.0917941  89.2851893  79.1438032
  32.2785807  89.5846063  79.5503224  33.5876936  88.8907582  79.8612514
  35.2426519  99.2809650  81.0772297  35.2002698  99.5070496  80.1480829
  36.1589218  99.0473024  81.2258098  38.6892153  89.7493717  87.9752926
  39.0441541  89.9765190  88.8347392  39.3364284  90.0812094  87.3530181
  44.4189890  92.8712153  78.6802255  44.2807789  93.0613749  77.7523444
  44.0626109  93.6331536  79.1370306  32.5832016  86.8570248  84.7599267
  33.2231396  86.7159007  84.0622230  31.7509547  86.5704762  84.3837869
  44.4459270  94.9388680  83.6913526  44.8795776  94.8463969  84.5396580
  45.1590850  94.9146181  83.0533542  33.3592320  96.1572679  80.8734259
  34.1532919  95.6622999  80.6716834  32.6484013  95.6290542  80.5101965
  38.1787165  98.5390774  85.2246627  38.2324187  99.1081711  85.9924343
  37.3101946  98.7092659  84.8600664  29.6675084  90.3015761  76.9494012
  28.7372672  90.2400216  77.1663974  29.7632556  89.7791713  76.1530653
  29.5860633  86.8270573  79.5372254  29.8467450  87.7415907  79.4281414
  30.4077805  86.3595016  79.6868867  31.0585558  88.2408331  86.7071078
  31.7308611  88.0325693  86.0583727  30.2315344  88.0430417  86.2676311
  45.3074819  94.9812381  86.2246412  45.5010709  95.8858191  86.4705687
  45.2075437  94.5219800  87.0584997  36.9611130  84.8670271  88.7236739
  36.3139045  85.5660221  88.6301216  37.7312145  85.3006415  89.0912987
  40.3689928  95.1319124  91.7987292  40.2175434  94.9029675  90.8817376
  40.3594607  96.0889725  91.8118637  37.1375264  92.7051036  86.7833559
  38.0667324  92.8562196  86.6102526  36.7166294  92.7935057  85.9282205
  35.9363596  96.7301701  84.5532096  35.7974682  96.3620485  85.4258035
  35.1478192  97.2449340  84.3816054  36.5311748 101.8310797  75.8957633
  36.7063504 101.3598840  76.7103256  35.8444536 102.4576563  76.1238894
  37.4868811  96.1083303  81.9420934  37.1518644  96.0684073  82.8378584
  36.9872757  95.4428019  81.4691345  31.4613055  91.5150933  87.4673515
  31.3232853  90.7831172  88.0685054  32.3717979  91.4259834  87.1857703
  40.4228003  93.4539338  72.2157994  39.8057174  92.7286166  72.1191047
  39.9544491  94.2148698  71.8725068  34.0895356  91.2270893  86.9557195
  34.7994974  90.5864085  86.9143814  34.0464664  91.4783788  87.8783376
  42.0782135  98.1638246  89.8763774  42.0194681  97.4797466  89.2094357
  42.4801653  98.9057236  89.4244400  32.8024290  88.2136111  88.7752835
  32.2661647  87.7626849  89.4274431  32.2140998  88.3482020  88.0323299
  31.0972833 104.9800160  82.6697493  31.3369432 105.6118684  83.3476512
  30.2542030 104.6288200  82.9562852  32.2126549  87.6724762  71.3379298
  31.3356015  87.5513563  70.9741545  32.6884302  86.8810840  71.0858187
  42.0799542  96.1277830  88.1077754  41.1926321  95.7903752  88.2304153
  42.6498093  95.3960861  88.3446519  23.7328689  92.4601922  81.4320805
  24.4199729  92.1463652  80.8441821  23.5776818  93.3643286  81.1588057
  28.5363411  87.3492118  85.8605829  28.4521600  86.7417788  85.1256239
  27.7146118  87.8401137  85.8615325  35.6100695 100.7879282  85.0738997
  35.5370867 101.5934254  85.5858302  35.1678088 100.9871248  84.2487019
  35.3990475 100.0251052  78.5841819  34.6157997 100.5672733  78.6780043
  36.0983220 100.5425032  78.9836060  38.7087125  85.8345682  81.2276024
  39.2055825  85.0815644  80.9077094  37.9374106  85.8709999  80.6619233
  46.5616882  91.5386047  82.8694316  46.5506759  92.4210763  82.4988249
  45.6934262  91.1857598  82.6748853  38.0699379 100.6866116  87.2297156
  38.7827351 101.3213581  87.1573057  37.5789407 100.7829982  86.4137158
  39.7916906  94.5917369  78.8014448  38.8573184  94.7118832  78.6319152
  39.9693574  93.6889836  78.5374457  35.2922094  87.9763065  80.9547709
  34.9219881  87.4234105  81.6428614  35.7881186  87.3721198  80.4022709
  43.1789457  90.4334688  79.3364482  43.6449909  91.2662680  79.2624784
  43.6296958  89.9679670  80.0409740  33.1211292  98.4360560  88.0502727
  33.8220752  99.0697043  88.2032121  32.6506407  98.7775291  87.2898366
  41.2465688  96.7778510  76.3350634  41.5225532  96.6635104  77.2444508
  40.3770187  96.3795995  76.2962807  41.1506120  82.8015275  83.3755383
  40.2369200  83.0319502  83.5437590  41.5799221  82.8853719  84.2269415
  40.9212578  90.9905167  85.8755277  40.2684028  91.2381075  85.2207730
  41.2992958  90.1769306  85.5417754  37.8819752 101.0264861  79.9783447
  38.0642147 100.2086516  80.4411200  38.7052738 101.2432553  79.5408337
  38.2161918  99.9533046  77.2398496  38.7449684  99.4425500  76.6268658
  38.4790137  99.6375576  78.1044029  36.9700151  91.7324978  92.3621314
  36.2940788  91.6319108  93.0323689  37.7927785  91.5764192  92.8257311
  28.7179010  97.9696915  84.9833829  29.3032447  97.2240603  85.1161734
  28.5203849  98.2800872  85.8670493  31.5717666 101.0048162  79.9996272
  30.9028041 101.4894290  79.5160312  31.4330535 101.2517383  80.9139650
  23.3096665  90.5402515  83.7038272  23.3480765  90.0066106  84.4975391
  22.8036958  90.0137721  83.0849250  35.7122934 103.0391906  86.5978930
  36.2641242 103.2023527  87.3628015  36.0529128 103.6296344  85.9258955
  30.6887427  85.3867056  87.2000815  30.7528754  86.2481887  86.7878212
  30.6254548  84.7741057  86.4673173  30.1639700  87.4590188  90.8473849
  30.7911739  87.0767266  91.4611373  29.3067619  87.2404390  91.2129542
  40.5633808  97.8653163  92.4527585  41.1073712  98.4783122  91.9582539
  39.9820653  98.4232742  92.9694598  26.9405243  89.2666617  76.7792204
  27.2358684  88.3577296  76.7259258  26.0393278  89.2454357  76.4573206
  38.8491321 100.9873881  83.5842612  38.7242461 100.1863621  83.0753558
  39.5070413 101.4820075  83.0956582  30.4699490  87.3422614  82.7619752
  29.7486075  87.9558582  82.6227226  31.2592745  87.8780379  82.6836398
  40.9126230  98.7882902  85.2122162  39.9656565  98.6688253  85.1400489
  41.2609003  97.9005400  85.2948424  33.2725803  84.6777040  89.0360404
  33.7960205  84.9239337  89.7986714  33.0538136  85.5097075  88.6163542
  28.6693084  86.9480715  76.9031529  28.3405790  86.0678094  76.7206635
  29.0232455  86.8928384  77.7907918  37.9172663  98.5835618  81.4126515
  37.7697626  97.6552325  81.5934085  38.7426157  98.6055708  80.9283590
  31.7834907  87.2353685  77.2707007  32.1230980  87.7639606  76.5485615
  32.2307028  87.5734091  78.0465573  41.5206785  99.4064176  82.4991387
  42.4453332  99.2007038  82.3615838  41.3522088  99.1580578  83.4080729
  34.4778348  85.6190736  86.7210075  34.1375169  84.8198549  87.1230755
  33.7717355  85.9192446  86.1486908  35.1294820  82.7040048  85.1737398
  35.9520889  82.2300526  85.0516288  35.3732884  83.4830532  85.6736084
  33.7703055  85.7328306  75.4700299  34.4911417  86.1109559  74.9664016
  33.1468359  86.4517183  75.5735277  37.9134177  86.4373455  76.4058632
  38.1297792  87.3198093  76.1047460  37.4328245  86.0459669  75.6764274
  32.6533399  89.3959169  82.9829376  32.5077980  89.7099472  83.8753658
  32.1758602  90.0144069  82.4300275  34.5129782  86.3861717  83.0310266
  34.4991350  85.4902810  82.6942564  35.2302210  86.3932380  83.6648552
  36.3655912  86.8199057  85.0763393  36.1073690  87.7416127  85.0747724
  35.8340953  86.4229491  85.7663858  41.3102101  99.9249844  77.8553479
  41.4838979  99.3596266  77.1027331  41.8030992 100.7250739  77.6732969
  27.1279061  91.9364513  85.9217038  26.5832529  92.7124321  86.0537312
  28.0058411  92.2835317  85.7636159  33.9166678  85.2676097  78.2997836
  34.0382589  84.3392743  78.4988724  33.6268720  85.2814783  77.3876152
  36.7857868  82.9531007  81.4364556  36.8079565  83.0170340  80.4816535
  37.2025927  82.1135516  81.6305062  47.1641492  92.6886267  79.4743779
  47.6072638  91.9393592  79.0762902  46.2868003  92.6796403  79.0917510
  42.2977274  99.2416608  74.9550377  42.9928178  99.8623301  75.1737692
  42.6400424  98.3911960  75.2302755  27.9145083  91.0634409  88.8147194
  27.1726819  91.2117045  89.4011825  27.5937827  91.3242675  87.9513944
  44.1968697  96.6916314  76.4837708  44.7220021  97.0303587  75.7587028
  44.1091049  95.7563329  76.3000842  35.8588745 100.6050387  88.6127584
  36.1675872 100.3599534  89.4850284  36.6564228 100.8097026  88.1246455
  35.8809358 102.7588297  80.8432961  35.4414348 102.2664676  81.5365818
  36.6317474 102.2161265  80.6025036  28.3601697  98.9499838  80.8457589
  29.1859716  98.6503610  80.4656233  28.0095749  98.1807460  81.2947378
  33.3283230  98.3026306  82.9155263  32.7063239  97.6397011  82.6157491
  33.9988097  98.3287438  82.2328910  26.5610302  96.8686164  81.8046523
  25.7242210  96.4408339  81.6230524  26.5333947  97.0618608  82.7417314
  33.4007757  86.7808094  92.5087769  33.4495913  87.6570217  92.1265538
  33.9430271  86.2385487  91.9359412  43.8862603  97.3249217  91.7888906
  43.0958147  97.3073356  91.2493405  43.6495957  97.8637511  92.5437942
  44.0060478  94.1741684  89.1021634  44.0558483  94.0091691  90.0437157
  43.8974401  93.3068943  88.7119515  32.8896737  96.8530230  76.3913723
  33.0384857  97.5365694  75.7380396  33.6963180  96.8335320  76.9063179
  41.2964240  90.1572612  90.4180941  42.1974103  90.0179077  90.1264939
  41.3712215  90.3227067  91.3579118  35.6307046  87.5339467  89.2634127
  34.7610355  87.8273033  88.9916716  35.8666526  88.1179912  89.9841391
  45.5078675  96.5938625  89.3463656  45.2163483  96.9568606  90.1827117
  44.8950806  95.8805634  89.1676988  46.7074357  94.1591505  81.8666226
  47.5421248  94.5981309  82.0303786  46.8433486  93.6830158  81.0474472
  43.7565863  91.7171240  87.8143714  44.2319985  91.9098886  87.0062565
  42.8331428  91.7730426  87.5687097  30.6449370  92.8795407  77.3974792
  30.3995412  91.9757737  77.5955002  30.8145284  92.8812558  76.4554270
  38.3346079  83.7519084  86.7799548  38.8528023  84.4880110  86.4546036
  37.9801212  84.0583077  87.6146307  29.9145017  88.6123765  74.8960954
  29.2214262  88.6868120  74.2400990  29.6696769  87.8484108  75.4182470
  38.5858674  80.1719366  82.3000444  38.8660427  79.5042555  82.9260871
  39.3709281  80.3648462  81.7875108  36.3892142  99.3478360  73.8625471
  35.8166109  99.9668547  73.4095942  36.9624936  99.8977722  74.3965393
  42.4567532  88.5937000  86.0472019  43.4084955  88.6935098  86.0684243
  42.2870982  87.8015269  86.5570104  40.4781911  85.6792583  86.2331420
  39.8831844  85.9597596  85.5377909  40.1931608  86.1686484  87.0048161
  39.6089402  99.6315510  74.9934053  40.5420075  99.5661072  75.1966928
  39.5212615 100.4671777  74.5348586  42.2377419  98.9481380  71.9538000
  42.1591050  98.6141244  72.8473758  43.0587085  99.4403148  71.9529473
  44.9355610  91.8143120  85.1614319  44.9031930  90.8759121  85.3474003
  45.5456233  91.8927156  84.4280144  36.7738941  90.6839173  71.2041523
  37.7198045  90.5545381  71.2729941  36.3953186  89.9453835  71.6810951
  45.0850098  88.6054163  85.2072602  44.5689147  87.8212620  85.0202531
  45.9690047  88.2772880  85.3719122  42.7460825  82.3495179  81.1668415
  42.5485646  82.0410267  82.0511747  43.3560531  83.0756818  81.2966345
  50.7532160  92.8759127  84.3020356  51.4835548  92.6144415  84.8628059
  50.1439105  92.1387849  84.3422424  48.8347457  91.0166989  84.8994807
  48.1080620  90.8822954  84.2911299  48.4194744  91.3243818  85.7051525
  36.6577633  94.7356919  92.6642180  37.5780643  94.9135518  92.8582227
  36.6227216  93.7912964  92.5121879  34.9581858  88.6089149  71.1396408
  34.0513313  88.3122262  71.2159122  35.2357839  88.3118967  70.2730695
  25.8759798  89.9295513  81.5895455  25.5562582  89.0760821  81.2969829
  25.3293226  90.1444091  82.3453422  29.6539706  92.6457954  85.3064961
  29.8725715  93.5775061  85.3252995  30.0665480  92.2865928  86.0919765
  36.5743923  83.1526039  77.2940650  35.7644652  82.8073124  77.6695896
  37.2628340  82.8433583  77.8828261  38.5034472  82.2304086  78.9164946
  39.0565510  82.6499539  79.5754969  38.7404558  81.3039834  78.9587902
  34.5267571  88.2191159  94.6967710  34.4264298  89.1685516  94.6279801
  34.3089113  87.8909398  93.8243780  33.7280642  85.4676084  71.2808388
  34.5899806  85.7930983  71.5404205  33.9130987  84.6807580  70.7681453
  25.7448058  93.5498424  83.5588576  25.0511530  93.1352377  83.0458531
  26.4921049  93.5918961  82.9621995  41.8813279  84.3404611  78.4243611
  41.3011948  84.9989415  78.0421663  41.6149212  83.5181955  78.0131028
  40.3316845  83.7409669  80.6264931  40.8316624  83.8526203  79.8179250
  40.9752453  83.4370721  81.2665739  34.3898841  91.6488298  93.5132772
  33.9065923  92.4488658  93.7196661  34.4759780  91.6596243  92.5600216
  27.6584801  93.4816678  81.4354591  27.6355489  93.5804365  80.4836474
  27.9685437  94.3281829  81.7571757  30.3172179  95.5392833  85.5501206
  31.2715432  95.5076775  85.4831137  30.1184702  95.0783457  86.3651432
  30.9071561  94.1093949  88.1172003  31.7264450  94.6038028  88.1406841
  31.1808368  93.1925917  88.0889571  40.6638157  86.5004701  77.4799959
  39.7764012  86.7854352  77.2620154  41.0792146  86.3398465  76.6327236
  44.0152693  86.5251222  81.1954298  44.7913083  87.0147675  81.4678915
  43.2900827  86.9509276  81.6526168  46.4525252  87.2378841  82.2528239
  47.0469742  86.9974577  81.5421547  46.5251835  86.5185972  82.8801775
  28.6722407 101.0812452  82.5671404  28.5376875 100.3212853  82.0009402
  28.2554470 101.8053352  82.1000192  39.8081370  96.2649376  71.5747979
  40.5117220  96.4699378  72.1905634  39.0844019  96.8326138  71.8397062
  40.6379181  92.0159237  77.6950249  40.5814382  92.4727789  76.8557881
  41.1907523  91.2549922  77.5173092  44.4483987  87.8048969  78.5200368
  44.1920921  87.4045605  79.3508576  43.8236855  88.5192763  78.3950508
  48.7596324  90.5445042  81.0271660  48.1995882  90.6138232  81.8003222
  48.1539828  90.3686027  80.3071156  31.8291533 101.9781769  82.7789846
  31.7123917 102.9227202  82.6768536  31.0083979 101.6755331  83.1675645
  41.7168068  96.7031905  73.6246439  42.5513672  96.2713104  73.4423914
  41.5552411  96.5313919  74.5523333  41.3713960  93.2064018  74.9902778
  41.3162764  93.0408290  74.0491222  40.7460015  93.9140051  75.1464968
  26.1606475  88.4432083  88.8164200  26.8065339  87.9331037  89.3051426
  25.9523626  89.1800764  89.3907626  38.6859867  95.5112930  94.3156341
  39.5551027  95.6853583  93.9542976  38.2066619  96.3307347  94.1932070
  34.6810085  82.7072127  74.5688097  34.6688755  83.6513967  74.7256367
  35.5733507  82.5242273  74.2747558  32.8546047 102.6310031  85.9945775
  33.7573294 102.6633642  86.3112270  32.6283417 101.7010482  86.0092110
  34.6099649 101.3841018  82.6555853  33.6595280 101.3842879  82.5420225
  34.9132136 100.6373752  82.1391888  38.4962205  79.3014904  78.8234033
  37.7294601  78.7473391  78.9690716  38.9072910  79.3736773  79.6848185
  30.5003966  85.5899700  92.9139215  31.3635427  85.2336505  93.1242539
  29.9269377  85.2513595  93.6014619  50.3452343 107.2201556  83.7201616
  50.9830753 107.1008304  83.0164956  50.2273186 108.1682400  83.7789568
  47.1542049 107.1728984  83.6563140  46.8160561 107.0570049  82.7683675
  48.0231817 106.7720149  83.6364146  43.0128865 109.0264461  79.6460031
  42.4493730 108.9354398  78.8776319  42.8981260 108.2064365  80.1262524
  47.6361832 108.3263836  89.6149346  47.6250473 107.9316634  88.7429849
  47.7982472 107.5929909  90.2083117  40.5593297 110.5215652  82.4844252
  41.3514589 110.1806477  82.0690551  40.7989947 110.6310627  83.4046405
  48.5928424 112.6935428  74.9574496  47.9416403 113.2789509  74.5708510
  49.3872786 113.2241623  75.0169534  42.5184051 109.7824566  75.3561630
  43.2914927 109.2353553  75.2174506  42.8709450 110.6468815  75.5676092
  44.3569093 111.1100948  88.5628530  44.0658959 112.0146579  88.4475196
  44.9926078 111.1517475  89.2772599  45.2825300 108.4877796  85.1529889
  45.8788872 108.2633819  84.4386852  45.3400272 107.7462542  85.7555337
  44.8550329 105.9417232  72.9880080  45.1075849 105.4198753  72.2263543
  43.9174888 105.7783377  73.0906764  49.8993611 104.9453010  80.7954824
  50.6856701 104.5272433  80.4445241  50.1632316 105.8499102  80.9636472
  50.0703689 110.3825860  75.4943480  49.4349522 110.4560487  76.2064385
  49.7401095 110.9719459  74.8162560  55.3002038 104.8828243  81.6987802
  56.0327210 104.3127460  81.9325632  54.5441394 104.4949844  82.1394308
  44.5746617 107.8445338  75.1904455  44.4582875 107.1690241  75.8585540
  44.6848877 107.3577712  74.3736608  46.9178158 107.3055485  78.8951145
  46.5536365 106.7786106  79.6064066  47.7745274 106.9153954  78.7217630
  52.8227459  98.5949817  86.1582411  52.4910784  99.4645228  85.9343626
  52.2273072  98.2786101  86.8376441  46.5583645 102.3345384  73.8912493
  46.7258048 103.2025621  74.2582964  46.3680814 102.4972666  72.9673782
  49.3158978 110.7962363  85.5578323  49.0159701 111.6987402  85.4494131
  48.9710038 110.5294547  86.4099476  42.7671460 107.2476160  81.5915028
  41.8421956 107.1152374  81.7992720  43.0155873 108.0270379  82.0884970
  52.7156122 103.3144904  83.2375761  51.8072999 103.2460312  82.9434522
  52.6643718 103.7916848  84.0657586  46.5372866 104.7903042  74.8759160
  46.4172491 105.2360093  75.7144640  45.8425454 105.1388360  74.3172698
  40.1280271 106.8909434  82.4258817  40.2572652 107.1443913  83.3398229
  39.4477722 107.4837142  82.1063472  44.2979758 117.5606684  78.5249291
  44.2203788 118.5114509  78.6037772  43.6941402 117.2152556  79.1824217
  46.7896988 104.7334549  91.1810658  46.0130322 105.2928469  91.1713523
  47.4287551 105.2191332  91.7025528  54.5817769 101.5161342  85.0153635
  53.9392149 101.8093875  84.3693429  54.0772697 101.4014262  85.8206831
  52.2357932 105.2624515  75.7039494  53.1475788 105.4951902  75.5287192
  51.7267579 105.8461559  75.1414573  45.0443360 107.5420002  90.7428625
  45.7858045 108.0805046  90.4663449  44.3380346 108.1686291  90.9000177
  50.5198700 109.6849143  89.3400787  50.9282056 109.2431553  88.5955419
  49.7975961 109.1101770  89.5934979  46.8729770 104.6221750  86.7134344
  47.7190965 105.0461163  86.8568993  46.8128408 103.9655374  87.4072907
  50.8427515 110.2450334  83.0953075  50.2136377 110.4096048  82.3929143
  50.4553177 110.6591943  83.8664039  54.7216746 111.1804771  80.4497439
  54.0367785 111.5603673  79.8994473  54.8060596 111.7900098  81.1829387
  50.0229215 102.2826118  88.3715517  49.7790147 103.0368179  87.8349793
  50.2989146 102.6611466  89.2062764  51.9767678 108.8264730  87.0492783
  52.1884573 109.4696490  86.3727164  51.9297426 107.9927047  86.5814713
  49.5793907 101.4382551  83.9529355  48.7178386 101.7363805  84.2446092
  49.6056342 101.6552950  83.0210388  46.3955476 109.9824742  80.3603161
  46.8593822 110.2612445  79.5707783  46.1312274 109.0808186  80.1776251
  43.2879557 109.5296223  83.2982924  43.8580915 109.9583492  82.6600408
  43.8787669 109.2478808  83.9967109  45.3324362 106.1047894  77.1692726
  46.0348406 106.5568938  77.6366652  45.0004991 105.4631713  77.7972619
  43.7804724 104.6959651  91.5443935  43.1503385 105.3775932  91.7779332
  43.6740812 104.5842732  90.5997073  39.0749696 104.3631447  82.4709859
  38.2848750 104.6188975  81.9949970  39.5660944 105.1779785  82.5761900
  53.0913506 111.7036686  85.2215140  53.9130950 111.3016873  84.9397822
  53.0875909 111.6004920  86.1731256  41.0264442 104.7276026  79.4293336
  40.2295605 104.8394720  79.9476832  40.7990034 105.0662678  78.5634226
  46.8570109 111.2520729  87.3775851  46.9214542 111.7141136  88.2134022
  46.1481033 110.6218094  87.5058160  37.3587399 104.6161937  84.9024850
  37.6095438 105.5008947  85.1682426  37.8946948 104.4366539  84.1299942
  46.5718127 112.9188837  77.2454831  46.4363802 113.7640372  77.6739679
  47.1127940 113.1208114  76.4820765  43.0585467  98.9980416  93.9069186
  42.6652412  98.4446615  94.5816830  43.8751607  99.3090995  94.2975704
  40.0247524 110.4364275  77.8182756  40.5372045 111.2307525  77.9688321
  40.6770237 109.7390565  77.7516357  41.8342409 113.5530031  79.9005509
  42.0109037 114.4747996  79.7126493  42.6299243 113.2388450  80.3299889
  45.9753428 100.4138296  91.4989443  46.7163141 101.0145449  91.4193905
  46.2071351  99.6715933  90.9407485  41.1194766 105.5994663  89.7767672
  41.0048281 104.6979920  90.0774771  40.2639283 105.8458360  89.4252489
  48.1986603 113.5412403  91.3755173  47.7550458 112.7548782  91.0576077
  48.8603817 113.7291554  90.7099064  42.9573725 115.0708205  85.9015852
  43.5081150 114.9425268  85.1292845  42.1185201 115.3703094  85.5510744
  50.2967842 113.8215203  89.4036574  50.2786317 114.6424084  88.9116843
  51.2187762 113.6969278  89.6286715  46.7540896 111.3359333  90.2460083
  47.2869232 110.5747621  90.0159391  46.2254977 111.0432984  90.9884237
  49.9210591  96.4419399  85.7753724  49.5774860  97.3321040  85.6992835
  50.2889553  96.2521056  84.9123309  37.9896441 108.7652929  78.5942327
  38.8271663 109.1749937  78.3776034  38.1674709 107.8252371  78.5642520
  49.8860873 106.4328010  74.2826159  49.3707497 107.2032614  74.5214547
  49.6138182 105.7593146  74.9059221  47.4707984 101.2777710  79.3411398
  46.6149581 100.8884561  79.1617037  47.8834936 101.3569671  78.4811183
  49.0007131  98.8124054  83.7402958  48.4971927  98.7754189  82.9270763
  49.2937738  99.7216796  83.7999614  45.2450017  98.8962783  82.7469139
  46.1103014  98.7005592  82.3875029  45.3127526  98.6673135  83.6738496
  54.8595147 109.1860364  76.2179333  54.0824590 108.8471524  75.7734495
  55.5386628 109.1912987  75.5434298  49.6747177 104.3055102  76.1085941
  49.3697312 104.6201251  76.9596084  50.6277619 104.3836522  76.1513274
  48.1193608 110.4645325  77.7578895  47.5914970 109.7298085  77.4452132
  47.6181111 111.2420001  77.5118863  53.0986454 108.6594346  82.8745941
  52.4410129 109.3493607  82.9626070  53.9026854 109.0490777  83.2179927
  42.8512336 101.1264991  80.1185506  43.4256088 100.9040173  79.3858699
  43.4383318 101.1953686  80.8714107  51.9091913 107.0138718  80.9249883
  52.4223795 107.6468710  81.4271592  52.5593137 106.4139914  80.5593243
  43.1781923 103.1569452  74.1381391  42.3419235 103.4944139  74.4590666
  43.0386693 103.0218432  73.2008528  45.1535004  98.0006240  78.8460576
  44.4999416  97.6855257  78.2217190  45.1115478  97.3781981  79.5720399
  46.2646209 108.2825535  70.7613868  45.3573270 108.0514789  70.9605017
  46.7617241 107.4863155  70.9487849  49.1714287 116.9923042  73.6810554
  48.4975986 117.2954739  74.2895512  49.5580109 117.7952123  73.3316011
  48.3872744 104.4888174  83.1708223  47.4695305 104.7103121  83.0129911
  48.8032888 104.5634484  82.3119931  49.1707792 105.8879589  78.3010903
  49.9179611 106.4000987  77.9918026  49.4399381 105.5663642  79.1615297
  47.4434442 108.3838130  75.2837858  46.5345661 108.0997163  75.3810328
  47.4729526 108.8037209  74.4241165  52.6753709 111.9944720  79.0529025
  52.2216037 111.1535630  79.1094216  52.0447676 112.6306118  79.3903805
  51.6186629 102.9236706  80.2829693  50.8809386 102.4114092  80.6139935
  51.8713402 102.4837087  79.4712970  51.1186649 113.8321216  79.9878843
  51.4109623 114.3926273  79.2691209  51.6285269 114.1249777  80.7432003
  51.7198256  95.7012958  80.8771462  52.0257133  94.8410321  80.5897377
  52.4450861  96.2930578  80.6770456  38.0122612 106.1043644  79.2653060
  37.8147012 105.5113005  78.5404127  37.4569276 105.7995854  79.9828999
  45.9919336 105.9966751  81.3847653  46.0467946 105.0440587  81.3090130
  45.1810538 106.1526190  81.8688952  47.1410530 109.9246874  72.6225936
  46.7029960 109.2082733  72.1631574  47.8820971 110.1522989  72.0611028
  43.9311696 104.6143811  79.1438032  43.1179561 104.9137981  79.5503224
  44.4270690 104.2199499  79.8612514  46.0820274 114.6101567  81.0772297
  46.0396453 114.8362414  80.1480829  46.9982973 114.3764942  81.2258098
  49.5285908 105.0785635  87.9752926  49.8835295 105.3057108  88.8347392
  50.1758039 105.4104012  87.3530181  55.2583645 108.2004071  78.6802255
  55.1201543 108.3905667  77.7523444  54.9019863 108.9623454  79.1370306
  43.4225771 102.1862166  84.7599267  44.0625150 102.0450925  84.0622230
  42.5903301 101.8996679  84.3837869  55.2853024 110.2680598  83.6913526
  55.7189531 110.1755887  84.5396580  55.9984605 110.2438098  83.0533542
  44.1986075 111.4864596  80.8734259  44.9926673 110.9914917  80.6716834
  43.4877767 110.9582460  80.5101965  49.0180919 113.8682692  85.2246627
  49.0717941 114.4373628  85.9924343  48.1495700 114.0384577  84.8600664
  40.5068838 105.6307678  76.9494012  39.5766426 105.5692134  77.1663974
  40.6026310 105.1083631  76.1530653  40.4254387 102.1562491  79.5372254
  40.6861204 103.0707824  79.4281414  41.2471559 101.6886934  79.6868867
  41.8979312 103.5700248  86.7071078  42.5702366 103.3617610  86.0583727
  41.0709099 103.3722334  86.2676311  56.1468574 110.3104299  86.2246412
  56.3404464 111.2150109  86.4705687  56.0469192 109.8511718  87.0584997
  47.8004884 100.1962189  88.7236739  47.1532800 100.8952139  88.6301216
  48.5705900 100.6298333  89.0912987  51.2083682 110.4611041  91.7987292
  51.0569189 110.2321593  90.8817376  51.1988362 111.4181643  91.8118637
  47.9769019 108.0342954  86.7833559  48.9061079 108.1854114  86.6102526
  47.5560049 108.1226975  85.9282205  46.7757351 112.0593618  84.5532096
  46.6368436 111.6912403  85.4258035  45.9871947 112.5741258  84.3816054
  47.3705503 117.1602715  75.8957633  47.5457258 116.6890758  76.7103256
  46.6838291 117.7868481  76.1238894  48.3262566 111.4375221  81.9420934
  47.9912398 111.3975991  82.8378584  47.8266511 110.7719937  81.4691345
  42.3006810 106.8442851  87.4673515  42.1626608 106.1123090  88.0685054
  43.2111733 106.7551751  87.1857703  51.2621757 108.7831255  72.2157994
  50.6450928 108.0578084  72.1191047  50.7938246 109.5440616  71.8725068
  44.9289110 106.5562811  86.9557195  45.6388729 105.9156003  86.9143814
  44.8858419 106.8075705  87.8783376  52.9175889 113.4930164  89.8763774
  52.8588435 112.8089384  89.2094357  53.3195407 114.2349154  89.4244400
  43.6418044 103.5428028  88.7752835  43.1055401 103.0918767  89.4274431
  43.0534753 103.6773937  88.0323299  41.9366588 120.3092078  82.6697493
  42.1763186 120.9410602  83.3476512  41.0935784 119.9580118  82.9562852
  43.0520303 103.0016680  71.3379298  42.1749770 102.8805481  70.9741545
  43.5278056 102.2102758  71.0858187  52.9193296 111.4569748  88.1077754
  52.0320075 111.1195670  88.2304153  53.4891847 110.7252779  88.3446519
  34.5722443 107.7893840  81.4320805  35.2593483 107.4755570  80.8441821
  34.4170572 108.6935204  81.1588057  39.3757166 102.6784036  85.8605829
  39.2915354 102.0709706  85.1256239  38.5539872 103.1693054  85.8615325
  46.4494450 116.1171200  85.0738997  46.3764621 116.9226172  85.5858302
  46.0071843 116.3163166  84.2487019  46.2384229 115.3542970  78.5841819
  45.4551751 115.8964650  78.6780043  46.9376975 115.8716950  78.9836060
  49.5480879 101.1637600  81.2276024  50.0449579 100.4107562  80.9077094
  48.7767861 101.2001916  80.6619233  57.4010637 106.8677965  82.8694316
  57.3900513 107.7502681  82.4988249  56.5328016 106.5149516  82.6748853
  48.9093133 116.0158034  87.2297156  49.6221105 116.6505499  87.1573057
  48.4183162 116.1121900  86.4137158  50.6310660 109.9209287  78.8014448
  49.6966939 110.0410749  78.6319152  50.8087329 109.0181754  78.5374457
  46.1315848 103.3054983  80.9547709  45.7613636 102.7526023  81.6428614
  46.6274941 102.7013116  80.4022709  54.0183212 105.7626606  79.3364482
  54.4843664 106.5954598  79.2624784  54.4690712 105.2971588  80.0409740
  43.9605047 113.7652478  88.0502727  44.6614506 114.3988961  88.2032121
  43.4900162 114.1067209  87.2898366  52.0859443 112.1070427  76.3350634
  52.3619287 111.9927022  77.2444508  51.2163941 111.7087912  76.2962807
  51.9899874  98.1307193  83.3755383  51.0762954  98.3611420  83.5437590
  52.4192976  98.2145637  84.2269415  51.7606333 106.3197085  85.8755277
  51.1077783 106.5672993  85.2207730  52.1386713 105.5061223  85.5417754
  48.7213507 116.3556778  79.9783447  48.9035901 115.5378434  80.4411200
  49.5446493 116.5724470  79.5408337  49.0555672 115.2824963  77.2398496
  49.5843439 114.7717418  76.6268658  49.3183892 114.9667494  78.1044029
  47.8093906 107.0616896  92.3621314  47.1334543 106.9611025  93.0323689
  48.6321540 106.9056110  92.8257311  39.5572765 113.2988833  84.9833829
  40.1426202 112.5532521  85.1161734  39.3597603 113.6092789  85.8670493
  42.4111420 116.3340080  79.9996272  41.7421795 116.8186208  79.5160312
  42.2724290 116.5809301  80.9139650  34.1490420 105.8694433  83.7038272
  34.1874519 105.3358024  84.4975391  33.6430712 105.3429638  83.0849250
  46.5516689 118.3683824  86.5978930  47.1034997 118.5315445  87.3628015
  46.8922882 118.9588261  85.9258955  41.5281182 100.7158973  87.2000815
  41.5922508 101.5773804  86.7878212  41.4648302 100.1032975  86.4673173
  41.0033454 102.7882106  90.8473849  41.6305493 102.4059183  91.4611373
  40.1461373 102.5696308  91.2129542  51.4027563 113.1945081  92.4527585
  51.9467467 113.8075039  91.9582539  50.8214408 113.7524659  92.9694598
  37.7798997 104.5958535  76.7792204  38.0752438 103.6869213  76.7259258
  36.8787033 104.5746274  76.4573206  49.6885076 116.3165799  83.5842612
  49.5636215 115.5155539  83.0753558  50.3464167 116.8111992  83.0956582
  41.3093244 102.6714532  82.7619752  40.5879830 103.2850499  82.6227226
  42.0986500 103.2072296  82.6836398  51.7519984 114.1174819  85.2122162
  50.8050320 113.9980170  85.1400489  52.1002757 113.2297317  85.2948424
  44.1119558 100.0068958  89.0360404  44.6353959 100.2531255  89.7986714
  43.8931891 100.8388993  88.6163542  39.5086839 102.2772633  76.9031529
  39.1799545 101.3970012  76.7206635  39.8626209 102.2220301  77.7907918
  48.7566418 113.9127535  81.4126515  48.6091380 112.9844243  81.5934085
  49.5819911 113.9347626  80.9283590  42.6228662 102.5645602  77.2707007
  42.9624734 103.0931524  76.5485615  43.0700782 102.9026009  78.0465573
  52.3600539 114.7356094  82.4991387  53.2847087 114.5298955  82.3615838
  52.1915843 114.4872495  83.4080729  45.3172103 100.9482653  86.7210075
  44.9768923 100.1490466  87.1230755  44.6111109 101.2484364  86.1486908
  45.9688575  98.0331966  85.1737398  46.7914644  97.5592444  85.0516288
  46.2126638  98.8122449  85.6736084  44.6096809 101.0620224  75.4700299
  45.3305172 101.4401477  74.9664016  43.9862113 101.7809101  75.5735277
  48.7527932 101.7665373  76.4058632  48.9691546 102.6490011  76.1047460
  48.2721999 101.3751586  75.6764274  43.4927153 104.7251086  82.9829376
  43.3471734 105.0391389  83.8753658  43.0152357 105.3435987  82.4300275
  45.3523536 101.7153634  83.0310266  45.3385105 100.8194728  82.6942564
  46.0695964 101.7224298  83.6648552  47.2049667 102.1490974  85.0763393
  46.9467445 103.0708045  85.0747724  46.6734707 101.7521409  85.7663858
  52.1495856 115.2541762  77.8553479  52.3232733 114.6888184  77.1027331
  52.6424747 116.0542656  77.6732969  37.9672815 107.2656431  85.9217038
  37.4226284 108.0416239  86.0537312  38.8452165 107.6127235  85.7636159
  44.7560432 100.5968015  78.2997836  44.8776343  99.6684661  78.4988724
  44.4662474 100.6106701  77.3876152  47.6251623  98.2822925  81.4364556
  47.6473319  98.3462258  80.4816535  48.0419682  97.4427434  81.6305062
  58.0035247 108.0178185  79.4743779  58.4466393 107.2685510  79.0762902
  57.1261757 108.0088321  79.0917510  53.1371028 114.5708526  74.9550377
  53.8321933 115.1915219  75.1737692  53.4794178 113.7203877  75.2302755
  38.7538837 106.3926327  88.8147194  38.0120573 106.5408962  89.4011825
  38.4331582 106.6534593  87.9513944  55.0362451 112.0208232  76.4837708
  55.5613775 112.3595504  75.7587028  54.9484804 111.0855247  76.3000842
  46.6982500 115.9342305  88.6127584  47.0069626 115.6891452  89.4850284
  47.4957982 116.1388944  88.1246455  46.7203112 118.0880215  80.8432961
  46.2808102 117.5956593  81.5365818  47.4711229 117.5453182  80.6025036
  39.1995451 114.2791756  80.8457589  40.0253471 113.9795528  80.4656233
  38.8489503 113.5099378  81.2947378  44.1676984 113.6318224  82.9155263
  43.5456993 112.9688929  82.6157491  44.8381851 113.6579356  82.2328910
  37.4004056 112.1978082  81.8046523  36.5635964 111.7700256  81.6230524
  37.3727701 112.3910525  82.7417314  44.2401512 102.1100012  92.5087769
  44.2889667 102.9862135  92.1265538  44.7824026 101.5677405  91.9359412
  54.7256357 112.6541135  91.7888906  53.9351901 112.6365274  91.2493405
  54.4889712 113.1929429  92.5437942  54.8454232 109.5033602  89.1021634
  54.8952237 109.3383609  90.0437157  54.7368156 108.6360861  88.7119515
  43.7290491 112.1822147  76.3913723  43.8778611 112.8657612  75.7380396
  44.5356935 112.1627237  76.9063179  52.1357995 105.4864530  90.4180941
  53.0367858 105.3470994  90.1264939  52.2105969 105.6518984  91.3579118
  46.4700800 102.8631384  89.2634127  45.6004110 103.1564950  88.9916716
  46.7060280 103.4471829  89.9841391  56.3472429 111.9230543  89.3463656
  56.0557238 112.2860524  90.1827117  55.7344560 111.2097551  89.1676988
  57.5468112 109.4883423  81.8666226  58.3815003 109.9273227  82.0303786
  57.6827240 109.0122076  81.0474472  54.5959617 107.0463158  87.8143714
  55.0713739 107.2390804  87.0062565  53.6725183 107.1022344  87.5687097
  41.4843124 108.2087325  77.3974792  41.2389166 107.3049655  77.5955002
  41.6539039 108.2104475  76.4554270  49.1739834  99.0811001  86.7799548
  49.6921778  99.8172028  86.4546036  48.8194967  99.3874995  87.6146307
  40.7538772 103.9415682  74.8960954  40.0608017 104.0160037  74.2400990
  40.5090523 103.1776026  75.4182470  49.4252428  95.5011284  82.3000444
  49.7054182  94.8334473  82.9260871  50.2103035  95.6940379  81.7875108
  47.2285897 114.6770278  73.8625471  46.6559864 115.2960465  73.4095942
  47.8018690 115.2269639  74.3965393  53.2961286 103.9228918  86.0472019
  54.2478709 104.0227015  86.0684243  53.1264737 103.1307186  86.5570104
  51.3175666 101.0084501  86.2331420  50.7225598 101.2889514  85.5377909
  51.0325363 101.4978402  87.0048161  50.4483156 114.9607428  74.9934053
  51.3813830 114.8952989  75.1966928  50.3606369 115.7963695  74.5348586
  53.0771173 114.2773298  71.9538000  52.9984805 113.9433162  72.8473758
  53.8980840 114.7695066  71.9529473  55.7749364 107.1435037  85.1614319
  55.7425684 106.2051038  85.3474003  56.3849988 107.2219074  84.4280144
  47.6132695 106.0131090  71.2041523  48.5591800 105.8837299  71.2729941
  47.2346940 105.2745752  71.6810951  55.9243853 103.9346081  85.2072602
  55.4082901 103.1504538  85.0202531  56.8083801 103.6064798  85.3719122
  53.5854580  97.6787096  81.1668415  53.3879401  97.3702185  82.0511747
  54.1954285  98.4048735  81.2966345  47.4971388 110.0648837  92.6642180
  48.4174397 110.2427436  92.8582227  47.4620971 109.1204882  92.5121879
  45.7975612 103.9381067  71.1396408  44.8907068 103.6414180  71.2159122
  46.0751593 103.6410885  70.2730695  36.7153553 105.2587430  81.5895455
  36.3956337 104.4052738  81.2969829  36.1686981 105.4736008  82.3453422
  40.4933460 107.9749871  85.3064961  40.7119470 108.9066979  85.3252995
  40.9059234 107.6157846  86.0919765  47.4137678  98.4817957  77.2940650
  46.6038406  98.1365042  77.6695896  48.1022095  98.1725500  77.8828261
  49.3428226  97.5596003  78.9164946  49.8959265  97.9791457  79.5754969
  49.5798313  96.6331751  78.9587902  45.3661326 103.5483077  94.6967710
  45.2658052 104.4977434  94.6279801  45.1482868 103.2201316  93.8243780
  44.5674397 100.7968002  71.2808388  45.4293561 101.1222900  71.5404205
  44.7524741 100.0099498  70.7681453  36.5841813 108.8790342  83.5588576
  35.8905284 108.4644295  83.0458531  37.3314804 108.9210878  82.9621995
  52.7207033  99.6696528  78.4243611  52.1405702 100.3281333  78.0421663
  52.4542966  98.8473873  78.0131028  51.1710600  99.0701586  80.6264931
  51.6710378  99.1818121  79.8179250  51.8146208  98.7662639  81.2665739
  45.2292596 106.9780216  93.5132772  44.7459677 107.7780576  93.7196661
  45.3153535 106.9888161  92.5600216  38.4978555 108.8108595  81.4354591
  38.4749243 108.9096283  80.4836474  38.8079192 109.6573746  81.7571757
  41.1565933 110.8684751  85.5501206  42.1109187 110.8368693  85.4831137
  40.9578457 110.4075374  86.3651432  41.7465315 109.4385867  88.1172003
  42.5658204 109.9329945  88.1406841  42.0202123 108.5217835  88.0889571
  51.5031911 101.8296619  77.4799959  50.6157766 102.1146270  77.2620154
  51.9185900 101.6690382  76.6327236  54.8546448 101.8543140  81.1954298
  55.6306838 102.3439592  81.4678915  54.1294582 102.2801194  81.6526168
  57.2919006 102.5670759  82.2528239  57.8863497 102.3266495  81.5421547
  57.3645590 101.8477890  82.8801775  39.5116162 116.4104370  82.5671404
  39.3770630 115.6504771  82.0009402  39.0948224 117.1345270  82.1000192
  50.6475125 111.5941294  71.5747979  51.3510975 111.7991296  72.1905634
  49.9237774 112.1618055  71.8397062  51.4772935 107.3451155  77.6950249
  51.4208137 107.8019706  76.8557881  52.0301278 106.5841839  77.5173092
  55.2877741 103.1340887  78.5200368  55.0314675 102.7337522  79.3508576
  54.6630609 103.8484681  78.3950508  42.6685288 117.3073687  82.7789846
  42.5517672 118.2519120  82.6768536  41.8477734 117.0047249  83.1675645
  52.5561822 112.0323823  73.6246439  53.3907426 111.6005021  73.4423914
  52.3946165 111.8605836  74.5523333  52.2107714 108.5355936  74.9902778
  52.1556518 108.3700207  74.0491222  51.5853770 109.2431969  75.1464968
  37.0000229 103.7724000  88.8164200  37.6459093 103.2622954  89.3051426
  36.7917381 104.5092682  89.3907626  49.5253622 110.8404848  94.3156341
  50.3944781 111.0145500  93.9542976  49.0460373 111.6599265  94.1932070
  45.5203840  98.0364045  74.5688097  45.5082510  98.9805885  74.7256367
  46.4127262  97.8534190  74.2747558  43.6939802 117.9601949  85.9945775
  44.5967049 117.9925559  86.3112270  43.4677172 117.0302400  86.0092110
  45.4493404 116.7132935  82.6555853  44.4989035 116.7134797  82.5420225
  45.7525890 115.9665670  82.1391888  49.3355959  94.6306822  78.8234033
  48.5688355  94.0765308  78.9690716  49.7466664  94.7028690  79.6848185
  41.3397720 100.9191618  92.9139215  42.2029182 100.5628422  93.1242539
  40.7663131 100.5805512  93.6014619  61.1846097 122.5493474  83.7201616
  61.8224507 122.4300221  83.0164956  61.0666940 123.4974318  83.7789568
  57.9935804 122.5020902  83.6563140  57.6554315 122.3861967  82.7683675
  58.8625572 122.1012067  83.6364146  53.8522619 124.3556378  79.6460031
  53.2887484 124.2646315  78.8776319  53.7375014 123.5356283  80.1262524
  58.4755587 123.6555754  89.6149346  58.4644227 123.2608552  88.7429849
  58.6376226 122.9221826  90.2083117  51.3987051 125.8507570  82.4844252
  52.1908343 125.5098395  82.0690551  51.6383701 125.9602545  83.4046405
  59.4322178 128.0227346  74.9574496  58.7810158 128.6081426  74.5708510
  60.2266541 128.5533541  75.0169534  53.3577805 125.1116483  75.3561630
  54.1308681 124.5645470  75.2174506  53.7103204 125.9760733  75.5676092
  55.1962848 126.4392865  88.5628530  54.9052714 127.3438496  88.4475196
  55.8319832 126.4809393  89.2772599  56.1219055 123.8169714  85.1529889
  56.7182627 123.5925736  84.4386852  56.1794026 123.0754459  85.7555337
  55.6944083 121.2709149  72.9880080  55.9469604 120.7490671  72.2263543
  54.7568642 121.1075295  73.0906764  60.7387366 120.2744928  80.7954824
  61.5250455 119.8564351  80.4445241  61.0026070 121.1791020  80.9636472
  60.9097443 125.7117778  75.4943480  60.2743276 125.7852405  76.2064385
  60.5794850 126.3011377  74.8162560  66.1395793 120.2120161  81.6987802
  66.8720965 119.6419378  81.9325632  65.3835149 119.8241761  82.1394308
  55.4140372 123.1737255  75.1904455  55.2976630 122.4982159  75.8585540
  55.5242632 122.6869629  74.3736608  57.7571913 122.6347402  78.8951145
  57.3930120 122.1078023  79.6064066  58.6139029 122.2445871  78.7217630
  57.3977400 117.6637302  73.8912493  57.5651802 118.5317539  74.2582964
  57.2074569 117.8264584  72.9673782  60.1552733 126.1254281  85.5578323
  59.8553456 127.0279320  85.4494131  59.8103792 125.8586464  86.4099476
  53.6065214 122.5768078  81.5915028  52.6815711 122.4444292  81.7992720
  53.8549628 123.3562297  82.0884970  63.5549877 118.6436821  83.2375761
  62.6466754 118.5752230  82.9434522  63.5037472 119.1208766  84.0657586
  57.3766621 120.1194960  74.8759160  57.2566246 120.5652010  75.7144640
  56.6819209 120.4680277  74.3172698  50.9674025 122.2201351  82.4258817
  51.0966407 122.4735830  83.3398229  50.2871477 122.8129059  82.1063472
  55.1373513 132.8898601  78.5249291  55.0597542 133.8406426  78.6037772
  54.5335156 132.5444474  79.1824217  57.6290742 120.0626467  91.1810658
  56.8524076 120.6220387  91.1713523  58.2681305 120.5483250  91.7025528
  65.4211523 116.8453260  85.0153635  64.7785903 117.1385793  84.3693429
  64.9166452 116.7306180  85.8206831  63.0751687 120.5916433  75.7039494
  63.9869543 120.8243820  75.5287192  62.5661334 121.1753477  75.1414573
  55.8837115 122.8711920  90.7428625  56.6251799 123.4096964  90.4663449
  55.1774100 123.4978209  90.9000177  61.3592454 125.0141061  89.3400787
  61.7675810 124.5723471  88.5955419  60.6369716 124.4393688  89.5934979
  57.7123524 119.9513667  86.7134344  58.5584720 120.3753081  86.8568993
  57.6522162 119.2947292  87.4072907  61.6821269 125.5742251  83.0953075
  61.0530131 125.7387965  82.3929143  61.2946931 125.9883861  83.8664039
  65.5610501 126.5096689  80.4497439  64.8761539 126.8895590  79.8994473
  65.6454350 127.1192016  81.1829387  60.8622970 117.6118036  88.3715517
  60.6183902 118.3660096  87.8349793  61.1382900 117.9903383  89.2062764
  62.8161433 124.1556648  87.0492783  63.0278328 124.7988408  86.3727164
  62.7691181 123.3218965  86.5814713  60.4187661 116.7674469  83.9529355
  59.5572140 117.0655722  84.2446092  60.4450096 116.9844868  83.0210388
  57.2349231 125.3116659  80.3603161  57.6987576 125.5904362  79.5707783
  56.9706029 124.4100104  80.1776251  54.1273312 124.8588141  83.2982924
  54.6974669 125.2875409  82.6600408  54.7181424 124.5770726  83.9967109
  56.1718117 121.4339812  77.1692726  56.8742160 121.8860855  77.6366652
  55.8398745 120.7923631  77.7972619  54.6198478 120.0251568  91.5443935
  53.9897139 120.7067849  91.7779332  54.5134566 119.9134650  90.5997073
  49.9143451 119.6923364  82.4709859  49.1242505 119.9480893  81.9949970
  50.4054698 120.5071702  82.5761900  63.9307260 127.0328604  85.2215140
  64.7524704 126.6308791  84.9397822  63.9269663 126.9296838  86.1731256
  51.8658196 120.0567944  79.4293336  51.0689360 120.1686638  79.9476832
  51.6383788 120.3954596  78.5634226  57.6963864 126.5812647  87.3775851
  57.7608296 127.0433054  88.2134022  56.9874788 125.9510012  87.5058160
  48.1981154 119.9453855  84.9024850  48.4489192 120.8300865  85.1682426
  48.7340702 119.7658456  84.1299942  72.0213254 123.3767352  81.5700112
  71.2676962 122.8074750  81.4144116  72.1560795 123.3430017  82.5170746
  57.4111882 128.2480754  77.2454831  57.2757556 129.0932290  77.6739679
  57.9521694 128.4500032  76.4820765  53.8979221 114.3272334  93.9069186
  53.5046167 113.7738533  94.5816830  54.7145362 114.6382913  94.2975704
  50.8641279 125.7656192  77.8182756  51.3765800 126.5599443  77.9688321
  51.5163992 125.0682483  77.7516357  52.6736164 128.8821949  79.9005509
  52.8502792 129.8039913  79.7126493  53.4692997 128.5680368  80.3299889
  56.8147182 115.7430213  91.4989443  57.5556896 116.3437366  91.4193905
  57.0465105 115.0007851  90.9407485  51.9588520 120.9286581  89.7767672
  51.8442035 120.0271838  90.0774771  51.1033038 121.1750277  89.4252489
  59.0380358 128.8704321  91.3755173  58.5944212 128.0840699  91.0576077
  59.6997572 129.0583471  90.7099064  53.7967479 130.4000122  85.9015852
  54.3474904 130.2717186  85.1292845  52.9578955 130.6995011  85.5510744
  61.1361596 129.1507121  89.4036574  61.1180071 129.9716002  88.9116843
  62.0581516 129.0261196  89.6286715  57.5934650 126.6651250  90.2460083
  58.1262987 125.9039538  90.0159391  57.0648731 126.3724902  90.9884237
  48.8290196 124.0944847  78.5942327  49.6665418 124.5041855  78.3776034
  49.0068463 123.1544289  78.5642520  60.7254628 121.7619927  74.2826159
  60.2101251 122.5324532  74.5214547  60.4531936 121.0885063  74.9059221
  58.3101739 116.6069628  79.3411398  57.4543335 116.2176478  79.1617037
  58.7228691 116.6861589  78.4811183  59.8400886 114.1415971  83.7402958
  59.3365681 114.1046107  82.9270763  60.1331492 115.0508714  83.7999614
  56.0843771 114.2254701  82.7469139  56.9496768 114.0297510  82.3875029
  56.1521280 113.9965053  83.6738496  65.6988902 124.5152282  76.2179333
  64.9218345 124.1763441  75.7734495  66.3780383 124.5204905  75.5434298
  60.5140931 119.6347019  76.1085941  60.2091067 119.9493169  76.9596084
  61.4671373 119.7128439  76.1513274  58.9587363 125.7937243  77.7578895
  58.4308724 125.0590002  77.4452132  58.4574866 126.5711919  77.5118863
  63.9380209 123.9886263  82.8745941  63.2803883 124.6785525  82.9626070
  64.7420608 124.3782695  83.2179927  53.6906090 116.4556909  80.1185506
  54.2649842 116.2332090  79.3858699  54.2777073 116.5245604  80.8714107
  62.7485668 122.3430636  80.9249883  63.2617549 122.9760628  81.4271592
  63.3986892 121.7431831  80.5593243  54.0175678 118.4861370  74.1381391
  53.1812990 118.8236057  74.4590666  53.8780447 118.3510350  73.2008528
  55.9928758 113.3298158  78.8460576  55.3393171 113.0147175  78.2217190
  55.9509232 112.7073898  79.5720399  57.1039963 123.6117453  70.7613868
  56.1967025 123.3806706  70.9605017  57.6010995 122.8155072  70.9487849
  60.0108042 132.3214960  73.6810554  59.3369741 132.6246657  74.2895512
  60.3973864 133.1244041  73.3316011  59.2266499 119.8180091  83.1708223
  58.3089060 120.0395038  83.0129911  59.6426642 119.8926402  82.3119931
  60.0101546 121.2171507  78.3010903  60.7573365 121.7292904  77.9918026
  60.2793136 120.8955560  79.1615297  58.2828196 123.7130048  75.2837858
  57.3739416 123.4289081  75.3810328  58.3123280 124.1329126  74.4241165
  63.5147464 127.3236637  79.0529025  63.0609791 126.4827547  79.1094216
  62.8841431 127.9598036  79.3903805  62.4580383 118.2528623  80.2829693
  61.7203140 117.7406010  80.6139935  62.7107157 117.8129005  79.4712970
  61.9580403 129.1613134  79.9878843  62.2503378 129.7218191  79.2691209
  62.4679024 129.4541695  80.7432003  48.8516367 121.4335562  79.2653060
  48.6540767 120.8404923  78.5404127  48.2963031 121.1287772  79.9828999
  56.8313091 121.3258668  81.3847653  56.8861700 120.3732505  81.3090130
  56.0204293 121.4818108  81.8688952  57.9804284 125.2538792  72.6225936
  57.5423714 124.5374650  72.1631574  58.7214725 125.4814906  72.0611028
  54.7705450 119.9435728  79.1438032  53.9573316 120.2429899  79.5503224
  55.2664445 119.5491417  79.8612514  56.9214028 129.9393485  81.0772297
  56.8790207 130.1654331  80.1480829  57.8376727 129.7056860  81.2258098
  60.3679662 120.4077553  87.9752926  60.7229050 120.6349026  88.8347392
  61.0151793 120.7395929  87.3530181  66.0977399 123.5295989  78.6802255
  65.9595298 123.7197585  77.7523444  65.7413618 124.2915371  79.1370306
  54.2619525 117.5154084  84.7599267  54.9018905 117.3742843  84.0622230
  53.4297056 117.2288597  84.3837869  66.1246779 125.5972516  83.6913526
  66.5583285 125.5047805  84.5396580  66.8378359 125.5730016  83.0533542
  55.0379829 126.8156514  80.8734259  55.8320428 126.3206834  80.6716834
  54.3271521 126.2874377  80.5101965  59.8574674 129.1974610  85.2246627
  59.9111696 129.7665546  85.9924343  58.9889455 129.3676495  84.8600664
  51.3462593 120.9599596  76.9494012  50.4160181 120.8984051  77.1663974
  51.4420065 120.4375549  76.1530653  51.2648142 117.4854409  79.5372254
  51.5254959 118.3999742  79.4281414  52.0865314 117.0178851  79.6868867
  52.7373067 118.8992166  86.7071078  53.4096120 118.6909528  86.0583727
  51.9102853 118.7014252  86.2676311  66.9862328 125.6396216  86.2246412
  67.1798218 126.5442027  86.4705687  66.8862946 125.1803635  87.0584997
  58.6398639 115.5254107  88.7236739  57.9926554 116.2244056  88.6301216
  59.4099654 115.9590251  89.0912987  62.0477437 125.7902959  91.7987292
  61.8962943 125.5613511  90.8817376  62.0382116 126.7473560  91.8118637
  58.8162773 123.3634872  86.7833559  59.7454833 123.5146031  86.6102526
  58.3953803 123.4518892  85.9282205  57.6151105 127.3885536  84.5532096
  57.4762191 127.0204321  85.4258035  56.8265701 127.9033176  84.3816054
  58.2099257 132.4894633  75.8957633  58.3851013 132.0182676  76.7103256
  57.5232045 133.1160399  76.1238894  59.1656320 126.7667139  81.9420934
  58.8306153 126.7267909  82.8378584  58.6660266 126.1011855  81.4691345
  53.1400564 122.1734769  87.4673515  53.0020362 121.4415008  88.0685054
  54.0505488 122.0843669  87.1857703  62.1015512 124.1123173  72.2157994
  61.4844683 123.3870001  72.1191047  61.6332000 124.8732533  71.8725068
  55.7682865 121.8854728  86.9557195  56.4782483 121.2447920  86.9143814
  55.7252173 122.1367623  87.8783376  63.7569644 128.8222082  89.8763774
  63.6982190 128.1381302  89.2094357  64.1589162 129.5641072  89.4244400
  54.4811799 118.8719946  88.7752835  53.9449156 118.4210685  89.4274431
  53.8928507 119.0065855  88.0323299  53.8914058 118.3308597  71.3379298
  53.0143524 118.2097398  70.9741545  54.3671811 117.5394676  71.0858187
  63.7587051 126.7861665  88.1077754  62.8713830 126.4487587  88.2304153
  64.3285602 126.0544697  88.3446519  45.4116198 123.1185757  81.4320805
  46.0987238 122.8047487  80.8441821  45.2564327 124.0227122  81.1588057
  50.2150920 118.0075954  85.8605829  50.1309109 117.4001623  85.1256239
  49.3933626 118.4984972  85.8615325  57.2888204 131.4463118  85.0738997
  57.2158376 132.2518089  85.5858302  56.8465597 131.6455084  84.2487019
  57.0777984 130.6834888  78.5841819  56.2945506 131.2256568  78.6780043
  57.7770729 131.2008867  78.9836060  60.3874634 116.4929517  81.2276024
  60.8843333 115.7399480  80.9077094  59.6161615 116.5293834  80.6619233
  68.2404391 122.1969883  82.8694316  68.2294268 123.0794598  82.4988249
  67.3721771 121.8441434  82.6748853  59.7486888 131.3449952  87.2297156
  60.4614860 131.9797417  87.1573057  59.2576916 131.4413818  86.4137158
  61.4704415 125.2501205  78.8014448  60.5360693 125.3702667  78.6319152
  61.6481083 124.3473671  78.5374457  56.9709603 118.6346900  80.9547709
  56.6007390 118.0817941  81.6428614  57.4668695 118.0305034  80.4022709
  64.8576966 121.0918524  79.3364482  65.3237418 121.9246515  79.2624784
  65.3084466 120.6263505  80.0409740  54.7998801 129.0944395  88.0502727
  55.5008261 129.7280878  88.2032121  54.3293916 129.4359127  87.2898366
  62.9253197 127.4362345  76.3350634  63.2013041 127.3218940  77.2444508
  62.0557696 127.0379830  76.2962807  62.6000087 121.6489003  85.8755277
  61.9471537 121.8964910  85.2207730  62.9780467 120.8353141  85.5417754
  59.5607261 131.6848696  79.9783447  59.7429656 130.8670352  80.4411200
  60.3840247 131.9016388  79.5408337  59.8949427 130.6116881  77.2398496
  60.4237193 130.1009336  76.6268658  60.1577646 130.2959411  78.1044029
  58.6487660 122.3908814  92.3621314  57.9728297 122.2902943  93.0323689
  59.4715294 122.2348028  92.8257311  50.3966519 128.6280750  84.9833829
  50.9819956 127.8824438  85.1161734  50.1991358 128.9384707  85.8670493
  53.2505175 131.6631998  79.9996272  52.5815550 132.1478125  79.5160312
  53.1118044 131.9101218  80.9139650  44.9884174 121.1986351  83.7038272
  45.0268274 120.6649941  84.4975391  44.4824467 120.6721556  83.0849250
  57.3910443 133.6975741  86.5978930  57.9428751 133.8607363  87.3628015
  57.7316637 134.2880179  85.9258955  52.3674936 116.0450891  87.2000815
  52.4316263 116.9065722  86.7878212  52.3042057 115.4324893  86.4673173
  51.8427209 118.1174024  90.8473849  52.4699248 117.7351101  91.4611373
  50.9855128 117.8988226  91.2129542  62.2421317 128.5236999  92.4527585
  62.7861221 129.1366957  91.9582539  61.6608162 129.0816577  92.9694598
  48.6192752 119.9250453  76.7792204  48.9146193 119.0161131  76.7259258
  47.7180787 119.9038192  76.4573206  60.5278830 131.6457717  83.5842612
  60.4029970 130.8447457  83.0753558  61.1857922 132.1403910  83.0956582
  52.1486999 118.0006449  82.7619752  51.4273584 118.6142417  82.6227226
  52.9380254 118.5364214  82.6836398  62.5913739 129.4466737  85.2122162
  61.6444074 129.3272088  85.1400489  62.9396512 128.5589235  85.2948424
  54.9513312 115.3360876  89.0360404  55.4747714 115.5823172  89.7986714
  54.7325645 116.1680911  88.6163542  50.3480593 117.6064550  76.9031529
  50.0193299 116.7261929  76.7206635  50.7019964 117.5512219  77.7907918
  59.5960172 129.2419453  81.4126515  59.4485135 128.3136160  81.5934085
  60.4213666 129.2639544  80.9283590  53.4622416 117.8937520  77.2707007
  53.8018489 118.4223441  76.5485615  53.9094537 118.2317926  78.0465573
  63.1994294 130.0648012  82.4991387  64.1240841 129.8590873  82.3615838
  63.0309597 129.8164413  83.4080729  56.1565857 116.2774571  86.7210075
  55.8162678 115.4782384  87.1230755  55.4504863 116.5776282  86.1486908
  56.8082329 113.3623883  85.1737398  57.6308398 112.8884362  85.0516288
  57.0520393 114.1414367  85.6736084  55.4490564 116.3912142  75.4700299
  56.1698926 116.7693395  74.9664016  54.8255868 117.1101019  75.5735277
  59.5921686 117.0957291  76.4058632  59.8085301 117.9781929  76.1047460
  59.1115754 116.7043504  75.6764274  54.3320908 120.0543004  82.9829376
  54.1865489 120.3683307  83.8753658  53.8546111 120.6727904  82.4300275
  56.1917291 117.0445552  83.0310266  56.1778859 116.1486645  82.6942564
  56.9089719 117.0516216  83.6648552  58.0443421 117.4782892  85.0763393
  57.7861199 118.3999963  85.0747724  57.5128462 117.0813327  85.7663858
  62.9889610 130.5833679  77.8553479  63.1626488 130.0180102  77.1027331
  63.4818501 131.3834574  77.6732969  48.8066570 122.5948348  85.9217038
  48.2620038 123.3708156  86.0537312  49.6845920 122.9419153  85.7636159
  55.5954187 115.9259932  78.2997836  55.7170098 114.9976578  78.4988724
  55.3056229 115.9398618  77.3876152  68.8429001 123.3470102  79.4743779
  69.2860147 122.5977427  79.0762902  67.9655512 123.3380239  79.0917510
  63.9764783 129.9000444  74.9550377  64.6715687 130.5207136  75.1737692
  64.3187933 129.0495795  75.2302755  49.5932592 121.7218245  88.8147194
  48.8514328 121.8700880  89.4011825  49.2725336 121.9826510  87.9513944
  65.8756206 127.3500149  76.4837708  66.4007530 127.6887422  75.7587028
  65.7878558 126.4147165  76.3000842  57.5376254 131.2634223  88.6127584
  57.8463381 131.0183370  89.4850284  58.3351736 131.4680861  88.1246455
  57.5596867 133.4172132  80.8432961  57.1201857 132.9248511  81.5365818
  58.3104983 132.8745100  80.6025036  50.0389205 129.6083673  80.8457589
  50.8647225 129.3087445  80.4656233  49.6883257 128.8391296  81.2947378
  55.0070739 128.9610142  82.9155263  54.3850748 128.2980847  82.6157491
  55.6775606 128.9871273  82.2328910  48.2397811 127.5270000  81.8046523
  47.4029719 127.0992174  81.6230524  48.2121456 127.7202443  82.7417314
  55.0795266 117.4391930  92.5087769  55.1283422 118.3154052  92.1265538
  55.6217780 116.8969323  91.9359412  65.5650112 127.9833053  91.7888906
  64.7745656 127.9657192  91.2493405  65.3283466 128.5221347  92.5437942
  65.6847987 124.8325519  89.1021634  65.7345992 124.6675527  90.0437157
  65.5761910 123.9652778  88.7119515  54.5684246 127.5114065  76.3913723
  54.7172366 128.1949529  75.7380396  55.3750689 127.4919155  76.9063179
  62.9751749 120.8156447  90.4180941  63.8761612 120.6762912  90.1264939
  63.0499724 120.9810902  91.3579118  57.3094555 118.1923302  89.2634127
  56.4397864 118.4856868  88.9916716  57.5454035 118.7763747  89.9841391
  67.1866184 127.2522461  89.3463656  66.8950992 127.6152441  90.1827117
  66.5738315 126.5389469  89.1676988  68.3861866 124.8175341  81.8666226
  69.2208757 125.2565145  82.0303786  68.5220995 124.3413994  81.0474472
  65.4353372 122.3755075  87.8143714  65.9107494 122.5682722  87.0062565
  64.5118937 122.4314261  87.5687097  52.3236879 123.5379243  77.3974792
  52.0782920 122.6341573  77.5955002  52.4932793 123.5396393  76.4554270
  60.0133588 114.4102919  86.7799548  60.5315532 115.1463946  86.4546036
  59.6588721 114.7166912  87.6146307  51.5932526 119.2707600  74.8960954
  50.9001771 119.3451955  74.2400990  51.3484278 118.5067944  75.4182470
  58.0679651 130.0062195  73.8625471  57.4953618 130.6252382  73.4095942
  58.6412445 130.5561557  74.3965393  64.1355041 119.2520835  86.0472019
  65.0872464 119.3518933  86.0684243  63.9658491 118.4599104  86.5570104
  62.1569420 116.3376419  86.2331420  61.5619353 116.6181431  85.5377909
  61.8719117 116.8270320  87.0048161  61.2876911 130.2899345  74.9934053
  62.2207584 130.2244907  75.1966928  61.2000124 131.1255612  74.5348586
  63.9164928 129.6065216  71.9538000  63.8378559 129.2725079  72.8473758
  64.7374594 130.0986984  71.9529473  66.6143119 122.4726955  85.1614319
  66.5819439 121.5342956  85.3474003  67.2243742 122.5510992  84.4280144
  58.4526450 121.3423008  71.2041523  59.3985554 121.2129216  71.2729941
  58.0740695 120.6037670  71.6810951  66.7637607 119.2637999  85.2072602
  66.2476656 118.4796455  85.0202531  67.6477556 118.9356715  85.3719122
  72.4319669 123.5342962  84.3020356  73.1623057 123.2728250  84.8628059
  71.8226614 122.7971684  84.3422424  70.5134966 121.6750825  84.8994807
  69.7868129 121.5406789  84.2911299  70.0982253 121.9827653  85.7051525
  58.3365142 125.3940754  92.6642180  59.2568152 125.5719353  92.8582227
  58.3014725 124.4496800  92.5121879  56.6369367 119.2672984  71.1396408
  55.7300822 118.9706097  71.2159122  56.9145348 118.9702803  70.2730695
  47.5547307 120.5879348  81.5895455  47.2350091 119.7344656  81.2969829
  47.0080735 120.8027926  82.3453422  51.3327215 123.3041789  85.3064961
  51.5513224 124.2358897  85.3252995  51.7452988 122.9449763  86.0919765
  58.2531432 113.8109874  77.2940650  57.4432161 113.4656959  77.6695896
  58.9415849 113.5017418  77.8828261  56.2055080 118.8774995  94.6967710
  56.1051807 119.8269352  94.6279801  55.9876622 118.5493234  93.8243780
  55.4068151 116.1259920  71.2808388  56.2687315 116.4514818  71.5404205
  55.5918496 115.3391416  70.7681453  47.4235567 124.2082259  83.5588576
  46.7299039 123.7936212  83.0458531  48.1708558 124.2502796  82.9621995
  63.5600788 114.9988446  78.4243611  62.9799457 115.6573250  78.0421663
  63.2936721 114.1765791  78.0131028  56.0686350 122.3072133  93.5132772
  55.5853432 123.1072494  93.7196661  56.1547289 122.3180078  92.5600216
  49.3372310 124.1400513  81.4354591  49.3142998 124.2388200  80.4836474
  49.6472946 124.9865664  81.7571757  51.9959688 126.1976668  85.5501206
  52.9502941 126.1660611  85.4831137  51.7972211 125.7367292  86.3651432
  52.5859070 124.7677784  88.1172003  53.4051959 125.2621863  88.1406841
  52.8595877 123.8509752  88.0889571  62.3425666 117.1588537  77.4799959
  61.4551521 117.4438187  77.2620154  62.7579655 116.9982300  76.6327236
  65.6940202 117.1835058  81.1954298  66.4700592 117.6731510  81.4678915
  64.9688336 117.6093112  81.6526168  50.3509916 131.7396288  82.5671404
  50.2164384 130.9796689  82.0009402  49.9341979 132.4637188  82.1000192
  61.4868879 126.9233211  71.5747979  62.1904729 127.1283214  72.1905634
  60.7631528 127.4909973  71.8397062  62.3166690 122.6743072  77.6950249
  62.2601891 123.1311624  76.8557881  62.8695032 121.9133757  77.5173092
  66.1271496 118.4632804  78.5200368  65.8708430 118.0629440  79.3508576
  65.5024364 119.1776598  78.3950508  70.4383833 121.2028878  81.0271660
  69.8783391 121.2722067  81.8003222  69.8327337 121.0269862  80.3071156
  53.5079042 132.6365605  82.7789846  53.3911426 133.5811037  82.6768536
  52.6871488 132.3339166  83.1675645  63.3955577 127.3615740  73.6246439
  64.2301181 126.9296939  73.4423914  63.2339920 127.1897754  74.5523333
  63.0501469 123.8647854  74.9902778  62.9950273 123.6992125  74.0491222
  62.4247524 124.5723887  75.1464968  47.8393984 119.1015918  88.8164200
  48.4852848 118.5914872  89.3051426  47.6311135 119.8384600  89.3907626
  60.3647376 126.1696766  94.3156341  61.2338536 126.3437418  93.9542976
  59.8854128 126.9891182  94.1932070  56.3597594 113.3655963  74.5688097
  56.3476264 114.3097803  74.7256367  57.2521016 113.1826108  74.2747558
  54.5333556 133.2893867  85.9945775  55.4360803 133.3217477  86.3112270
  54.3070926 132.3594318  86.0092110  56.2887158 132.0424853  82.6555853
  55.3382789 132.0426715  82.5420225  56.5919644 131.2957588  82.1391888
  52.1791475 116.2483535  92.9139215  53.0422936 115.8920340  93.1242539
  51.6056886 115.9097430  93.6014619  72.0239852 137.8785392  83.7201616
  72.6618262 137.7592139  83.0164956  71.9060695 138.8266235  83.7789568
  68.8329558 137.8312820  83.6563140  68.4948070 137.7153884  82.7683675
  69.7019326 137.4303985  83.6364146  64.6916374 139.6848296  79.6460031
  64.1281239 139.5938233  78.8776319  64.5768769 138.8648201  80.1262524
  69.3149341 138.9847671  89.6149346  69.3037982 138.5900470  88.7429849
  69.4769981 138.2513744  90.2083117  66.9612809 139.1461632  85.1529889
  67.5576381 138.9217654  84.4386852  67.0187781 138.4046377  85.7555337
  66.5337838 136.6001067  72.9880080  66.7863358 136.0782588  72.2263543
  65.5962397 136.4367212  73.0906764  71.5781120 135.6036845  80.7954824
  72.3644210 135.1856269  80.4445241  71.8419825 136.5082938  80.9636472
  71.7491198 141.0409696  75.4943480  71.1137031 141.1144322  76.2064385
  71.4188604 141.6303295  74.8162560  76.9789547 135.5412079  81.6987802
  77.7114719 134.9711295  81.9325632  76.2228903 135.1533679  82.1394308
  66.2534126 138.5029173  75.1904455  66.1370384 137.8274076  75.8585540
  66.3636386 138.0161547  74.3736608  68.5965667 137.9639320  78.8951145
  68.2323874 137.4369941  79.6064066  69.4532783 137.5737789  78.7217630
  74.5014968 129.2533653  86.1582411  74.1698293 130.1229064  85.9343626
  73.9060581 128.9369937  86.8376441  68.2371154 132.9929220  73.8912493
  68.4045556 133.8609456  74.2582964  68.0468323 133.1556501  72.9673782
  70.9946487 141.4546199  85.5578323  70.6947210 142.3571237  85.4494131
  70.6497547 141.1878382  86.4099476  64.4458969 137.9059996  81.5915028
  63.5209465 137.7736210  81.7992720  64.6943382 138.6854215  82.0884970
  74.3943631 133.9728739  83.2375761  73.4860508 133.9044147  82.9434522
  74.3431227 134.4500684  84.0657586  68.2160375 135.4486877  74.8759160
  68.0960000 135.8943928  75.7144640  67.5212963 135.7972195  74.3172698
  61.8067780 137.5493269  82.4258817  61.9360161 137.8027748  83.3398229
  61.1265231 138.1420977  82.1063472  68.4684497 135.3918384  91.1810658
  67.6917831 135.9512305  91.1713523  69.1075060 135.8775167  91.7025528
  76.2605278 132.1745177  85.0153635  75.6179658 132.4677710  84.3693429
  75.7560206 132.0598098  85.8206831  73.9145441 135.9208350  75.7039494
  74.8263297 136.1535737  75.5287192  73.4055088 136.5045395  75.1414573
  66.7230869 138.2003838  90.7428625  67.4645554 138.7388882  90.4663449
  66.0167855 138.8270127  90.9000177  72.1986209 140.3432978  89.3400787
  72.6069565 139.9015389  88.5955419  71.4763470 139.7685606  89.5934979
  68.5517279 135.2805585  86.7134344  69.3978474 135.7044999  86.8568993
  68.4915917 134.6239209  87.4072907  72.5215023 140.9034169  83.0953075
  71.8923886 141.0679883  82.3929143  72.1340686 141.3175778  83.8664039
  76.4004255 141.8388607  80.4497439  75.7155294 142.2187508  79.8994473
  76.4848105 142.4483933  81.1829387  71.7016724 132.9409953  88.3715517
  71.4577656 133.6952014  87.8349793  71.9776655 133.3195301  89.2062764
  73.6555187 139.4848566  87.0492783  73.8672082 140.1280326  86.3727164
  73.6084935 138.6510882  86.5814713  71.2581416 132.0966386  83.9529355
  70.3965895 132.3947640  84.2446092  71.2843851 132.3136785  83.0210388
  68.0742985 140.6408577  80.3603161  68.5381331 140.9196280  79.5707783
  67.8099783 139.7392022  80.1776251  67.0111871 136.7631729  77.1692726
  67.7135915 137.2152773  77.6366652  66.6792500 136.1215548  77.7972619
  65.4592233 135.3543486  91.5443935  64.8290894 136.0359767  91.7779332
  65.3528321 135.2426568  90.5997073  60.7537205 135.0215282  82.4709859
  59.9636259 135.2772811  81.9949970  61.2448453 135.8363620  82.5761900
  74.7701015 142.3620521  85.2215140  75.5918459 141.9600708  84.9397822
  74.7663418 142.2588755  86.1731256  62.7051951 135.3859861  79.4293336
  61.9083114 135.4978556  79.9476832  62.4777543 135.7246513  78.5634226
  59.0374908 135.2745772  84.9024850  59.2882947 136.1592782  85.1682426
  59.5734457 135.0950374  84.1299942  82.8607008 138.7059270  81.5700112
  82.1070716 138.1366668  81.4144116  82.9954549 138.6721934  82.5170746
  64.7372976 129.6564252  93.9069186  64.3439921 129.1030450  94.5816830
  65.5539116 129.9674830  94.2975704  67.6540937 131.0722131  91.4989443
  68.3950650 131.6729284  91.4193905  67.8858859 130.3299769  90.9407485
  62.7982275 136.2578498  89.7767672  62.6835790 135.3563755  90.0774771
  61.9426792 136.5042195  89.4252489  71.5998100 127.1003234  85.7753724
  71.2562369 127.9904876  85.6992835  71.9677062 126.9104892  84.9123309
  71.5648382 137.0911845  74.2826159  71.0495006 137.8616450  74.5214547
  71.2925691 136.4176981  74.9059221  69.1495493 131.9361546  79.3411398
  68.2937090 131.5468396  79.1617037  69.5622445 132.0153507  78.4811183
  70.6794640 129.4707889  83.7402958  70.1759436 129.4338024  82.9270763
  70.9725247 130.3800632  83.7999614  66.9237526 129.5546619  82.7469139
  67.7890523 129.3589427  82.3875029  66.9915035 129.3256971  83.6738496
  76.5382656 139.8444200  76.2179333  75.7612099 139.5055359  75.7734495
  77.2174137 139.8496823  75.5434298  71.3534685 134.9638937  76.1085941
  71.0484821 135.2785086  76.9596084  72.3065128 135.0420357  76.1513274
  74.7773963 139.3178181  82.8745941  74.1197638 140.0077442  82.9626070
  75.5814363 139.7074613  83.2179927  64.5299845 131.7848827  80.1185506
  65.1043597 131.5624008  79.3858699  65.1170827 131.8537521  80.8714107
  73.5879422 137.6722554  80.9249883  74.1011304 138.3052545  81.4271592
  74.2380646 137.0723749  80.5593243  64.8569432 133.8153288  74.1381391
  64.0206744 134.1527974  74.4590666  64.7174202 133.6802267  73.2008528
  66.8322513 128.6590076  78.8460576  66.1786925 128.3439093  78.2217190
  66.7902987 128.0365816  79.5720399  67.9433718 138.9409371  70.7613868
  67.0360779 138.7098624  70.9605017  68.4404750 138.1446990  70.9487849
  70.0660253 135.1472009  83.1708223  69.1482814 135.3686956  83.0129911
  70.4820397 135.2218320  82.3119931  70.8495301 136.5463425  78.3010903
  71.5967120 137.0584822  77.9918026  71.1186890 136.2247478  79.1615297
  69.1221951 139.0421966  75.2837858  68.2133170 138.7580998  75.3810328
  69.1517035 139.4621044  74.4241165  74.3541218 142.6528555  79.0529025
  73.9003545 141.8119465  79.1094216  73.7235185 143.2889953  79.3903805
  73.2974138 133.5820541  80.2829693  72.5596895 133.0697927  80.6139935
  73.5500911 133.1420923  79.4712970  73.3985765 126.3596793  80.8771462
  73.7044642 125.4994156  80.5897377  74.1238370 126.9514413  80.6770456
  59.6910121 136.7627480  79.2653060  59.4934521 136.1696840  78.5404127
  59.1356785 136.4579690  79.9828999  67.6706845 136.6550586  81.3847653
  67.7255455 135.7024423  81.3090130  66.8598047 136.8110025  81.8688952
  68.8198039 140.5830709  72.6225936  68.3817469 139.8666568  72.1631574
  69.5608480 140.8106824  72.0611028  65.6099205 135.2727646  79.1438032
  64.7967070 135.5721816  79.5503224  66.1058199 134.8783335  79.8612514
  71.2073417 135.7369470  87.9752926  71.5622804 135.9640943  88.8347392
  71.8545548 136.0687847  87.3530181  76.9371154 138.8587906  78.6802255
  76.7989052 139.0489502  77.7523444  76.5807372 139.6207289  79.1370306
  65.1013280 132.8446001  84.7599267  65.7412659 132.7034760  84.0622230
  64.2690810 132.5580515  84.3837869  76.9640533 140.9264433  83.6913526
  77.3977040 140.8339722  84.5396580  77.6772114 140.9021934  83.0533542
  62.1856347 136.2891514  76.9494012  61.2553935 136.2275969  77.1663974
  62.2813819 135.7667466  76.1530653  62.1041896 132.8146326  79.5372254
  62.3648713 133.7291660  79.4281414  62.9259068 132.3470769  79.6868867
  63.5766821 134.2284084  86.7071078  64.2489875 134.0201446  86.0583727
  62.7496608 134.0306170  86.2676311  77.8256083 140.9688134  86.2246412
  78.0191973 141.8733944  86.4705687  77.7256701 140.5095553  87.0584997
  69.4792393 130.8546024  88.7236739  68.8320308 131.5535974  88.6301216
  70.2493409 131.2882168  89.0912987  72.8871191 141.1194877  91.7987292
  72.7356698 140.8905428  90.8817376  72.8775871 142.0765478  91.8118637
  69.6556528 138.6926789  86.7833559  70.5848588 138.8437949  86.6102526
  69.2347558 138.7810810  85.9282205  63.9794319 137.5026687  87.4673515
  63.8414117 136.7706925  88.0685054  64.8899242 137.4135587  87.1857703
  72.9409266 139.4415091  72.2157994  72.3238437 138.7161919  72.1191047
  72.4725755 140.2024451  71.8725068  66.6076619 137.2146646  86.9557195
  67.3176238 136.5739838  86.9143814  66.5645928 137.4659541  87.8783376
  65.3205553 134.2011864  88.7752835  64.7842910 133.7502602  89.4274431
  64.7322262 134.3357773  88.0323299  64.7307812 133.6600515  71.3379298
  63.8537279 133.5389316  70.9741545  65.2065565 132.8686593  71.0858187
  74.5980805 142.1153583  88.1077754  73.7107584 141.7779505  88.2304153
  75.1679356 141.3836614  88.3446519  61.0544675 133.3367871  85.8605829
  60.9702863 132.7293541  85.1256239  60.2327381 133.8276890  85.8615325
  71.2268388 131.8221435  81.2276024  71.7237088 131.0691397  80.9077094
  70.4555370 131.8585752  80.6619233  79.0798146 137.5261800  82.8694316
  79.0688022 138.4086516  82.4988249  78.2115525 137.1733351  82.6748853
  72.3098169 140.5793122  78.8014448  71.3754448 140.6994585  78.6319152
  72.4874838 139.6765589  78.5374457  67.8103357 133.9638818  80.9547709
  67.4401145 133.4109858  81.6428614  68.3062450 133.3596951  80.4022709
  75.6970720 136.4210441  79.3364482  76.1631173 137.2538433  79.2624784
  76.1478221 135.9555423  80.0409740  73.7646952 142.7654263  76.3350634
  74.0406795 142.6510857  77.2444508  72.8951450 142.3671748  76.2962807
  73.6687383 128.7891028  83.3755383  72.7550463 129.0195255  83.5437590
  74.0980485 128.8729473  84.2269415  73.4393842 136.9780920  85.8755277
  72.7865292 137.2256828  85.2207730  73.8174222 136.1645059  85.5417754
  69.4881415 137.7200731  92.3621314  68.8122052 137.6194861  93.0323689
  70.3109049 137.5639945  92.8257311  55.8277929 136.5278268  83.7038272
  55.8662028 135.9941859  84.4975391  55.3218221 136.0013474  83.0849250
  63.2068691 131.3742809  87.2000815  63.2710017 132.2357640  86.7878212
  63.1435811 130.7616810  86.4673173  62.6820963 133.4465941  90.8473849
  63.3093002 133.0643019  91.4611373  61.8248882 133.2280143  91.2129542
  59.4586506 135.2542370  76.7792204  59.7539947 134.3453049  76.7259258
  58.5574542 135.2330110  76.4573206  62.9880753 133.3298367  82.7619752
  62.2667339 133.9434335  82.6227226  63.7774009 133.8656132  82.6836398
  65.7907067 130.6652793  89.0360404  66.3141468 130.9115090  89.7986714
  65.5719400 131.4972828  88.6163542  61.1874348 132.9356468  76.9031529
  60.8587054 132.0553847  76.7206635  61.5413718 132.8804137  77.7907918
  64.3016171 133.2229438  77.2707007  64.6412243 133.7515359  76.5485615
  64.7488291 133.5609844  78.0465573  66.9959612 131.6066489  86.7210075
  66.6556432 130.8074302  87.1230755  66.2898618 131.9068199  86.1486908
  67.6476084 128.6915801  85.1737398  68.4702153 128.2176279  85.0516288
  67.8914147 129.4706285  85.6736084  66.2884318 131.7204059  75.4700299
  67.0092681 132.0985312  74.9664016  65.6649622 132.4392936  75.5735277
  70.4315441 132.4249208  76.4058632  70.6479055 133.3073846  76.1047460
  69.9509508 132.0335422  75.6764274  65.1714662 135.3834922  82.9829376
  65.0259243 135.6975225  83.8753658  64.6939866 136.0019822  82.4300275
  67.0311045 132.3737470  83.0310266  67.0172614 131.4778563  82.6942564
  67.7483473 132.3808133  83.6648552  68.8837176 132.8074810  85.0763393
  68.6254954 133.7291880  85.0747724  68.3522216 132.4105244  85.7663858
  66.4347941 131.2551850  78.2997836  66.5563852 130.3268496  78.4988724
  66.1449983 131.2690536  77.3876152  69.3039131 128.9406760  81.4364556
  69.3260828 129.0046093  80.4816535  69.7207190 128.1011269  81.6305062
  79.6822756 138.6762020  79.4743779  80.1253902 137.9269345  79.0762902
  78.8049266 138.6672156  79.0917510  60.4326346 137.0510162  88.8147194
  59.6908082 137.1992798  89.4011825  60.1119091 137.3118428  87.9513944
  76.7149960 142.6792067  76.4837708  77.2401284 143.0179340  75.7587028
  76.6272313 141.7439082  76.3000842  65.9189021 132.7683847  92.5087769
  65.9677176 133.6445970  92.1265538  66.4611535 132.2261240  91.9359412
  76.4043866 143.3124971  91.7888906  75.6139410 143.2949109  91.2493405
  76.1677221 143.8513264  92.5437942  76.5241741 140.1617437  89.1021634
  76.5739746 139.9967444  90.0437157  76.4155665 139.2944696  88.7119515
  73.8145504 136.1448365  90.4180941  74.7155367 136.0054830  90.1264939
  73.8893478 136.3102820  91.3579118  68.1488309 133.5215220  89.2634127
  67.2791618 133.8148786  88.9916716  68.3847789 134.1055665  89.9841391
  78.0259938 142.5814378  89.3463656  77.7344747 142.9444359  90.1827117
  77.4132069 141.8681387  89.1676988  79.2255621 140.1467258  81.8666226
  80.0602512 140.5857062  82.0303786  79.3614749 139.6705911  81.0474472
  76.2747126 137.7046993  87.8143714  76.7501248 137.8974639  87.0062565
  75.3512692 137.7606179  87.5687097  63.1630633 138.8671160  77.3974792
  62.9176675 137.9633490  77.5955002  63.3326548 138.8688311  76.4554270
  70.8527343 129.7394837  86.7799548  71.3709287 130.4755864  86.4546036
  70.4982476 130.0458830  87.6146307  62.4326281 134.5999518  74.8960954
  61.7395526 134.6743873  74.2400990  62.1878032 133.8359861  75.4182470
  71.1039937 126.1595119  82.3000444  71.3841691 125.4918308  82.9260871
  71.8890544 126.3524215  81.7875108  74.9748795 134.5812753  86.0472019
  75.9266218 134.6810851  86.0684243  74.8052246 133.7891022  86.5570104
  72.9963175 131.6668336  86.2331420  72.4013107 131.9473349  85.5377909
  72.7112872 132.1562237  87.0048161  77.4536873 137.8018873  85.1614319
  77.4213193 136.8634874  85.3474003  78.0637497 137.8802910  84.4280144
  69.2920204 136.6714926  71.2041523  70.2379309 136.5421134  71.2729941
  68.9134449 135.9329588  71.6810951  77.6031362 134.5929916  85.2072602
  77.0870410 133.8088373  85.0202531  78.4871310 134.2648633  85.3719122
  75.2642089 128.3370932  81.1668415  75.0666910 128.0286020  82.0511747
  75.8741794 129.0632571  81.2966345  83.2713423 138.8634880  84.3020356
  84.0016812 138.6020168  84.8628059  82.6620369 138.1263602  84.3422424
  81.3528720 137.0042742  84.8994807  80.6261884 136.8698707  84.2911299
  80.9376007 137.3119571  85.7051525  69.1758897 140.7232672  92.6642180
  70.0961906 140.9011271  92.8582227  69.1408480 139.7788717  92.5121879
  67.4763121 134.5964902  71.1396408  66.5694577 134.2998015  71.2159122
  67.7539102 134.2994720  70.2730695  58.3941062 135.9171266  81.5895455
  58.0743846 135.0636574  81.2969829  57.8474490 136.1319844  82.3453422
  69.0925187 129.1401792  77.2940650  68.2825915 128.7948877  77.6695896
  69.7809604 128.8309336  77.8828261  71.0215735 128.2179839  78.9164946
  71.5746774 128.6375292  79.5754969  71.2585822 127.2915587  78.9587902
  67.0448834 134.2066912  94.6967710  66.9445561 135.1561269  94.6279801
  66.8270377 133.8785151  93.8243780  66.2461906 131.4551837  71.2808388
  67.1081070 131.7806736  71.5404205  66.4312250 130.6683333  70.7681453
  74.3994542 130.3280364  78.4243611  73.8193211 130.9865168  78.0421663
  74.1330475 129.5057708  78.0131028  72.8498109 129.7285422  80.6264931
  73.3497887 129.8401956  79.8179250  73.4933717 129.4246474  81.2665739
  66.9080105 137.6364051  93.5132772  66.4247186 138.4364411  93.7196661
  66.9941044 137.6471996  92.5600216  73.1819420 132.4880454  77.4799959
  72.2945275 132.7730105  77.2620154  73.5973409 132.3274218  76.6327236
  76.5333956 132.5126975  81.1954298  77.3094347 133.0023428  81.4678915
  75.8082091 132.9385029  81.6526168  78.9706515 133.2254594  82.2528239
  79.5651006 132.9850330  81.5421547  79.0433099 132.5061725  82.8801775
  73.1560444 138.0034990  77.6950249  73.0995646 138.4603542  76.8557881
  73.7088787 137.2425675  77.5173092  76.9665250 133.7924722  78.5200368
  76.7102184 133.3921358  79.3508576  76.3418118 134.5068516  78.3950508
  81.2777588 136.5320795  81.0271660  80.7177146 136.6013985  81.8003222
  80.6721091 136.3561780  80.3071156  74.2349331 142.6907658  73.6246439
  75.0694935 142.2588857  73.4423914  74.0733674 142.5189672  74.5523333
  73.8895223 139.1939771  74.9902778  73.8344027 139.0284043  74.0491222
  73.2641279 139.9015804  75.1464968  58.6787738 134.4307836  88.8164200
  59.3246602 133.9206790  89.3051426  58.4704890 135.1676517  89.3907626
  71.2041131 141.4988683  94.3156341  72.0732290 141.6729336  93.9542976
  70.7247882 142.3183100  94.1932070  67.1991349 128.6947880  74.5688097
  67.1870019 129.6389720  74.7256367  68.0914771 128.5118026  74.2747558
  71.0143468 125.2890657  78.8234033  70.2475864 124.7349144  78.9690716
  71.4254173 125.3612526  79.6848185  63.0185229 131.5775453  92.9139215
  63.8816691 131.2212258  93.1242539  62.4450640 131.2389348  93.6014619
  85.3408722 144.5825570  86.1582411  85.0092047 145.4520981  85.9343626
  84.7454336 144.2661854  86.8376441  87.0999032 147.5037095  85.0153635
  86.4573412 147.7969628  84.3693429  86.5953961 147.3890015  85.8206831
  82.4391854 142.4295152  85.7753724  82.0956123 143.3196793  85.6992835
  82.8070817 142.2396809  84.9123309  81.5188394 144.7999807  83.7402958
  81.0153190 144.7629942  82.9270763  81.8119001 145.7092549  83.7999614
  77.7631280 144.8838536  82.7469139  78.6284277 144.6881345  82.3875029
  77.8308789 144.6548888  83.6738496  77.6716267 143.9881993  78.8460576
  77.0180679 143.6731010  78.2217190  77.6296741 143.3657734  79.5720399
  84.2379520 141.6888711  80.8771462  84.5438397 140.8286074  80.5897377
  84.9632125 142.2806331  80.6770456  84.5081138 144.1182946  83.3755383
  83.5944218 144.3487173  83.5437590  84.9374239 144.2021390  84.2269415
  78.4869838 144.0207719  85.1737398  79.3095907 143.5468197  85.0516288
  78.7307902 144.7998202  85.6736084  80.1432886 144.2698678  81.4364556
  80.1654583 144.3338011  80.4816535  80.5600945 143.4303187  81.6305062
  81.6921097 145.0686754  86.7799548  82.2103041 145.8047781  86.4546036
  81.3376230 145.3750748  87.6146307  81.9433692 141.4887037  82.3000444
  82.2235445 140.8210226  82.9260871  82.7284299 141.6816132  81.7875108
  86.1035843 143.6662849  81.1668415  85.9060664 143.3577938  82.0511747
  86.7135549 144.3924488  81.2966345  79.9318941 144.4693710  77.2940650
  79.1219670 144.1240795  77.6695896  80.6203358 144.1601253  77.8828261
  81.8609490 143.5471756  78.9164946  82.4140528 143.9667210  79.5754969
  82.0979576 142.6207504  78.9587902  85.2388297 145.6572282  78.4243611
  84.6586966 146.3157086  78.0421663  84.9724230 144.8349626  78.0131028
  83.6891863 145.0577339  80.6264931  84.1891642 145.1693874  79.8179250
  84.3327471 144.7538392  81.2665739  89.8100270 148.5546512  82.2528239
  90.4044760 148.3142248  81.5421547  89.8826853 147.8353643  82.8801775
  78.0385103 144.0239798  74.5688097  78.0263773 144.9681638  74.7256367
  78.9308525 143.8409944  74.2747558  81.8537223 140.6182575  78.8234033
  81.0869619 140.0641061  78.9690716  82.2647928 140.6904443  79.6848185
   6.9877326  22.9096008  70.4446922   7.6255736  22.7902755  69.7410262
   6.8698169  23.8576852  70.5034874   3.7967032  22.8623436  70.3808447
   3.4585544  22.7464501  69.4928982   4.6656801  22.4614601  70.3609453
   4.2786815  24.0158288  76.3394652   4.2675456  23.6211086  75.4675156
   4.4407455  23.2824361  76.9328424   5.2353407  28.3829880  61.6819803
   4.5841387  28.9683961  61.2953817   6.0297770  28.9136075  61.7414840
   0.9994077  26.7995400  75.2873836   0.7083943  27.7041031  75.1720503
   1.6351061  26.8411927  76.0017906   1.9250283  24.1772248  71.8775196
   2.5213856  23.9528271  71.1632159   1.9825255  23.4356994  72.4800644
   1.4975312  21.6311684  59.7125387   1.7500832  21.1093205  58.9508850
   0.5599871  21.4677829  59.8152071   6.5418595  20.6347462  67.5200130
   7.3281684  20.2166885  67.1690547   6.8057299  21.5393554  67.6881779
   6.7128672  26.0720312  62.2188787   6.0774505  26.1454939  62.9309692
   6.3826078  26.6613911  61.5407866  11.9427022  20.5722695  68.4233109
  12.6752194  20.0021912  68.6570938  11.1866377  20.1844296  68.8639614
   1.2171601  23.5339790  61.9149762   1.1007859  22.8584693  62.5830846
   1.3273860  23.0472163  61.0981915   3.5603141  22.9949937  65.6196451
   3.1961349  22.4680558  66.3309373   4.4170257  22.6048406  65.4462937
   5.9583962  26.4856815  72.2823630   5.6584685  27.3881854  72.1739437
   5.6135021  26.2188998  73.1344783   9.3581105  19.0039355  69.9621067
   8.4497983  18.9354764  69.6679828   9.3068701  19.4811300  70.7902893
   3.1797849  20.4797494  61.6004467   3.0597475  20.9254545  62.4389947
   2.4850438  20.8282811  61.0418005   3.4321971  20.4229001  77.9055965
   2.6555305  20.9822921  77.8958829   4.0712534  20.9085784  78.4270835
  11.2242752  17.2055794  71.7398941  10.5817132  17.4988327  71.0938736
  10.7197680  17.0908714  72.5452138   8.8782916  20.9518967  62.4284801
   9.7900772  21.1846354  62.2532498   8.3692563  21.5356011  61.8659879
   1.6868344  23.2314454  77.4673932   2.4283028  23.7699498  77.1908755
   0.9805329  23.8580743  77.6245484   7.1623683  25.3743595  76.0646093
   7.5707039  24.9326005  75.3200726   6.4400945  24.7996222  76.3180286
   3.5154753  20.3116202  73.4379650   4.3615948  20.7355615  73.5814299
   3.4553391  19.6549826  74.1318213   7.4852498  25.9344785  69.8198382
   6.8561360  26.0990500  69.1174450   7.0978160  26.3486395  70.5909346
  11.3641730  26.8699223  67.1742746  10.6792768  27.2498125  66.6239779
  11.4485579  27.4794550  67.9074694   6.6654199  17.9720570  75.0960824
   6.4215130  18.7262630  74.5595099   6.9414129  18.3505918  75.9308071
   8.6192661  24.5159182  73.7738089   8.8309557  25.1590942  73.0972470
   8.5722410  23.6821499  73.3060019   6.2218890  17.1277003  70.6774662
   5.3603369  17.4258257  70.9691399   6.2481325  17.3447402  69.7455694
   3.0380460  25.6719194  67.0848467   3.5018805  25.9506897  66.2953090
   2.7737258  24.7702638  66.9021558   1.9749346  21.7942346  63.8938032
   2.6773389  22.2463390  64.3611959   1.6429974  21.1526165  64.5217925
   9.7338489  27.3931138  71.9460447  10.5555933  26.9911325  71.6643128
   9.7300892  27.2899372  72.8976563   3.4995093  26.9415181  74.1021157
   3.5639525  27.4035588  74.9379329   2.7906017  26.3112546  74.2303467
  17.8244482  23.7369886  68.2945418  17.0708191  23.1677284  68.1389423
  17.9592024  23.7032551  69.2416053   3.2143110  28.6083289  63.9700138
   3.0788785  29.4534824  64.3984985   3.7552923  28.8102566  63.2066071
   4.8411587  29.2306855  78.1000480   4.3975441  28.4443234  77.7821384
   5.5028800  29.4186006  77.4344370   6.9392825  29.5109655  76.1281881
   6.9211300  30.3318536  75.6362150   7.8612745  29.3863730  76.3532022
   3.3965879  27.0253784  76.9705389   3.9294216  26.2642073  76.7404697
   2.8679960  26.7327436  77.7129544   6.5285857  22.1222462  61.0071466
   6.0132480  22.8927066  61.2459854   6.2563165  21.4487598  61.6304528
  11.5020131  24.8754816  62.9424640  10.7249574  24.5365976  62.4979802
  12.1811612  24.8807439  62.2679605   6.3172160  19.9949554  62.8331247
   6.0122295  20.3095703  63.6841390   7.2702602  20.0730974  62.8758580
   4.7618592  26.1539777  64.4824201   4.2339953  25.4192537  64.1697439
   4.2606094  26.9314453  64.2364170   9.7411438  24.3488797  69.5991248
   9.0835112  25.0388059  69.6871376  10.5451837  24.7385229  69.9425234
   8.5516896  22.7033170  67.6495189   9.0648778  23.3363162  68.1516899
   9.2018120  22.1034366  67.2838549   2.9071192  23.9719987  57.4859174
   1.9998254  23.7409241  57.6850323   3.4042224  23.1757606  57.6733156
   5.8139271  32.6817494  60.4055860   5.1400969  32.9849191  61.0140818
   6.2005093  33.4846575  60.0561318   5.0297727  20.1782626  69.8953530
   4.1120289  20.3997573  69.7375218   5.4457871  20.2528936  69.0365237
   5.8132775  21.5774041  65.0256210   6.5604594  22.0895439  64.7163332
   6.0824365  21.2558094  65.8860604   4.0859425  24.0732582  62.0083164
   3.1770645  23.7891615  62.1055634   4.1154509  24.4931661  61.1486471
   9.3178693  27.6839172  65.7774332   8.8641020  26.8430081  65.8339522
   8.6872659  28.3200570  66.1149112   8.2611612  18.6131158  67.0074999
   7.5234369  18.1008544  67.3385242   8.5138386  18.1731539  66.1958276
   7.7611632  29.5215668  66.7124150   8.0534606  30.0820725  65.9936516
   8.2710253  29.8144229  67.4677309   2.6344319  21.6861203  68.1092960
   2.6892929  20.7335039  68.0335436   1.8235521  21.8420642  68.5934258
   3.7835513  25.6141326  59.3471243   3.3454943  24.8977185  58.8876880
   4.5245954  25.8417441  58.7856334   2.7245257  30.2996019  67.8017603
   2.6821436  30.5256866  66.8726135   3.6407956  30.0659394  67.9503404
   6.1710891  20.7680087  74.6998233   6.5260279  20.9951560  75.5592698
   6.8183022  21.0998464  74.0775488  11.9008628  23.8898523  65.4047562
  11.7626526  24.0800119  64.4768751  11.5444847  24.6517906  65.8615613
  11.9278007  25.9575050  70.4158833  12.3614514  25.8650339  71.2641887
  12.6409588  25.9332550  69.7778849   5.6605902  29.5577144  71.9491934
   5.7142925  30.1268080  72.7169650   4.7920684  29.7279029  71.5845971
  12.7893557  25.9998750  72.9491718  12.9829447  26.9044561  73.1950993
  12.6894175  25.5406170  73.7830303   7.8508666  26.1505493  78.5232599
   7.6994172  25.9216045  77.6062683   7.8413345  27.1076095  78.5363944
   4.6194002  23.7237406  73.5078865   5.5486062  23.8748566  73.3347833
   4.1985032  23.8121427  72.6527512   3.4182334  27.7488070  71.2777403
   3.2793420  27.3806855  72.1503341   2.6296930  28.2635710  71.1061361
   4.0130486  32.8497167  62.6202940   4.1882242  32.3785210  63.4348562
   3.3263274  33.4762933  62.8484200   4.9687549  27.1269673  68.6666241
   4.6337382  27.0870443  69.5623891   4.4691495  26.4614389  68.1936651
   7.9046741  24.4725707  58.9403301   7.2875911  23.7472536  58.8436353
   7.4363229  25.2335068  58.5970375   1.5714094  22.2457262  73.6802502
   2.2813712  21.6050455  73.6389120   1.5283402  22.4970157  74.6028682
   9.5600872  29.1824616  76.6009081   9.5013419  28.4983836  75.9339664
   9.9620391  29.9243606  76.1489707   9.5618280  27.1464200  74.8323061
   8.6745058  26.8090121  74.9549459  10.1316831  26.4147231  75.0691826
   3.0919433  31.8065652  71.7984304   3.0189605  32.6120624  72.3103608
   2.6496826  32.0057618  70.9732325   2.8809213  31.0437422  65.3087125
   2.0976735  31.5859102  65.4025350   3.5801958  31.5611402  65.7081367
  14.0435620  22.5572417  69.5939622  14.0325496  23.4397132  69.2233555
  13.1753000  22.2043968  69.3994159   5.5518117  31.7052486  73.9542462
   6.2646089  32.3399951  73.8818364   5.0608145  31.8016352  73.1382464
   7.2735643  25.6103739  65.5259754   6.3391922  25.7305201  65.3564458
   7.4512312  24.7076205  65.2619764  10.6608195  21.4521058  66.0609788
  11.1268647  22.2849050  65.9870091  11.1115695  20.9866040  66.7655047
   8.7284426  27.7964879  63.0595940   9.0044270  27.6821474  63.9689814
   7.8588925  27.3982364  63.0208113   8.4031316  22.0091537  72.6000584
   7.7502766  22.2567444  71.9453036   8.7811696  21.1955675  72.2663061
   5.3638490  32.0451230  66.7028754   5.5460884  31.2272886  67.1656506
   6.1871476  32.2618922  66.2653644   5.6980655  30.9719415  63.9643802
   6.2268422  30.4611870  63.3513965   5.9608875  30.6561945  64.8289335
   4.4518889  22.7511348  79.0866621   3.7759526  22.6505477  79.7568996
   5.2746523  22.5950562  79.5502618   3.1941672  34.0578275  73.3224237
   3.7459980  34.2209897  74.0873322   3.5347865  34.6482713  72.6504262
   8.0452546  28.8839533  79.1772891   8.5892450  29.4969491  78.6827846
   7.4639391  29.4419111  79.6939904   6.3310059  32.0060251  70.3087919
   6.2061199  31.2049991  69.7998864   6.9889150  32.5006444  69.8201889
   8.3944968  29.8069271  71.9367469   7.4475303  29.6874622  71.8645796
   8.7427741  28.9191769  72.0193730   5.3991401  29.6021987  68.1371821
   5.2516363  28.6738695  68.3179391   6.2244894  29.6242078  67.6528896
   9.0025523  30.4250546  69.2236694   9.9272070  30.2193407  69.0861145
   8.8340826  30.1766947  70.1326035   8.7920839  30.9436213  64.5798785
   8.9657716  30.3782636  63.8272638   9.2849730  31.7437108  64.3978275
  14.6460230  23.7072636  66.1989085  15.0891376  22.9579962  65.8008208
  13.7686740  23.6982773  65.8162817   9.7796011  30.2602978  61.6795684
  10.4746916  30.8809671  61.8982998  10.1219162  29.4098329  61.9548062
  11.6787435  27.7102683  63.2083014  12.2038759  28.0489956  62.4832334
  11.5909787  26.7749699  63.0246149   3.3407483  31.6236757  75.3372891
   3.6494610  31.3785904  76.2095591   4.1382965  31.8283396  74.8491761
   3.3628095  33.7774667  67.5678268   2.9233086  33.2851045  68.2611124
   4.1136212  33.2347634  67.3270343  11.3681341  28.3435587  78.5134212
  10.5776884  28.3259726  77.9738712  11.1314695  28.8823881  79.2683249
  11.4879216  25.1928053  75.8266941  11.5377221  25.0278061  76.7682464
  11.3793139  24.3255312  75.4364822   8.7782978  21.1758981  77.1426248
   9.6792841  21.0365446  76.8510245   8.8530953  21.3413436  78.0824425
  12.9897413  27.6124995  76.0708962  12.6982221  27.9754975  76.9072423
  12.3769544  26.8992003  75.8922295  14.1893095  25.1777875  68.5911533
  15.0239986  25.6167679  68.7549093  14.3252224  24.7016528  67.7719778
  11.2384601  22.7357610  74.5389020  11.7138722  22.9285256  73.7307872
  10.3150166  22.7916795  74.2932404   3.8710880  30.3664730  60.5870777
   3.2984847  30.9854917  60.1341249   4.4443674  30.9164091  61.1210699
   9.9386270  19.6123370  72.7717326  10.8903693  19.7121467  72.7929550
   9.7689720  18.8201638  73.2815410   7.9600649  16.6978953  72.9576727
   7.3650581  16.9783966  72.2623216   7.6750346  17.1872854  73.7293468
   7.0908140  30.6501880  61.7179360   8.0238813  30.5847441  61.9212235
   7.0031353  31.4858147  61.2593892   9.7196156  29.9667750  58.6783307
   9.6409788  29.6327614  59.5719065  10.5405823  30.4589518  58.6774779
  12.4174348  22.8329489  71.8859626  12.3850668  21.8945490  72.0719310
  13.0274971  22.9113526  71.1525451   4.2557678  21.7025542  57.9286830
   5.2016783  21.5731750  57.9975248   3.8771923  20.9640204  58.4056258
  12.5668836  19.6240533  71.9317909  12.0507885  18.8398989  71.7447838
  13.4508785  19.2959249  72.0964428  18.2350897  23.8945496  71.0265663
  18.9654286  23.6330784  71.5873366  17.6257843  23.1574218  71.0667730
  16.3166195  22.0353359  71.6240114  15.5899358  21.9009324  71.0156605
  15.9013481  22.3430187  72.4296832   4.1396371  25.7543288  79.3887487
   5.0599380  25.9321887  79.5827533   4.1045954  24.8099334  79.2367186
   9.3632017  15.3590980  65.1488917   8.7830686  16.0175784  64.7666970
   9.0967949  14.5368325  64.7376335   1.8717579  22.6674668  80.2378078
   1.3884661  23.4675028  80.4441968   1.9578518  22.6782613  79.2845522
   8.1456895  17.5191071  64.2045265   7.2582750  17.8040721  63.9865460
   8.5610884  17.3584834  63.3572542  11.4971431  17.5437592  67.9199605
  12.2731821  18.0334044  68.1924222  10.7719565  17.9695646  68.3771474
  13.9343989  18.2565211  68.9773545  14.5288480  18.0160947  68.2666854
  14.0070573  17.5372342  69.6047082   7.2900108  27.2835745  58.2993285
   7.9935958  27.4885748  58.9150941   6.5662757  27.8512507  58.5642369
   8.1197918  23.0345607  64.4195556   8.0633120  23.4914158  63.5803188
   8.6726261  22.2736291  64.2418398  11.9302724  18.8235339  65.2445675
  11.6739659  18.4231974  66.0753883  11.3055592  19.5379133  65.1195814
  16.2415062  21.5631412  67.7516967  15.6814620  21.6324601  68.5248529
  15.6358566  21.3872396  67.0316463   9.1986806  27.7218275  60.3491745
  10.0332409  27.2899473  60.1669220   9.0371148  27.5500288  61.2768640
   8.8532698  24.2250388  61.7148085   8.7981502  24.0594659  60.7736529
   8.2278753  24.9326421  61.8710274   6.1678605  26.5299300  81.0401648
   7.0369765  26.7039952  80.6788282   5.6885356  27.3493717  80.9177377
   2.0918387  32.4027387  69.3801160   1.1414018  32.4029249  69.2665532
   2.3950873  31.6560122  68.8637194  17.8271081  38.2387926  70.4446922
  18.4649491  38.1194673  69.7410262  17.7091924  39.1868770  70.5034874
  14.6360787  38.1915354  70.3808447  14.2979298  38.0756419  69.4928982
  15.5050555  37.7906519  70.3609453  10.4947603  40.0450830  66.3705338
   9.9312468  39.9540767  65.6021626  10.3799998  39.2250735  66.8507830
  15.1180570  39.3450206  76.3394652  15.1069211  38.9503004  75.4675156
  15.2801209  38.6116278  76.9328424   8.0412035  41.5402022  69.2089558
   8.8333326  41.1992847  68.7935858   8.2808685  41.6496997  70.1291712
  16.0747161  43.7121798  61.6819803  15.4235141  44.2975878  61.2953817
  16.8691524  44.2427993  61.7414840  10.0002788  40.8010935  62.0806937
  10.7733664  40.2539922  61.9419813  10.3528187  41.6655184  62.2921399
  11.8387831  42.1287317  75.2873836  11.5477697  43.0332948  75.1720503
  12.4744815  42.1703845  76.0017906  12.7644038  39.5064166  71.8775196
  13.3607610  39.2820188  71.1632159  12.8219009  38.7648911  72.4800644
  12.3369066  36.9603601  59.7125387  12.5894587  36.4385123  58.9508850
  11.3993625  36.7969747  59.8152071  17.3812349  35.9639380  67.5200130
  18.1675438  35.5458803  67.1690547  17.6451053  36.8685472  67.6881779
  17.5522426  41.4012230  62.2188787  16.9168259  41.4746856  62.9309692
  17.2219833  41.9905829  61.5407866  22.7820776  35.9014613  68.4233109
  23.5145948  35.3313830  68.6570938  22.0260132  35.5136213  68.8639614
  12.0565355  38.8631707  61.9149762  11.9401613  38.1876611  62.5830846
  12.1667615  38.3764081  61.0981915  14.3996896  38.3241854  65.6196451
  14.0355103  37.7972475  66.3309373  15.2564012  37.9340323  65.4462937
  20.3046197  29.6136187  72.8827717  19.9729521  30.4831598  72.6588932
  19.7091810  29.2972471  73.5621748  14.0402383  33.3531754  60.6157800
  14.2076785  34.2211990  60.9828271  13.8499552  33.5159036  59.6919089
  16.7977716  41.8148733  72.2823630  16.4978439  42.7173772  72.1739437
  16.4528776  41.5480916  73.1344783  10.2490198  38.2662530  68.3160335
   9.3240694  38.1338744  68.5238026  10.4974611  39.0456749  68.8130277
  20.1974860  34.3331273  69.9621067  19.2891737  34.2646682  69.6679828
  20.1462456  34.8103218  70.7902893  14.0191604  35.8089411  61.6004467
  13.8991229  36.2546462  62.4389947  13.3244192  36.1574729  61.0418005
   7.6099009  37.9095803  69.1504124   7.7391390  38.1630282  70.0643535
   6.9296460  38.5023511  68.8308779  11.7798496  48.5793053  65.2494598
  11.7022526  49.5300878  65.3283078  11.1760140  48.2338926  65.9069524
  14.2715726  35.7520919  77.9055965  13.4949060  36.3114839  77.8958829
  14.9106289  36.2377702  78.4270835  22.0636506  32.5347711  71.7398941
  21.4210887  32.8280245  71.0938736  21.5591435  32.4200632  72.5452138
  19.7176670  36.2810885  62.4284801  20.6294526  36.5138271  62.2532498
  19.2086317  36.8647929  61.8659879  12.5262098  38.5606372  77.4673932
  13.2676782  39.0991416  77.1908755  11.8199083  39.1872661  77.6245484
  18.0017438  40.7035513  76.0646093  18.4100794  40.2617923  75.3200726
  17.2794699  40.1288140  76.3180286  14.3548508  35.6408119  73.4379650
  15.2009703  36.0647533  73.5814299  14.2947145  34.9841744  74.1318213
  18.3246252  41.2636703  69.8198382  17.6955115  41.4282417  69.1174450
  17.9371914  41.6778313  70.5909346  22.2035484  42.1991141  67.1742746
  21.5186522  42.5790042  66.6239779  22.2879334  42.8086468  67.9074694
  17.5047953  33.3012488  75.0960824  17.2608885  34.0554548  74.5595099
  17.7807884  33.6797835  75.9308071  19.4586416  39.8451100  73.7738089
  19.6703311  40.4882860  73.0972470  19.4116164  39.0113417  73.3060019
  17.0612645  32.4568921  70.6774662  16.1997124  32.7550174  70.9691399
  17.0875079  32.6739320  69.7455694  13.8774214  41.0011111  67.0848467
  14.3412560  41.2798814  66.2953090  13.6131012  40.0994556  66.9021558
  10.7698295  40.5482593  70.0228230  11.3399652  40.9769861  69.3845715
  11.3606407  40.2665177  70.7212416  12.8143100  37.1234264  63.8938032
  13.5167144  37.5755307  64.3611959  12.4823729  36.4818082  64.5217925
  11.2623462  35.7146020  78.2689242  10.6322122  36.3962301  78.5024639
  11.1559550  35.6029102  77.3242380   6.5568434  35.3817816  69.1955166
   5.7667488  35.6375345  68.7195277   7.0479682  36.1966154  69.3007206
  20.5732244  42.7223055  71.9460447  21.3949687  42.3203243  71.6643128
  20.5694647  42.6191290  72.8976563   8.5083180  35.7462395  66.1538643
   7.7114343  35.8581090  66.6722138   8.2808772  36.0849048  65.2879533
  14.3388847  42.2707099  74.1021157  14.4033280  42.7327506  74.9379329
  13.6299771  41.6404464  74.2303467   4.8406137  35.6348307  71.6270157
   5.0914176  36.5195317  71.8927733   5.3765686  35.4552908  70.8545249
  28.6638237  39.0661804  68.2945418  27.9101945  38.4969202  68.1389423
  28.7985778  39.0324468  69.2416053  14.0536865  43.9375206  63.9700138
  13.9182540  44.7826742  64.3984985  14.5946677  44.1394484  63.2066071
  10.5404204  30.0166786  80.6314493  10.1471150  29.4632985  81.3062137
  11.3570345  30.3277365  81.0221010   7.5066262  41.4550644  64.5428063
   8.0190783  42.2493894  64.6933627   8.1588975  40.7576935  64.4761664
   9.3161147  44.5716401  66.6250816   9.4927775  45.4934365  66.4371800
  10.1117980  44.2574820  67.0545196  13.4572165  31.4324665  78.2234749
  14.1981879  32.0331818  78.1439212  13.6890088  30.6902303  77.6652792
   8.6013503  36.6181032  76.5012979   8.4867019  35.7166290  76.8020078
   7.7458021  36.8644729  76.1497796  15.6805341  44.5598773  78.1000480
  15.2369195  43.7735151  77.7821384  16.3422555  44.7477923  77.4344370
  10.4392462  46.0894574  72.6261158  10.9899888  45.9611638  71.8538152
   9.6003938  46.3889463  72.2756051  17.7786579  44.8401573  76.1281881
  17.7605055  45.6610454  75.6362150  18.7006499  44.7155648  76.3532022
  14.2359633  42.3545702  76.9705389  14.7687970  41.5933990  76.7404697
  13.7073715  42.0619354  77.7129544  17.4029328  27.4605768  72.4999031
  17.0593598  28.3507410  72.4238142  17.7708291  27.2707426  71.6368616
   5.4715179  39.7839299  65.3187633   6.3090401  40.1936307  65.1021341
   5.6493447  38.8438741  65.2887827  17.3679611  37.4514379  61.0071466
  16.8526235  38.2218984  61.2459854  17.0956920  36.7779515  61.6304528
  14.9526722  32.2964080  66.0656704  14.0968319  31.9070930  65.8862343
  15.3653674  32.3756041  65.2056490  16.4825869  29.8310423  70.4648264
  15.9790664  29.7940558  69.6516070  16.7756476  30.7403166  70.5244921
  12.7268755  29.9149153  69.4714446  13.5921751  29.7191962  69.1120335
  12.7946264  29.6859505  70.3983803  22.3413885  40.2046734  62.9424640
  21.5643328  39.8657893  62.4979802  23.0205366  40.2099357  62.2679605
  17.1565914  35.3241471  62.8331247  16.8516050  35.6387620  63.6841390
  18.1096356  35.4022891  62.8758580  15.6012346  41.4831695  64.4824201
  15.0733708  40.7484454  64.1697439  15.0999849  42.2606371  64.2364170
  20.5805192  39.6780715  69.5991248  19.9228867  40.3679976  69.6871376
  21.3845591  40.0677147  69.9425234  10.3331074  32.1451361  66.8430813
  10.9074826  31.9226542  66.1104006  10.9202056  32.2140055  67.5959414
  19.3910651  38.0325088  67.6495189  19.9042533  38.6655080  68.1516899
  20.0411875  37.4326283  67.2838549  10.6600661  34.1755822  60.8626698
   9.8237973  34.5130508  61.1835973  10.5205431  34.0404802  59.9253835
  12.6353741  29.0192610  65.5705882  11.9818154  28.7041627  64.9462497
  12.5934216  28.3968350  66.2965705  13.7464946  39.3011905  57.4859174
  12.8392008  39.0701158  57.6850323  14.2435978  38.5049524  57.6733156
  16.6533025  48.0109412  60.4055860  15.9794724  48.3141109  61.0140818
  17.0398847  48.8138492  60.0561318  15.8691482  35.5074543  69.8953530
  14.9514043  35.7289490  69.7375218  16.2851625  35.5820854  69.0365237
  16.6526530  36.9065959  65.0256210  17.3998349  37.4187356  64.7163332
  16.9218119  36.5850012  65.8860604  14.9253180  39.4024500  62.0083164
  14.0164399  39.1183533  62.1055634  14.9548264  39.8223578  61.1486471
  20.1572447  43.0131089  65.7774332  19.7034774  42.1721999  65.8339522
  19.5266414  43.6492488  66.1149112  19.1005367  33.9423075  67.0074999
  18.3628124  33.4300461  67.3385242  19.3532140  33.5023457  66.1958276
  18.6005386  44.8507586  66.7124150  18.8928361  45.4112643  65.9936516
  19.1104007  45.1436147  67.4677309  19.2016994  26.7199327  67.6016769
  19.5075871  25.8596691  67.3142684  19.9269599  27.3116947  67.4015763
   5.4941350  37.1230014  65.9898367   5.2965750  36.5299375  65.2649433
   4.9388014  36.8182224  66.7074305  13.4738074  37.0153120  68.1092960
  13.5286684  36.0626957  68.0335436  12.6629276  37.1712559  68.5934258
  14.6229268  40.9433243  59.3471243  14.1848698  40.2269102  58.8876880
  15.3639708  41.1709358  58.7856334  11.4130434  35.6330180  65.8683339
  10.5998299  35.9324351  66.2748531  11.9089428  35.2385869  66.5857821
  13.5639012  45.6287937  67.8017603  13.5215190  45.8548783  66.8726135
  14.4801710  45.3951312  67.9503404  17.0104645  36.0972005  74.6998233
  17.3654033  36.3243478  75.5592698  17.6576777  36.4290381  74.0775488
  22.7402382  39.2190440  65.4047562  22.6020281  39.4092036  64.4768751
  22.3838601  39.9809823  65.8615613  10.9044508  33.2048536  71.4844574
  11.5443888  33.0637295  70.7867537  10.0722039  32.9183049  71.1083176
  22.7671762  41.2866967  70.4158833  23.2008269  41.1942257  71.2641887
  23.4803343  41.2624468  69.7778849  11.6804812  42.5050966  67.5979566
  12.4745411  42.0101286  67.3962141  10.9696505  41.9768829  67.2347272
  16.4999657  44.8869062  71.9491934  16.5536679  45.4559998  72.7169650
  15.6314438  45.0570947  71.5845971   7.9887576  36.6494048  63.6739319
   7.0585164  36.5878503  63.8909281   8.0845048  36.1270001  62.8775960
   7.9073125  33.1748861  66.2617560   8.1679942  34.0894194  66.1526721
   8.7290297  32.7073303  66.4114173   9.3798050  34.5886618  73.4316385
  10.0521104  34.3803980  72.7829034   8.5527837  34.3908704  72.9921617
  23.6287312  41.3290668  72.9491718  23.8223202  42.2336479  73.1950993
  23.5287930  40.8698087  73.7830303  15.2823622  31.2148559  75.4482046
  14.6351537  31.9138508  75.3546522  16.0524638  31.6484703  75.8158294
  18.6902420  41.4797411  78.5232599  18.5387927  41.2507963  77.6062683
  18.6807100  42.4368012  78.5363944  15.4587757  39.0529324  73.5078865
  16.3879817  39.2040483  73.3347833  15.0378787  39.1413344  72.6527512
  14.2576088  43.0779988  71.2777403  14.1187174  42.7098772  72.1503341
  13.4690685  43.5927627  71.1061361  14.8524240  48.1789084  62.6202940
  15.0275996  47.7077128  63.4348562  14.1657028  48.8054851  62.8484200
  15.8081304  42.4561591  68.6666241  15.4731136  42.4162361  69.5623891
  15.3085249  41.7906307  68.1936651   9.7825548  37.8629221  74.1918822
   9.6445345  37.1309460  74.7930361  10.6930471  37.7738121  73.9103010
  18.7440495  39.8017625  58.9403301  18.1269666  39.0764453  58.8436353
  18.2756984  40.5626985  58.5970375  12.4107848  37.5749180  73.6802502
  13.1207467  36.9342372  73.6389120  12.3677156  37.8262075  74.6028682
  20.3994627  44.5116533  76.6009081  20.3407173  43.8275754  75.9339664
  20.8014145  45.2535523  76.1489707  11.1236782  34.5614398  75.4998141
  10.5874139  34.1105136  76.1519738  10.5353491  34.6960307  74.7568606
   9.4185326  51.3278447  69.3942800   9.6581924  51.9596971  70.0721818
   8.5754522  50.9766487  69.6808159  10.5339041  34.0203049  58.0624605
   9.6568507  33.8991850  57.6986852  11.0096794  33.2289128  57.8103493
  20.4012034  42.4756117  74.8323061  19.5138813  42.1382039  74.9549459
  20.9710585  41.7439149  75.0691826   2.0541181  38.8080209  68.1566112
   2.7412221  38.4941939  67.5687127   1.8989310  39.7121574  67.8833363
   6.8575903  33.6970406  72.5851136   6.7734092  33.0896075  71.8501546
   6.0358610  34.1879424  72.5860632  13.9313188  47.1357570  71.7984304
  13.8583359  47.9412541  72.3103608  13.4890581  47.3349536  70.9732325
  13.7202967  46.3729340  65.3087125  12.9370489  46.9151020  65.4025350
  14.4195712  46.8903319  65.7081367  17.0299617  32.1823969  67.9521331
  17.5268317  31.4293932  67.6322401  16.2586599  32.2188286  67.3864540
  24.8829375  37.8864335  69.5939622  24.8719251  38.7689050  69.2233555
  24.0146754  37.5335886  69.3994159  16.3911871  47.0344404  73.9542462
  17.1039843  47.6691869  73.8818364  15.9001900  47.1308270  73.1382464
  18.1129398  40.9395656  65.5259754  17.1785677  41.0597119  65.3564458
  18.2906066  40.0368123  65.2619764  13.6134586  34.3241352  67.6793015
  13.2432374  33.7712393  68.3673921  14.1093678  33.7199486  67.1268015
  21.5001949  36.7812976  66.0609788  21.9662401  37.6140967  65.9870091
  21.9509450  36.3157957  66.7655047  11.4423785  44.7838847  74.7748033
  12.1433244  45.4175330  74.9277428  10.9718900  45.1253579  74.0143673
  19.5678180  43.1256797  63.0595940  19.8438024  43.0113392  63.9689814
  18.6982679  42.7274282  63.0208113  19.4718612  29.1493563  70.1000690
  18.5581692  29.3797790  70.2682897  19.9011714  29.2332007  70.9514722
  19.2425071  37.3383455  72.6000584  18.5896521  37.5859362  71.9453036
  19.6205450  36.5247593  72.2663061  16.2032244  47.3743148  66.7028754
  16.3854639  46.5564804  67.1656506  17.0265230  47.5910840  66.2653644
  16.5374410  46.3011333  63.9643802  17.0662176  45.7903788  63.3513965
  16.8002629  45.9853863  64.8289335  15.2912644  38.0803266  79.0866621
  14.6153281  37.9797395  79.7568996  16.1140277  37.9242479  79.5502618
   7.0391503  44.3175202  71.7079136   7.6244939  43.5718890  71.8407040
   6.8416341  44.6279159  72.5915800   9.8930158  47.3526450  66.7241578
   9.2240533  47.8372577  66.2405618   9.7543028  47.5995670  67.6384957
   1.6309157  36.8880802  70.4283579   1.6693257  36.3544393  71.2220697
   1.1249450  36.3616008  69.8094556  14.0335426  49.3870193  73.3224237
  14.5853734  49.5501815  74.0873322  14.3741620  49.9774631  72.6504262
   9.0099920  31.7345343  73.9246121   9.0741246  32.5960174  73.5123519
   8.9467040  31.1219345  73.1918480   8.4852192  33.8068475  77.5719156
   9.1124231  33.4245553  78.1856680   7.6280111  33.5882677  77.9374848
  18.8846301  44.2131451  79.1772891  19.4286205  44.8261409  78.6827846
  18.3033146  44.7711029  79.6939904   5.2617735  35.6144905  63.5037510
   5.5571176  34.7055583  63.4504564   4.3605771  35.5932644  63.1818513
  17.1703814  47.3352169  70.3087919  17.0454953  46.5341909  69.7998864
  17.8282905  47.8298362  69.8201889   8.7911982  33.6900901  69.4865059
   8.0698568  34.3036869  69.3472532   9.5805238  34.2258666  69.4081705
  19.2338722  45.1361189  71.9367469  18.2869058  45.0166540  71.8645796
  19.5821495  44.2483687  72.0193730  11.5938295  31.0255328  75.7605711
  12.1172697  31.2717624  76.5232020  11.3750629  31.8575362  75.3408848
   6.9905577  33.2959002  63.6276836   6.6618283  32.4156381  63.4451942
   7.3444947  33.2406671  64.5153225  16.2385155  44.9313905  68.1371821
  16.0910118  44.0030612  68.3179391  17.0638649  44.9533996  67.6528896
  10.1047400  33.5831972  63.9952313  10.4443472  34.1117893  63.2730922
  10.5519520  33.9212378  64.7710880  19.8419277  45.7542464  69.2236694
  20.7665825  45.5485325  69.0861145  19.6734581  45.5058865  70.1326035
  12.7990841  31.9669023  73.4455381  12.4587661  31.1676836  73.8476061
  12.0929847  32.2670734  72.8732215  13.4507312  29.0518335  71.8982704
  14.2733382  28.5778813  71.7761595  13.6945376  29.8308819  72.3981391
  12.0915547  32.0806594  62.1945606  12.8123909  32.4587846  61.6909323
  11.4680851  32.7995470  62.2980584  16.2346670  32.7851743  63.1303938
  16.4510284  33.6676380  62.8292767  15.7540737  32.3937956  62.4009580
  10.9745891  35.7437456  69.7074683  10.8290472  36.0577759  70.5998965
  10.4971095  36.3622356  69.1545582  12.8342274  32.7340004  69.7555573
  12.8203843  31.8381097  69.4187871  13.5514702  32.7410668  70.3893859
  14.6868405  33.1677344  71.8008700  14.4286183  34.0894415  71.7993030
  14.1553445  32.7707779  72.4909164  19.6314593  46.2728131  64.5798785
  19.8051471  45.7074554  63.8272638  20.1243485  47.0729026  64.3978275
   5.4491553  38.2842800  72.6462344   4.9045021  39.0602608  72.7782619
   6.3270903  38.6313605  72.4881466  12.2379170  31.6154384  65.0243143
  12.3595081  30.6871030  65.2234030  11.9481212  31.6293070  64.1121458
  15.1070360  29.3009295  68.1609863  15.1292057  29.3648628  67.2061842
  15.5238419  28.4613803  68.3550369  25.4853985  39.0364554  66.1989085
  25.9285131  38.2871879  65.8008208  24.6080495  39.0274690  65.8162817
  20.6189766  45.5894896  61.6795684  21.3140671  46.2101588  61.8982998
  20.9612916  44.7390247  61.9548062   6.2357575  37.4112697  75.5392501
   5.4939311  37.5595332  76.1257131   5.9150319  37.6720962  74.6759250
  22.5181189  43.0394601  63.2083014  23.0432513  43.3781874  62.4832334
  22.4303542  42.1041616  63.0246149  14.1801238  46.9528675  75.3372891
  14.4888364  46.7077822  76.2095591  14.9776720  47.1575313  74.8491761
  14.2021850  49.1066584  67.5678268  13.7626840  48.6142963  68.2611124
  14.9529967  48.5639552  67.3270343   6.6814189  45.2978125  67.5702896
   7.5072209  44.9981897  67.1901539   6.3308241  44.5285748  68.0192684
  11.6495722  44.6504593  69.6400569  11.0275731  43.9875298  69.3402797
  12.3200589  44.6765725  68.9574217   4.8822794  43.2164452  68.5291829
   4.0454702  42.7886626  68.3475831   4.8546439  43.4096895  69.4662620
  11.7220249  33.1286381  79.2333075  11.7708405  34.0048504  78.8510845
  12.2642764  32.5863775  78.6604719  22.3272970  40.5219971  75.8266941
  22.3770975  40.3569979  76.7682464  22.2186894  39.6547230  75.4364822
  11.2109229  43.2008517  63.1159030  11.3597349  43.8843981  62.4625703
  12.0175672  43.1813607  63.6308486  19.6176733  36.5050899  77.1426248
  20.5186595  36.3657364  76.8510245  19.6924707  36.6705354  78.0824425
  13.9519538  33.8817754  75.9879434  13.0822847  34.1751320  75.7162023
  14.1879018  34.4658199  76.7086698  25.0286849  40.5069792  68.5911533
  25.8633741  40.9459596  68.7549093  25.1645978  40.0308446  67.7719778
  22.0778355  38.0649527  74.5389020  22.5532477  38.2577174  73.7307872
  21.1543921  38.1208713  74.2932404   8.9661862  39.2273694  64.1220099
   8.7207904  38.3236024  64.3200309   9.1357776  39.2290845  63.1799577
  16.6558572  30.0997371  73.5044854  17.1740516  30.8358398  73.1791343
  16.3013705  30.4061364  74.3391613   8.2357509  34.9602052  61.6206260
   7.5426754  35.0346407  60.9646296   7.9909261  34.1962396  62.1427777
  16.9071166  26.5197653  69.0245751  17.1872920  25.8520842  69.6506177
  17.6921773  26.7126749  68.5120415  14.7104634  45.6956647  60.5870777
  14.1378601  46.3146834  60.1341249  15.2837428  46.2456009  61.1210699
  20.7780024  34.9415287  72.7717326  21.7297447  35.0413385  72.7929550
  20.6083475  34.1493556  73.2815410  18.7994404  32.0270871  72.9576727
  18.2044336  32.3075883  72.2623216  18.5144100  32.5164771  73.7293468
  17.9301894  45.9793797  61.7179360  18.8632567  45.9139359  61.9212235
  17.8425107  46.8150064  61.2593892  20.5589911  45.2959668  58.6783307
  20.4803542  44.9619531  59.5719065  21.3799578  45.7881436  58.6774779
  23.2568102  38.1621407  71.8859626  23.2244422  37.2237408  72.0719310
  23.8668726  38.2405444  71.1525451  15.0951433  37.0317460  57.9286830
  16.0410538  36.9023668  57.9975248  14.7165678  36.2932122  58.4056258
  23.4062591  34.9532450  71.9317909  22.8901639  34.1690907  71.7447838
  24.2902539  34.6251167  72.0964428  21.0673317  28.6973466  67.8913722
  20.8698139  28.3888554  68.7757054  21.6773023  29.4235105  68.0211651
  29.0744652  39.2237414  71.0265663  29.8048040  38.9622702  71.5873366
  28.4651597  38.4866136  71.0667730  27.1559949  37.3645276  71.6240114
  26.4293113  37.2301241  71.0156605  26.7407236  37.6722105  72.4296832
  14.9790125  41.0835206  79.3887487  15.8993135  41.2613805  79.5827533
  14.9439708  40.1391251  79.2367186  13.2794350  34.9567436  57.8641715
  12.3725805  34.6600549  57.9404429  13.5570331  34.6597254  56.9976001
   4.1972290  36.2773800  68.3140761   3.8775075  35.4239108  68.0215135
   3.6505719  36.4922378  69.0698729   7.9752198  38.9936241  72.0310268
   8.1938208  39.9253349  72.0498302   8.3877972  38.6344215  72.8165072
  14.8956416  29.5004326  64.0185956  14.0857144  29.1551411  64.3941202
  15.5840833  29.1911870  64.6073568  16.8246964  28.5782373  65.6410253
  17.3778003  28.9977826  66.3000276  17.0617050  27.6518121  65.6833209
  12.8480063  34.5669447  81.4213017  12.7476790  35.5163804  81.3525108
  12.6301605  34.2387685  80.5489087  12.0493135  31.8154372  58.0053694
  12.9112299  32.1409270  58.2649512  12.2343479  31.0285868  57.4926760
   4.0660550  39.8976711  70.2833883   3.3724022  39.4830664  69.7703837
   4.8133541  39.9397248  69.6867302  20.2025771  30.6882898  65.1488917
  19.6224440  31.3467702  64.7666970  19.9361704  29.8660243  64.7376335
  18.6529338  30.0887956  67.3510238  19.1529116  30.2004490  66.5424556
  19.2964945  29.7849009  67.9911046  12.7111333  37.9966585  80.2378078
  12.2278415  38.7966946  80.4441968  12.7972272  38.0074530  79.2845522
   5.9797293  39.8294965  68.1599898   5.9567981  39.9282652  67.2081781
   6.2897929  40.6760116  68.4817064   8.6384671  41.8871120  72.2746512
   9.5927924  41.8555062  72.2076444   8.4397194  41.4261744  73.0896738
   9.2284053  40.4572236  74.8417310  10.0476942  40.9516315  74.8652147
   9.5020861  39.5404204  74.8134877  18.9850649  32.8482988  64.2045265
  18.0976504  33.1332639  63.9865460  19.4004638  32.6876752  63.3572542
  22.3365185  32.8729509  67.9199605  23.1125575  33.3625962  68.1924222
  21.6113319  33.2987564  68.3771474  24.7737744  33.5857129  68.9773545
  25.3682235  33.3452865  68.2666854  24.8464328  32.8664259  69.6047082
   6.9934900  47.4290740  69.2916710   6.8589368  46.6691140  68.7254708
   6.5766962  48.1531639  68.8245499  18.1293863  42.6127663  58.2993285
  18.8329713  42.8177666  58.9150941  17.4056511  43.1804425  58.5642369
  18.9591673  38.3637524  64.4195556  18.9026874  38.8206076  63.5803188
  19.5120015  37.6028209  64.2418398  22.7696479  34.1527256  65.2445675
  22.5133413  33.7523892  66.0753883  22.1449347  34.8671050  65.1195814
  27.0808817  36.8923329  67.7516967  26.5208375  36.9616519  68.5248529
  26.4752320  36.7164314  67.0316463  10.1504025  48.3260057  69.5035153
  10.0336410  49.2705489  69.4013843   9.3296472  48.0233618  69.8920952
  20.0380560  43.0510192  60.3491745  20.8726164  42.6191391  60.1669220
  19.8764903  42.8792206  61.2768640  19.6926452  39.5542306  61.7148085
  19.6375256  39.3886577  60.7736529  19.0672507  40.2618339  61.8710274
   4.4818967  34.7910370  75.5409507   5.1277831  34.2809324  76.0296732
   4.2736118  35.5279052  76.1152932  17.0072359  41.8591217  81.0401648
  17.8763519  42.0331870  80.6788282  16.5279111  42.6785634  80.9177377
  13.0022578  29.0550415  61.2933403  12.9901248  29.9992255  61.4501674
  13.8946000  28.8720560  60.9992864  11.1758540  48.9788318  72.7191081
  12.0785786  49.0111929  73.0357576  10.9495910  48.0488769  72.7337417
  12.9312142  47.7319305  69.3801160  11.9807773  47.7321167  69.2665532
  13.2344628  46.9852040  68.8637194  16.8174697  25.6493191  65.5479340
  16.0507093  25.0951678  65.6936022  17.2285402  25.7215060  66.4093492
   8.8216458  31.9377987  79.6384521   9.6847920  31.5814792  79.8487846
   8.2481869  31.5991882  80.3259925  18.8805789  56.8693940  69.2089558
  19.6727081  56.5284764  68.7935858  19.1202439  56.9788915  70.1291712
  20.8396543  56.1302853  62.0806937  21.6127419  55.5831840  61.9419813
  21.1921942  56.9947102  62.2921399  23.1762821  52.2895519  59.7125387
  23.4288341  51.7677040  58.9508850  22.2387380  52.1261664  59.8152071
  22.8959110  54.1923625  61.9149762  22.7795368  53.5168528  62.5830846
  23.0061369  53.7055999  61.0981915  24.8796137  48.6823672  60.6157800
  25.0470540  49.5503908  60.9828271  24.6893307  48.8450953  59.6919089
  24.8585358  51.1381329  61.6004467  24.7384984  51.5838380  62.4389947
  24.1637947  51.4866647  61.0418005  18.4492763  53.2387721  69.1504124
  18.5785144  53.4922200  70.0643535  17.7690214  53.8315429  68.8308779
  30.5570424  51.6102802  62.4284801  31.4688281  51.8430189  62.2532498
  30.0480072  52.1939847  61.8659879  23.6536855  52.4526181  63.8938032
  24.3560898  52.9047225  64.3611959  23.3217483  51.8110000  64.5217925
  17.3962189  50.7109734  69.1955166  16.6061243  50.9667262  68.7195277
  17.8873436  51.5258072  69.3007206  19.3476934  51.0754313  66.1538643
  18.5508097  51.1873007  66.6722138  19.1202526  51.4140965  65.2879533
  15.6799892  50.9640224  71.6270157  15.9307930  51.8487234  71.8927733
  16.2159440  50.7844826  70.8545249  18.3460017  56.7842562  64.5428063
  18.8584537  57.5785812  64.6933627  18.9982730  56.0868852  64.4761664
  20.1554901  59.9008318  66.6250816  20.3321530  60.8226283  66.4371800
  20.9511735  59.5866737  67.0545196  21.2786217  61.4186492  72.6261158
  21.8293642  61.2903555  71.8538152  20.4397693  61.7181381  72.2756051
  16.3108934  55.1131216  65.3187633  17.1484156  55.5228225  65.1021341
  16.4887201  54.1730658  65.2887827  28.2073366  52.7806297  61.0071466
  27.6919989  53.5510902  61.2459854  27.9350674  52.1071433  61.6304528
  23.5662509  45.2441071  69.4714446  24.4315506  45.0483879  69.1120335
  23.6340018  45.0151422  70.3983803  27.9959669  50.6533389  62.8331247
  27.6909804  50.9679538  63.6841390  28.9490111  50.7314809  62.8758580
  21.4994415  49.5047740  60.8626698  20.6631728  49.8422426  61.1835973
  21.3599185  49.3696719  59.9253835  23.4747496  44.3484527  65.5705882
  22.8211908  44.0333545  64.9462497  23.4327970  43.7260268  66.2965705
  24.5858701  54.6303823  57.4859174  23.6785763  54.3993076  57.6850323
  25.0829733  53.8341442  57.6733156  27.4926780  63.3401330  60.4055860
  26.8188478  63.6433026  61.0140818  27.8792602  64.1430410  60.0561318
  27.4920284  52.2357877  65.0256210  28.2392103  52.7479274  64.7163332
  27.7611874  51.9141929  65.8860604  25.7646934  54.7316417  62.0083164
  24.8558154  54.4475450  62.1055634  25.7942018  55.1515496  61.1486471
  30.0410749  42.0491245  67.6016769  30.3469625  41.1888608  67.3142684
  30.7663353  42.6408865  67.4015763  16.3335105  52.4521932  65.9898367
  16.1359504  51.8591292  65.2649433  15.7781769  52.1474142  66.7074305
  25.4623022  56.2725161  59.3471243  25.0242452  55.5561020  58.8876880
  26.2033463  56.5001276  58.7856334  21.7438263  48.5340453  71.4844574
  22.3837642  48.3929212  70.7867537  20.9115794  48.2474967  71.1083176
  18.8281330  51.9785965  63.6739319  17.8978918  51.9170421  63.8909281
  18.9238802  51.4561918  62.8775960  18.7466879  48.5040778  66.2617560
  19.0073697  49.4186112  66.1526721  19.5684052  48.0365221  66.4114173
  20.2191805  49.9178535  73.4316385  20.8914858  49.7095898  72.7829034
  19.3921591  49.7200621  72.9921617  25.6917995  63.5081002  62.6202940
  25.8669751  63.0369045  63.4348562  25.0050783  64.1346768  62.8484200
  29.5834250  55.1309543  58.9403301  28.9663420  54.4056371  58.8436353
  29.1150738  55.8918903  58.5970375  21.3732796  49.3494967  58.0624605
  20.4962262  49.2283768  57.6986852  21.8490549  48.5581045  57.8103493
  12.8934936  54.1372127  68.1566112  13.5805976  53.8233857  67.5687127
  12.7383064  55.0413491  67.8833363  17.6969658  49.0262323  72.5851136
  17.6127847  48.4187993  71.8501546  16.8752364  49.5171342  72.5860632
  22.2817539  60.1130765  74.7748033  22.9826999  60.7467248  74.9277428
  21.8112654  60.4545496  74.0143673  17.8785257  59.6467120  71.7079136
  18.4638694  58.9010808  71.8407040  17.6810096  59.9571077  72.5915800
  12.4702912  52.2172720  70.4283579  12.5087011  51.6836311  71.2220697
  11.9643205  51.6907926  69.8094556  24.8729181  64.7162111  73.3224237
  25.4247489  64.8793732  74.0873322  25.2135374  65.3066549  72.6504262
  19.8493674  47.0637261  73.9246121  19.9135001  47.9252092  73.5123519
  19.7860794  46.4511262  73.1918480  16.1011489  50.9436822  63.5037510
  16.3964931  50.0347501  63.4504564  15.1999525  50.9224562  63.1818513
  19.6305736  49.0192819  69.4865059  18.9092322  49.6328787  69.3472532
  20.4198992  49.5550584  69.4081705  17.8299331  48.6250920  63.6276836
  17.5012037  47.7448299  63.4451942  18.1838702  48.5698589  64.5153225
  20.9441154  48.9123890  63.9952313  21.2837227  49.4409811  63.2730922
  21.3913275  49.2504296  64.7710880  23.6384595  47.2960940  73.4455381
  23.2981415  46.4968754  73.8476061  22.9323601  47.5962651  72.8732215
  24.2901067  44.3810253  71.8982704  25.1127136  43.9070731  71.7761595
  24.5339130  45.1600737  72.3981391  22.9309301  47.4098511  62.1945606
  23.6517664  47.7879764  61.6909323  22.3074605  48.1287388  62.2980584
  27.0740424  48.1143660  63.1303938  27.2904039  48.9968298  62.8292767
  26.5934491  47.7229874  62.4009580  16.2885308  53.6134718  72.6462344
  15.7438776  54.3894526  72.7782619  17.1664658  53.9605522  72.4881466
  23.0772924  46.9446302  65.0243143  23.1988836  46.0162948  65.2234030
  22.7874967  46.9584988  64.1121458  25.9464115  44.6301212  68.1609863
  25.9685812  44.6940545  67.2061842  26.3632174  43.7905721  68.3550369
  31.4583520  60.9186813  61.6795684  32.1534425  61.5393506  61.8982998
  31.8006671  60.0682164  61.9548062  17.0751330  52.7404614  75.5392501
  16.3333066  52.8887250  76.1257131  16.7544074  53.0012880  74.6759250
  25.0194992  62.2820592  75.3372891  25.3282119  62.0369739  76.2095591
  25.8170474  62.4867231  74.8491761  17.5207943  60.6270043  67.5702896
  18.3465963  60.3273815  67.1901539  17.1701995  59.8577665  68.0192684
  15.7216548  58.5456369  68.5291829  14.8848457  58.1178544  68.3475831
  15.6940194  58.7388813  69.4662620  19.8055616  54.5565612  64.1220099
  19.5601658  53.6527942  64.3200309  19.9751531  54.5582763  63.1799577
  19.0751264  50.2893970  61.6206260  18.3820509  50.3638325  60.9646296
  18.8303016  49.5254313  62.1427777  27.7464920  41.8489571  69.0245751
  28.0266674  41.1812760  69.6506177  28.5315527  42.0418667  68.5120415
  25.5498389  61.0248565  60.5870777  24.9772356  61.6438752  60.1341249
  26.1231183  61.5747927  61.1210699  28.7695649  61.3085715  61.7179360
  29.7026322  61.2431277  61.9212235  28.6818861  62.1441982  61.2593892
  31.3983665  60.6251585  58.6783307  31.3197297  60.2911449  59.5719065
  32.2193332  61.1173353  58.6774779  25.9345187  52.3609378  57.9286830
  26.8804292  52.2315586  57.9975248  25.5559432  51.6224040  58.4056258
  24.1188105  50.2859354  57.8641715  23.2119560  49.9892467  57.9404429
  24.3964086  49.9889172  56.9976001  15.0366045  51.6065717  68.3140761
  14.7168829  50.7531026  68.0215135  14.4899473  51.8214296  69.0698729
  25.7350170  44.8296244  64.0185956  24.9250899  44.4843329  64.3941202
  26.4234587  44.5203788  64.6073568  27.6640719  43.9074291  65.6410253
  28.2171757  44.3269744  66.3000276  27.9010805  42.9810039  65.6833209
  22.8886889  47.1446289  58.0053694  23.7506053  47.4701188  58.2649512
  23.0737233  46.3577785  57.4926760  14.9054305  55.2268629  70.2833883
  14.2117776  54.8122582  69.7703837  15.6527296  55.2689165  69.6867302
  16.8191047  55.1586883  68.1599898  16.7961736  55.2574570  67.2081781
  17.1291684  56.0052034  68.4817064  17.8328654  62.7582657  69.2916710
  17.6983122  61.9983058  68.7254708  17.4160716  63.4823557  68.8245499
  28.9687617  57.9419581  58.2993285  29.6723467  58.1469583  58.9150941
  28.2450266  58.5096343  58.5642369  30.8774315  58.3802110  60.3491745
  31.7119918  57.9483308  60.1669220  30.7158657  58.2084124  61.2768640
  30.5320207  54.8834223  61.7148085  30.4769011  54.7178495  60.7736529
  29.9066262  55.5910256  61.8710274  15.3212722  50.1202288  75.5409507
  15.9671585  49.6101242  76.0296732  15.1129873  50.8570969  76.1152932
  23.8416332  44.3842332  61.2933403  23.8295002  45.3284172  61.4501674
  24.7339754  44.2012478  60.9992864  22.0152294  64.3080236  72.7191081
  22.9179541  64.3403846  73.0357576  21.7889664  63.3780687  72.7337417
  27.6568452  40.9785109  65.5479340  26.8900847  40.4243596  65.6936022
  28.0679157  41.0506978  66.4093492  39.5058590  68.8971761  70.4446922
  40.1437000  68.7778508  69.7410262  39.3879433  69.8452605  70.5034874
  36.3148296  68.8499189  70.3808447  35.9766807  68.7340254  69.4928982
  37.1838064  68.4490354  70.3609453  32.1735112  70.7034666  66.3705338
  31.6099977  70.6124603  65.6021626  32.0587507  69.8834570  66.8507830
  36.7968079  70.0034041  76.3394652  36.7856720  69.6086839  75.4675156
  36.9588718  69.2700114  76.9328424  29.7199544  72.1985857  69.2089558
  30.5120835  71.8576682  68.7935858  29.9596194  72.3080832  70.1291712
  37.7534670  74.3705633  61.6819803  37.1022650  74.9559714  61.2953817
  38.5479033  74.9011828  61.7414840  31.6790297  71.4594770  62.0806937
  32.4521173  70.9123758  61.9419813  32.0315696  72.3239020  62.2921399
  33.5175340  72.7871153  75.2873836  33.2265206  73.6916784  75.1720503
  34.1532324  72.8287680  76.0017906  34.4431547  70.1648001  71.8775196
  35.0395119  69.9404024  71.1632159  34.5006518  69.4232747  72.4800644
  34.0156575  67.6187437  59.7125387  34.2682096  67.0968958  58.9508850
  33.0781134  67.4553582  59.8152071  39.2309935  72.0596065  62.2188787
  38.5955768  72.1330692  62.9309692  38.9007342  72.6489664  61.5407866
  44.4608285  66.5598448  68.4233109  45.1933457  65.9897665  68.6570938
  43.7047641  66.1720049  68.8639614  33.7352864  69.5215543  61.9149762
  33.6189122  68.8460446  62.5830846  33.8455124  69.0347916  61.0981915
  36.0784405  68.9825690  65.6196451  35.7142612  68.4556311  66.3309373
  36.9351521  68.5924159  65.4462937  35.7189892  64.0115589  60.6157800
  35.8864294  64.8795826  60.9828271  35.5287061  64.1742871  59.6919089
  38.4765225  72.4732568  72.2823630  38.1765948  73.3757607  72.1739437
  38.1316285  72.2064751  73.1344783  31.9277707  68.9246365  68.3160335
  31.0028203  68.7922579  68.5238026  32.1762120  69.7040584  68.8130277
  35.6979113  66.4673247  61.6004467  35.5778738  66.9130298  62.4389947
  35.0031701  66.8158565  61.0418005  29.2886518  68.5679639  69.1504124
  29.4178899  68.8214118  70.0643535  28.6083969  69.1607347  68.8308779
  33.4586005  79.2376889  65.2494598  33.3810035  80.1884714  65.3283078
  32.8547649  78.8922761  65.9069524  35.9503235  66.4104754  77.9055965
  35.1736569  66.9698674  77.8958829  36.5893798  66.8961537  78.4270835
  41.3964179  66.9394720  62.4284801  42.3082035  67.1722107  62.2532498
  40.8873826  67.5231764  61.8659879  34.2049607  69.2190207  77.4673932
  34.9464291  69.7575251  77.1908755  33.4986592  69.8456496  77.6245484
  39.6804947  71.3619348  76.0646093  40.0888303  70.9201758  75.3200726
  38.9582208  70.7871975  76.3180286  36.0336017  66.2991955  73.4379650
  36.8797212  66.7231368  73.5814299  35.9734654  65.6425579  74.1318213
  40.0033761  71.9220538  69.8198382  39.3742624  72.0866253  69.1174450
  39.6159423  72.3362148  70.5909346  43.8822993  72.8574976  67.1742746
  43.1974031  73.2373878  66.6239779  43.9666842  73.4670303  67.9074694
  41.1373925  70.5034935  73.7738089  41.3490820  71.1466695  73.0972470
  41.0903673  69.6697252  73.3060019  35.5561723  71.6594947  67.0848467
  36.0200069  71.9382650  66.2953090  35.2918521  70.7578391  66.9021558
  32.4485804  71.2066428  70.0228230  33.0187161  71.6353696  69.3845715
  33.0393916  70.9249013  70.7212416  34.4930609  67.7818099  63.8938032
  35.1954653  68.2339143  64.3611959  34.1611238  67.1401918  64.5217925
  32.9410971  66.3729856  78.2689242  32.3109631  67.0546136  78.5024639
  32.8347059  66.2612937  77.3242380  42.2519753  73.3806891  71.9460447
  43.0737196  72.9787078  71.6643128  42.2482156  73.2775125  72.8976563
  30.1870689  66.4046231  66.1538643  29.3901852  66.5164925  66.6722138
  29.9596281  66.7432883  65.2879533  36.0176356  72.9290934  74.1021157
  36.0820789  73.3911341  74.9379329  35.3087280  72.2988299  74.2303467
  50.3425746  69.7245639  68.2945418  49.5889454  69.1553037  68.1389423
  50.4773287  69.6908304  69.2416053  35.7324374  74.5959042  63.9700138
  35.5970049  75.4410577  64.3984985  36.2734186  74.7978319  63.2066071
  29.1853771  72.1134480  64.5428063  29.6978292  72.9077730  64.6933627
  29.8376484  71.4160770  64.4761664  30.9948656  75.2300236  66.6250816
  31.1715284  76.1518201  66.4371800  31.7905489  74.9158655  67.0545196
  30.2801012  67.2764868  76.5012979  30.1654528  66.3750125  76.8020078
  29.4245530  67.5228565  76.1497796  37.3592850  75.2182608  78.1000480
  36.9156704  74.4318987  77.7821384  38.0210064  75.4061759  77.4344370
  32.1179971  76.7478410  72.6261158  32.6687397  76.6195473  71.8538152
  31.2791447  77.0473299  72.2756051  39.4574088  75.4985408  76.1281881
  39.4392564  76.3194289  75.6362150  40.3794008  75.3739483  76.3532022
  35.9147142  73.0129537  76.9705389  36.4475479  72.2517826  76.7404697
  35.3861224  72.7203189  77.7129544  27.1502688  70.4423134  65.3187633
  27.9877910  70.8520142  65.1021341  27.3280956  69.5022576  65.2887827
  39.0467120  68.1098215  61.0071466  38.5313744  68.8802819  61.2459854
  38.7744429  67.4363351  61.6304528  44.0201394  70.8630569  62.9424640
  43.2430837  70.5241729  62.4979802  44.6992875  70.8683192  62.2679605
  38.8353423  65.9825307  62.8331247  38.5303559  66.2971456  63.6841390
  39.7883865  66.0606727  62.8758580  37.2799855  72.1415530  64.4824201
  36.7521217  71.4068290  64.1697439  36.7787358  72.9190206  64.2364170
  42.2592701  70.3364550  69.5991248  41.6016376  71.0263812  69.6871376
  43.0633100  70.7260982  69.9425234  41.0698160  68.6908923  67.6495189
  41.5830042  69.3238915  68.1516899  41.7199384  68.0910119  67.2838549
  32.3388170  64.8339657  60.8626698  31.5025482  65.1714344  61.1835973
  32.1992940  64.6988637  59.9253835  35.4252455  69.9595740  57.4859174
  34.5179517  69.7284994  57.6850323  35.9223487  69.1633359  57.6733156
  38.3320534  78.6693247  60.4055860  37.6582233  78.9724944  61.0140818
  38.7186356  79.4722328  60.0561318  38.3314039  67.5649794  65.0256210
  39.0785858  68.0771192  64.7163332  38.6005628  67.2433847  65.8860604
  36.6040689  70.0608335  62.0083164  35.6951908  69.7767368  62.1055634
  36.6335773  70.4807414  61.1486471  41.8359956  73.6714925  65.7774332
  41.3822283  72.8305834  65.8339522  41.2053923  74.3076323  66.1149112
  40.2792895  75.5091421  66.7124150  40.5715870  76.0696478  65.9936516
  40.7891516  75.8019982  67.4677309  36.3016777  71.6017079  59.3471243
  35.8636206  70.8852938  58.8876880  37.0427217  71.8293194  58.7856334
  35.2426521  76.2871772  67.8017603  35.2002699  76.5132619  66.8726135
  36.1589219  76.0535147  67.9503404  44.4189891  69.8774276  65.4047562
  44.2807790  70.0675872  64.4768751  44.0626110  70.6393659  65.8615613
  44.4459271  71.9450803  70.4158833  44.8795778  71.8526092  71.2641887
  45.1590852  71.9208303  69.7778849  33.3592321  73.1634801  67.5979566
  34.1532920  72.6685122  67.3962141  32.6484014  72.6352665  67.2347272
  38.1787166  75.5452897  71.9491934  38.2324188  76.1143833  72.7169650
  37.3101947  75.7154782  71.5845971  29.6675085  67.3077883  63.6739319
  28.7372673  67.2462339  63.8909281  29.7632557  66.7853836  62.8775960
  31.0585559  65.2470453  73.4316385  31.7308613  65.0387815  72.7829034
  30.2315346  65.0492539  72.9921617  45.3074821  71.9874503  72.9491718
  45.5010711  72.8920314  73.1950993  45.2075439  71.5281923  73.7830303
  40.3689929  72.1381246  78.5232599  40.2175436  71.9091798  77.6062683
  40.3594609  73.0951848  78.5363944  37.1375266  69.7113159  73.5078865
  38.0667326  69.8624319  73.3347833  36.7166296  69.7997180  72.6527512
  35.9363597  73.7363823  71.2777403  35.7974683  73.3682608  72.1503341
  35.1478194  74.2511463  71.1061361  36.5311749  78.8372920  62.6202940
  36.7063505  78.3660963  63.4348562  35.8444537  79.4638686  62.8484200
  37.4868813  73.1145426  68.6666241  37.1518645  73.0746196  69.5623891
  36.9872758  72.4490142  68.1936651  31.4613056  68.5213056  74.1918822
  31.3232854  67.7893295  74.7930361  32.3717980  68.4321956  73.9103010
  40.4228004  70.4601460  58.9403301  39.8057175  69.7348289  58.8436353
  39.9544493  71.2210821  58.5970375  34.0895357  68.2333015  73.6802502
  34.7994976  67.5926208  73.6389120  34.0464665  68.4845910  74.6028682
  42.0782136  75.1700369  76.6009081  42.0194682  74.4859589  75.9339664
  42.4801654  75.9119359  76.1489707  31.0972835  81.9862283  69.3942800
  31.3369433  82.6180807  70.0721818  30.2542031  81.6350323  69.6808159
  32.2126550  64.6786885  58.0624605  31.3356016  64.5575685  57.6986852
  32.6884303  63.8872963  57.8103493  42.0799543  73.1339953  74.8323061
  41.1926322  72.7965874  74.9549459  42.6498094  72.4022984  75.0691826
  28.5363412  64.3554241  72.5851136  28.4521601  63.7479911  71.8501546
  27.7146119  64.8463259  72.5860632  35.6100697  77.7941405  71.7984304
  35.5370868  78.5996377  72.3103608  35.1678090  77.9933371  70.9732325
  35.3990476  77.0313175  65.3087125  34.6157998  77.5734855  65.4025350
  36.0983221  77.5487155  65.7081367  46.5616884  68.5448170  69.5939622
  46.5506760  69.4272885  69.2233555  45.6934263  68.1919721  69.3994159
  38.0699380  77.6928239  73.9542462  38.7827352  78.3275704  73.8818364
  37.5789409  77.7892105  73.1382464  39.7916907  71.5979492  65.5259754
  38.8573186  71.7180954  65.3564458  39.9693575  70.6951959  65.2619764
  43.1789458  67.4396811  66.0609788  43.6449910  68.2724803  65.9870091
  43.6296959  66.9741793  66.7655047  33.1211294  75.4422683  74.7748033
  33.8220753  76.0759166  74.9277428  32.6506409  75.7837414  74.0143673
  41.2465689  73.7840632  63.0595940  41.5225533  73.6697227  63.9689814
  40.3770188  73.3858117  63.0208113  40.9212580  67.9967290  72.6000584
  40.2684030  68.2443197  71.9453036  41.2992959  67.1831428  72.2663061
  37.8819753  78.0326983  66.7028754  38.0642148  77.2148639  67.1656506
  38.7052739  78.2494675  66.2653644  38.2161919  76.9595168  63.9643802
  38.7449685  76.4487623  63.3513965  38.4790138  76.6437699  64.8289335
  36.9700153  68.7387101  79.0866621  36.2940790  68.6381230  79.7568996
  37.7927786  68.5826315  79.5502618  28.7179012  74.9759038  71.7079136
  29.3032448  74.2302725  71.8407040  28.5203850  75.2862994  72.5915800
  31.5717667  78.0110285  66.7241578  30.9028042  78.4956413  66.2405618
  31.4330537  78.2579505  67.6384957  35.7122935  80.0454028  73.3224237
  36.2641243  80.2085650  74.0873322  36.0529129  80.6358466  72.6504262
  40.5633810  74.8715286  79.1772891  41.1073714  75.4845244  78.6827846
  39.9820655  75.4294864  79.6939904  26.9405244  66.2728740  63.5037510
  27.2358685  65.3639418  63.4504564  26.0393280  66.2516479  63.1818513
  38.8491323  77.9936004  70.3087919  38.7242462  77.1925744  69.7998864
  39.5070414  78.4882197  69.8201889  40.9126231  75.7945024  71.9367469
  39.9656567  75.6750375  71.8645796  41.2609004  74.9067522  72.0193730
  37.9172664  75.5897740  68.1371821  37.7697627  74.6614448  68.3179391
  38.7426158  75.6117831  67.6528896  41.5206786  76.4126299  69.2236694
  42.4453334  76.2069160  69.0861145  41.3522090  76.1642700  70.1326035
  41.3102102  76.9311966  64.5798785  41.4838980  76.3658389  63.8272638
  41.8030994  77.7312861  64.3978275  27.1279062  68.9426636  72.6462344
  26.5832530  69.7186444  72.7782619  28.0058412  69.2897440  72.4881466
  47.1641494  69.6948389  66.1989085  47.6072640  68.9455715  65.8008208
  46.2868004  69.6858526  65.8162817  42.2977275  76.2478731  61.6795684
  42.9928180  76.8685424  61.8982998  42.6400425  75.3974082  61.9548062
  27.9145084  68.0696532  75.5392501  27.1726820  68.2179167  76.1257131
  27.5937828  68.3304797  74.6759250  44.1968698  73.6978436  63.2083014
  44.7220022  74.0365709  62.4832334  44.1091051  72.7625452  63.0246149
  35.8588747  77.6112510  75.3372891  36.1675873  77.3661657  76.2095591
  36.6564229  77.8159149  74.8491761  35.8809359  79.7650420  67.5678268
  35.4414349  79.2726798  68.2611124  36.6317476  79.2223387  67.3270343
  28.3601698  75.9561961  67.5702896  29.1859718  75.6565732  67.1901539
  28.0095750  75.1869583  68.0192684  33.3283231  75.3088429  69.6400569
  32.7063240  74.6459134  69.3402797  33.9988098  75.3349561  68.9574217
  26.5610303  73.8748287  68.5291829  25.7242211  73.4470461  68.3475831
  26.5333948  74.0680730  69.4662620  43.8862604  74.3311340  78.5134212
  43.0958148  74.3135479  77.9738712  43.6495959  74.8699634  79.2683249
  44.0060479  71.1803806  75.8266941  44.0558484  71.0153814  76.7682464
  43.8974403  70.3131065  75.4364822  32.8896738  73.8592352  63.1159030
  33.0384858  74.5427817  62.4625703  33.6963181  73.8397442  63.6308486
  45.5078676  73.6000748  76.0708962  45.2163484  73.9630729  76.9072423
  44.8950807  72.8867756  75.8922295  46.7074358  71.1653628  68.5911533
  47.5421250  71.6043432  68.7549093  46.8433487  70.6892281  67.7719778
  43.7565864  68.7233363  74.5389020  44.2319986  68.9161009  73.7307872
  42.8331430  68.7792548  74.2932404  30.6449371  69.8857530  64.1220099
  30.3995413  68.9819860  64.3200309  30.8145285  69.8874680  63.1799577
  29.9145018  65.6185887  61.6206260  29.2214263  65.6930242  60.9646296
  29.6696770  64.8546231  62.1427777  36.3892143  76.3540483  60.5870777
  35.8166110  76.9730670  60.1341249  36.9624937  76.9039844  61.1210699
  39.6089403  76.6377633  61.7179360  40.5420076  76.5723194  61.9212235
  39.5212616  77.4733900  61.2593892  42.2377420  75.9543503  58.6783307
  42.1591051  75.6203367  59.5719065  43.0587087  76.4465271  58.6774779
  44.9355611  68.8205242  71.8859626  44.9031931  67.8821243  72.0719310
  45.5456235  68.8989279  71.1525451  36.7738942  67.6901295  57.9286830
  37.7198047  67.5607503  57.9975248  36.3953187  66.9515957  58.4056258
  50.7532161  69.8821249  71.0265663  51.4835549  69.6206537  71.5873366
  50.1439106  69.1449971  71.0667730  36.6577634  71.7419041  79.3887487
  37.5780644  71.9197640  79.5827533  36.6227217  70.7975087  79.2367186
  34.9581859  65.6151272  57.8641715  34.0513314  65.3184384  57.9404429
  35.2357840  65.3181090  56.9976001  29.6539707  69.6520076  72.0310268
  29.8725717  70.5837184  72.0498302  30.0665481  69.2928051  72.8165072
  33.7280644  62.4738207  58.0053694  34.5899808  62.7993105  58.2649512
  33.9130988  61.6869703  57.4926760  25.7448059  70.5560547  70.2833883
  25.0511531  70.1414499  69.7703837  26.4921050  70.5981083  69.6867302
  34.3898842  68.6550421  80.2378078  33.9065924  69.4550781  80.4441968
  34.4759781  68.6658366  79.2845522  27.6584802  70.4878800  68.1599898
  27.6355490  70.5866488  67.2081781  27.9685438  71.3343951  68.4817064
  30.3172180  72.5454955  72.2746512  31.2715433  72.5138898  72.2076444
  30.1184703  72.0845579  73.0896738  30.9071562  71.1156071  74.8417310
  31.7264451  71.6100150  74.8652147  31.1808370  70.1988040  74.8134877
  28.6722409  78.0874575  69.2916710  28.5376877  77.3274976  68.7254708
  28.2554471  78.8115475  68.8245499  39.8081372  73.2711498  58.2993285
  40.5117222  73.4761501  58.9150941  39.0844020  73.8388260  58.5642369
  40.6379182  69.0221360  64.4195556  40.5814383  69.4789911  63.5803188
  41.1907524  68.2612044  64.2418398  31.8291534  78.9843892  69.5035153
  31.7123919  79.9289324  69.4013843  31.0083981  78.6817454  69.8920952
  41.7168069  73.7094028  60.3491745  42.5513673  73.2775226  60.1669220
  41.5552412  73.5376041  61.2768640  41.3713961  70.2126141  61.7148085
  41.3162765  70.0470412  60.7736529  40.7460016  70.9202174  61.8710274
  26.1606476  65.4494205  75.5409507  26.8065340  64.9393159  76.0296732
  25.9523627  66.1862887  76.1152932  38.6859868  72.5175053  81.0401648
  39.5551028  72.6915705  80.6788282  38.2066620  73.3369470  80.9177377
  32.8546049  79.6372154  72.7191081  33.7573295  79.6695764  73.0357576
  32.6283419  78.7072605  72.7337417  34.6099651  78.3903140  69.3801160
  33.6595282  78.3905002  69.2665532  34.9132137  77.6435875  68.8637194
  50.3452344  84.2263679  70.4446922  50.9830754  84.1070426  69.7410262
  50.2273187  85.1744523  70.5034874  47.1542050  84.1791107  70.3808447
  46.8160562  84.0632172  69.4928982  48.0231819  83.7782272  70.3609453
  47.6361833  85.3325959  76.3394652  47.6250474  84.9378757  75.4675156
  47.7982473  84.5992031  76.9328424  40.5593298  87.5277775  69.2089558
  41.3514590  87.1868600  68.7935858  40.7989948  87.6372750  70.1291712
  42.5184052  86.7886688  62.0806937  43.2914928  86.2415675  61.9419813
  42.8709451  87.6530937  62.2921399  44.3569095  88.1163070  75.2873836
  44.0658961  89.0208701  75.1720503  44.9926079  88.1579598  76.0017906
  45.2825301  85.4939919  71.8775196  45.8788874  85.2695941  71.1632159
  45.3400273  84.7524664  72.4800644  49.8993613  81.9515133  67.5200130
  50.6856702  81.5334556  67.1690547  50.1632317  82.8561225  67.6881779
  40.1280272  83.8971556  69.1504124  40.2572653  84.1506035  70.0643535
  39.4477723  84.4899264  68.8308779  44.2979759  94.5668806  65.2494598
  44.2203789  95.5176631  65.3283078  43.6941403  94.2214679  65.9069524
  46.7896989  81.7396672  77.9055965  46.0130323  82.2990592  77.8958829
  47.4287552  82.2253455  78.4270835  45.0443361  84.5482125  77.4673932
  45.7858046  85.0867169  77.1908755  44.3380347  85.1748414  77.6245484
  46.8729771  81.6283872  73.4379650  47.7190966  82.0523286  73.5814299
  46.8128409  80.9717497  74.1318213  49.5793908  78.4444674  70.6774662
  48.7178387  78.7425927  70.9691399  49.6056343  78.6615073  69.7455694
  43.7804725  81.7021773  78.2689242  43.1503386  82.3838054  78.5024639
  43.6740813  81.5904855  77.3242380  39.0749698  81.3693569  69.1955166
  38.2848752  81.6251098  68.7195277  39.5660945  82.1841907  69.3007206
  41.0264443  81.7338149  66.1538643  40.2295606  81.8456843  66.6722138
  40.7990035  82.0724801  65.2879533  46.8570111  88.2582852  74.1021157
  46.9214543  88.7203259  74.9379329  46.1481035  87.6280217  74.2303467
  37.3587401  81.6224060  71.6270157  37.6095439  82.5071070  71.8927733
  37.8946949  81.4428661  70.8545249  43.0585468  76.0042539  80.6314493
  42.6652414  75.4508738  81.3062137  43.8751608  76.3153118  81.0221010
  40.0247526  87.4426397  64.5428063  40.5372046  88.2369648  64.6933627
  40.6770239  86.7452688  64.4761664  41.8342410  90.5592154  66.6250816
  42.0109039  91.4810118  66.4371800  42.6299244  90.2450573  67.0545196
  45.9753429  77.4200418  78.2234749  46.7163142  78.0207571  78.1439212
  46.2071352  76.6778056  77.6652792  41.1194767  82.6056785  76.5012979
  41.0048282  81.7042043  76.8020078  40.2639285  82.8520482  76.1497796
  48.1986605  90.5474526  78.1000480  47.7550459  89.7610904  77.7821384
  48.8603818  90.7353676  77.4344370  42.9573726  92.0770327  72.6261158
  43.5081151  91.9487391  71.8538152  42.1185202  92.3765216  72.2756051
  50.2967843  90.8277326  76.1281881  50.2786318  91.6486207  75.6362150
  51.2187763  90.7031401  76.3532022  46.7540897  88.3421455  76.9705389
  47.2869234  87.5809743  76.7404697  46.2254978  88.0495107  77.7129544
  49.9210592  73.4481521  72.4999031  49.5774861  74.3383163  72.4238142
  50.2889554  73.2583179  71.6368616  37.9896442  85.7715052  65.3187633
  38.8271664  86.1812060  65.1021341  38.1674710  84.8314494  65.2887827
  47.4707986  78.2839833  66.0656704  46.6149582  77.8946683  65.8862343
  47.8834937  78.3631794  65.2056490  49.0007132  75.8186176  70.4648264
  48.4971928  75.7816311  69.6516070  49.2937739  76.7278919  70.5244921
  45.2450018  75.9024906  69.4714446  46.1103015  75.7067715  69.1120335
  45.3127527  75.6735258  70.3983803  42.8512337  78.1327114  66.8430813
  43.4256089  77.9102295  66.1104006  43.4383320  78.2015808  67.5959414
  43.1781924  80.1631575  60.8626698  42.3419237  80.5006261  61.1835973
  43.0386694  80.0280555  59.9253835  45.1535005  75.0068363  65.5705882
  44.4999417  74.6917380  64.9462497  45.1115479  74.3844103  66.2965705
  48.3872745  81.4950296  69.8953530  47.4695307  81.7165243  69.7375218
  48.8032889  81.5696607  69.0365237  51.7198258  72.7075080  67.6016769
  52.0257134  71.8472444  67.3142684  52.4450862  73.2992700  67.4015763
  38.0122614  83.1105767  65.9898367  37.8147013  82.5175128  65.2649433
  37.4569278  82.8057977  66.7074305  43.4225772  79.1924289  71.4844574
  44.0625151  79.0513048  70.7867537  42.5903303  78.9058802  71.1083176
  40.5068839  82.6369801  63.6739319  39.5766427  82.5754256  63.8909281
  40.6026311  82.1145754  62.8775960  40.4254388  79.1624614  66.2617560
  40.6861206  80.0769947  66.1526721  41.2471561  78.6949056  66.4114173
  41.8979314  80.5762371  73.4316385  42.5702367  80.3679733  72.7829034
  41.0709100  80.3784457  72.9921617  47.8004886  77.2024312  75.4482046
  47.1532801  77.9014261  75.3546522  48.5705901  77.6360456  75.8158294
  51.2083684  87.4673164  78.5232599  51.0569190  87.2383716  77.6062683
  51.1988363  88.4243765  78.5363944  47.9769020  85.0405077  73.5078865
  48.9061080  85.1916236  73.3347833  47.5560050  85.1289097  72.6527512
  47.3705504  94.1664838  62.6202940  47.5457260  93.6952881  63.4348562
  46.6838292  94.7930604  62.8484200  42.3006811  83.8504974  74.1918822
  42.1626609  83.1185213  74.7930361  43.2111734  83.7613874  73.9103010
  44.9289112  83.5624933  73.6802502  45.6388730  82.9218125  73.6389120
  44.8858420  83.8137828  74.6028682  52.9175890  90.4992286  76.6009081
  52.8588436  89.8151507  75.9339664  53.3195409  91.2411276  76.1489707
  43.6418046  80.5490151  75.4998141  43.1055403  80.0980889  76.1519738
  43.0534754  80.6836060  74.7568606  41.9366589  97.3154200  69.3942800
  42.1763187  97.9472724  70.0721818  41.0935786  96.9642240  69.6808159
  43.0520305  80.0078802  58.0624605  42.1749771  79.8867603  57.6986852
  43.5278058  79.2164881  57.8103493  52.9193298  88.4631870  74.8323061
  52.0320076  88.1257792  74.9549459  53.4891849  87.7314902  75.0691826
  34.5722445  84.7955962  68.1566112  35.2593485  84.4817692  67.5687127
  34.4170573  85.6997327  67.8833363  39.3757167  79.6846159  72.5851136
  39.2915356  79.0771828  71.8501546  38.5539873  80.1755177  72.5860632
  46.4494451  93.1233323  71.7984304  46.3764622  93.9288294  72.3103608
  46.0071844  93.3225289  70.9732325  49.5480881  78.1699722  67.9521331
  50.0449580  77.4169685  67.6322401  48.7767862  78.2064039  67.3864540
  48.9093135  93.0220157  73.9542462  49.6221107  93.6567622  73.8818364
  48.4183163  93.1184023  73.1382464  46.1315849  80.3117105  67.6793015
  45.7613637  79.7588146  68.3673921  46.6274942  79.7075239  67.1268015
  43.9605048  90.7714600  74.7748033  44.6614508  91.4051083  74.9277428
  43.4900163  91.1129332  74.0143673  47.8093907  84.0679019  79.0866621
  47.1334544  83.9673148  79.7568996  48.6321541  83.9118232  79.5502618
  39.5572766  90.3050955  71.7079136  40.1426203  89.5594643  71.8407040
  39.3597605  90.6154912  72.5915800  42.4111421  93.3402203  66.7241578
  41.7421797  93.8248330  66.2405618  42.2724291  93.5871423  67.6384957
  34.1490421  82.8756555  70.4283579  34.1874520  82.3420146  71.2220697
  33.6430714  82.3491761  69.8094556  46.5516690  95.3745946  73.3224237
  47.1034998  95.5377568  74.0873322  46.8922883  95.9650384  72.6504262
  41.5281183  77.7221096  73.9246121  41.5922510  78.5835927  73.5123519
  41.4648303  77.1095098  73.1918480  41.0033456  79.7944229  77.5719156
  41.6305494  79.4121306  78.1856680  40.1461375  79.5758430  77.9374848
  51.4027564  90.2007204  79.1772891  51.9467468  90.8137162  78.6827846
  50.8214409  90.7586782  79.6939904  37.7798998  81.6020658  63.5037510
  38.0752440  80.6931336  63.4504564  36.8787034  81.5808397  63.1818513
  41.3093245  79.6776654  69.4865059  40.5879831  80.2912622  69.3472532
  42.0986501  80.2134419  69.4081705  44.1119559  77.0131081  75.7605711
  44.6353961  77.2593377  76.5232020  43.8931892  77.8451116  75.3408848
  39.5086840  79.2834755  63.6276836  39.1799546  78.4032134  63.4451942
  39.8626211  79.2282424  64.5153225  42.6228663  79.5707725  63.9952313
  42.9624736  80.0993646  63.2730922  43.0700784  79.9088131  64.7710880
  45.3172104  77.9544776  73.4455381  44.9768924  77.1552589  73.8476061
  44.6111110  78.2546487  72.8732215  45.9688576  75.0394088  71.8982704
  46.7914645  74.5654566  71.7761595  46.2126639  75.8184572  72.3981391
  44.6096810  78.0682347  62.1945606  45.3305173  78.4463599  61.6909323
  43.9862114  78.7871223  62.2980584  43.4927155  81.7313209  69.7074683
  43.3471735  82.0453512  70.5998965  43.0152358  82.3498109  69.1545582
  45.3523537  78.7215757  69.7555573  45.3385106  77.8256850  69.4187871
  46.0695966  78.7286421  70.3893859  47.2049668  79.1553097  71.8008700
  46.9467446  80.0770168  71.7993030  46.6734709  78.7583532  72.4909164
  37.9672817  84.2718553  72.6462344  37.4226285  85.0478361  72.7782619
  38.8452167  84.6189358  72.4881466  44.7560433  77.6030137  65.0243143
  44.8776345  76.6746783  65.2234030  44.4662476  77.6168823  64.1121458
  47.6251624  75.2885048  68.1609863  47.6473321  75.3524381  67.2061842
  48.0419683  74.4489556  68.3550369  38.7538839  83.3988450  75.5392501
  38.0120575  83.5471085  76.1257131  38.4331583  83.6596715  74.6759250
  46.6982501  92.9404428  75.3372891  47.0069628  92.6953575  76.2095591
  47.4957983  93.1451066  74.8491761  46.7203113  95.0942337  67.5678268
  46.2808104  94.6018716  68.2611124  47.4711230  94.5515305  67.3270343
  39.1995452  91.2853878  67.5702896  40.0253472  90.9857650  67.1901539
  38.8489504  90.5161501  68.0192684  44.1676985  90.6380346  69.6400569
  43.5456995  89.9751052  69.3402797  44.8381852  90.6641478  68.9574217
  37.4004057  89.2040205  68.5291829  36.5635966  88.7762379  68.3475831
  37.3727703  89.3972648  69.4662620  44.2401513  79.1162135  79.2333075
  44.2889668  79.9924257  78.8510845  44.7824027  78.5739528  78.6604719
  54.7256359  89.6603258  78.5134212  53.9351902  89.6427397  77.9738712
  54.4889713  90.1991551  79.2683249  43.7290492  89.1884270  63.1159030
  43.8778613  89.8719734  62.4625703  44.5356936  89.1689360  63.6308486
  46.4700801  79.8693507  75.9879434  45.6004111  80.1627073  75.7162023
  46.7060282  80.4533952  76.7086698  49.1739835  76.0873124  73.5044854
  49.6921779  76.8234151  73.1791343  48.8194968  76.3937117  74.3391613
  40.7538773  80.9477805  61.6206260  40.0608018  81.0222160  60.9646296
  40.5090525  80.1838149  62.1427777  49.4252429  72.5073406  69.0245751
  49.7054183  71.8396595  69.6506177  50.2103036  72.7002502  68.5120415
  47.4971389  87.0710959  79.3887487  48.4174398  87.2489558  79.5827533
  47.4620972  86.1267005  79.2367186  36.7153554  82.2649553  68.3140761
  36.3956338  81.4114861  68.0215135  36.1686982  82.4798131  69.0698729
  40.4933461  84.9811994  72.0310268  40.7119471  85.9129102  72.0498302
  40.9059235  84.6219968  72.8165072  47.4137679  75.4880079  64.0185956
  46.6038408  75.1427164  64.3941202  48.1022096  75.1787623  64.6073568
  49.3428228  74.5658126  65.6410253  49.8959266  74.9853579  66.3000276
  49.5798314  73.6393874  65.6833209  45.3661327  80.5545200  81.4213017
  45.2658054  81.5039557  81.3525108  45.1482869  80.2263438  80.5489087
  44.5674398  77.8030125  58.0053694  45.4293562  78.1285023  58.2649512
  44.7524742  77.0161621  57.4926760  36.5841814  85.8852464  70.2833883
  35.8905285  85.4706417  69.7703837  37.3314805  85.9273001  69.6867302
  52.7207035  76.6758651  65.1488917  52.1405704  77.3343455  64.7666970
  52.4542967  75.8535996  64.7376335  51.1710601  76.0763709  67.3510238
  51.6710379  76.1880243  66.5424556  51.8146209  75.7724762  67.9911046
  45.2292597  83.9842338  80.2378078  44.7459679  84.7842699  80.4441968
  45.3153536  83.9950283  79.2845522  38.4978556  85.8170718  68.1599898
  38.4749245  85.9158405  67.2081781  38.8079193  86.6635869  68.4817064
  41.1565934  87.8746873  72.2746512  42.1109188  87.8430815  72.2076444
  40.9578458  87.4137497  73.0896738  41.7465316  86.4447989  74.8417310
  42.5658205  86.9392068  74.8652147  42.0202124  85.5279957  74.8134877
  39.5116163  93.4166493  69.2916710  39.3770631  92.6566893  68.7254708
  39.0948225  94.1407392  68.8245499  42.6685289  94.3135810  69.5035153
  42.5517673  95.2581242  69.4013843  41.8477735  94.0109371  69.8920952
  37.0000231  80.7786123  75.5409507  37.6459094  80.2685077  76.0296732
  36.7917382  81.5154805  76.1152932  49.5253623  87.8466971  81.0401648
  50.3944782  88.0207623  80.6788282  49.0460374  88.6661387  80.9177377
  45.5203841  75.0426168  61.2933403  45.5082511  75.9868008  61.4501674
  46.4127263  74.8596313  60.9992864  43.6939803  94.9664072  72.7191081
  44.5967050  94.9987682  73.0357576  43.4677173  94.0364522  72.7337417
  45.4493405  93.7195058  69.3801160  44.4989036  93.7196920  69.2665532
  45.7525891  92.9727793  68.8637194  49.3355961  71.6368944  65.5479340
  48.5688356  71.0827431  65.6936022  49.7466666  71.7090813  66.4093492
  41.3397722  77.9253740  79.6384521  42.2029183  77.5690545  79.8487846
  40.7663132  77.5867635  80.3259925  57.9935805  99.5083025  70.3808447
  57.6554316  99.3924089  69.4928982  58.8625573  99.1074190  70.3609453
  58.4755588 100.6617876  76.3394652  58.4644229 100.2670675  75.4675156
  58.6376227  99.9283949  76.9328424  55.1962849 103.4454988  75.2873836
  54.9052715 104.3500619  75.1720503  55.8319833 103.4871516  76.0017906
  56.1219056 100.8231837  71.8775196  56.7182628 100.5987859  71.1632159
  56.1794027 100.0816582  72.4800644  60.1552734 103.1316404  72.2823630
  59.8553457 104.0341442  72.1739437  59.8103794 102.8648587  73.1344783
  55.1373514 109.8960724  65.2494598  55.0597544 110.8468549  65.3283078
  54.5335157 109.5506596  65.9069524  57.6290744  97.0688589  77.9055965
  56.8524078  97.6282510  77.8958829  58.2681307  97.5545372  78.4270835
  55.8837116  99.8774043  77.4673932  56.6251800 100.4159087  77.1908755
  55.1774101 100.5040331  77.6245484  61.3592456 102.0203183  76.0646093
  61.7675812 101.5785594  75.3200726  60.6369717 101.4455811  76.3180286
  57.7123526  96.9575790  73.4379650  58.5584721  97.3815204  73.5814299
  57.6522163  96.3009414  74.1318213  62.8161434 101.1618771  73.7738089
  63.0278329 101.8050531  73.0972470  62.7691182 100.3281087  73.3060019
  54.6198480  97.0313691  78.2689242  53.9897140  97.7129972  78.5024639
  54.5134568  96.9196773  77.3242380  63.9307262 104.0390726  71.9460447
  64.7524705 103.6370913  71.6643128  63.9269665 103.9358960  72.8976563
  57.6963865 103.5874769  74.1021157  57.7608298 104.0495177  74.9379329
  56.9874789 102.9572134  74.2303467  48.1981155  96.9515977  71.6270157
  48.4489194  97.8362987  71.8927733  48.7340704  96.7720579  70.8545249
  53.8979222  91.3334457  80.6314493  53.5046168  90.7800655  81.3062137
  54.7145363  91.6445035  81.0221010  51.9588521  97.9348703  76.5012979
  51.8442037  97.0333960  76.8020078  51.1033039  98.1812400  76.1497796
  59.0380359 105.8766443  78.1000480  58.5944213 105.0902822  77.7821384
  59.6997573 106.0645594  77.4344370  53.7967480 107.4062245  72.6261158
  54.3474905 107.2779308  71.8538152  52.9578956 107.7057134  72.2756051
  57.5934651 103.6713373  76.9705389  58.1262988 102.9101661  76.7404697
  57.0648733 103.3787025  77.7129544  63.9380210 100.9948386  69.5991248
  63.2803885 101.6847647  69.6871376  64.7420609 101.3844818  69.9425234
  60.0108043 109.3277083  60.4055860  59.3369742 109.6308780  61.0140818
  60.3973865 110.1306163  60.0561318  56.9214030 106.9455608  67.8017603
  56.8790208 107.1716454  66.8726135  57.8376728 106.7118982  67.9503404
  60.3679663  97.4139675  74.6998233  60.7229051  97.6411148  75.5592698
  61.0151795  97.7458052  74.0775488  66.1246780 102.6034638  70.4158833
  66.5583287 102.5109927  71.2641887  66.8378361 102.5792139  69.7778849
  59.8574675 106.2036732  71.9491934  59.9111697 106.7727669  72.7169650
  58.9889456 106.3738617  71.5845971  52.7373068  95.9054288  73.4316385
  53.4096122  95.6971651  72.7829034  51.9102855  95.7076374  72.9921617
  58.8162775 100.3696994  73.5078865  59.7454835 100.5208154  73.3347833
  58.3953805 100.4581015  72.6527512  57.6151106 104.3947659  71.2777403
  57.4762192 104.0266443  72.1503341  56.8265703 104.9095298  71.1061361
  58.2099258 109.4956755  62.6202940  58.3851014 109.0244798  63.4348562
  57.5232046 110.1222521  62.8484200  53.1400565  99.1796891  74.1918822
  53.0020363  98.4477130  74.7930361  54.0505489  99.0905792  73.9103010
  55.7682866  98.8916851  73.6802502  56.4782485  98.2510043  73.6389120
  55.7252174  99.1429746  74.6028682  54.4811800  95.8782069  75.4998141
  53.9449157  95.4272807  76.1519738  53.8928509  96.0127977  74.7568606
  52.7760344 112.6446118  69.3942800  53.0156942 113.2764642  70.0721818
  51.9329540 112.2934158  69.6808159  45.4116199 100.1247880  68.1566112
  46.0987239  99.8109610  67.5687127  45.2564328 101.0289244  67.8833363
  57.2888205 108.4525240  71.7984304  57.2158377 109.2580212  72.3103608
  56.8465599 108.6517206  70.9732325  57.0777985 107.6897010  65.3087125
  56.2945507 108.2318691  65.4025350  57.7770730 108.2070990  65.7081367
  59.7486889 108.3512074  73.9542462  60.4614861 108.9859539  73.8818364
  59.2576918 108.4475940  73.1382464  54.7998803 106.1006518  74.7748033
  55.5008262 106.7343001  74.9277428  54.3293918 106.4421249  74.0143673
  62.6000088  98.6551125  72.6000584  61.9471539  98.9027033  71.9453036
  62.9780468  97.8415264  72.2663061  59.5607262 108.6910819  66.7028754
  59.7429657 107.8732474  67.1656506  60.3840248 108.9078511  66.2653644
  59.8949428 107.6179004  63.9643802  60.4237194 107.1071458  63.3513965
  60.1577647 107.3021534  64.8289335  58.6487662  99.3970936  79.0866621
  57.9728299  99.2965066  79.7568996  59.4715295  99.2410150  79.5502618
  50.3966521 105.6342873  71.7079136  50.9819957 104.8886561  71.8407040
  50.1991359 105.9446830  72.5915800  53.2505176 108.6694120  66.7241578
  52.5815551 109.1540248  66.2405618  53.1118046 108.9163341  67.6384957
  44.9884175  98.2048473  70.4283579  45.0268275  97.6712064  71.2220697
  44.4824468  97.6783679  69.8094556  57.3910444 110.7037864  73.3224237
  57.9428752 110.8669485  74.0873322  57.7316638 111.2942302  72.6504262
  52.3674938  93.0513014  73.9246121  52.4316264  93.9127845  73.5123519
  52.3042058  92.4387015  73.1918480  51.8427210  95.1236146  77.5719156
  52.4699249  94.7413224  78.1856680  50.9855129  94.9050348  77.9374848
  48.6192753  96.9312575  63.5037510  48.9146194  96.0223254  63.4504564
  47.7180789  96.9100315  63.1818513  60.5278832 108.6519839  70.3087919
  60.4029971 107.8509579  69.7998864  61.1857923 109.1466033  69.8201889
  62.5913740 106.4528859  71.9367469  61.6444076 106.3334211  71.8645796
  62.9396513 105.5651358  72.0193730  63.1994295 107.0710134  69.2236694
  64.1240843 106.8652996  69.0861145  63.0309599 106.8226536  70.1326035
  54.3320909  97.0605127  69.7074683  54.1865490  97.3745430  70.5998965
  53.8546113  97.6790027  69.1545582  48.8066571  99.6010471  72.6462344
  48.2620039 100.3770279  72.7782619  49.6845921  99.9481275  72.4881466
  49.5932593  98.7280367  75.5392501  48.8514329  98.8763003  76.1257131
  49.2725337  98.9888633  74.6759250  57.5376256 108.2696345  75.3372891
  57.8463382 108.0245492  76.2095591  58.3351738 108.4742984  74.8491761
  57.5596868 110.4234255  67.5678268  57.1201858 109.9310634  68.2611124
  58.3104985 109.8807223  67.3270343  55.0070740 105.9672264  69.6400569
  54.3850749 105.3042969  69.3402797  55.6775607 105.9933396  68.9574217
  55.0795267  94.4454052  79.2333075  55.1283423  95.3216175  78.8510845
  55.6217782  93.9031445  78.6604719  62.9751751  97.8218570  77.1426248
  63.8761613  97.6825035  76.8510245  63.0499725  97.9873025  78.0824425
  66.6143120  99.4789078  71.8859626  66.5819440  98.5405078  72.0719310
  67.2243744  99.5573114  71.1525451  58.3365143 102.4002877  79.3887487
  59.2568153 102.5781476  79.5827533  58.3014726 101.4558922  79.2367186
  47.5547308  97.5941471  68.3140761  47.2350093  96.7406779  68.0215135
  47.0080737  97.8090049  69.0698729  51.3327216 100.3103911  72.0310268
  51.5513226 101.2421019  72.0498302  51.7452990  99.9511886  72.8165072
  56.2055081  95.8837117  81.4213017  56.1051808  96.8331474  81.3525108
  55.9876623  95.5555356  80.5489087  47.4235568 101.2144382  70.2833883
  46.7299040 100.7998335  69.7703837  48.1708559 101.2564919  69.6867302
  56.0686351  99.3134256  80.2378078  55.5853433 100.1134616  80.4441968
  56.1547290  99.3242201  79.2845522  51.9959689 103.2038791  72.2746512
  52.9502942 103.1722733  72.2076444  51.7972212 102.7429415  73.0896738
  52.5859071 101.7739907  74.8417310  53.4051960 102.2683986  74.8652147
  52.8595879 100.8571875  74.8134877  50.3509918 108.7458410  69.2916710
  50.2164386 107.9858811  68.7254708  49.9341980 109.4699310  68.8245499
  53.5079043 109.6427727  69.5035153  53.3911428 110.5873160  69.4013843
  52.6871490 109.3401289  69.8920952  47.8393985  96.1078041  75.5409507
  48.4852849  95.5976995  76.0296732  47.6311136  96.8446722  76.1152932
  54.5333558 110.2955989  72.7191081  55.4360804 110.3279599  73.0357576
  54.3070928 109.3656440  72.7337417  56.2887160 109.0486976  69.3801160
  55.3382791 109.0488837  69.2665532  56.5919646 108.3019710  68.8637194
  52.1791476  93.2545658  79.6384521  53.0422938  92.8982463  79.8487846
  51.6056887  92.9159553  80.3259925  68.8329559 114.8374942  70.3808447
  68.4948071 114.7216007  69.4928982  69.7019328 114.4366107  70.3609453
  64.6916375 116.6910419  66.3705338  64.1281240 116.6000356  65.6021626
  64.5768770 115.8710323  66.8507830  62.2380807 118.1861610  69.2089558
  63.0302099 117.8452435  68.7935858  62.4777457 118.2956585  70.1291712
  70.2715934 120.3581386  61.6819803  69.6203914 120.9435467  61.2953817
  71.0660297 120.8887581  61.7414840  64.1971561 117.4470524  62.0806937
  64.9702437 116.8999511  61.9419813  64.5496960 118.3114773  62.2921399
  66.0356604 118.7746906  75.2873836  65.7446469 119.6792537  75.1720503
  66.6713588 118.8163433  76.0017906  66.9612810 116.1523754  71.8775196
  67.5576383 115.9279777  71.1632159  67.0187782 115.4108500  72.4800644
  66.5337839 113.6063190  59.7125387  66.7863359 113.0844711  58.9508850
  65.5962398 113.4429335  59.8152071  71.5781122 112.6098968  67.5200130
  72.3644211 112.1918391  67.1690547  71.8419826 113.5145060  67.6881779
  71.7491199 118.0471818  62.2188787  71.1137032 118.1206445  62.9309692
  71.4188605 118.6365417  61.5407866  66.2534127 115.5091296  61.9149762
  66.1370386 114.8336199  62.5830846  66.3636387 115.0223670  61.0981915
  68.5965668 114.9701443  65.6196451  68.2323876 114.4432064  66.3309373
  69.4532784 114.5799912  65.4462937  64.4458970 114.9122118  68.3160335
  63.5209467 114.7798332  68.5238026  64.6943383 115.6916337  68.8130277
  68.2160376 112.4549000  61.6004467  68.0960001 112.9006051  62.4389947
  67.5212965 112.8034318  61.0418005  61.8067781 114.5555392  69.1504124
  61.9360162 114.8089871  70.0643535  61.1265232 115.1483100  68.8308779
  65.9767268 125.2252642  65.2494598  65.8991298 126.1760467  65.3283078
  65.3728912 124.8798514  65.9069524  72.5215025 117.9096292  69.8198382
  71.8923887 118.0742006  69.1174450  72.1340687 118.3237901  70.5909346
  68.0742987 117.6470700  67.0848467  68.5381332 117.9258403  66.2953090
  67.8099785 116.7454144  66.9021558  64.9667068 117.1942181  70.0228230
  65.5368425 117.6229450  69.3845715  65.5575180 116.9124766  70.7212416
  67.0111873 113.7693852  63.8938032  67.7135916 114.2214896  64.3611959
  66.6792501 113.1277671  64.5217925  60.7537207 112.0277405  69.1955166
  59.9636261 112.2834933  68.7195277  61.2448454 112.8425742  69.3007206
  62.7051952 112.3921984  66.1538643  61.9083115 112.5040678  66.6722138
  62.4777544 112.7308636  65.2879533  68.5357620 118.9166687  74.1021157
  68.6002052 119.3787094  74.9379329  67.8268544 118.2864052  74.2303467
  59.0374910 112.2807895  71.6270157  59.2882948 113.1654905  71.8927733
  59.5734458 112.1012497  70.8545249  68.2505637 120.5834795  63.9700138
  68.1151312 121.4286330  64.3984985  68.7915450 120.7854072  63.2066071
  61.7035035 118.1010233  64.5428063  62.2159555 118.8953483  64.6933627
  62.3557748 117.4036523  64.4761664  63.5129919 121.2175989  66.6250816
  63.6896548 122.1393954  66.4371800  64.3086753 120.9034408  67.0545196
  62.7982276 113.2640621  76.5012979  62.6835791 112.3625878  76.8020078
  61.9426794 113.5104318  76.1497796  69.8774114 121.2058361  78.1000480
  69.4337968 120.4194740  77.7821384  70.5391327 121.3937512  77.4344370
  64.6361235 122.7354163  72.6261158  65.1868660 122.6071226  71.8538152
  63.7972711 123.0349052  72.2756051  68.4328406 119.0005291  76.9705389
  68.9656743 118.2393579  76.7404697  67.9042487 118.7078942  77.7129544
  59.6683951 116.4298887  65.3187633  60.5059173 116.8395895  65.1021341
  59.8462219 115.4898329  65.2887827  71.5648384 114.0973968  61.0071466
  71.0495007 114.8678572  61.2459854  71.2925692 113.4239104  61.6304528
  69.1495495 108.9423668  66.0656704  68.2937091 108.5530519  65.8862343
  69.5622446 109.0215629  65.2056490  66.9237527 106.5608741  69.4714446
  67.7890524 106.3651550  69.1120335  66.9915036 106.3319093  70.3983803
  76.5382658 116.8506322  62.9424640  75.7612100 116.5117482  62.4979802
  77.2174139 116.8558945  62.2679605  71.3534687 111.9701060  62.8331247
  71.0484822 112.2847209  63.6841390  72.3065129 112.0482480  62.8758580
  69.7981119 118.1291283  64.4824201  69.2702480 117.3944043  64.1697439
  69.2968621 118.9065959  64.2364170  64.8569433 110.8215410  60.8626698
  64.0206746 111.1590097  61.1835973  64.7174203 110.6864390  59.9253835
  67.9433719 115.9471493  57.4859174  67.0360781 115.7160747  57.6850323
  68.4404751 115.1509113  57.6733156  70.8501798 124.6569000  60.4055860
  70.1763496 124.9600697  61.0140818  71.2367620 125.4598081  60.0561318
  70.8495302 113.5525547  65.0256210  71.5967121 114.0646945  64.7163332
  71.1186892 113.2309600  65.8860604  69.1221952 116.0484088  62.0083164
  68.2133171 115.7643121  62.1055634  69.1517036 116.4683167  61.1486471
  59.6910123 113.7689602  65.9898367  59.4934522 113.1758963  65.2649433
  59.1356787 113.4641812  66.7074305  67.6706846 113.6612709  68.1092960
  67.7255456 112.7086545  68.0335436  66.8598048 113.8172148  68.5934258
  68.8198040 117.5892832  59.3471243  68.3817470 116.8728691  58.8876880
  69.5608481 117.8168947  58.7856334  65.6099206 112.2789768  65.8683339
  64.7967072 112.5783939  66.2748531  66.1058200 111.8845457  66.5857821
  67.7607784 122.2747525  67.8017603  67.7183963 122.5008372  66.8726135
  68.6770483 122.0410900  67.9503404  65.8773585 119.1510554  67.5979566
  66.6714183 118.6560875  67.3962141  65.1665277 118.6228418  67.2347272
  62.1856348 113.2953636  63.6739319  61.2553936 113.2338092  63.8909281
  62.2813820 112.7729589  62.8775960  62.1041897 109.8208449  66.2617560
  62.3648715 110.7353782  66.1526721  62.9259070 109.3532892  66.4114173
  63.5766823 111.2346206  73.4316385  64.2489876 111.0263568  72.7829034
  62.7496609 111.0368292  72.9921617  68.4544861 119.7239576  71.2777403
  68.3155947 119.3558361  72.1503341  67.6659457 120.2387216  71.1061361
  69.0493013 124.8248673  62.6202940  69.2244769 124.3536716  63.4348562
  68.3625801 125.4514439  62.8484200  70.0050076 119.1021179  68.6666241
  69.6699909 119.0621949  69.5623891  69.5054022 118.4365895  68.1936651
  63.9794320 114.5088809  74.1918822  63.8414118 113.7769048  74.7930361
  64.8899243 114.4197709  73.9103010  72.9409268 116.4477213  58.9403301
  72.3238438 115.7224042  58.8436353  72.4725756 117.2086574  58.5970375
  63.6154098 127.9738036  69.3942800  63.8550696 128.6056560  70.0721818
  62.7723295 127.6226076  69.6808159  64.7307814 110.6662638  58.0624605
  63.8537280 110.5451439  57.6986852  65.2065567 109.8748716  57.8103493
  56.2509954 115.4539797  68.1566112  56.9380994 115.1401527  67.5687127
  56.0958082 116.3581162  67.8833363  61.0544676 110.3429994  72.5851136
  60.9702865 109.7355664  71.8501546  60.2327382 110.8339012  72.5860632
  68.1281960 123.7817158  71.7984304  68.0552131 124.5872130  72.3103608
  67.6859353 123.9809124  70.9732325  67.9171740 123.0188928  65.3087125
  67.1339261 123.5610608  65.4025350  68.6164485 123.5362908  65.7081367
  71.2268390 108.8283558  67.9521331  71.7237089 108.0753520  67.6322401
  70.4555371 108.8647874  67.3864540  72.3098170 117.5855245  65.5259754
  71.3754449 117.7056707  65.3564458  72.4874839 116.6827712  65.2619764
  67.8103358 110.9700941  67.6793015  67.4401146 110.4171981  68.3673921
  68.3062451 110.3659074  67.1268015  65.6392557 121.4298436  74.7748033
  66.3402017 122.0634919  74.9277428  65.1687672 121.7713167  74.0143673
  73.7646953 119.7716385  63.0595940  74.0406797 119.6572980  63.9689814
  72.8951452 119.3733870  63.0208113  70.4001017 124.0202736  66.7028754
  70.5823411 123.2024392  67.1656506  71.2234003 124.2370428  66.2653644
  70.7343182 122.9470921  63.9643802  71.2630949 122.4363376  63.3513965
  70.9971402 122.6313452  64.8289335  61.2360275 120.9634791  71.7079136
  61.8213712 120.2178479  71.8407040  61.0385114 121.2738747  72.5915800
  64.0898930 123.9986038  66.7241578  63.4209306 124.4832166  66.2405618
  63.9511800 124.2455258  67.6384957  55.8277930 113.5340391  70.4283579
  55.8662029 113.0003982  71.2220697  55.3218223 113.0075596  69.8094556
  68.2304199 126.0329782  73.3224237  68.7822507 126.1961403  74.0873322
  68.5710392 126.6234219  72.6504262  73.0815073 120.8591039  79.1772891
  73.6254977 121.4720997  78.6827846  72.5001918 121.4170617  79.6939904
  59.4586507 112.2604493  63.5037510  59.7539948 111.3515171  63.4504564
  58.5574543 112.2392232  63.1818513  71.3672586 123.9811757  70.3087919
  71.2423726 123.1801497  69.7998864  72.0251677 124.4757950  69.8201889
  62.9880754 110.3360490  69.4865059  62.2667340 110.9496457  69.3472532
  63.7774010 110.8718254  69.4081705  61.1874349 109.9418591  63.6276836
  60.8587055 109.0615970  63.4451942  61.5413720 109.8866259  64.5153225
  70.4353928 121.5773493  68.1371821  70.2878890 120.6490201  68.3179391
  71.2607421 121.5993584  67.6528896  64.3016172 110.2291560  63.9952313
  64.6412245 110.7577482  63.2730922  64.7488293 110.5671967  64.7710880
  65.1714664 112.3897044  69.7074683  65.0259244 112.7037347  70.5998965
  64.6939867 113.0081945  69.1545582  67.0311046 109.3799592  69.7555573
  67.0172615 108.4840686  69.4187871  67.7483475 109.3870256  70.3893859
  59.6460326 114.9302389  72.6462344  59.1013794 115.7062197  72.7782619
  60.5239676 115.2773193  72.4881466  74.8158538 122.2354484  61.6795684
  75.5109443 122.8561177  61.8982998  75.1581689 121.3849835  61.9548062
  60.4326348 114.0572285  75.5392501  59.6908084 114.2054920  76.1257131
  60.1119092 114.3180550  74.6759250  76.7149962 119.6854189  63.2083014
  77.2401286 120.0241462  62.4832334  76.6272314 118.7501205  63.0246149
  68.3770010 123.5988263  75.3372891  68.6857137 123.3537410  76.2095591
  69.1745492 123.8034902  74.8491761  68.3990622 125.7526173  67.5678268
  67.9595613 125.2602551  68.2611124  69.1498739 125.2099140  67.3270343
  60.8782961 121.9437714  67.5702896  61.7040981 121.6441485  67.1901539
  60.5277013 121.1745336  68.0192684  65.8464494 121.2964182  69.6400569
  65.2244504 120.6334887  69.3402797  66.5169361 121.3225314  68.9574217
  59.0791566 119.8624040  68.5291829  58.2423475 119.4346214  68.3475831
  59.0515212 120.0556483  69.4662620  65.4078001 119.8468105  63.1159030
  65.5566122 120.5303570  62.4625703  66.2144445 119.8273195  63.6308486
  63.1630634 115.8733283  64.1220099  62.9176676 114.9695613  64.3200309
  63.3326549 115.8750433  63.1799577  62.4326282 111.6061640  61.6206260
  61.7395527 111.6805995  60.9646296  62.1878034 110.8421984  62.1427777
  68.9073407 122.3416236  60.5870777  68.3347374 122.9606423  60.1341249
  69.4806201 122.8915597  61.1210699  72.1270667 122.6253386  61.7179360
  73.0601340 122.5598947  61.9212235  72.0393879 123.4609653  61.2593892
  74.7558683 121.9419256  58.6783307  74.6772315 121.6079120  59.5719065
  75.5768350 122.4341024  58.6774779  69.2920205 113.6777048  57.9286830
  70.2379310 113.5483256  57.9975248  68.9134450 112.9391710  58.4056258
  67.4763122 111.6027025  57.8641715  66.5694578 111.3060137  57.9404429
  67.7539104 111.3056843  56.9976001  58.3941063 112.9233388  68.3140761
  58.0743847 112.0698696  68.0215135  57.8474491 113.1381966  69.0698729
  62.1720970 115.6395829  72.0310268  62.3906980 116.5712937  72.0498302
  62.5846744 115.2803804  72.8165072  58.2629323 116.5436300  70.2833883
  57.5692794 116.1290252  69.7703837  59.0102314 116.5856836  69.6867302
  60.1766065 116.4754553  68.1599898  60.1536754 116.5742241  67.2081781
  60.4866702 117.3219704  68.4817064  62.8353443 118.5330708  72.2746512
  63.7896697 118.5014651  72.2076444  62.6365967 118.0721332  73.0896738
  63.4252825 117.1031825  74.8417310  64.2445714 117.5975903  74.8652147
  63.6989633 116.1863793  74.8134877  61.1903672 124.0750328  69.2916710
  61.0558140 123.3150729  68.7254708  60.7735734 124.7991228  68.8245499
  72.3262635 119.2587251  58.2993285  73.0298485 119.4637254  58.9150941
  71.6025284 119.8264013  58.5642369  73.1560445 115.0097113  64.4195556
  73.0995647 115.4665664  63.5803188  73.7088788 114.2487797  64.2418398
  64.3472798 124.9719645  69.5035153  64.2305182 125.9165077  69.4013843
  63.5265244 124.6693207  69.8920952  74.2349332 119.6969781  60.3491745
  75.0694936 119.2650979  60.1669220  74.0733675 119.5251794  61.2768640
  73.8895225 116.2001894  61.7148085  73.8344028 116.0346165  60.7736529
  73.2641280 116.9077927  61.8710274  58.6787740 111.4369958  75.5409507
  59.3246603 110.9268912  76.0296732  58.4704891 112.1738640  76.1152932
  65.3727312 125.6247907  72.7191081  66.2754559 125.6571517  73.0357576
  65.1464682 124.6948358  72.7337417  67.1280914 124.3778893  69.3801160
  66.1776545 124.3780755  69.2665532  67.4313400 123.6311628  68.8637194
  75.5310130 132.0202336  66.3705338  74.9674995 131.9292273  65.6021626
  75.4162525 131.2002241  66.8507830  73.0774561 133.5153528  69.2089558
  73.8695853 133.1744353  68.7935858  73.3171212 133.6248503  70.1291712
  81.1109688 135.6873304  61.6819803  80.4597668 136.2727384  61.2953817
  81.9054051 136.2179499  61.7414840  75.0365315 132.7762441  62.0806937
  75.8096191 132.2291428  61.9419813  75.3890714 133.6406691  62.2921399
  76.8750358 134.1038823  75.2873836  76.5840224 135.0084454  75.1720503
  77.5107342 134.1455351  76.0017906  77.3731593 128.9355107  59.7125387
  77.6257114 128.4136629  58.9508850  76.4356152 128.7721253  59.8152071
  82.5884953 133.3763736  62.2188787  81.9530786 133.4498362  62.9309692
  82.2582360 133.9657335  61.5407866  87.8183303 127.8766119  68.4233109
  88.5508475 127.3065336  68.6570938  87.0622659 127.4887719  68.8639614
  77.0927882 130.8383213  61.9149762  76.9764140 130.1628117  62.5830846
  77.2030142 130.3515587  61.0981915  79.4359423 130.2993360  65.6196451
  79.0717630 129.7723981  66.3309373  80.2926539 129.9091829  65.4462937
  79.0764910 125.3283260  60.6157800  79.2439312 126.1963496  60.9828271
  78.8862079 125.4910542  59.6919089  85.2337387 126.3082779  69.9621067
  84.3254264 126.2398188  69.6679828  85.1824983 126.7854724  70.7902893
  79.0554131 127.7840918  61.6004467  78.9353756 128.2297968  62.4389947
  78.3606719 128.1326235  61.0418005  72.6461536 129.8847309  69.1504124
  72.7753917 130.1381788  70.0643535  71.9658987 130.4775017  68.8308779
  76.8161023 140.5544559  65.2494598  76.7385053 141.5052384  65.3283078
  76.2122666 140.2090432  65.9069524  87.0999033 124.5099218  71.7398941
  86.4573414 124.8031751  71.0938736  86.5953962 124.3952138  72.5452138
  84.7539197 128.2562391  62.4284801  85.6657053 128.4889777  62.2532498
  84.2448844 128.8399435  61.8659879  83.0379965 132.6787019  76.0646093
  83.4463321 132.2369429  75.3200726  82.3157226 132.1039646  76.3180286
  83.3608779 133.2388209  69.8198382  82.7317642 133.4033923  69.1174450
  82.9734441 133.6529819  70.5909346  87.2398011 134.1742647  67.1742746
  86.5549049 134.5541548  66.6239779  87.3241860 134.7837974  67.9074694
  84.4948943 131.8202606  73.7738089  84.7065838 132.4634366  73.0972470
  84.4478691 130.9864923  73.3060019  77.8505627 129.0985770  63.8938032
  78.5529671 129.5506813  64.3611959  77.5186256 128.4569589  64.5217925
  71.5930961 127.3569322  69.1955166  70.8030015 127.6126851  68.7195277
  72.0842209 128.1717660  69.3007206  85.6094771 134.6974561  71.9460447
  86.4312214 134.2954749  71.6643128  85.6057174 134.5942796  72.8976563
  73.5445707 127.7213902  66.1538643  72.7476870 127.8332596  66.6722138
  73.3171299 128.0600554  65.2879533  79.3751374 134.2458605  74.1021157
  79.4395807 134.7079012  74.9379329  78.6662298 133.6155970  74.2303467
  69.8768664 127.6099813  71.6270157  70.1276703 128.4946823  71.8927733
  70.4128213 127.4304414  70.8545249  93.7000764 131.0413310  68.2945418
  92.9464472 130.4720708  68.1389423  93.8348305 131.0075974  69.2416053
  79.0899392 135.9126712  63.9700138  78.9545067 136.7578248  64.3984985
  79.6309204 136.1145990  63.2066071  75.5766731 121.9918292  80.6314493
  75.1833677 121.4384491  81.3062137  76.3932872 122.3028871  81.0221010
  72.5428789 133.4302150  64.5428063  73.0553310 134.2245401  64.6933627
  73.1951502 132.7328441  64.4761664  74.3523674 136.5467907  66.6250816
  74.5290302 137.4685871  66.4371800  75.1480507 136.2326326  67.0545196
  80.7167868 136.5350279  78.1000480  80.2731722 135.7486657  77.7821384
  81.3785082 136.7229429  77.4344370  75.4754989 138.0646080  72.6261158
  76.0262414 137.9363144  71.8538152  74.6366465 138.3640969  72.2756051
  82.8149106 136.8153079  76.1281881  82.7967582 137.6361960  75.6362150
  83.7369026 136.6907154  76.3532022  79.2722160 134.3297208  76.9705389
  79.8050497 133.5685496  76.7404697  78.7436241 134.0370860  77.7129544
  70.5077706 131.7590805  65.3187633  71.3452928 132.1687813  65.1021341
  70.6855974 130.8190247  65.2887827  82.4042138 129.4265885  61.0071466
  81.8888762 130.1970490  61.2459854  82.1319447 128.7531021  61.6304528
  87.3776412 132.1798240  62.9424640  86.6005855 131.8409399  62.4979802
  88.0567893 132.1850863  62.2679605  82.1928441 127.2992977  62.8331247
  81.8878577 127.6139127  63.6841390  83.1458883 127.3774397  62.8758580
  80.6374873 133.4583201  64.4824201  80.1096235 132.7235960  64.1697439
  80.1362376 134.2357877  64.2364170  85.6167719 131.6532221  69.5991248
  84.9591394 132.3431483  69.6871376  86.4208118 132.0428653  69.9425234
  84.4273178 130.0076594  67.6495189  84.9405060 130.6406586  68.1516899
  85.0774402 129.4077789  67.2838549  75.6963188 126.1507328  60.8626698
  74.8600500 126.4882015  61.1835973  75.5567957 126.0156308  59.9253835
  78.7827473 131.2763411  57.4859174  77.8754535 131.0452664  57.6850323
  79.2798505 130.4801030  57.6733156  81.6895552 139.9860918  60.4055860
  81.0157251 140.2892615  61.0140818  82.0761374 140.7889998  60.0561318
  79.9615707 131.3776006  62.0083164  79.0526926 131.0935039  62.1055634
  79.9910791 131.7975084  61.1486471  85.1934974 134.9882595  65.7774332
  84.7397301 134.1473505  65.8339522  84.5628941 135.6243994  66.1149112
  83.6367913 136.8259092  66.7124150  83.9290888 137.3864149  65.9936516
  84.1466534 137.1187653  67.4677309  70.5303877 129.0981520  65.9898367
  70.3328277 128.5050881  65.2649433  69.9750541 128.7933730  66.7074305
  79.6591795 132.9184749  59.3471243  79.2211224 132.2020608  58.8876880
  80.4002235 133.1460864  58.7856334  78.6001539 137.6039443  67.8017603
  78.5577717 137.8300289  66.8726135  79.5164237 137.3702818  67.9503404
  87.7764909 131.1941946  65.4047562  87.6382808 131.3843542  64.4768751
  87.4201128 131.9561329  65.8615613  87.8034289 133.2618474  70.4158833
  88.2370796 133.1693763  71.2641887  88.5165870 133.2375974  69.7778849
  76.7167339 134.4802472  67.5979566  77.5107938 133.9852792  67.3962141
  76.0059032 133.9520335  67.2347272  81.5362184 136.8620568  71.9491934
  81.5899206 137.4311504  72.7169650  80.6676965 137.0322453  71.5845971
  73.0250103 128.6245554  63.6739319  72.0947691 128.5630009  63.8909281
  73.1207575 128.1021507  62.8775960  88.6649838 133.3042174  72.9491718
  88.8585729 134.2087985  73.1950993  88.5650457 132.8449593  73.7830303
  83.7264947 133.4548917  78.5232599  83.5750454 133.2259469  77.6062683
  83.7169627 134.4119518  78.5363944  79.8886767 140.1540591  62.6202940
  80.0638523 139.6828634  63.4348562  79.2019555 140.7806357  62.8484200
  83.7803022 131.7769131  58.9403301  83.1632193 131.0515959  58.8436353
  83.3119511 132.5378491  58.5970375  85.4357154 136.4868039  76.6009081
  85.3769700 135.8027260  75.9339664  85.8376672 137.2287029  76.1489707
  75.5701568 125.9954555  58.0624605  74.6931034 125.8743356  57.6986852
  76.0459321 125.2040634  57.8103493  85.4374561 134.4507623  74.8323061
  84.5501340 134.1133545  74.9549459  86.0073112 133.7190655  75.0691826
  67.0903708 130.7831715  68.1566112  67.7774748 130.4693445  67.5687127
  66.9351837 131.6873080  67.8833363  78.9675714 139.1109076  71.7984304
  78.8945886 139.9164047  72.3103608  78.5253108 139.3101042  70.9732325
  78.7565494 138.3480846  65.3087125  77.9733016 138.8902526  65.4025350
  79.4558239 138.8654825  65.7081367  89.9191902 129.8615841  69.5939622
  89.9081778 130.7440556  69.2233555  89.0509281 129.5087392  69.3994159
  81.4274398 139.0095910  73.9542462  82.1402370 139.6443375  73.8818364
  80.9364427 139.1059776  73.1382464  83.1491925 132.9147162  65.5259754
  82.2148204 133.0348625  65.3564458  83.3268593 132.0119629  65.2619764
  86.5364476 128.7564482  66.0609788  87.0024928 129.5892473  65.9870091
  86.9871977 128.2909463  66.7655047  76.4786312 136.7590353  74.7748033
  77.1795771 137.3926836  74.9277428  76.0081427 137.1005085  74.0143673
  84.6040707 135.1008303  63.0595940  84.8800551 134.9864898  63.9689814
  83.7345206 134.7025788  63.0208113  84.2787597 129.3134961  72.6000584
  83.6259048 129.5610868  71.9453036  84.6567977 128.4999099  72.2663061
  81.2394771 139.3494654  66.7028754  81.4217166 138.5316310  67.1656506
  82.0627757 139.5662346  66.2653644  81.5736937 138.2762839  63.9643802
  82.1024703 137.7655294  63.3513965  81.8365156 137.9605369  64.8289335
  72.0754030 136.2926708  71.7079136  72.6607466 135.5470396  71.8407040
  71.8778868 136.6030665  72.5915800  74.9292685 139.3277956  66.7241578
  74.2603060 139.8124083  66.2405618  74.7905554 139.5747176  67.6384957
  66.6671684 128.8632309  70.4283579  66.7055784 128.3295899  71.2220697
  66.1611977 128.3367514  69.8094556  79.0697953 141.3621699  73.3224237
  79.6216261 141.5253321  74.0873322  79.4104147 141.9526137  72.6504262
  73.5214719 125.7819982  77.5719156  74.1486758 125.3997059  78.1856680
  72.6642638 125.5634183  77.9374848  83.9208828 136.1882957  79.1772891
  84.4648732 136.8012915  78.6827846  83.3395673 136.7462535  79.6939904
  70.2980262 127.5896411  63.5037510  70.5933703 126.6807089  63.4504564
  69.3968298 127.5684150  63.1818513  82.2066341 139.3103675  70.3087919
  82.0817480 138.5093415  69.7998864  82.8645432 139.8049868  69.8201889
  84.2701249 137.1112695  71.9367469  83.3231585 136.9918046  71.8645796
  84.6184022 136.2235193  72.0193730  72.0268103 125.2710508  63.6276836
  71.6980810 124.3907887  63.4451942  72.3807474 125.2158177  64.5153225
  81.2747682 136.9065411  68.1371821  81.1272645 135.9782118  68.3179391
  82.1001176 136.9285502  67.6528896  75.1409927 125.5583478  63.9952313
  75.4805999 126.0869399  63.2730922  75.5882047 125.8963884  64.7710880
  84.8781804 137.7293970  69.2236694  85.8028352 137.5236831  69.0861145
  84.7097108 137.4810371  70.1326035  77.1278074 124.0558100  62.1945606
  77.8486436 124.4339352  61.6909323  76.5043378 124.7746977  62.2980584
  81.2709197 124.7603249  63.1303938  81.4872811 125.6427887  62.8292767
  80.7903264 124.3689462  62.4009580  84.6677120 138.2479637  64.5798785
  84.8413998 137.6826060  63.8272638  85.1606012 139.0480532  64.3978275
  70.4854080 130.2594306  72.6462344  69.9407548 131.0354114  72.7782619
  71.3633430 130.6065111  72.4881466  90.5216512 131.0116060  66.1989085
  90.9647658 130.2623385  65.8008208  89.6443022 131.0026197  65.8162817
  85.6552293 137.5646402  61.6795684  86.3503198 138.1853094  61.8982998
  85.9975443 136.7141753  61.9548062  71.2720102 129.3864203  75.5392501
  70.5301838 129.5346838  76.1257131  70.9512846 129.6472468  74.6759250
  87.5543716 135.0146107  63.2083014  88.0795040 135.3533380  62.4832334
  87.4666069 134.0793122  63.0246149  79.2163765 138.9280181  75.3372891
  79.5250891 138.6829328  76.2095591  80.0139247 139.1326819  74.8491761
  79.2384377 141.0818090  67.5678268  78.7989367 140.5894469  68.2611124
  79.9892494 140.5391058  67.3270343  71.7176716 137.2729631  67.5702896
  72.5434736 136.9733403  67.1901539  71.3670768 136.5037254  68.0192684
  76.6858249 136.6256100  69.6400569  76.0638258 135.9626805  69.3402797
  77.3563116 136.6517231  68.9574217  69.9185321 135.1915958  68.5291829
  69.0817229 134.7638132  68.3475831  69.8908966 135.3848401  69.4662620
  87.2437622 135.6479011  78.5134212  86.4533166 135.6303150  77.9738712
  87.0070977 136.1867304  79.2683249  87.3635497 132.4971477  75.8266941
  87.4133502 132.3321485  76.7682464  87.2549420 131.6298736  75.4364822
  76.2471756 135.1760023  63.1159030  76.3959876 135.8595487  62.4625703
  77.0538199 135.1565113  63.6308486  84.6539260 128.4802405  77.1426248
  85.5549122 128.3408870  76.8510245  84.7287234 128.6456860  78.0824425
  88.8653694 134.9168419  76.0708962  88.5738502 135.2798399  76.9072423
  88.2525825 134.2035427  75.8922295  90.0649376 132.4821298  68.5911533
  90.8996268 132.9211103  68.7549093  90.2008505 132.0059952  67.7719778
  87.1140882 130.0401033  74.5389020  87.5895004 130.2328680  73.7307872
  86.1906448 130.0960219  74.2932404  74.0024389 131.2025200  64.1220099
  73.7570431 130.2987530  64.3200309  74.1720303 131.2042351  63.1799577
  73.2720036 126.9353558  61.6206260  72.5789281 127.0097913  60.9646296
  73.0271788 126.1713902  62.1427777  79.7467161 137.6708153  60.5870777
  79.1741128 138.2898340  60.1341249  80.3199955 138.2207515  61.1210699
  85.8142551 126.9166793  72.7717326  86.7659974 127.0164891  72.7929550
  85.6446002 126.1245062  73.2815410  82.9664421 137.9545303  61.7179360
  83.8995094 137.8890865  61.9212235  82.8787634 138.7901570  61.2593892
  85.5952438 137.2711174  58.6783307  85.5166069 136.9371037  59.5719065
  86.4162105 137.7632942  58.6774779  88.2930629 130.1372913  71.8859626
  88.2606949 129.1988914  72.0719310  88.9031253 130.2156950  71.1525451
  80.1313960 129.0068966  57.9286830  81.0773065 128.8775174  57.9975248
  79.7528205 128.2683628  58.4056258  88.4425117 126.9283957  71.9317909
  87.9264166 126.1442413  71.7447838  89.3265066 126.6002673  72.0964428
  94.1107179 131.1988920  71.0265663  94.8410567 130.9374208  71.5873366
  93.5014124 130.4617642  71.0667730  92.1922476 129.3396783  71.6240114
  91.4655640 129.2052747  71.0156605  91.7769763 129.6473611  72.4296832
  80.0152652 133.0586712  79.3887487  80.9355662 133.2365311  79.5827533
  79.9802235 132.1142758  79.2367186  78.3156877 126.9318942  57.8641715
  77.4088332 126.6352055  57.9404429  78.5932858 126.6348761  56.9976001
  69.2334817 128.2525306  68.3140761  68.9137602 127.3990614  68.0215135
  68.6868246 128.4673884  69.0698729  79.9318943 121.4755832  64.0185956
  79.1219671 121.1302917  64.3941202  80.6203360 121.1663376  64.6073568
  77.8842590 126.5420953  81.4213017  77.7839317 127.4915310  81.3525108
  77.6664132 126.2139192  80.5489087  77.0855662 123.7905878  58.0053694
  77.9474826 124.1160776  58.2649512  77.2706006 123.0037374  57.4926760
  69.1023077 131.8728217  70.2833883  68.4086549 131.4582170  69.7703837
  69.8496068 131.9148754  69.6867302  85.2388298 122.6634404  65.1488917
  84.6586967 123.3219208  64.7666970  84.9724231 121.8411749  64.7376335
  71.0159820 131.8046471  68.1599898  70.9930508 131.9034158  67.2081781
  71.3260456 132.6511622  68.4817064  73.6747198 133.8622626  72.2746512
  74.6290451 133.8306568  72.2076444  73.4759721 133.4013250  73.0896738
  84.0213176 124.8234495  64.2045265  83.1339031 125.1084145  63.9865460
  84.4367165 124.6628258  63.3572542  87.3727712 124.8481015  67.9199605
  88.1488102 125.3377468  68.1924222  86.6475846 125.2739070  68.3771474
  89.8100271 125.5608635  68.9773545  90.4044762 125.3204371  68.2666854
  89.8826855 124.8415765  69.6047082  72.0297427 139.4042246  69.2916710
  71.8951894 138.6442647  68.7254708  71.6129489 140.1283146  68.8245499
  83.1656390 134.5879169  58.2993285  83.8692240 134.7929172  58.9150941
  82.4419038 135.1555931  58.5642369  83.9954200 130.3389030  64.4195556
  83.9389401 130.7957582  63.5803188  84.5482542 129.5779715  64.2418398
  87.8059006 126.1278762  65.2445675  87.5495940 125.7275398  66.0753883
  87.1811874 126.8422556  65.1195814  92.1171344 128.8674836  67.7516967
  91.5570902 128.9368025  68.5248529  91.5114847 128.6915820  67.0316463
  75.1866552 140.3011563  69.5035153  75.0698937 141.2456995  69.4013843
  74.3658999 139.9985124  69.8920952  85.0743087 135.0261698  60.3491745
  85.9088691 134.5942897  60.1669220  84.9127430 134.8543712  61.2768640
  84.7288979 131.5293812  61.7148085  84.6737783 131.3638083  60.7736529
  84.1035034 132.2369845  61.8710274  69.5181494 126.7661876  75.5409507
  70.1640358 126.2560830  76.0296732  69.3098645 127.5030558  76.1152932
  82.0434886 133.8342724  81.0401648  82.9126046 134.0083376  80.6788282
  81.5641638 134.6537140  80.9177377  78.0385105 121.0301921  61.2933403
  78.0263774 121.9743761  61.4501674  78.9308526 120.8472066  60.9992864
  76.2121067 140.9539825  72.7191081  77.1148313 140.9863435  73.0357576
  75.9858437 140.0240276  72.7337417  77.9674669 139.7070811  69.3801160
  77.0170300 139.7072673  69.2665532  78.2707155 138.9603546  68.8637194
  93.7027362 145.5431349  70.4446922  94.3405772 145.4238097  69.7410262
  93.5848205 146.4912193  70.5034874  90.5117068 145.4958778  70.3808447
  90.1735580 145.3799842  69.4928982  91.3806837 145.0949943  70.3609453
  86.3703884 147.3494254  66.3705338  85.8068749 147.2584191  65.6021626
  86.2556279 146.5294158  66.8507830  90.9936851 146.6493629  76.3394652
  90.9825492 146.2546428  75.4675156  91.1557491 145.9159702  76.9328424
  88.6400319 146.8107590  71.8775196  89.2363892 146.5863612  71.1632159
  88.6975291 146.0692335  72.4800644  88.2125348 144.2647025  59.7125387
  88.4650868 143.7428546  58.9508850  87.2749907 144.1013170  59.8152071
  93.2568631 143.2682803  67.5200130  94.0431720 142.8502227  67.1690547
  93.5207335 144.1728896  67.6881779  98.6577058 143.2058037  68.4233109
  99.3902230 142.6357253  68.6570938  97.9016413 142.8179637  68.8639614
  87.9321636 146.1675131  61.9149762  87.8157895 145.4920034  62.5830846
  88.0423896 145.6807505  61.0981915  90.2753177 145.6285278  65.6196451
  89.9111385 145.1015899  66.3309373  91.1320293 145.2383747  65.4462937
  96.1802478 136.9179611  72.8827717  95.8485803 137.7875022  72.6588932
  95.5848091 136.6015895  73.5621748  89.9158664 140.6575178  60.6157800
  90.0833067 141.5255414  60.9828271  89.7255833 140.8202459  59.6919089
  86.1246479 145.5705953  68.3160335  85.1996976 145.4382168  68.5238026
  86.3730892 146.3500173  68.8130277  96.0731141 141.6374697  69.9621067
  95.1648019 141.5690105  69.6679828  96.0218737 142.1146642  70.7902893
  89.8947885 143.1132835  61.6004467  89.7747510 143.5589886  62.4389947
  89.2000474 143.4618153  61.0418005  83.4855290 145.2139227  69.1504124
  83.6147671 145.4673706  70.0643535  82.8052741 145.8066935  68.8308779
  90.1472007 143.0564342  77.9055965  89.3705341 143.6158263  77.8958829
  90.7862570 143.5421125  78.4270835  97.9392788 139.8391135  71.7398941
  97.2967168 140.1323668  71.0938736  97.4347716 139.7244056  72.5452138
  95.5932951 143.5854308  62.4284801  96.5050808 143.8181695  62.2532498
  95.0842598 144.1691353  61.8659879  88.4018379 145.8649796  77.4673932
  89.1433064 146.4034840  77.1908755  87.6955365 146.4916085  77.6245484
  93.8773719 148.0078936  76.0646093  94.2857075 147.5661347  75.3200726
  93.1550981 147.4331564  76.3180286  90.2304789 142.9451543  73.4379650
  91.0765984 143.3690957  73.5814299  90.1703427 142.2885167  74.1318213
  93.3804234 140.6055911  75.0960824  93.1365166 141.3597972  74.5595099
  93.6564165 140.9841259  75.9308071  92.9368926 139.7612344  70.6774662
  92.0753405 140.0593598  70.9691399  92.9631361 139.9782743  69.7455694
  89.7530496 148.3054535  67.0848467  90.2168841 148.5842238  66.2953090
  89.4887294 147.4037980  66.9021558  88.6899382 144.4277687  63.8938032
  89.3923425 144.8798731  64.3611959  88.3580010 143.7861506  64.5217925
  87.1379743 143.0189444  78.2689242  86.5078404 143.7005725  78.5024639
  87.0315831 142.9072526  77.3242380  82.4324716 142.6861240  69.1955166
  81.6423770 142.9418769  68.7195277  82.9235963 143.5009578  69.3007206
  84.3839461 143.0505819  66.1538643  83.5870624 143.1624513  66.6722138
  84.1565053 143.3892471  65.2879533  80.7162419 142.9391730  71.6270157
  80.9670457 143.8238740  71.8927733  81.2521967 142.7596332  70.8545249
  86.4160486 137.3210210  80.6314493  86.0227431 136.7676408  81.3062137
  87.2326626 137.6320788  81.0221010  89.3328447 138.7368089  78.2234749
  90.0738160 139.3375242  78.1439212  89.5646370 137.9945727  77.6652792
  84.4769785 143.9224456  76.5012979  84.3623300 143.0209713  76.8020078
  83.6214303 144.1688153  76.1497796  93.2785610 134.7649192  72.4999031
  92.9349879 135.6550834  72.4238142  93.6464572 134.5750849  71.6368616
  93.2435893 144.7557803  61.0071466  92.7282516 145.5262408  61.2459854
  92.9713201 144.0822939  61.6304528  90.8283004 139.6007504  66.0656704
  89.9724600 139.2114354  65.8862343  91.2409955 139.6799465  65.2056490
  92.3582150 137.1353847  70.4648264  91.8546946 137.0983982  69.6516070
  92.6512757 138.0446590  70.5244921  88.6025036 137.2192577  69.4714446
  89.4678033 137.0235385  69.1120335  88.6702545 136.9902928  70.3983803
  93.0322196 142.6284895  62.8331247  92.7272331 142.9431044  63.6841390
  93.9852638 142.7066315  62.8758580  86.2087355 139.4494785  66.8430813
  86.7831107 139.2269966  66.1104006  86.7958338 139.5183479  67.5959414
  95.2666932 145.3368512  67.6495189  95.7798814 145.9698503  68.1516899
  95.9168156 144.7369707  67.2838549  86.5356942 141.4799246  60.8626698
  85.6994255 141.8173932  61.1835973  86.3961712 141.3448225  59.9253835
  88.5110023 136.3236034  65.5705882  87.8574435 136.0085051  64.9462497
  88.4690497 135.7011774  66.2965705  89.6221228 146.6055329  57.4859174
  88.7148290 146.3744582  57.6850323  90.1192260 145.8092948  57.6733156
  91.7447763 142.8117967  69.8953530  90.8270325 143.0332914  69.7375218
  92.1607907 142.8864278  69.0365237  92.5282811 144.2109383  65.0256210
  93.2754630 144.7230780  64.7163332  92.7974401 143.8893435  65.8860604
  90.8009461 146.7067923  62.0083164  89.8920680 146.4226956  62.1055634
  90.8304545 147.1267002  61.1486471  94.9761648 141.2466499  67.0074999
  94.2384405 140.7343885  67.3385242  95.2288422 140.8066881  66.1958276
  95.0773275 134.0242751  67.6016769  95.3832152 133.1640114  67.3142684
  95.8025880 134.6160371  67.4015763  81.3697632 144.4273438  65.9898367
  81.1722031 143.8342798  65.2649433  80.8144296 144.1225648  66.7074305
  89.3494355 144.3196544  68.1092960  89.4042965 143.3670380  68.0335436
  88.5385557 144.4755983  68.5934258  90.4985549 148.2476667  59.3471243
  90.0604979 147.5312526  58.8876880  91.2395990 148.4752782  58.7856334
  87.2886715 142.9373604  65.8683339  86.4754581 143.2367774  66.2748531
  87.7845709 142.5429293  66.5857821  92.8860927 143.4015428  74.6998233
  93.2410315 143.6286901  75.5592698  93.5333058 143.7333805  74.0775488
  86.7800790 140.5091959  71.4844574  87.4200169 140.3680718  70.7867537
  85.9478320 140.2226473  71.1083176  83.8643857 143.9537472  63.6739319
  82.9341445 143.8921927  63.8909281  83.9601329 143.4313424  62.8775960
  83.7829406 140.4792284  66.2617560  84.0436224 141.3937618  66.1526721
  84.6046579 140.0116727  66.4114173  85.2554332 141.8930042  73.4316385
  85.9277385 141.6847404  72.7829034  84.4284118 141.6952127  72.9921617
  91.1579904 138.5191982  75.4482046  90.5107819 139.2181932  75.3546522
  91.9280919 138.9528126  75.8158294  91.3344038 146.3572747  73.5078865
  92.2636098 146.5083907  73.3347833  90.9135068 146.4456768  72.6527512
  85.6581829 145.1672644  74.1918822  85.5201627 144.4352883  74.7930361
  86.5686752 145.0781545  73.9103010  94.6196777 147.1061049  58.9403301
  94.0025947 146.3807877  58.8436353  94.1513265 147.8670409  58.5970375
  88.2864130 144.8792604  73.6802502  88.9963748 144.2385796  73.6389120
  88.2433438 145.1305499  74.6028682  86.9993064 141.8657822  75.4998141
  86.4630421 141.4148560  76.1519738  86.4109772 142.0003731  74.7568606
  86.4095323 141.3246473  58.0624605  85.5324789 141.2035274  57.6986852
  86.8853076 140.5332551  57.8103493  82.7332185 141.0013829  72.5851136
  82.6490374 140.3939499  71.8501546  81.9114891 141.4922848  72.5860632
  92.9055899 139.4867393  67.9521331  93.4024598 138.7337355  67.6322401
  92.1342880 139.5231710  67.3864540  93.9885679 148.2439080  65.5259754
  93.0541958 148.3640543  65.3564458  94.1662348 147.3411547  65.2619764
  89.4890867 141.6284776  67.6793015  89.1188655 141.0755816  68.3673921
  89.9849960 141.0242909  67.1268015  97.3758231 144.0856399  66.0609788
  97.8418683 144.9184391  65.9870091  97.8265731 143.6201381  66.7655047
  95.3474893 136.4536986  70.1000690  94.4337973 136.6841213  70.2682897
  95.7767995 136.5375430  70.9514722  95.1181352 144.6426878  72.6000584
  94.4652802 144.8902786  71.9453036  95.4961732 143.8291017  72.2663061
  91.1668925 145.3846689  79.0866621  90.4909562 145.2840819  79.7568996
  91.9896559 145.2285903  79.5502618  77.5065439 144.1924226  70.4283579
  77.5449538 143.6587817  71.2220697  77.0005732 143.6659432  69.8094556
  84.8856201 139.0388767  73.9246121  84.9497528 139.9003598  73.5123519
  84.8223321 138.4262768  73.1918480  84.3608474 141.1111899  77.5719156
  84.9880512 140.7288977  78.1856680  83.5036392 140.8926101  77.9374848
  81.1374016 142.9188328  63.5037510  81.4327457 142.0099007  63.4504564
  80.2362052 142.8976068  63.1818513  84.6668263 140.9944325  69.4865059
  83.9454849 141.6080293  69.3472532  85.4561519 141.5302090  69.4081705
  87.4694577 138.3298751  75.7605711  87.9928979 138.5761048  76.5232020
  87.2506910 139.1618786  75.3408848  82.8661858 140.6002426  63.6276836
  82.5374564 139.7199805  63.4451942  83.2201229 140.5450095  64.5153225
  85.9803681 140.8875396  63.9952313  86.3199754 141.4161317  63.2730922
  86.4275802 141.2255802  64.7710880  88.6747122 139.2712447  73.4455381
  88.3343942 138.4720260  73.8476061  87.9686128 139.5714157  72.8732215
  89.3263594 136.3561759  71.8982704  90.1489663 135.8822237  71.7761595
  89.5701657 137.1352243  72.3981391  87.9671828 139.3850017  62.1945606
  88.6880191 139.7631270  61.6909323  87.3437132 140.1038894  62.2980584
  92.1102951 140.0895166  63.1303938  92.3266566 140.9719804  62.8292767
  91.6297018 139.6981380  62.4009580  86.8502173 143.0480880  69.7074683
  86.7046753 143.3621183  70.5998965  86.3727376 143.6665780  69.1545582
  88.7098555 140.0383428  69.7555573  88.6960124 139.1424521  69.4187871
  89.4270984 140.0454091  70.3893859  90.5624686 140.4720768  71.8008700
  90.3042464 141.3937838  71.7993030  90.0309726 140.0751202  72.4909164
  88.1135451 138.9197808  65.0243143  88.2351363 137.9914454  65.2234030
  87.8237494 138.9336494  64.1121458  90.9826642 136.6052718  68.1609863
  91.0048339 136.6692051  67.2061842  91.3994701 135.7657227  68.3550369
  82.1113857 144.7156120  75.5392501  81.3695593 144.8638756  76.1257131
  81.7906601 144.9764386  74.6759250  87.5976531 140.4329805  79.2333075
  87.6464686 141.3091928  78.8510845  88.1399045 139.8907198  78.6604719
  95.4933014 143.8094323  77.1426248  96.3942877 143.6700788  76.8510245
  95.5680989 143.9748778  78.0824425  89.8275819 141.1861178  75.9879434
  88.9579129 141.4794744  75.7162023  90.0635300 141.7701623  76.7086698
  84.8418143 146.5317118  64.1220099  84.5964185 145.6279448  64.3200309
  85.0114058 146.5334269  63.1799577  92.5314853 137.4040795  73.5044854
  93.0496797 138.1401821  73.1791343  92.1769986 137.7104788  74.3391613
  84.1113791 142.2645476  61.6206260  83.4183036 142.3389831  60.9646296
  83.8665543 141.5005819  62.1427777  92.7827447 133.8241077  69.0245751
  93.0629201 133.1564266  69.6506177  93.5678054 134.0170173  68.5120415
  96.6536306 142.2458711  72.7717326  97.6053729 142.3456809  72.7929550
  96.4839756 141.4536980  73.2815410  94.6750685 139.3314294  72.9576727
  94.0800617 139.6119307  72.2623216  94.3900382 139.8208195  73.7293468
  90.9707714 144.3360884  57.9286830  91.9166819 144.2067092  57.9975248
  90.5921959 143.5975546  58.4056258  99.2818872 142.2575874  71.9317909
  98.7657921 141.4734331  71.7447838 100.1658820 141.9294591  72.0964428
  96.9429599 136.0016890  67.8913722  96.7454420 135.6931978  68.7757054
  97.5529304 136.7278529  68.0211651  90.8546407 148.3878630  79.3887487
  91.7749416 148.5657229  79.5827533  90.8195990 147.4434675  79.2367186
  89.1550631 142.2610860  57.8641715  88.2482087 141.9643973  57.9404429
  89.4326612 141.9640678  56.9976001  80.0728572 143.5817224  68.3140761
  79.7531356 142.7282532  68.0215135  79.5262000 143.7965802  69.0698729
  90.7712697 136.8047750  64.0185956  89.9613426 136.4594835  64.3941202
  91.4597114 136.4955294  64.6073568  92.7003245 135.8825797  65.6410253
  93.2534284 136.3021250  66.3000276  92.9373332 134.9561545  65.6833209
  88.7236345 141.8712870  81.4213017  88.6233072 142.8207227  81.3525108
  88.5057887 141.5431109  80.5489087  87.9249416 139.1197795  58.0053694
  88.7868580 139.4452694  58.2649512  88.1099760 138.3329291  57.4926760
  96.0782053 137.9926322  65.1488917  95.4980722 138.6511126  64.7666970
  95.8117985 137.1703666  64.7376335  94.5285619 137.3931380  67.3510238
  95.0285397 137.5047914  66.5424556  95.1721227 137.0892432  67.9911046
  88.5867615 145.3010009  80.2378078  88.1034696 146.1010369  80.4441968
  88.6728554 145.3117954  79.2845522  94.8606931 140.1526412  64.2045265
  93.9732786 140.4376063  63.9865460  95.2760920 139.9920176  63.3572542
  98.2121467 140.1772933  67.9199605  98.9881857 140.6669386  68.1924222
  97.4869601 140.6030987  68.3771474 100.6494025 140.8900552  68.9773545
 101.2438516 140.6496288  68.2666854 100.7220609 140.1707683  69.6047082
  94.8347954 145.6680948  64.4195556  94.7783156 146.1249500  63.5803188
  95.3876297 144.9071633  64.2418398  98.6452760 141.4570680  65.2445675
  98.3889694 141.0567316  66.0753883  98.0205628 142.1714474  65.1195814
  95.5682734 146.8585729  61.7148085  95.5131537 146.6930001  60.7736529
  94.9428789 147.5661762  61.8710274  80.3575249 142.0953794  75.5409507
  81.0034112 141.5852748  76.0296732  80.1492400 142.8322475  76.1152932
  88.8778859 136.3593838  61.2933403  88.8657529 137.3035678  61.4501674
  89.7702281 136.1763984  60.9992864  92.6930979 132.9536615  65.5479340
  91.9263374 132.3995102  65.6936022  93.1041684 133.0258484  66.4093492
  84.6972740 139.2421411  79.6384521  85.5604201 138.8858216  79.8487846
  84.1238150 138.9035306  80.3259925  17.8271082  15.2450048  57.1692229
  18.4649492  15.1256796  56.4655569  17.7091925  16.1930892  57.2280181
  14.6360788  15.1977476  57.1053754  14.2979300  15.0818541  56.2174288
  15.5050556  14.7968642  57.0854760  10.4947604  17.0512953  53.0950645
   9.9312469  16.9602890  52.3266932  10.3799999  16.2312857  53.5753137
  15.1180571  16.3512328  63.0639959  15.1069212  15.9565126  62.1920463
  15.2801211  15.6178401  63.6573731   8.0412036  18.5464144  55.9334865
   8.8333328  18.2054969  55.5181164   8.2808686  18.6559120  56.8537018
  16.0747163  20.7183921  48.4065109  15.4235142  21.3038001  48.0199123
  16.8691525  21.2490115  48.4660147  10.0002790  17.8073058  48.8052244
  10.7733666  17.2602045  48.6665120  10.3528189  18.6717307  49.0166705
  11.8387832  19.1349440  62.0119143  11.5477698  20.0395071  61.8965809
  12.4744817  19.1765968  62.7263213  12.7644039  16.5126289  58.6020503
  13.3607611  16.2882311  57.8877466  12.8219011  15.7711034  59.2045951
  12.3369068  13.9665724  46.4370694  12.5894588  13.4447245  45.6754157
  11.3993627  13.8031869  46.5397377  17.3812350  12.9701502  54.2445437
  18.1675440  12.5520925  53.8935854  17.6451055  13.8747594  54.4127085
  17.5522428  18.4074353  48.9434094  16.9168261  18.4808979  49.6554998
  17.2219834  18.9967951  48.2653173  22.7820778  12.9076735  55.1478415
  23.5145949  12.3375952  55.3816245  22.0260133  12.5198336  55.5884921
  12.0565356  15.8693830  48.6395069  11.9401614  15.1938733  49.3076153
  12.1667616  15.3826204  47.8227222  14.3996897  15.3303977  52.3441758
  14.0355104  14.8034598  53.0554679  15.2564013  14.9402446  52.1708243
  16.7977717  18.8210855  59.0068937  16.4978440  19.7235894  58.8984744
  16.4528777  18.5543039  59.8590090  10.2490199  15.2724652  55.0405641
   9.3240695  15.1400866  55.2483333  10.4974612  16.0518872  55.5375584
  20.1974861  11.3393396  56.6866374  19.2891739  11.2708804  56.3925135
  20.1462457  11.8165341  57.5148200  14.0191605  12.8151534  48.3249773
  13.8991230  13.2608585  49.1635253  13.3244193  13.1636852  47.7663311
  11.7798497  25.5855176  51.9739904  11.7022527  26.5363001  52.0528385
  11.1760141  25.2401048  52.6314831  14.2715727  12.7583041  64.6301271
  13.4949061  13.3176961  64.6204136  14.9106290  13.2439824  65.1516141
  22.0636508   9.5409834  58.4644248  21.4210888   9.8342367  57.8184043
  21.5591436   9.4262754  59.2697445  19.7176671  13.2873007  49.1530107
  20.6294527  13.5200394  48.9777805  19.2086318  13.8710051  48.5905186
  12.5262099  15.5668495  64.1919238  13.2676784  16.1053539  63.9154062
  11.8199085  16.1934783  64.3490790  18.0017439  17.7097635  62.7891400
  18.4100795  17.2680046  62.0446032  17.2794700  17.1350263  63.0425593
  14.3548509  12.6470242  60.1624957  15.2009704  13.0709655  60.3059606
  14.2947147  11.9903866  60.8563520  18.3246254  18.2698826  56.5443689
  17.6955116  18.4344540  55.8419757  17.9371916  18.6840435  57.3154653
  22.2035485  19.2053264  53.8988052  21.5186524  19.5852165  53.3485086
  22.2879335  19.8148590  54.6320000  17.5047954  10.3074610  61.8206130
  17.2608886  11.0616671  61.2840406  17.7807885  10.6859958  62.6553377
  19.4586417  16.8513223  60.4983396  19.6703312  17.4944982  59.8217777
  19.4116165  16.0175539  60.0305326  17.0612646   9.4631043  57.4019968
  16.1997125   9.7612297  57.6936706  17.0875081   9.6801442  56.4701001
  13.8774215  18.0073234  53.8093774  14.3412561  18.2860937  53.0198396
  13.6131014  17.1056678  53.6266865  10.7698296  17.5544715  56.7473537
  11.3399654  17.9831984  56.1091022  11.3606408  17.2727300  57.4457723
  12.8143101  14.1296386  50.6183339  13.5167145  14.5817430  51.0857265
  12.4823730  13.4880205  51.2463232  20.5732245  19.7285178  58.6705753
  21.3949689  19.3265365  58.3888435  20.5694648  19.6253412  59.6221869
  14.3388848  19.2769221  60.8266464  14.4033281  19.7389629  61.6624636
  13.6299772  18.6466586  60.9548774  28.6638238  16.0723926  55.0190725
  27.9101946  15.5031325  54.8634729  28.7985779  16.0386591  55.9661360
  14.0536866  20.9437329  50.6945444  13.9182541  21.7888865  51.1230292
  14.5946679  21.1456606  49.9311378   7.5066264  18.4612767  51.2673369
   8.0190784  19.2556017  51.4178934   8.1588976  17.7639057  51.2006971
   9.3161148  21.5778523  53.3496122   9.4927777  22.4996488  53.1617106
  10.1117982  21.2636942  53.7790502  15.6805342  21.5660895  64.8245786
  15.2369197  20.7797274  64.5066691  16.3422556  21.7540046  64.1589677
  10.4392464  23.0956697  59.3506465  10.9899889  22.9673760  58.5783459
   9.6003940  23.3951586  59.0001358  17.7786581  21.8463695  62.8527188
  17.7605056  22.6672576  62.3607457  18.7006501  21.7217770  63.0777329
  14.2359635  19.3607825  63.6950696  14.7687972  18.5996113  63.4650004
  13.7073716  19.0681477  64.4374850  17.3679612  14.4576502  47.7316773
  16.8526236  15.2281106  47.9705160  17.0956921  13.7841638  48.3549834
  22.3413887  17.2108856  49.6669946  21.5643329  16.8720016  49.2225108
  23.0205368  17.2161480  48.9924911  17.1565916  12.3303594  49.5576554
  16.8516051  12.6449743  50.4086697  18.1096358  12.4085014  49.6003887
  15.6012347  18.4893817  51.2069508  15.0733709  17.7546577  50.8942745
  15.0999850  19.2668494  50.9609476  20.5805193  16.6842838  56.3236554
  19.9228868  17.3742099  56.4116683  21.3845593  17.0739270  56.6670541
  19.3910652  15.0387210  54.3740496  19.9042534  15.6717202  54.8762206
  20.0411876  14.4388406  54.0083856  13.7464948  16.3074027  44.2104481
  12.8392009  16.0763281  44.4095630  14.2435980  15.5111647  44.3978463
  16.6533026  25.0171535  47.1301167  15.9794725  25.3203231  47.7386125
  17.0398848  25.8200615  46.7806624  15.8691483  12.5136666  56.6198836
  14.9514044  12.7351613  56.4620525  16.2851627  12.5882976  55.7610544
  16.6526531  13.9128082  51.7501517  17.3998350  14.4249479  51.4408639
  16.9218120  13.5912134  52.6105910  14.9253181  16.4086622  48.7328471
  14.0164400  16.1245655  48.8300941  14.9548265  16.8285701  47.8731778
  20.1572448  20.0193212  52.5019639  19.7034776  19.1784122  52.5584829
  19.5266415  20.6554610  52.8394419  19.1005368  10.9485198  53.7320306
  18.3628125  10.4362584  54.0630549  19.3532142  10.5085579  52.9203583
  18.6005388  21.8569709  53.4369457  18.8928362  22.4174766  52.7181822
  19.1104008  22.1498270  54.1922616  13.4738075  14.0215243  54.8338266
  13.5286685  13.0689079  54.7580743  12.6629277  14.1774682  55.3179565
  14.6229269  17.9495366  46.0716550  14.1848699  17.2331225  45.6122187
  15.3639710  18.1771481  45.5101641  13.5639013  22.6350060  54.5262910
  13.5215192  22.8610906  53.5971442  14.4801712  22.4013434  54.6748711
  17.0104647  13.1034127  61.4243539  17.3654034  13.3305600  62.2838005
  17.6576778  13.4352504  60.8020794  22.7402384  16.2252563  52.1292868
  22.6020282  16.4154159  51.2014057  22.3838602  16.9871946  52.5860919
  22.7671763  18.2929090  57.1404140  23.2008270  18.2004379  57.9887194
  23.4803344  18.2686591  56.5024156  11.6804814  19.5113089  54.3224873
  12.4745412  19.0163409  54.1207448  10.9696506  18.9830952  53.9592578
  16.4999658  21.8931184  58.6737240  16.5536680  22.4622120  59.4414956
  15.6314439  22.0633069  58.3091277  23.6287313  18.3352791  59.6737025
  23.8223203  19.2398601  59.9196300  23.5287931  17.8760210  60.5075610
  18.6902421  18.4859533  65.2477906  18.5387928  18.2570085  64.3307989
  18.6807101  19.4430135  65.2609251  15.4587758  16.0591446  60.2324172
  16.3879818  16.2102606  60.0593139  15.0378788  16.1475467  59.3772819
  14.2576090  20.0842111  58.0022710  14.1187175  19.7160895  58.8748648
  13.4690686  20.5989750  57.8306668  14.8524242  25.1851207  49.3448246
  15.0275997  24.7139250  50.1593869  14.1657030  25.8116973  49.5729507
  15.8081305  19.4623713  55.3911548  15.4731137  19.4224483  56.2869197
  15.3085250  18.7968429  54.9181958   9.7825549  14.8691343  60.9164129
   9.6445347  14.1371582  61.5175668  10.6930472  14.7800243  60.6348316
  18.7440496  16.8079748  45.6648607  18.1269667  16.0826576  45.5681660
  18.2756985  17.5689108  45.3215681  12.4107849  14.5811303  60.4047808
  13.1207468  13.9404495  60.3634427  12.3677158  14.8324198  61.3273989
  20.3994628  21.5178656  63.3254388  20.3407174  20.8337876  62.6584971
  20.8014146  22.2597646  62.8735014   9.4185327  28.3340570  56.1188106
   9.6581925  28.9659094  56.7967125   8.5754523  27.9828610  56.4053466
  20.4012035  19.4818240  61.5568367  19.5138814  19.1444162  61.6794766
  20.9710586  18.7501271  61.7937133  13.9313189  24.1419692  58.5229610
  13.8583360  24.9474664  59.0348915  13.4890582  24.3411658  57.6977632
  13.7202968  23.3791462  52.0332432  12.9370490  23.9213143  52.1270657
  14.4195714  23.8965442  52.4326673  24.8829376  14.8926457  56.3184929
  24.8719252  15.7751173  55.9478862  24.0146755  14.5398008  56.1239466
  16.3911872  24.0406526  60.6787769  17.1039844  24.6753991  60.6063671
  15.9001901  24.1370392  59.8627771  18.1129399  17.9457779  52.2505061
  17.1785678  18.0659241  52.0809765  18.2906068  17.0430246  51.9865071
  21.5001951  13.7875098  52.7855095  21.9662403  14.6203090  52.7115398
  21.9509451  13.3220080  53.4900353  11.4423786  21.7900970  61.4993340
  12.1433245  22.4237453  61.6522734  10.9718901  22.1315701  60.7388979
  19.5678182  20.1318920  49.7841247  19.8438026  20.0175514  50.6935121
  18.6982680  19.7336404  49.7453420  19.2425072  14.3445577  59.3245890
  18.5896522  14.5921485  58.6698343  19.6205452  13.5309715  58.9908368
  16.2032246  24.3805270  53.4274061  16.3854640  23.5626926  53.8901813
  17.0265232  24.5972963  52.9898951  16.5374411  23.3073456  50.6889109
  17.0662178  22.7965910  50.0759271  16.8002631  22.9915986  51.5534642
  15.2912645  15.0865388  65.8111927  14.6153282  14.9859518  66.4814303
  16.1140279  14.9304602  66.2747925   7.0391504  21.3237325  58.4324443
   7.6244941  20.5781013  58.5652347   6.8416342  21.6341282  59.3161107
   9.8930159  24.3588572  53.4486885   9.2240534  24.8434700  52.9650925
   9.7543029  24.6057793  54.3630264  14.0335428  26.3932316  60.0469543
  14.5853736  26.5563937  60.8118629  14.3741621  26.9836754  59.3749568
  18.8846302  21.2193573  65.9018198  19.4286206  21.8323532  65.4073153
  18.3033147  21.7773152  66.4185211  17.1703815  24.3414291  57.0333226
  17.0454954  23.5404031  56.5244171  17.8282906  24.8360485  56.5447195
  19.2338723  22.1423311  58.6612776  18.2869059  22.0228663  58.5891102
  19.5821496  21.2545809  58.7439037  16.2385157  21.9376028  54.8617128
  16.0910119  21.0092735  55.0424698  17.0638650  21.9596118  54.3774203
  19.8419278  22.7604586  55.9482001  20.7665826  22.5547448  55.8106452
  19.6734582  22.5120987  56.8571342  19.6314595  23.2790254  51.3044092
  19.8051472  22.7136676  50.5517944  20.1243486  24.0791149  51.1223582
  25.4853986  16.0426677  52.9234392  25.9285132  15.2934002  52.5253515
  24.6080496  16.0336813  52.5408124  20.6189767  22.5957018  48.4040990
  21.3140672  23.2163711  48.6228305  20.9612917  21.7452369  48.6793368
  22.5181190  20.0456724  49.9328321  23.0432514  20.3843996  49.2077641
  22.4303543  19.1103739  49.7491456  14.1801239  23.9590797  62.0618198
  14.4888365  23.7139944  62.9340897  14.9776721  24.1637436  61.5737068
  14.2021851  26.1128707  54.2923574  13.7626841  25.6205086  54.9856431
  14.9529968  25.5701675  54.0515650   6.6814190  22.3040248  54.2948202
   7.5072210  22.0044020  53.9146846   6.3308242  21.5347870  54.7437991
  11.6495723  21.6566716  56.3645876  11.0275733  20.9937421  56.0648104
  12.3200590  21.6827848  55.6819524   4.8822795  20.2226574  55.2537136
   4.0454703  19.7948749  55.0721137   4.8546441  20.4159018  56.1907927
  22.2075096  20.6789627  65.2379519  21.4170640  20.6613766  64.6984018
  21.9708451  21.2177921  65.9928556  22.3272971  17.5282094  62.5512248
  22.3770976  17.3632101  63.4927770  22.2186895  16.6609353  62.1610128
  11.2109230  20.2070639  49.8404336  11.3597350  20.8906104  49.1871009
  12.0175674  20.1875729  50.3553792  19.6176734  13.5113022  63.8671554
  20.5186597  13.3719487  63.5755552  19.6924708  13.6767477  64.8069732
  23.8291168  19.9479035  62.7954269  23.5375977  20.3109016  63.6317730
  23.2163300  19.2346044  62.6167601  25.0286851  17.5131915  55.3156839
  25.8633742  17.9521719  55.4794400  25.1645979  17.0370568  54.4965085
  22.0778357  15.0711650  61.2634327  22.5532478  15.2639296  60.4553178
  21.1543922  15.1270836  61.0177711   8.9661863  16.2335817  50.8465405
   8.7207905  15.3298147  51.0445616   9.1357778  16.2352967  49.9044883
  14.7104636  22.7018770  47.3116084  14.1378603  23.3208957  46.8586556
  15.2837429  23.2518132  47.8456006  20.7780026  11.9477410  59.4962633
  21.7297448  12.0475508  59.5174857  20.6083476  11.1555678  60.0060717
  18.7994405   9.0332993  59.6822034  18.2044337   9.3138006  58.9868522
  18.5144102   9.5226894  60.4538775  17.9301895  22.9855920  48.4424666
  18.8632569  22.9201482  48.6457542  17.8425108  23.8212187  47.9839199
  20.5589912  22.3021790  45.4028614  20.4803544  21.9681654  46.2964372
  21.3799579  22.7943558  45.4020086  23.2568103  15.1683530  58.6104932
  23.2244423  14.2299530  58.7964616  23.8668727  15.2467566  57.8770757
  15.0951434  14.0379583  44.6532136  16.0410539  13.9085791  44.7220554
  14.7165679  13.2994244  45.1301565  23.4062592  11.9594573  58.6563216
  22.8901640  11.1753030  58.4693144  24.2902540  11.6313290  58.8209735
  29.0744653  16.2299536  57.7510969  29.8048042  15.9684825  58.3118672
  28.4651599  15.4928258  57.7913037  27.1559950  14.3707399  58.3485420
  26.4293114  14.2363364  57.7401912  26.7407237  14.6784228  59.1542138
  14.9790127  18.0897329  66.1132793  15.8993136  18.2675928  66.3072840
  14.9439710  17.1453374  65.9612493   7.9752199  15.9998363  58.7555575
   8.1938209  16.9315471  58.7743608   8.3877973  15.6406338  59.5410378
  20.2025772   7.6945021  51.8734224  19.6224441   8.3529825  51.4912276
  19.9361705   6.8722365  51.4621641  12.7111335  15.0028708  66.9623385
  12.2278416  15.8029068  67.1687274  12.7972274  15.0136653  66.0090829
   5.9797294  16.8357088  54.8845204   5.9567982  16.9344775  53.9327088
   6.2897931  17.6822238  55.2062371   8.6384672  18.8933243  58.9991819
   9.5927926  18.8617185  58.9321750   8.4397196  18.4323866  59.8142045
   9.2284054  17.4634359  61.5662617  10.0476943  17.9578437  61.5897454
   9.5020862  16.5466327  61.5380184  18.9850650   9.8545111  50.9290572
  18.0976505  10.1394762  50.7110767  19.4004639   9.6938874  50.0817849
  22.3365187   9.8791632  54.6444911  23.1125577  10.3688084  54.9169528
  21.6113321  10.3049686  55.1016781  24.7737745  10.5919251  55.7018852
  25.3682236  10.3514987  54.9912160  24.8464329   9.8726382  56.3292388
   6.9934901  24.4352862  56.0162017   6.8589369  23.6753263  55.4500015
   6.5766963  25.1593762  55.5490806  18.1293864  19.6189786  45.0238592
  18.8329714  19.8239788  45.6396248  17.4056513  20.1866548  45.2887676
  18.9591674  15.3699647  51.1440862  18.9026876  15.8268198  50.3048495
  19.5120017  14.6090332  50.9663705  22.7696480  11.1589379  51.9690982
  22.5133414  10.7586015  52.7999189  22.1449348  11.8733173  51.8441121
  27.0808818  13.8985452  54.4762273  26.5208376  13.9678641  55.2493835
  26.4752321  13.7226437  53.7561769  10.1504027  25.3322179  56.2280459
  10.0336411  26.2767612  56.1259150   9.3296473  25.0295741  56.6166259
  20.0380561  20.0572315  47.0737052  20.8726165  19.6253513  46.8914527
  19.8764904  19.8854329  48.0013947  19.6926453  16.5604428  48.4393391
  19.6375257  16.3948700  47.4981836  19.0672509  17.2680461  48.5955581
  17.0072361  18.8653340  67.7646954  17.8763520  19.0393992  67.4033589
  16.5279112  19.6847757  67.6422684  11.1758541  25.9850441  59.4436388
  12.0785788  26.0174051  59.7602883  10.9495911  25.0550892  59.4582724
  12.9312143  24.7381428  56.1046466  11.9807774  24.7383289  55.9910839
  13.2344629  23.9914162  55.5882501  28.6664836  30.5741966  57.1692229
  29.3043246  30.4548713  56.4655569  28.5485679  31.5222810  57.2280181
  25.4754543  30.5269394  57.1053754  25.1373054  30.4110459  56.2174288
  26.3444311  30.1260559  57.0854760  21.3341358  32.3804871  53.0950645
  20.7706223  32.2894807  52.3266932  21.2193753  31.5604775  53.5753137
  25.9574326  31.6804246  63.0639959  25.9462966  31.2857044  62.1920463
  26.1194965  30.9470318  63.6573731  18.8805790  33.8756062  55.9334865
  19.6727082  33.5346887  55.5181164  19.1202440  33.9851037  56.8537018
  26.9140917  36.0475838  48.4065109  26.2628897  36.6329919  48.0199123
  27.7085280  36.5782033  48.4660147  20.8396544  33.1364975  48.8052244
  21.6127420  32.5893962  48.6665120  21.1921943  34.0009225  49.0166705
  22.6781587  34.4641358  62.0119143  22.3871453  35.3686989  61.8965809
  23.3138571  34.5057885  62.7263213  23.6037794  31.8418206  58.6020503
  24.2001366  31.6174229  57.8877466  23.6612765  31.1002952  59.2045951
  23.1762822  29.2957642  46.4370694  23.4288343  28.7739163  45.6754157
  22.2387381  29.1323787  46.5397377  28.2206105  28.2993420  54.2445437
  29.0069194  27.8812843  53.8935854  28.4844809  29.2039512  54.4127085
  28.3916182  33.7366270  48.9434094  27.7562015  33.8100897  49.6554998
  28.0613589  34.3259869  48.2653173  33.6214532  28.2368653  55.1478415
  34.3539704  27.6667870  55.3816245  32.8653888  27.8490254  55.5884921
  22.8959111  31.1985747  48.6395069  22.7795369  30.5230651  49.3076153
  23.0061371  30.7118121  47.8227222  25.2390652  30.6595895  52.3441758
  24.8748859  30.1326516  53.0554679  26.0957768  30.2694364  52.1708243
  31.1439952  21.9490227  59.6073024  30.8123277  22.8185638  59.3834239
  30.5485566  21.6326511  60.2867054  24.8796139  25.6885794  47.3403106
  25.0470541  26.5566031  47.7073577  24.6893308  25.8513076  46.4164396
  27.6371472  34.1502773  59.0068937  27.3372195  35.0527812  58.8984744
  27.2922531  33.8834956  59.8590090  21.0883953  30.6016570  55.0405641
  20.1634450  30.4692784  55.2483333  21.3368367  31.3810789  55.5375584
  31.0368616  26.6685313  56.6866374  30.1285493  26.6000722  56.3925135
  30.9856211  27.1457258  57.5148200  24.8585360  28.1443452  48.3249773
  24.7384985  28.5900503  49.1635253  24.1637948  28.4928769  47.7663311
  18.4492764  30.2449844  55.8749430  18.5785146  30.4984322  56.7888842
  17.7690216  30.8377552  55.5554085  22.6192252  40.9147094  51.9739904
  22.5416281  41.8654919  52.0528385  22.0153895  40.5692966  52.6314831
  25.1109481  28.0874959  64.6301271  24.3342816  28.6468879  64.6204136
  25.7500045  28.5731742  65.1516141  32.9030262  24.8701752  58.4644248
  32.2604642  25.1634285  57.8184043  32.3985191  24.7554672  59.2697445
  30.5570426  28.6164925  49.1530107  31.4688282  28.8492312  48.9777805
  30.0480073  29.2001969  48.5905186  23.3655854  30.8960412  64.1919238
  24.1070538  31.4345456  63.9154062  22.6592839  31.5226701  64.3490790
  28.8411193  33.0389553  62.7891400  29.2494549  32.5971963  62.0446032
  28.1188455  32.4642180  63.0425593  25.1942263  27.9762160  60.1624957
  26.0403459  28.4001573  60.3059606  25.1340901  27.3195784  60.8563520
  29.1640008  33.5990743  56.5443689  28.5348870  33.7636458  55.8419757
  28.7765670  34.0132353  57.3154653  33.0429240  34.5345181  53.8988052
  32.3580278  34.9144083  53.3485086  33.1273089  35.1440508  54.6320000
  28.3441709  25.6366528  61.8206130  28.1002641  26.3908588  61.2840406
  28.6201639  26.0151876  62.6553377  30.2980172  32.1805140  60.4983396
  30.5097067  32.8236900  59.8217777  30.2509920  31.3467457  60.0305326
  27.9006401  24.7922961  57.4019968  27.0390880  25.0904214  57.6936706
  27.9268835  25.0093360  56.4701001  24.7167970  33.3365151  53.8093774
  25.1806315  33.6152854  53.0198396  24.4524768  32.4348596  53.6266865
  21.6092051  32.8836633  56.7473537  22.1793408  33.3123901  56.1091022
  22.2000163  32.6019218  57.4457723  23.6536856  29.4588304  50.6183339
  24.3560899  29.9109348  51.0857265  23.3217484  28.8172123  51.2463232
  22.1017218  28.0500060  64.9934548  21.4715878  28.7316341  65.2269945
  21.9953305  27.9383142  64.0487687  17.3962190  27.7171857  55.9200473
  16.6061244  27.9729385  55.4440583  17.8873437  28.5320194  56.0252513
  31.4125999  35.0577096  58.6705753  32.2343443  34.6557283  58.3888435
  31.4088402  34.9545330  59.6221869  19.3476935  28.0816436  52.8783949
  18.5508099  28.1935130  53.3967445  19.1202528  28.4203088  52.0124840
  25.1782603  34.6061139  60.8266464  25.2427035  35.0681546  61.6624636
  24.4693527  33.9758504  60.9548774  15.6799893  27.9702347  58.3515463
  15.9307931  28.8549357  58.6173039  16.2159441  27.7906948  57.5790555
  39.5031993  31.4015844  55.0190725  38.7495701  30.8323242  54.8634729
  39.6379534  31.3678509  55.9661360  24.8930621  36.2729246  50.6945444
  24.7576295  37.1180782  51.1230292  25.4340433  36.4748524  49.9311378
  21.3797960  22.3520826  67.3559799  20.9864906  21.7987025  68.0307444
  22.1964101  22.6631405  67.7466317  18.3460018  33.7904685  51.2673369
  18.8584539  34.5847935  51.4178934  18.9982731  33.0930975  51.2006971
  20.1554903  36.9070441  53.3496122  20.3321531  37.8288405  53.1617106
  20.9511736  36.5928860  53.7790502  24.2965921  23.7678705  64.9480056
  25.0375635  24.3685859  64.8684518  24.5283844  23.0256343  64.3898099
  19.4407259  28.9535073  63.2258286  19.3260774  28.0520330  63.5265385
  18.5851777  29.1998769  62.8743102  26.5199097  36.8952813  64.8245786
  26.0762951  36.1089192  64.5066691  27.1816311  37.0831963  64.1589677
  21.2786218  38.4248615  59.3506465  21.8293643  38.2965678  58.5783459
  20.4397694  38.7243504  59.0001358  28.6180335  37.1755613  62.8527188
  28.5998810  37.9964494  62.3607457  29.5400255  37.0509688  63.0777329
  25.0753389  34.6899742  63.6950696  25.6081726  33.9288031  63.4650004
  24.5467470  34.3973394  64.4374850  28.2423084  19.7959808  59.2244338
  27.8987354  20.6861450  59.1483448  28.6102047  19.6061466  58.3613923
  16.3108935  32.1193339  52.0432940  17.1484157  32.5290347  51.8266648
  16.4887202  31.1792781  52.0133134  28.2073367  29.7868419  47.7316773
  27.6919990  30.5573024  47.9705160  27.9350675  29.1133556  48.3549834
  25.7920478  24.6318120  52.7902011  24.9362074  24.2424971  52.6107650
  26.2047430  24.7110081  51.9301797  27.3219625  22.1664464  57.1893571
  26.8184420  22.1294599  56.3761376  27.6150231  23.0757206  57.2490228
  23.5662510  22.2503193  56.1959753  24.4315507  22.0546002  55.8365642
  23.6340019  22.0213545  57.1229109  33.1807641  32.5400774  49.6669946
  32.4037084  32.2011934  49.2225108  33.8599122  32.5453397  48.9924911
  27.9959670  27.6595512  49.5576554  27.6909806  27.9741661  50.4086697
  28.9490112  27.7376931  49.6003887  26.4406102  33.8185735  51.2069508
  25.9127463  33.0838494  50.8942745  25.9393605  34.5960411  50.9609476
  31.4198948  32.0134755  56.3236554  30.7622622  32.7034017  56.4116683
  32.2239347  32.4031187  56.6670541  21.1724830  24.4805401  53.5676119
  21.7468581  24.2580583  52.8349312  21.7595812  24.5494096  54.3204721
  30.2304407  30.3679128  54.3740496  30.7436288  31.0009120  54.8762206
  30.8805631  29.7680324  54.0083856  21.4994417  26.5109862  47.5872005
  20.6631729  26.8484549  47.9081279  21.3599186  26.3758842  46.6499142
  23.4747497  21.3546650  52.2951189  22.8211910  21.0395667  51.6707804
  23.4327971  20.7322391  53.0211012  24.5858702  31.6365945  44.2104481
  23.6785764  31.4055199  44.4095630  25.0829734  30.8403564  44.3978463
  27.4926781  40.3463452  47.1301167  26.8188480  40.6495149  47.7386125
  27.8792603  41.1492533  46.7806624  26.7085238  27.8428584  56.6198836
  25.7907799  28.0643531  56.4620525  27.1245381  27.9174894  55.7610544
  27.4920285  29.2419999  51.7501517  28.2392104  29.7541397  51.4408639
  27.7611875  28.9204052  52.6105910  25.7646936  31.7378540  48.7328471
  24.8558155  31.4537573  48.8300941  25.7942019  32.1577619  47.8731778
  30.9966203  35.3485130  52.5019639  30.5428530  34.5076039  52.5584829
  30.3660170  35.9846528  52.8394419  29.9399123  26.2777116  53.7320306
  29.2021879  25.7654502  54.0630549  30.1925896  25.8377497  52.9203583
  29.4399142  37.1861626  53.4369457  29.7322117  37.7466683  52.7181822
  29.9497763  37.4790187  54.1922616  30.0410750  19.0553368  54.3262075
  30.3469627  18.1950731  54.0387990  30.7663355  19.6470988  54.1261069
  16.3335106  29.4584054  52.7143673  16.1359506  28.8653415  51.9894740
  15.7781770  29.1536264  53.4319612  24.3131830  29.3507161  54.8338266
  24.3680439  28.3980997  54.7580743  23.5023032  29.5066600  55.3179565
  25.4623023  33.2787284  46.0716550  25.0242453  32.5623143  45.6122187
  26.2033464  33.5063399  45.5101641  22.2524189  27.9684220  52.5928645
  21.4392055  28.2678391  52.9993837  22.7483184  27.5739909  53.3103128
  24.4032767  37.9641977  54.5262910  24.3608946  38.1902824  53.5971442
  25.3195466  37.7305352  54.6748711  27.8498401  28.4326045  61.4243539
  28.2047789  28.6597518  62.2838005  28.4970532  28.7644422  60.8020794
  33.5796138  31.5544481  52.1292868  33.4414037  31.7446077  51.2014057
  33.2232357  32.3163864  52.5860919  21.7438264  25.5402576  58.2089880
  22.3837644  25.3991335  57.5112844  20.9115795  25.2537089  57.8328482
  33.6065518  33.6221008  57.1404140  34.0402024  33.5296297  57.9887194
  34.3197098  33.5978508  56.5024156  22.5198568  34.8405006  54.3224873
  23.3139167  34.3455326  54.1207448  21.8090261  34.3122869  53.9592578
  27.3393413  37.2223102  58.6737240  27.3930435  37.7914038  59.4414956
  26.4708194  37.3924987  58.3091277  18.8281332  28.9848088  50.3984625
  17.8978920  28.9232544  50.6154587  18.9238804  28.4624041  49.6021267
  18.7466881  25.5102901  52.9862867  19.0073698  26.4248234  52.8772027
  19.5684053  25.0427343  53.1359480  20.2191806  26.9240658  60.1561692
  20.8914859  26.7158020  59.5074340  19.3921593  26.7262744  59.7166924
  34.4681067  33.6644708  59.6737025  34.6616957  34.5690519  59.9196300
  34.3681685  33.2052127  60.5075610  26.1217378  23.5502599  62.1727352
  25.4745293  24.2492549  62.0791829  26.8918393  23.9838743  62.5403601
  29.5296176  33.8151451  65.2477906  29.3781682  33.5862003  64.3307989
  29.5200855  34.7722053  65.2609251  26.2981512  31.3883364  60.2324172
  27.2273572  31.5394523  60.0593139  25.8772542  31.4767385  59.3772819
  25.0969844  35.4134028  58.0022710  24.9580930  35.0452813  58.8748648
  24.3084440  35.9281668  57.8306668  25.6917996  40.5143125  49.3448246
  25.8669752  40.0431168  50.1593869  25.0050784  41.1408891  49.5729507
  26.6475059  34.7915631  55.3911548  26.3124892  34.7516401  56.2869197
  26.1479005  34.1260347  54.9181958  20.6219303  30.1983261  60.9164129
  20.4839101  29.4663500  61.5175668  21.5324227  30.1092161  60.6348316
  29.5834251  32.1371665  45.6648607  28.9663422  31.4118493  45.5681660
  29.1150739  32.8981026  45.3215681  23.2501604  29.9103220  60.4047808
  23.9601222  29.2696413  60.3634427  23.2070912  30.1616115  61.3273989
  31.2388383  36.8470574  63.3254388  31.1800929  36.1629794  62.6584971
  31.6407901  37.5889564  62.8735014  21.9630538  26.8968438  62.2243448
  21.4267895  26.4459177  62.8765044  21.3747246  27.0314347  61.4813912
  20.2579081  43.6632488  56.1188106  20.4975680  44.2951012  56.7967125
  19.4148278  43.3120528  56.4053466  21.3732797  26.3557090  44.7869911
  20.4962263  26.2345890  44.4232158  21.8490550  25.5643168  44.5348800
  31.2405790  34.8110158  61.5568367  30.3532569  34.4736079  61.6794766
  31.8104341  34.0793189  61.7937133  12.8934937  31.1434249  54.8811419
  13.5805977  30.8295979  54.2932434  12.7383066  32.0475614  54.6078670
  17.6969659  26.0324446  59.3096442  17.6127848  25.4250115  58.5746852
  16.8752366  26.5233464  59.3105939  24.7706943  39.4711610  58.5229610
  24.6977115  40.2766581  59.0348915  24.3284336  39.6703576  57.6977632
  24.5596723  38.7083380  52.0332432  23.7764245  39.2505060  52.1270657
  25.2589468  39.2257360  52.4326673  27.8693373  24.5178009  54.6766637
  28.3662073  23.7647972  54.3567708  27.0980355  24.5542326  54.1109847
  35.7223130  30.2218375  56.3184929  35.7113007  31.1043090  55.9478862
  34.8540510  29.8689926  56.1239466  27.2305627  39.3698444  60.6787769
  27.9433599  40.0045909  60.6063671  26.7395655  39.4662310  59.8627771
  28.9523154  33.2749697  52.2505061  28.0179432  33.3951159  52.0809765
  29.1299822  32.3722163  51.9865071  24.4528342  26.6595392  54.4038322
  24.0826129  26.1066433  55.0919228  24.9487434  26.0553526  53.8513322
  32.3395705  29.1167016  52.7855095  32.8056157  29.9495008  52.7115398
  32.7903206  28.6511998  53.4900353  22.2817540  37.1192887  61.4993340
  22.9827000  37.7529370  61.6522734  21.8112655  37.4607619  60.7388979
  30.4071936  35.4610837  49.7841247  30.6831780  35.3467432  50.6935121
  29.5376435  35.0628322  49.7453420  30.3112368  21.4847603  56.8245996
  29.3975448  21.7151830  56.9928203  30.7405469  21.5686047  57.6760029
  30.0818826  29.6737495  59.3245890  29.4290277  29.9213402  58.6698343
  30.4599206  28.8601633  58.9908368  27.0426000  39.7097188  53.4274061
  27.2248395  38.8918844  53.8901813  27.8658986  39.9264880  52.9898951
  27.3768166  38.6365373  50.6889109  27.9055932  38.1257828  50.0759271
  27.6396385  38.3207903  51.5534642  26.1306399  30.4157306  65.8111927
  25.4547036  30.3151435  66.4814303  26.9534033  30.2596520  66.2747925
  17.8785258  36.6529242  58.4324443  18.4638695  35.9072930  58.5652347
  17.6810097  36.9633199  59.3161107  20.7323914  39.6880490  53.4486885
  20.0634289  40.1726618  52.9650925  20.5936783  39.9349710  54.3630264
  12.4702913  29.2234843  57.1528886  12.5087013  28.6898433  57.9466004
  11.9643206  28.6970048  56.5339863  24.8729182  41.7224233  60.0469543
  25.4247490  41.8855855  60.8118629  25.2135376  42.3128671  59.3749568
  19.8493675  24.0699383  60.6491428  19.9135002  24.9314214  60.2368826
  19.7860796  23.4573385  59.9163787  19.3245948  26.1422516  64.2964462
  19.9517987  25.7599593  64.9101987  18.4673867  25.9236718  64.6620155
  29.7240057  36.5485491  65.9018198  30.2679960  37.1615449  65.4073153
  29.1426901  37.1065069  66.4185211  16.1011491  27.9498945  50.2282817
  16.3964932  27.0409623  50.1749871  15.1999526  27.9286684  49.9063819
  28.0097569  39.6706209  57.0333226  27.8848709  38.8695949  56.5244171
  28.6676661  40.1652402  56.5447195  19.6305738  26.0254941  56.2110366
  18.9092323  26.6390909  56.0717839  20.4198993  26.5612706  56.1327012
  30.0732478  37.4715229  58.6612776  29.1262813  37.3520580  58.5891102
  30.4215251  36.5837727  58.7439037  22.4332051  23.3609368  62.4851018
  22.9566453  23.6071664  63.2477327  22.2144384  24.1929403  62.0654155
  17.8299332  25.6313043  50.3522142  17.5012038  24.7510421  50.1697248
  18.1838703  25.5760711  51.2398532  27.0778911  37.2667945  54.8617128
  26.9303874  36.3384653  55.0424698  27.9032405  37.2888036  54.3774203
  20.9441155  25.9186012  50.7197620  21.2837228  26.4471934  49.9976228
  21.3913276  26.2566418  51.4956187  30.6813033  38.0896504  55.9482001
  31.6059580  37.8839365  55.8106452  30.5128336  37.8412905  56.8571342
  23.6384596  24.3023063  60.1700688  23.2981417  23.5030876  60.5721368
  22.9323603  24.6024774  59.5977521  24.2901068  21.3872375  58.6228011
  25.1127137  20.9132854  58.5006901  24.5339132  22.1662859  59.1226697
  22.9309303  24.4160634  48.9190913  23.6517665  24.7941887  48.4154630
  22.3074607  25.1349511  49.0225891  27.0740425  25.1205783  49.8549245
  27.2904040  26.0030421  49.5538073  26.5934493  24.7291996  49.1254887
  21.8139647  28.0791496  56.4319990  21.6684228  28.3931799  57.3244271
  21.3364850  28.6976396  55.8790888  23.6736030  25.0694044  56.4800879
  23.6597598  24.1735137  56.1433177  24.3908458  25.0764708  57.1139165
  25.5262160  25.5031384  58.5254007  25.2679938  26.4248455  58.5238337
  24.9947201  25.1061819  59.2154471  30.4708349  38.6082171  51.3044092
  30.6445227  38.0428594  50.5517944  30.9637240  39.4083066  51.1223582
  16.2885309  30.6196841  59.3707651  15.7438777  31.3956648  59.5027925
  17.1664659  30.9667645  59.2126772  23.0772926  23.9508424  51.7488449
  23.1988837  23.0225071  51.9479337  22.7874968  23.9647110  50.8366765
  25.9464116  21.6363335  54.8855169  25.9685813  21.7002668  53.9307149
  26.3632175  20.7967843  55.0795675  36.3247740  31.3718594  52.9234392
  36.7678886  30.6225920  52.5253515  35.4474251  31.3628731  52.5408124
  31.4583522  37.9248936  48.4040990  32.1534426  38.5455629  48.6228305
  31.8006672  37.0744287  48.6793368  17.0751331  29.7466737  62.2637808
  16.3333067  29.8949372  62.8502438  16.7544075  30.0075002  61.4004557
  33.3574945  35.3748641  49.9328321  33.8826269  35.7135914  49.2077641
  33.2697297  34.4395657  49.7491456  25.0194994  39.2882715  62.0618198
  25.3282120  39.0431862  62.9340897  25.8170476  39.4929353  61.5737068
  25.0415606  41.4420625  54.2923574  24.6020596  40.9497003  54.9856431
  25.7923723  40.8993592  54.0515650  17.5207945  37.6332165  54.2948202
  18.3465964  37.3335937  53.9146846  17.1701997  36.8639788  54.7437991
  22.4889478  36.9858634  56.3645876  21.8669487  36.3229339  56.0648104
  23.1594345  37.0119766  55.6819524  15.7216550  35.5518492  55.2537136
  14.8848458  35.1240666  55.0721137  15.6940195  35.7450935  56.1907927
  22.5614005  25.4640422  65.9578382  22.6102161  26.3402545  65.5756152
  23.1036519  24.9217815  65.3850025  33.0468851  36.0081545  65.2379519
  32.2564395  35.9905684  64.6984018  32.8102205  36.5469839  65.9928556
  33.1666726  32.8574011  62.5512248  33.2164731  32.6924019  63.4927770
  33.0580649  31.9901270  62.1610128  22.0502985  35.5362557  49.8404336
  22.1991105  36.2198021  49.1871009  22.8569428  35.5167647  50.3553792
  30.4570488  28.8404939  63.8671554  31.3580351  28.7011404  63.5755552
  30.5318463  29.0059394  64.8069732  24.7913294  26.2171794  62.7124741
  23.9216603  26.5105360  62.4407329  25.0272774  26.8012239  63.4332004
  34.6684923  35.2770953  62.7954269  34.3769731  35.6400933  63.6317730
  34.0557054  34.5637961  62.6167601  35.8680605  32.8423833  55.3156839
  36.7027496  33.2813637  55.4794400  36.0039734  32.3662486  54.4965085
  32.9172111  30.4003568  61.2634327  33.3926233  30.5931214  60.4553178
  31.9937676  30.4562753  61.0177711  19.8055618  31.5627735  50.8465405
  19.5601660  30.6590065  51.0445616  19.9751532  31.5644885  49.9044883
  27.4952327  22.4351411  60.2290161  28.0134271  23.1712438  59.9036650
  27.1407460  22.7415404  61.0636920  19.0751265  27.2956092  48.3451567
  18.3820510  27.3700447  47.6891603  18.8303017  26.5316436  48.8673084
  27.7464922  18.8551694  55.7491058  28.0266675  18.1874883  56.3751484
  28.5315529  19.0480789  55.2365721  25.5498390  38.0310688  47.3116084
  24.9772357  38.6500875  46.8586556  26.1231184  38.5810049  47.8456006
  31.6173780  27.2769328  59.4962633  32.5691203  27.3767425  59.5174857
  31.4477230  26.4847596  60.0060717  29.6388159  24.3624911  59.6822034
  29.0438092  24.6429924  58.9868522  29.3537856  24.8518812  60.4538775
  28.7695650  38.3147838  48.4424666  29.7026323  38.2493399  48.6457542
  28.6818863  39.1504104  47.9839199  31.3983667  37.6313708  45.4028614
  31.3197298  37.2973572  46.2964372  32.2193333  38.1235476  45.4020086
  34.0961858  30.4975447  58.6104932  34.0638178  29.5591448  58.7964616
  34.7062481  30.5759484  57.8770757  25.9345189  29.3671500  44.6532136
  26.8804293  29.2377708  44.7220554  25.5559434  28.6286162  45.1301565
  34.2456346  27.2886491  58.6563216  33.7295395  26.5044947  58.4693144
  35.1296295  26.9605207  58.8209735  31.9067073  21.0327506  54.6159028
  31.7091894  20.7242594  55.5002360  32.5166779  21.7589145  54.7456958
  39.9138408  31.5591454  57.7510969  40.6441796  31.2976742  58.3118672
  39.3045353  30.8220176  57.7913037  37.9953705  29.6999317  58.3485420
  37.2686868  29.5655282  57.7401912  37.5800992  30.0076145  59.1542138
  25.8183881  33.4189246  66.1132793  26.7386891  33.5967845  66.3072840
  25.7833464  32.4745292  65.9612493  24.1188106  27.2921477  44.5887022
  23.2119561  26.9954589  44.6649735  24.3964087  26.9951295  43.7221308
  15.0366046  28.6127840  55.0386068  14.7168831  27.7593148  54.7460442
  14.4899474  28.8276418  55.7944035  18.8145954  31.3290281  58.7555575
  19.0331964  32.2607389  58.7743608  19.2271728  30.9698255  59.5410378
  25.7350172  21.8358366  50.7431263  24.9250900  21.4905451  51.1186509
  26.4234588  21.5265910  51.3318874  27.6640720  20.9136413  52.3655560
  28.2171758  21.3331867  53.0245583  27.9010806  19.9872161  52.4078516
  23.6873819  26.9023487  68.1458323  23.5870546  27.8517844  68.0770415
  23.4695361  26.5741726  67.2734394  22.8886890  24.1508412  44.7299001
  23.7506054  24.4763310  44.9894818  23.0737235  23.3639908  44.2172067
  14.9054306  32.2330752  57.0079190  14.2117778  31.8184704  56.4949144
  15.6527297  32.2751288  56.4112609  31.0419527  23.0236938  51.8734224
  30.4618196  23.6821742  51.4912276  30.7755460  22.2014283  51.4621641
  29.4923093  22.4241996  54.0755544  29.9922872  22.5358531  53.2669863
  30.1358701  22.1203049  54.7156353  23.5505089  30.3320626  66.9623385
  23.0672171  31.1320986  67.1687274  23.6366028  30.3428571  66.0090829
  16.8191049  32.1649005  54.8845204  16.7961737  32.2636693  53.9327088
  17.1291685  33.0114156  55.2062371  19.4778427  34.2225160  58.9991819
  20.4321680  34.1909103  58.9321750  19.2790950  33.7615784  59.8142045
  20.0677809  32.7926276  61.5662617  20.8870698  33.2870355  61.5897454
  20.3414616  31.8758245  61.5380184  29.8244405  25.1837029  50.9290572
  28.9370260  25.4686679  50.7110767  30.2398394  25.0230792  50.0817849
  33.1758941  25.2083550  54.6444911  33.9519331  25.6980002  54.9169528
  32.4507075  25.6341604  55.1016781  35.6131500  25.9211169  55.7018852
  36.2075990  25.6806905  54.9912160  35.6858083  25.2018299  56.3292388
  17.8328655  39.7644780  56.0162017  17.6983123  39.0045181  55.4500015
  17.4160718  40.4885680  55.5490806  28.9687618  34.9481703  45.0238592
  29.6723469  35.1531706  45.6396248  28.2450267  35.5158465  45.2887676
  29.7985429  30.6991565  51.1440862  29.7420630  31.1560116  50.3048495
  30.3513771  29.9382249  50.9663705  33.6090235  26.4881297  51.9690982
  33.3527169  26.0877932  52.7999189  32.9843103  27.2025090  51.8441121
  37.9202572  29.2277370  54.4762273  37.3602130  29.2970559  55.2493835
  37.3146076  29.0518354  53.7561769  20.9897781  40.6614097  56.2280459
  20.8730165  41.6059529  56.1259150  20.1690228  40.3587658  56.6166259
  30.8774316  35.3864233  47.0737052  31.7119920  34.9545431  46.8914527
  30.7158659  35.2146246  48.0013947  30.5320208  31.8896346  48.4393391
  30.4769012  31.7240617  47.4981836  29.9066263  32.5972379  48.5955581
  15.3212723  27.1264410  62.2654814  15.9671587  26.6163364  62.7542039
  15.1129874  27.8633092  62.8398239  27.8466115  34.1945258  67.7646954
  28.7157275  34.3685910  67.4033589  27.3672867  35.0139675  67.6422684
  23.8416333  21.3904455  48.0178710  23.8295003  22.3346295  48.1746981
  24.7339755  21.2074600  47.7238171  22.0152295  41.3142359  59.4436388
  22.9179542  41.3465969  59.7602883  21.7889665  40.3842810  59.4582724
  23.7705897  40.0673345  56.1046466  22.8201528  40.0675207  55.9910839
  24.0738384  39.3206080  55.5882501  27.6568453  17.9847232  52.2724647
  26.8900849  17.4305718  52.4181329  28.0679158  18.0569100  53.1338798
  19.6610214  24.2732027  66.3629828  20.5241676  23.9168832  66.5733152
  19.0875625  23.9345922  67.0505232  39.5058591  45.9033884  57.1692229
  40.1437001  45.7840631  56.4655569  39.3879434  46.8514728  57.2280181
  36.3148297  45.8561312  57.1053754  35.9766809  45.7402377  56.2174288
  37.1838065  45.4552477  57.0854760  32.1735113  47.7096788  53.0950645
  31.6099978  47.6186725  52.3266932  32.0587508  46.8896693  53.5753137
  36.7968080  47.0096164  63.0639959  36.7856721  46.6148962  62.1920463
  36.9588720  46.2762236  63.6573731  29.7199545  49.2047980  55.9334865
  30.5120837  48.8638804  55.5181164  29.9596195  49.3142955  56.8537018
  37.7534672  51.3767756  48.4065109  37.1022651  51.9621836  48.0199123
  38.5479034  51.9073951  48.4660147  31.6790299  48.4656893  48.8052244
  32.4521175  47.9185880  48.6665120  32.0315698  49.3301142  49.0166705
  33.5175341  49.7933275  62.0119143  33.2265207  50.6978906  61.8965809
  34.1532326  49.8349803  62.7263213  34.4431548  47.1710124  58.6020503
  35.0395120  46.9466146  57.8877466  34.5006520  46.4294869  59.2045951
  34.0156577  44.6249559  46.4370694  34.2682097  44.1031080  45.6754157
  33.0781136  44.4615705  46.5397377  39.0599859  43.6285338  54.2445437
  39.8462949  43.2104761  53.8935854  39.3238564  44.5331430  54.4127085
  39.2309937  49.0658188  48.9434094  38.5955770  49.1392814  49.6554998
  38.9007343  49.6551787  48.2653173  44.4608287  43.5660571  55.1478415
  45.1933458  42.9959788  55.3816245  43.7047642  43.1782171  55.5884921
  33.7352865  46.5277665  48.6395069  33.6189123  45.8522569  49.3076153
  33.8455125  46.0410039  47.8227222  36.0784406  45.9887812  52.3441758
  35.7142613  45.4618433  53.0554679  36.9351522  45.5986281  52.1708243
  41.9833707  37.2782145  59.6073024  41.6517032  38.1477556  59.3834239
  41.3879320  36.9618429  60.2867054  35.7189893  41.0177712  47.3403106
  35.8864296  41.8857948  47.7073577  35.5287062  41.1804994  46.4164396
  38.4765226  49.4794691  59.0068937  38.1765949  50.3819730  58.8984744
  38.1316286  49.2126874  59.8590090  31.9277708  45.9308488  55.0405641
  31.0028204  45.7984702  55.2483333  32.1762121  46.7102707  55.5375584
  41.8762370  41.9977231  56.6866374  40.9679248  41.9292639  56.3925135
  41.8249966  42.4749176  57.5148200  35.6979114  43.4735369  48.3249773
  35.5778739  43.9192420  49.1635253  35.0031702  43.8220687  47.7663311
  29.2886519  45.5741761  55.8749430  29.4178900  45.8276240  56.7888842
  28.6083970  46.1669469  55.5554085  33.4586006  56.2439011  51.9739904
  33.3810036  57.1946836  52.0528385  32.8547650  55.8984884  52.6314831
  43.7424017  40.1993669  58.4644248  43.0998397  40.4926203  57.8184043
  43.2378945  40.0846590  59.2697445  41.3964180  43.9456843  49.1530107
  42.3082036  44.1784229  48.9777805  40.8873827  44.5293887  48.5905186
  36.0336018  43.3054077  60.1624957  36.8797213  43.7293491  60.3059606
  35.9734656  42.6487702  60.8563520  40.0033763  48.9282661  56.5443689
  39.3742625  49.0928375  55.8419757  39.6159425  49.3424271  57.3154653
  43.8822994  49.8637099  53.8988052  43.1974033  50.2436000  53.3485086
  43.9666844  50.4732426  54.6320000  39.1835463  40.9658446  61.8206130
  38.9396395  41.7200506  61.2840406  39.4595394  41.3443793  62.6553377
  41.1373926  47.5097058  60.4983396  41.3490821  48.1528818  59.8217777
  41.0903674  46.6759375  60.0305326  38.7400155  40.1214879  57.4019968
  37.8784634  40.4196132  57.6936706  38.7662590  40.3385277  56.4701001
  35.5561724  48.6657069  53.8093774  36.0200070  48.9444772  53.0198396
  35.2918523  47.7640514  53.6266865  32.4485805  48.2128551  56.7473537
  33.0187163  48.6415819  56.1091022  33.0393917  47.9311135  57.4457723
  34.4930610  44.7880222  50.6183339  35.1954654  45.2401265  51.0857265
  34.1611239  44.1464040  51.2463232  28.2355944  43.0463774  55.9200473
  27.4454998  43.3021303  55.4440583  28.7267192  43.8612112  56.0252513
  42.2519754  50.3869013  58.6705753  43.0737198  49.9849201  58.3888435
  42.2482157  50.2837248  59.6221869  30.1870690  43.4108353  52.8783949
  29.3901853  43.5227048  53.3967445  29.9596282  43.7495006  52.0124840
  36.0176357  49.9353057  60.8266464  36.0820790  50.3973464  61.6624636
  35.3087281  49.3050422  60.9548774  26.5193647  43.2994265  58.3515463
  26.7701686  44.1841275  58.6173039  27.0553196  43.1198866  57.5790555
  50.3425747  46.7307762  55.0190725  49.5889455  46.1615160  54.8634729
  50.4773288  46.6970426  55.9661360  35.7324375  51.6021164  50.6945444
  35.5970050  52.4472700  51.1230292  36.2734188  51.8040442  49.9311378
  32.2191715  37.6812744  67.3559799  31.8258660  37.1278943  68.0307444
  33.0357855  37.9923322  67.7466317  29.1853772  49.1196602  51.2673369
  29.6978293  49.9139852  51.4178934  29.8376485  48.4222893  51.2006971
  30.9948657  52.2362358  53.3496122  31.1715286  53.1580323  53.1617106
  31.7905491  51.9220778  53.7790502  35.1359676  39.0970623  64.9480056
  35.8769389  39.6977776  64.8684518  35.3677599  38.3548261  64.3898099
  30.2801014  44.2826990  63.2258286  30.1654529  43.3812248  63.5265385
  29.4245531  44.5290687  62.8743102  32.1179973  53.7540532  59.3506465
  32.6687398  53.6257596  58.5783459  31.2791449  54.0535421  59.0001358
  39.4574090  52.5047531  62.8527188  39.4392565  53.3256412  62.3607457
  40.3794010  52.3801606  63.0777329  39.0816839  35.1251726  59.2244338
  38.7381108  36.0153368  59.1483448  39.4495801  34.9353384  58.3613923
  27.1502689  47.4485256  52.0432940  27.9877911  47.8582265  51.8266648
  27.3280957  46.5084699  52.0133134  39.0467121  45.1160337  47.7316773
  38.5313745  45.8864942  47.9705160  38.7744430  44.4425473  48.3549834
  36.6314232  39.9610038  52.7902011  35.7755829  39.5716888  52.6107650
  37.0441184  40.0401999  51.9301797  38.1613379  37.4956381  57.1893571
  37.6578175  37.4586516  56.3761376  38.4543986  38.4049124  57.2490228
  34.4056265  37.5795111  56.1959753  35.2709262  37.3837920  55.8365642
  34.4733774  37.3505463  57.1229109  44.0201396  47.8692692  49.6669946
  43.2430838  47.5303851  49.2225108  44.6992876  47.8745315  48.9924911
  38.8353425  42.9887429  49.5576554  38.5303560  43.3033578  50.4086697
  39.7883867  43.0668849  49.6003887  37.2799856  49.1477653  51.2069508
  36.7521218  48.4130412  50.8942745  36.7787359  49.9252329  50.9609476
  42.2592702  47.3426673  56.3236554  41.6016377  48.0325934  56.4116683
  43.0633102  47.7323105  56.6670541  32.0118584  39.8097319  53.5676119
  32.5862336  39.5872500  52.8349312  32.5989566  39.8786013  54.3204721
  41.0698161  45.6971046  54.3740496  41.5830043  46.3301038  54.8762206
  41.7199385  45.0972241  54.0083856  32.3388171  41.8401780  47.5872005
  31.5025483  42.1776466  47.9081279  32.1992941  41.7050760  46.6499142
  34.3141252  36.6838568  52.2951189  33.6605664  36.3687585  51.6707804
  34.2721726  36.0614308  53.0211012  35.4252457  46.9657863  44.2104481
  34.5179518  46.7347116  44.4095630  35.9223489  46.1695482  44.3978463
  38.3320535  55.6755370  47.1301167  37.6582234  55.9787067  47.7386125
  38.7186357  56.4784450  46.7806624  37.5478992  43.1720501  56.6198836
  36.6301553  43.3935448  56.4620525  37.9639136  43.2466812  55.7610544
  38.3314040  44.5711917  51.7501517  39.0785859  45.0833314  51.4408639
  38.6005629  44.2495970  52.6105910  36.6040690  47.0670458  48.7328471
  35.6951909  46.7829491  48.8300941  36.6335774  47.4869536  47.8731778
  41.8359957  50.6777047  52.5019639  41.3822285  49.8367957  52.5584829
  41.2053924  51.3138446  52.8394419  40.7792877  41.6069033  53.7320306
  40.0415634  41.0946419  54.0630549  41.0319651  41.1669415  52.9203583
  40.2792897  52.5153544  53.4369457  40.5715871  53.0758601  52.7181822
  40.7891517  52.8082105  54.1922616  40.8804504  34.3845285  54.3262075
  41.1863381  33.5242649  54.0387990  41.6057109  34.9762905  54.1261069
  27.1728860  44.7875972  52.7143673  26.9753260  44.1945333  51.9894740
  26.6175524  44.4828182  53.4319612  35.1525584  44.6799078  54.8338266
  35.2074194  43.7272915  54.7580743  34.3416786  44.8358517  55.3179565
  36.3016778  48.6079201  46.0716550  35.8636208  47.8915060  45.6122187
  37.0427219  48.8355316  45.5101641  33.0917944  43.2976138  52.5928645
  32.2785810  43.5970309  52.9993837  33.5876938  42.9031827  53.3103128
  35.2426522  53.2933895  54.5262910  35.2002701  53.5194741  53.5971442
  36.1589221  53.0597270  54.6748711  38.6892156  43.7617963  61.4243539
  39.0441543  43.9889436  62.2838005  39.3364287  44.0936339  60.8020794
  44.4189893  46.8836398  52.1292868  44.2807791  47.0737994  51.2014057
  44.0626111  47.6455781  52.5860919  32.5832019  40.8694494  58.2089880
  33.2231398  40.7283253  57.5112844  31.7509549  40.5829007  57.8328482
  44.4459272  48.9512925  57.1404140  44.8795779  48.8588214  57.9887194
  45.1590853  48.9270426  56.5024156  33.3592323  50.1696924  54.3224873
  34.1532921  49.6747244  54.1207448  32.6484015  49.6414787  53.9592578
  38.1787167  52.5515020  58.6737240  38.2324189  53.1205956  59.4414956
  37.3101948  52.7216905  58.3091277  29.6675086  44.3140006  50.3984625
  28.7372674  44.2524461  50.6154587  29.7632558  43.7915958  49.6021267
  29.5860635  40.8394819  52.9862867  29.8467452  41.7540152  52.8772027
  30.4077807  40.3719261  53.1359480  31.0585560  42.2532576  60.1561692
  31.7308614  42.0449938  59.5074340  30.2315347  42.0554662  59.7166924
  45.3074822  48.9936626  59.6737025  45.5010712  49.8982437  59.9196300
  45.2075440  48.5344045  60.5075610  36.9611132  38.8794517  62.1727352
  36.3139048  39.5784466  62.0791829  37.7312148  39.3130661  62.5403601
  37.1375267  46.7175282  60.2324172  38.0667327  46.8686441  60.0593139
  36.7166297  46.8059302  59.3772819  35.9363599  50.7425946  58.0022710
  35.7974684  50.3744730  58.8748648  35.1478195  51.2573585  57.8306668
  36.5311751  55.8435042  49.3448246  36.7063506  55.3723086  50.1593869
  35.8444539  56.4700809  49.5729507  37.4868814  50.1207549  55.3911548
  37.1518646  50.0808319  56.2869197  36.9872759  49.4552265  54.9181958
  31.4613058  45.5275179  60.9164129  31.3232856  44.7955418  61.5175668
  32.3717981  45.4384079  60.6348316  40.4228005  47.4663583  45.6648607
  39.8057176  46.7410411  45.5681660  39.9544494  48.2272943  45.3215681
  34.0895358  45.2395138  60.4047808  34.7994977  44.5988330  60.3634427
  34.0464667  45.4908033  61.3273989  42.0782137  52.1762491  63.3254388
  42.0194683  51.4921711  62.6584971  42.4801655  52.9181481  62.8735014
  32.8024292  42.2260356  62.2243448  32.2661649  41.7751094  62.8765044
  32.2141001  42.3606265  61.4813912  31.0972836  58.9924405  56.1188106
  31.3369434  59.6242929  56.7967125  30.2542032  58.6412445  56.4053466
  32.2126551  41.6849007  44.7869911  31.3356018  41.5637808  44.4232158
  32.6884304  40.8935086  44.5348800  42.0799544  50.1402075  61.5568367
  41.1926323  49.8027997  61.6794766  42.6498095  49.4085107  61.7937133
  23.7328691  46.4726167  54.8811419  24.4199731  46.1587897  54.2932434
  23.5776820  47.3767532  54.6078670  28.5363414  41.3616364  59.3096442
  28.4521602  40.7542033  58.5746852  27.7146120  41.8525382  59.3105939
  35.6100698  54.8003528  58.5229610  35.5370869  55.6058499  59.0348915
  35.1678091  54.9995493  57.6977632  35.3990477  54.0375298  52.0332432
  34.6157999  54.5796978  52.1270657  36.0983223  54.5549277  52.4326673
  38.7087127  39.8469927  54.6766637  39.2055827  39.0939889  54.3567708
  37.9374109  39.8834244  54.1109847  46.5616885  45.5510293  56.3184929
  46.5506761  46.4335008  55.9478862  45.6934264  45.1981843  56.1239466
  38.0699381  54.6990362  60.6787769  38.7827353  55.3337826  60.6063671
  37.5789410  54.7954228  59.8627771  39.7916908  48.6041614  52.2505061
  38.8573187  48.7243077  52.0809765  39.9693577  47.7014081  51.9865071
  35.2922096  41.9887310  54.4038322  34.9219884  41.4358350  55.0919228
  35.7881189  41.3845444  53.8513322  43.1789460  44.4458934  52.7855095
  43.6449912  45.2786925  52.7115398  43.6296960  43.9803915  53.4900353
  33.1211295  52.4484805  61.4993340  33.8220754  53.0821288  61.6522734
  32.6506410  52.7899537  60.7388979  41.2465691  50.7902755  49.7841247
  41.5225535  50.6759350  50.6935121  40.3770189  50.3920240  49.7453420
  41.1506122  36.8139521  56.8245996  40.2369202  37.0443747  56.9928203
  41.5799224  36.8977965  57.6760029  40.9212581  45.0029413  59.3245890
  40.2684031  45.2505320  58.6698343  41.2992961  44.1893551  58.9908368
  37.8819755  55.0389106  53.4274061  38.0642149  54.2210762  53.8901813
  38.7052741  55.2556798  52.9898951  38.2161920  53.9657291  50.6889109
  38.7449687  53.4549745  50.0759271  38.4790140  53.6499821  51.5534642
  28.7179013  51.9821160  58.4324443  29.3032450  51.2364848  58.5652347
  28.5203851  52.2925117  59.3161107  31.5717668  55.0172408  53.4486885
  30.9028043  55.5018535  52.9650925  31.4330538  55.2641628  54.3630264
  23.3096668  44.5526760  57.1528886  23.3480767  44.0190351  57.9466004
  22.8036960  44.0261966  56.5339863  35.7122937  57.0516151  60.0469543
  36.2641245  57.2147773  60.8118629  36.0529130  57.6420589  59.3749568
  30.6887430  39.3991301  60.6491428  30.7528756  40.2606132  60.2368826
  30.6254550  38.7865303  59.9163787  30.1639702  41.4714433  64.2964462
  30.7911741  41.0891511  64.9101987  29.3067621  41.2528635  64.6620155
  26.9405245  43.2790863  50.2282817  27.2358686  42.3701541  50.1749871
  26.0393281  43.2578602  49.9063819  38.8491324  54.9998127  57.0333226
  38.7242463  54.1987866  56.5244171  39.5070415  55.4944320  56.5447195
  30.4699492  41.3546859  56.2110366  29.7486078  41.9682827  56.0717839
  31.2592748  41.8904624  56.1327012  40.9126232  52.8007147  58.6612776
  39.9656568  52.6812498  58.5891102  41.2609005  51.9129645  58.7439037
  33.2725806  38.6901286  62.4851018  33.7960208  38.9363582  63.2477327
  33.0538139  39.5221320  62.0654155  28.6693087  40.9604960  50.3522142
  28.3405793  40.0802339  50.1697248  29.0232457  40.9052629  51.2398532
  37.9172666  52.5959863  54.8617128  37.7697628  51.6676570  55.0424698
  38.7426159  52.6179954  54.3774203  31.7834910  41.2477930  50.7197620
  32.1230982  41.7763851  49.9976228  32.2307030  41.5858336  51.4956187
  41.5206787  53.4188422  55.9482001  42.4453335  53.2131283  55.8106452
  41.3522091  53.1704823  56.8571342  34.4778351  39.6314981  60.1700688
  34.1375171  38.8322794  60.5721368  33.7717357  39.9316692  59.5977521
  35.1294823  36.7164293  58.6228011  35.9520892  36.2424771  58.5006901
  35.3732886  37.4954777  59.1226697  33.7703057  39.7452552  48.9190913
  34.4911420  40.1233804  48.4154630  33.1468361  40.4641428  49.0225891
  37.9134180  40.4497701  49.8549245  38.1297794  41.3322338  49.5538073
  37.4328247  40.0583914  49.1254887  32.6533401  43.4083414  56.4319990
  32.5077982  43.7223717  57.3244271  32.1758605  44.0268314  55.8790888
  34.5129784  40.3985962  56.4800879  34.4991353  39.5027055  56.1433177
  35.2302212  40.4056626  57.1139165  36.3655915  40.8323302  58.5254007
  36.1073693  41.7540373  58.5238337  35.8340955  40.4353737  59.2154471
  41.3102104  53.9374089  51.3044092  41.4838981  53.3720512  50.5517944
  41.8030995  54.7374984  51.1223582  27.1279063  45.9488758  59.3707651
  26.5832532  46.7248566  59.5027925  28.0058413  46.2959563  59.2126772
  33.9166680  39.2800342  51.7488449  34.0382591  38.3516988  51.9479337
  33.6268723  39.2939028  50.8366765  36.7857871  36.9655252  54.8855169
  36.8079567  37.0294586  53.9307149  37.2025930  36.1259761  55.0795675
  47.1641495  46.7010512  52.9234392  47.6072641  45.9517837  52.5253515
  46.2868005  46.6920648  52.5408124  42.2977276  53.2540854  48.4040990
  42.9928181  53.8747546  48.6228305  42.6400426  52.4036205  48.6793368
  27.9145085  45.0758654  62.2637808  27.1726821  45.2241290  62.8502438
  27.5937830  45.3366920  61.4004557  44.1968699  50.7040559  49.9328321
  44.7220023  51.0427832  49.2077641  44.1091052  49.7687574  49.7491456
  35.8588748  54.6174633  62.0618198  36.1675874  54.3723779  62.9340897
  36.6564230  54.8221271  61.5737068  35.8809360  56.7712542  54.2923574
  35.4414350  56.2788921  54.9856431  36.6317477  56.2285510  54.0515650
  28.3601699  52.9624083  54.2948202  29.1859719  52.6627855  53.9146846
  28.0095751  52.1931706  54.7437991  33.3283232  52.3150551  56.3645876
  32.7063241  51.6521256  56.0648104  33.9988099  52.3411683  55.6819524
  26.5610304  50.8810410  55.2537136  25.7242212  50.4532584  55.0721137
  26.5333950  51.0742853  56.1907927  33.4007760  40.7932339  65.9578382
  33.4495915  41.6694462  65.5756152  33.9430274  40.2509732  65.3850025
  44.0060480  48.1865929  62.5512248  44.0558485  48.0215936  63.4927770
  43.8974404  47.3193188  62.1610128  32.8896739  50.8654475  49.8404336
  33.0384859  51.5489939  49.1871009  33.6963183  50.8459565  50.3553792
  35.6307048  41.5463712  62.7124741  34.7610358  41.8397278  62.4407329
  35.8666528  42.1304157  63.4332004  46.7074360  48.1715750  55.3156839
  47.5421251  48.6105554  55.4794400  46.8433488  47.6954404  54.4965085
  43.7565865  45.7295485  61.2634327  44.2319987  45.9223132  60.4553178
  42.8331431  45.7854671  61.0177711  30.6449372  46.8919652  50.8465405
  30.3995414  45.9881982  51.0445616  30.8145287  46.8936803  49.9044883
  38.3346082  37.7643329  60.2290161  38.8528026  38.5004356  59.9036650
  37.9801215  38.0707322  61.0636920  29.9145020  42.6248010  48.3451567
  29.2214265  42.6992365  47.6891603  29.6696772  41.8608354  48.8673084
  38.5858676  34.1843611  55.7491058  38.8660430  33.5166800  56.3751484
  39.3709283  34.3772707  55.2365721  36.3892145  53.3602605  47.3116084
  35.8166112  53.9792792  46.8586556  36.9624938  53.9101967  47.8456006
  42.4567534  42.6061245  59.4962633  43.4084957  42.7059343  59.5174857
  42.2870985  41.8139514  60.0060717  40.4781914  39.6916828  59.6822034
  39.8831846  39.9721841  58.9868522  40.1931611  40.1810729  60.4538775
  39.6089404  53.6439755  48.4424666  40.5420078  53.5785317  48.6457542
  39.5212617  54.4796022  47.9839199  42.2377421  52.9605626  45.4028614
  42.1591053  52.6265489  46.2964372  43.0587088  53.4527394  45.4020086
  44.9355612  45.8267365  58.6104932  44.9031932  44.8883366  58.7964616
  45.5456236  45.9051402  57.8770757  36.7738943  44.6963418  44.6532136
  37.7198048  44.5669626  44.7220554  36.3953188  43.9578080  45.1301565
  45.0850101  42.6178408  58.6563216  44.5689149  41.8336865  58.4693144
  45.9690049  42.2897125  58.8209735  42.7460828  36.3619424  54.6159028
  42.5485649  36.0534512  55.5002360  43.3560533  37.0881063  54.7456958
  50.7532162  46.8883372  57.7510969  51.4835551  46.6268660  58.3118672
  50.1439108  46.1512094  57.7913037  48.8347459  45.0291234  58.3485420
  48.1080623  44.8947199  57.7401912  48.4194746  45.3368063  59.1542138
  34.9581860  42.6213394  44.5887022  34.0513316  42.3246507  44.6649735
  35.2357841  42.3243212  43.7221308  25.8759801  43.9419758  55.0386068
  25.5562585  43.0885066  54.7460442  25.3293229  44.1568336  55.7944035
  29.6539708  46.6582199  58.7555575  29.8725718  47.5899307  58.7743608
  30.0665482  46.2990173  59.5410378  36.5743926  37.1650284  50.7431263
  35.7644654  36.8197369  51.1186509  37.2628343  36.8557828  51.3318874
  38.5034474  36.2428331  52.3655560  39.0565513  36.6623784  53.0245583
  38.7404561  35.3164079  52.4078516  33.7280645  39.4800330  44.7299001
  34.5899809  39.8055228  44.9894818  33.9130989  38.6931825  44.2172067
  25.7448061  47.5622669  57.0079190  25.0511532  47.1476622  56.4949144
  26.4921052  47.6043206  56.4112609  41.8813281  38.3528856  51.8734224
  41.3011950  39.0113660  51.4912276  41.6149214  37.5306201  51.4621641
  40.3316848  37.7533914  54.0755544  40.8316626  37.8650448  53.2669863
  40.9752456  37.4494967  54.7156353  27.6584803  47.4940923  54.8845204
  27.6355491  47.5928610  53.9327088  27.9685440  48.3406074  55.2062371
  30.3172181  49.5517078  58.9991819  31.2715435  49.5201020  58.9321750
  30.1184705  49.0907702  59.8142045  30.9071563  48.1218194  61.5662617
  31.7264452  48.6162273  61.5897454  31.1808371  47.2050162  61.5380184
  40.6638159  40.5128946  50.9290572  39.7764014  40.7978597  50.7110767
  41.0792148  40.3522710  50.0817849  44.0152696  40.5375467  54.6444911
  44.7913086  41.0271920  54.9169528  43.2900830  40.9633522  55.1016781
  46.4525254  41.2503087  55.7018852  47.0469745  41.0098823  54.9912160
  46.5251838  40.5310217  56.3292388  28.6722410  55.0936698  56.0162017
  28.5376878  54.3337098  55.4500015  28.2554472  55.8177597  55.5490806
  39.8081373  50.2773621  45.0238592  40.5117223  50.4823624  45.6396248
  39.0844022  50.8450383  45.2887676  40.6379183  46.0283482  51.1440862
  40.5814385  46.4852034  50.3048495  41.1907526  45.2674167  50.9663705
  44.4483989  41.8173214  51.9690982  44.1920923  41.4169850  52.7999189
  43.8236857  42.5317008  51.8441121  48.7596327  44.5569287  54.4762273
  48.1995885  44.6262477  55.2493835  48.1539830  44.3810272  53.7561769
  31.8291536  55.9906015  56.2280459  31.7123920  56.9351447  56.1259150
  31.0083982  55.6879576  56.6166259  41.7168070  50.7156150  47.0737052
  42.5513674  50.2837349  46.8914527  41.5552413  50.5438164  48.0013947
  41.3713962  47.2188264  48.4393391  41.3162766  47.0532535  47.4981836
  40.7460018  47.9264296  48.5955581  26.1606477  42.4556328  62.2654814
  26.8065341  41.9455282  62.7542039  25.9523629  43.1925010  62.8398239
  34.6810088  36.7196373  48.0178710  34.6688758  37.6638212  48.1746981
  35.5733510  36.5366518  47.7238171  32.8546050  56.6434276  59.4436388
  33.7573297  56.6757887  59.7602883  32.6283420  55.7134727  59.4582724
  34.6099652  55.3965263  56.1046466  33.6595283  55.3967125  55.9910839
  34.9132138  54.6497998  55.5882501  38.4962207  33.3139149  52.2724647
  37.7294603  32.7597636  52.4181329  38.9072912  33.3861018  53.1338798
  30.5003968  39.6023945  66.3629828  31.3635430  39.2460750  66.5733152
  29.9269379  39.2637840  67.0505232  50.3452345  61.2325801  57.1692229
  50.9830755  61.1132549  56.4655569  50.2273188  62.1806645  57.2280181
  47.1542052  61.1853229  57.1053754  46.8160563  61.0694294  56.2174288
  48.0231820  60.7844395  57.0854760  43.0128867  63.0388706  53.0950645
  42.4493732  62.9478643  52.3266932  42.8981262  62.2188610  53.5753137
  47.6361835  62.3388081  63.0639959  47.6250475  61.9440879  62.1920463
  47.7982474  61.6054154  63.6573731  40.5593299  64.5339897  55.9334865
  41.3514591  64.1930722  55.5181164  40.7989949  64.6434873  56.8537018
  48.5928426  66.7059674  48.4065109  47.9416406  67.2913754  48.0199123
  49.3872789  67.2365869  48.4660147  42.5184053  63.7948811  48.8052244
  43.2914929  63.2477798  48.6665120  42.8709452  64.6593060  49.0166705
  44.3569096  65.1225193  62.0119143  44.0658962  66.0270824  61.8965809
  44.9926080  65.1641721  62.7263213  45.2825303  62.5002042  58.6020503
  45.8788875  62.2758064  57.8877466  45.3400274  61.7586787  59.2045951
  44.8550331  59.9541477  46.4370694  45.1075852  59.4322998  45.6754157
  43.9174890  59.7907622  46.5397377  49.8993614  58.9577255  54.2445437
  50.6856703  58.5396678  53.8935854  50.1632318  59.8623347  54.4127085
  50.0703691  64.3950106  48.9434094  49.4349524  64.4684732  49.6554998
  49.7401098  64.9843704  48.2653173  55.3002041  58.8952488  55.1478415
  56.0327213  58.3251705  55.3816245  54.5441397  58.5074089  55.5884921
  44.5746620  61.8569583  48.6395069  44.4582878  61.1814486  49.3076153
  44.6848880  61.3701957  47.8227222  46.9178161  61.3179730  52.3441758
  46.5536368  60.7910351  53.0554679  47.7745277  60.9278199  52.1708243
  52.8227461  52.6074063  59.6073024  52.4910786  53.4769473  59.3834239
  52.2273075  52.2910347  60.2867054  46.5583648  56.3469630  47.3403106
  46.7258050  57.2149866  47.7073577  46.3680817  56.5096911  46.4164396
  49.3158981  64.8086609  59.0068937  49.0159704  65.7111647  58.8984744
  48.9710040  64.5418792  59.8590090  42.7671462  61.2600405  55.0405641
  41.8421959  61.1276619  55.2483333  43.0155876  62.0394625  55.5375584
  52.7156125  57.3269149  56.6866374  51.8073002  57.2584557  56.3925135
  52.6643720  57.8041094  57.5148200  46.5372869  58.8027287  48.3249773
  46.4172494  59.2484338  49.1635253  45.8425457  59.1512605  47.7663311
  40.1280273  60.9033679  55.8749430  40.2572655  61.1568158  56.7888842
  39.4477725  61.4961387  55.5554085  44.2979761  71.5730929  51.9739904
  44.2203790  72.5238754  52.0528385  43.6941404  71.2276801  52.6314831
  46.7896990  58.7458794  64.6301271  46.0130324  59.3052714  64.6204136
  47.4287553  59.2315577  65.1516141  54.5817771  55.5285587  58.4644248
  53.9392151  55.8218120  57.8184043  54.0772700  55.4138507  59.2697445
  52.2357935  59.2748760  49.1530107  53.1475791  59.5076147  48.9777805
  51.7267582  59.8585805  48.5905186  45.0443363  61.5544248  64.1919238
  45.7858047  62.0929292  63.9154062  44.3380348  62.1810536  64.3490790
  50.5198702  63.6973388  62.7891400  50.9282058  63.2555799  62.0446032
  49.7975964  63.1226016  63.0425593  46.8729772  58.6345995  60.1624957
  47.7190968  59.0585408  60.3059606  46.8128410  57.9779619  60.8563520
  50.8427517  64.2574579  56.5443689  50.2136379  64.4220293  55.8419757
  50.4553179  64.6716188  57.3154653  54.7216749  65.1929017  53.8988052
  54.0367787  65.5727918  53.3485086  54.8060598  65.8024343  54.6320000
  51.9767681  62.8388976  60.4983396  52.1884576  63.4820736  59.8217777
  51.9297429  62.0051292  60.0305326  49.5793909  55.4506796  57.4019968
  48.7178389  55.7488050  57.6936706  49.6056344  55.6677195  56.4701001
  46.3955479  63.9948987  53.8093774  46.8593824  64.2736690  53.0198396
  46.1312277  63.0932431  53.6266865  43.2879560  63.5420468  56.7473537
  43.8580917  63.9707737  56.1091022  43.8787672  63.2603053  57.4457723
  45.3324365  60.1172139  50.6183339  46.0348408  60.5693183  51.0857265
  45.0004993  59.4755958  51.2463232  43.7804726  58.7083896  64.9934548
  43.1503387  59.3900177  65.2269945  43.6740814  58.5966977  64.0487687
  39.0749699  58.3755692  55.9200473  38.2848753  58.6313220  55.4440583
  39.5660946  59.1904030  56.0252513  53.0913508  65.7160931  58.6705753
  53.9130952  65.3141118  58.3888435  53.0875911  65.6129165  59.6221869
  41.0264444  58.7400271  52.8783949  40.2295608  58.8518965  53.3967445
  40.7990036  59.0786923  52.0124840  46.8570112  65.2644974  60.8266464
  46.9214544  65.7265382  61.6624636  46.1481036  64.6342339  60.9548774
  37.3587402  58.6286182  58.3515463  37.6095440  59.5133192  58.6173039
  37.8946950  58.4490784  57.5790555  46.5718130  66.9313082  50.6945444
  46.4363804  67.7764618  51.1230292  47.1127942  67.1332359  49.9311378
  40.0247527  64.4488520  51.2673369  40.5372048  65.2431770  51.4178934
  40.6770240  63.7514810  51.2006971  41.8342412  67.5654276  53.3496122
  42.0109040  68.4872241  53.1617106  42.6299245  67.2512695  53.7790502
  48.1986606  67.5536648  64.8245786  47.7550460  66.7673027  64.5066691
  48.8603820  67.7415799  64.1589677  42.9573727  69.0832450  59.3506465
  43.5081152  68.9549513  58.5783459  42.1185203  69.3827339  59.0001358
  50.2967844  67.8339448  62.8527188  50.2786319  68.6548329  62.3607457
  51.2187764  67.7093523  63.0777329  46.7540898  65.3483578  63.6950696
  47.2869235  64.5871866  63.4650004  46.2254979  65.0557230  64.4374850
  49.9210593  50.4543644  59.2244338  49.5774863  51.3445285  59.1483448
  50.2889556  50.2645301  58.3613923  37.9896444  62.7777174  52.0432940
  38.8271666  63.1874183  51.8266648  38.1674711  61.8376616  52.0133134
  49.8860876  60.4452255  47.7316773  49.3707499  61.2156859  47.9705160
  49.6138184  59.7717391  48.3549834  47.4707987  55.2901956  52.7902011
  46.6149583  54.9008806  52.6107650  47.8834939  55.3693916  51.9301797
  49.0007134  52.8248299  57.1893571  48.4971929  52.7878434  56.3761376
  49.2937740  53.7341042  57.2490228  45.2450019  52.9087029  56.1959753
  46.1103016  52.7129837  55.8365642  45.3127528  52.6797380  57.1229109
  54.8595150  63.1984609  49.6669946  54.0824593  62.8595769  49.2225108
  55.5386631  63.2037233  48.9924911  49.6747179  58.3179347  49.5576554
  49.3697315  58.6325496  50.4086697  50.6277621  58.3960767  49.6003887
  48.1193611  64.4769570  51.2069508  47.5914972  63.7422330  50.8942745
  47.6181114  65.2544247  50.9609476  53.0986457  62.6718591  56.3236554
  52.4410131  63.3617852  56.4116683  53.9026856  63.0615023  56.6670541
  42.8512338  55.1389237  53.5676119  43.4256090  54.9164418  52.8349312
  43.4383321  55.2077931  54.3204721  51.9091916  61.0262963  54.3740496
  52.4223797  61.6592955  54.8762206  52.5593140  60.4264159  54.0083856
  43.1781926  57.1693698  47.5872005  42.3419238  57.5068384  47.9081279
  43.0386695  57.0342677  46.6499142  45.1535006  52.0130485  52.2951189
  44.4999419  51.6979503  51.6707804  45.1115480  51.3906226  53.0211012
  46.2646211  62.2949780  44.2104481  45.3573273  62.0639034  44.4095630
  46.7617243  61.4987400  44.3978463  49.1714290  71.0047288  47.1301167
  48.4975989  71.3078984  47.7386125  49.5580112  71.8076368  46.7806624
  48.3872747  58.5012419  56.6198836  47.4695308  58.7227366  56.4620525
  48.8032890  58.5758729  55.7610544  49.1707794  59.9003835  51.7501517
  49.9179613  60.4125232  51.4408639  49.4399384  59.5787887  52.6105910
  47.4434445  62.3962375  48.7328471  46.5345664  62.1121408  48.8300941
  47.4729528  62.8161454  47.8731778  52.6753712  66.0068965  52.5019639
  52.2216039  65.1659875  52.5584829  52.0447679  66.6430363  52.8394419
  51.6186631  56.9360951  53.7320306  50.8809388  56.4238337  54.0630549
  51.8713405  56.4961333  52.9203583  51.1186651  67.8445462  53.4369457
  51.4109626  68.4050519  52.7181822  51.6285272  68.1374023  54.1922616
  51.7198259  49.7137203  54.3262075  52.0257136  48.8534566  54.0387990
  52.4450864  50.3054823  54.1261069  38.0122615  60.1167889  52.7143673
  37.8147015  59.5237250  51.9894740  37.4569279  59.8120100  53.4319612
  45.9919339  60.0090996  54.8338266  46.0467948  59.0564832  54.7580743
  45.1810541  60.1650435  55.3179565  47.1410532  63.9371119  46.0716550
  46.7029962  63.2206978  45.6122187  47.8820973  64.1647234  45.5101641
  43.9311698  58.6268056  52.5928645  43.1179564  58.9262226  52.9993837
  44.4270693  58.2323744  53.3103128  46.0820276  68.6225813  54.5262910
  46.0396455  68.8486659  53.5971442  46.9982975  68.3889187  54.6748711
  49.5285910  59.0909880  61.4243539  49.8835298  59.3181353  62.2838005
  50.1758041  59.4228257  60.8020794  55.2583647  62.2128316  52.1292868
  55.1201546  62.4029912  51.2014057  54.9019866  62.9747699  52.5860919
  43.4225773  56.1986411  58.2089880  44.0625153  56.0575170  57.5112844
  42.5903304  55.9120925  57.8328482  55.2853027  64.2804843  57.1404140
  55.7189533  64.1880132  57.9887194  55.9984607  64.2562344  56.5024156
  44.1986077  65.4988842  54.3224873  44.9926676  65.0039162  54.1207448
  43.4877770  64.9706705  53.9592578  49.0180922  67.8806937  58.6737240
  49.0717944  68.4497874  59.4414956  48.1495703  68.0508822  58.3091277
  40.5068841  59.6431923  50.3984625  39.5766429  59.5816379  50.6154587
  40.6026313  59.1207876  49.6021267  40.4254390  56.1686736  52.9862867
  40.6861207  57.0832069  52.8772027  41.2471562  55.7011179  53.1359480
  41.8979315  57.5824493  60.1561692  42.5702368  57.3741856  59.5074340
  41.0709102  57.3846579  59.7166924  56.1468576  64.3228544  59.6737025
  56.3404466  65.2274354  59.9196300  56.0469194  63.8635963  60.5075610
  51.2083685  64.4735286  65.2477906  51.0569191  64.2445838  64.3307989
  51.1988364  65.4305888  65.2609251  47.9769021  62.0467199  60.2324172
  48.9061081  62.1978359  60.0593139  47.5560051  62.1351220  59.3772819
  46.7757353  66.0717864  58.0022710  46.6368439  65.7036648  58.8748648
  45.9871949  66.5865503  57.8306668  47.3705505  71.1726960  49.3448246
  47.5457261  70.7015003  50.1593869  46.6838293  71.7992726  49.5729507
  48.3262568  65.4499466  55.3911548  47.9912401  65.4100236  56.2869197
  47.8266514  64.7844182  54.9181958  42.3006812  60.8567096  60.9164129
  42.1626610  60.1247335  61.5175668  43.2111736  60.7675996  60.6348316
  51.2621760  62.7955501  45.6648607  50.6450931  62.0702329  45.5681660
  50.7938248  63.5564861  45.3215681  44.9289113  60.5687056  60.4047808
  45.6388731  59.9280248  60.3634427  44.8858421  60.8199951  61.3273989
  52.9175892  67.5054409  63.3254388  52.8588438  66.8213629  62.6584971
  53.3195410  68.2473399  62.8735014  43.6418047  57.5552274  62.2243448
  43.1055404  57.1043012  62.8765044  43.0534755  57.6898182  61.4813912
  41.9366590  74.3216323  56.1188106  42.1763189  74.9534847  56.7967125
  41.0935787  73.9704363  56.4053466  43.0520306  57.0140925  44.7869911
  42.1749772  56.8929726  44.4232158  43.5278059  56.2227003  44.5348800
  52.9193299  65.4693993  61.5568367  52.0320078  65.1319915  61.6794766
  53.4891850  64.7377024  61.7937133  34.5722446  61.8018085  54.8811419
  35.2593486  61.4879815  54.2932434  34.4170575  62.7059449  54.6078670
  39.3757168  56.6908281  59.3096442  39.2915357  56.0833951  58.5746852
  38.5539875  57.1817300  59.3105939  46.4494452  70.1295445  58.5229610
  46.3764624  70.9350417  59.0348915  46.0071845  70.3287411  57.6977632
  46.2384232  69.3667215  52.0332432  45.4551754  69.9088896  52.1270657
  46.9376977  69.8841195  52.4326673  49.5480882  55.1761845  54.6766637
  50.0449582  54.4231807  54.3567708  48.7767863  55.2126161  54.1109847
  57.4010639  60.8802210  56.3184929  57.3900516  61.7626926  55.9478862
  56.5328019  60.5273761  56.1239466  48.9093136  70.0282279  60.6787769
  49.6221108  70.6629744  60.6063671  48.4183164  70.1246145  59.8627771
  50.6310663  63.9333532  52.2505061  49.6966941  64.0534994  52.0809765
  50.8087331  63.0305999  51.9865071  46.1315851  57.3179228  54.4038322
  45.7613638  56.7650268  55.0919228  46.6274943  56.7137361  53.8513322
  54.0183214  59.7750851  52.7855095  54.4843666  60.6078843  52.7115398
  54.4690715  59.3095833  53.4900353  43.9605049  67.7776723  61.4993340
  44.6614509  68.4113206  61.6522734  43.4900164  68.1191454  60.7388979
  52.0859445  66.1194673  49.7841247  52.3619289  66.0051267  50.6935121
  51.2163944  65.7212157  49.7453420  51.9899877  52.1431438  56.8245996
  51.0762957  52.3735665  56.9928203  52.4192978  52.2269882  57.6760029
  51.7606335  60.3321330  59.3245890  51.1077786  60.5797238  58.6698343
  52.1386715  59.5185468  58.9908368  48.7213509  70.3681023  53.4274061
  48.9035904  69.5502679  53.8901813  49.5446495  70.5848716  52.9898951
  49.0555675  69.2949209  50.6889109  49.5843441  68.7841663  50.0759271
  49.3183894  68.9791739  51.5534642  47.8093908  61.0741141  65.8111927
  47.1334545  60.9735271  66.4814303  48.6321542  60.9180355  66.2747925
  39.5572767  67.3113078  58.4324443  40.1426204  66.5656766  58.5652347
  39.3597606  67.6217035  59.3161107  42.4111423  70.3464325  53.4486885
  41.7421798  70.8310453  52.9650925  42.2724292  70.5933546  54.3630264
  34.1490422  59.8818678  57.1528886  34.1874522  59.3482269  57.9466004
  33.6430715  59.3553884  56.5339863  46.5516691  72.3808069  60.0469543
  47.1034999  72.5439690  60.8118629  46.8922885  72.9712507  59.3749568
  41.5281184  54.7283219  60.6491428  41.5922511  55.5898049  60.2368826
  41.4648305  54.1157220  59.9163787  51.4027565  67.2069326  65.9018198
  51.9467469  67.8199285  65.4073153  50.8214410  67.7648905  66.4185211
  37.7799000  58.6082780  50.2282817  38.0752441  57.6993459  50.1749871
  36.8787035  58.5870520  49.9063819  49.6885078  70.3290044  57.0333226
  49.5636218  69.5279784  56.5244171  50.3464170  70.8236238  56.5447195
  41.3093247  56.6838777  56.2110366  40.5879832  57.2974745  56.0717839
  42.0986502  57.2196542  56.1327012  51.7519987  68.1299064  58.6612776
  50.8050322  68.0104416  58.5891102  52.1002760  67.2421562  58.7439037
  44.1119560  54.0193203  62.4851018  44.6353962  54.2655500  63.2477327
  43.8931893  54.8513238  62.0654155  39.5086841  56.2896878  50.3522142
  39.1799547  55.4094257  50.1697248  39.8626212  56.2344547  51.2398532
  48.7566420  67.9251781  54.8617128  48.6091383  66.9968488  55.0424698
  49.5819914  67.9471871  54.3774203  42.6228664  56.5769848  50.7197620
  42.9624737  57.1055769  49.9976228  43.0700785  56.9150254  51.4956187
  52.3600542  68.7480339  55.9482001  53.2847089  68.5423201  55.8106452
  52.1915845  68.4996740  56.8571342  45.3172105  54.9606898  60.1700688
  44.9768926  54.1614711  60.5721368  44.6111112  55.2608609  59.5977521
  45.9688577  52.0456211  58.6228011  46.7914646  51.5716689  58.5006901
  46.2126641  52.8246695  59.1226697  44.6096812  55.0744469  48.9190913
  45.3305174  55.4525722  48.4154630  43.9862116  55.7933346  49.0225891
  48.7527934  55.7789618  49.8549245  48.9691549  56.6614256  49.5538073
  48.2722002  55.3875832  49.1254887  43.4927156  58.7375331  56.4319990
  43.3471737  59.0515635  57.3244271  43.0152359  59.3560232  55.8790888
  45.3523539  55.7277879  56.4800879  45.3385107  54.8318973  56.1433177
  46.0695967  55.7348543  57.1139165  47.2049669  56.1615220  58.5254007
  46.9467447  57.0832290  58.5238337  46.6734710  55.7645654  59.2154471
  52.1495858  69.2666007  51.3044092  52.3232736  68.7012429  50.5517944
  52.6424749  70.0666902  51.1223582  37.9672818  61.2780676  59.3707651
  37.4226286  62.0540484  59.5027925  38.8452168  61.6251480  59.2126772
  44.7560435  54.6092260  51.7488449  44.8776346  53.6808906  51.9479337
  44.4662477  54.6230946  50.8366765  47.6251625  52.2947170  54.8855169
  47.6473322  52.3586503  53.9307149  48.0419684  51.4551679  55.0795675
  58.0035249  62.0302430  52.9234392  58.4466395  61.2809755  52.5253515
  57.1261760  62.0212566  52.5408124  53.1371031  68.5832771  48.4040990
  53.8321935  69.2039464  48.6228305  53.4794181  67.7328122  48.6793368
  55.0362454  66.0332477  49.9328321  55.5613778  66.3719749  49.2077641
  54.9484806  65.0979492  49.7491456  46.6982502  69.9466550  62.0618198
  47.0069629  69.7015697  62.9340897  47.4957985  70.1513189  61.5737068
  46.7203115  72.1004460  54.2923574  46.2808105  71.6080839  54.9856431
  47.4711231  71.5577428  54.0515650  39.1995454  68.2916001  54.2948202
  40.0253473  67.9919773  53.9146846  38.8489506  67.5223623  54.7437991
  44.1676987  67.6442469  56.3645876  43.5456996  66.9813174  56.0648104
  44.8381854  67.6703601  55.6819524  37.4004059  66.2102327  55.2537136
  36.5635967  65.7824502  55.0721137  37.3727704  66.4034771  56.1907927
  44.2401514  56.1224257  65.9578382  44.2889670  56.9986380  65.5756152
  44.7824028  55.5801650  65.3850025  54.8454235  63.5157847  62.5512248
  54.8952240  63.3507854  63.4927770  54.7368158  62.6485106  62.1610128
  43.7290494  66.1946392  49.8404336  43.8778614  66.8781857  49.1871009
  44.5356937  66.1751482  50.3553792  52.1357997  59.4988775  63.8671554
  53.0367860  59.3595240  63.5755552  52.2105972  59.6643230  64.8069732
  46.4700803  56.8755630  62.7124741  45.6004112  57.1689196  62.4407329
  46.7060283  57.4596075  63.4332004  56.3472432  65.9354788  62.7954269
  56.0557240  66.2984769  63.6317730  55.7344563  65.2221797  62.6167601
  54.5959620  61.0587403  61.2634327  55.0713742  61.2515049  60.4553178
  53.6725185  61.1146589  61.0177711  41.4843127  62.2211570  50.8465405
  41.2389169  61.3173900  51.0445616  41.6539041  62.2228721  49.9044883
  40.7538774  57.9539928  48.3451567  40.0608019  58.0284283  47.6891603
  40.5090526  57.1900271  48.8673084  49.4252431  49.5135529  55.7491058
  49.7054184  48.8458718  56.3751484  50.2103038  49.7064625  55.2365721
  47.2285899  68.6894523  47.3116084  46.6559866  69.3084710  46.8586556
  47.8018693  69.2393885  47.8456006  53.2961289  57.9353163  59.4962633
  54.2478712  58.0351261  59.5174857  53.1264739  57.1431432  60.0060717
  51.3175668  55.0208746  59.6822034  50.7225601  55.3013759  58.9868522
  51.0325365  55.5102647  60.4538775  50.4483159  68.9731673  48.4424666
  51.3813832  68.9077235  48.6457542  50.3606372  69.8087940  47.9839199
  55.7749367  61.1559283  58.6104932  55.7425687  60.2175283  58.7964616
  56.3849990  61.2343319  57.8770757  47.6132698  60.0255336  44.6532136
  48.5591802  59.8961544  44.7220554  47.2346943  59.2869998  45.1301565
  55.9243855  57.9470326  58.6563216  55.4082904  57.1628783  58.4693144
  56.8083804  57.6189043  58.8209735  53.5854582  51.6911342  54.6159028
  53.3879403  51.3826430  55.5002360  54.1954288  52.4172981  54.7456958
  45.7975615  57.9505312  44.5887022  44.8907070  57.6538425  44.6649735
  46.0751596  57.6535130  43.7221308  36.7153555  59.2711675  55.0386068
  36.3956340  58.4176984  54.7460442  36.1686983  59.4860254  55.7944035
  40.4933463  61.9874116  58.7555575  40.7119472  62.9191224  58.7743608
  40.9059237  61.6282091  59.5410378  47.4137680  52.4942202  50.7431263
  46.6038409  52.1489287  51.1186509  48.1022097  52.1849745  51.3318874
  49.3428229  51.5720249  52.3655560  49.8959267  51.9915702  53.0245583
  49.5798315  50.6455997  52.4078516  44.5674399  54.8092247  44.7299001
  45.4293563  55.1347146  44.9894818  44.7524744  54.0223743  44.2172067
  36.5841815  62.8914587  57.0079190  35.8905287  62.4768540  56.4949144
  37.3314806  62.9335123  56.4112609  52.7207036  53.6820774  51.8734224
  52.1405705  54.3405578  51.4912276  52.4542969  52.8598118  51.4621641
  51.1710602  53.0825831  54.0755544  51.6710381  53.1942366  53.2669863
  51.8146210  52.7786884  54.7156353  38.4978558  62.8232841  54.8845204
  38.4749246  62.9220528  53.9327088  38.8079194  63.6697991  55.2062371
  41.1565936  64.8808996  58.9991819  42.1109189  64.8492938  58.9321750
  40.9578459  64.4199619  59.8142045  41.7465318  63.4510112  61.5662617
  42.5658207  63.9454190  61.5897454  42.0202125  62.5342080  61.5380184
  51.5031914  55.8420864  50.9290572  50.6157769  56.1270515  50.7110767
  51.9185903  55.6814627  50.0817849  54.8546450  55.8667385  54.6444911
  55.6306840  56.3563837  54.9169528  54.1294584  56.2925439  55.1016781
  57.2919009  56.5795004  55.7018852  57.8863499  56.3390740  54.9912160
  57.3645592  55.8602135  56.3292388  39.5116164  70.4228615  56.0162017
  39.3770632  69.6629016  55.4500015  39.0948227  71.1469515  55.5490806
  50.6475127  65.6065539  45.0238592  51.3510977  65.8115541  45.6396248
  49.9237776  66.1742301  45.2887676  51.4772938  61.3575400  51.1440862
  51.4208139  61.8143951  50.3048495  52.0301280  60.5966085  50.9663705
  55.2877744  57.1465132  51.9690982  55.0314678  56.7461768  52.7999189
  54.6630612  57.8608926  51.8441121  59.5990081  59.8861205  54.4762273
  59.0389639  59.9554394  55.2493835  58.9933585  59.7102190  53.7561769
  42.6685290  71.3197932  56.2280459  42.5517674  72.2643365  56.1259150
  41.8477736  71.0171494  56.6166259  52.5561825  66.0448068  47.0737052
  53.3907429  65.6129266  46.8914527  52.3946168  65.8730082  48.0013947
  52.2107717  62.5480181  48.4393391  52.1556521  62.3824453  47.4981836
  51.5853772  63.2556214  48.5955581  45.5203842  52.0488290  48.0178710
  45.5082512  52.9930130  48.1746981  46.4127264  51.8658436  47.7238171
  43.6939804  71.9726194  59.4436388  44.5967051  72.0049804  59.7602883
  43.4677174  71.0426645  59.4582724  45.4493406  70.7257181  56.1046466
  44.4989037  70.7259042  55.9910839  45.7525893  69.9789915  55.5882501
  49.3355962  48.6431067  52.2724647  48.5688358  48.0889554  52.4181329
  49.7466667  48.7152936  53.1338798  51.3987054  79.8631815  55.9334865
  52.1908346  79.5222640  55.5181164  51.6383704  79.9726790  56.8537018
  51.8658199  74.0692189  52.8783949  51.0689362  74.1810883  53.3967445
  51.6383791  74.4078841  52.0124840  48.1981156  73.9578100  58.3515463
  48.4489195  74.8425110  58.6173039  48.7340705  73.7782702  57.5790555
  50.8641281  79.7780438  51.2673369  51.3765802  80.5723688  51.4178934
  51.5163994  79.0806728  51.2006971  51.9588523  74.9410826  63.2258286
  51.8442038  74.0396083  63.5265385  51.1033040  75.1874522  62.8743102
  48.8290198  78.1069092  52.0432940  49.6665420  78.5166100  51.8266648
  49.0068466  77.1668534  52.0133134  56.0843774  68.2378946  56.1959753
  56.9496771  68.0421755  55.8365642  56.1521283  68.0089298  57.1229109
  48.8516369  75.4459807  52.7143673  48.6540769  74.8529168  51.9894740
  48.2963033  75.1412017  53.4319612  54.2619528  71.5278329  58.2089880
  54.9018907  71.3867088  57.5112844  53.4297058  71.2412842  57.8328482
  51.3462595  74.9723841  50.3984625  50.4160183  74.9108297  50.6154587
  51.4420067  74.4499794  49.6021267  51.2648144  71.4978654  52.9862867
  51.5254961  72.4123987  52.8772027  52.0865316  71.0303096  53.1359480
  52.7373069  72.9116411  60.1561692  53.4096123  72.7033773  59.5074340
  51.9102856  72.7138497  59.7166924  45.4116200  77.1310002  54.8811419
  46.0987240  76.8171732  54.2932434  45.2564329  78.0351367  54.6078670
  50.2150923  72.0200199  59.3096442  50.1309111  71.4125869  58.5746852
  49.3933629  72.5109217  59.3105939  44.9884177  75.2110596  57.1528886
  45.0268276  74.6774186  57.9466004  44.4824469  74.6845801  56.5339863
  52.3674939  70.0575136  60.6491428  52.4316265  70.9189967  60.2368826
  52.3042059  69.4449138  59.9163787  48.6192754  73.9374698  50.2282817
  48.9146195  73.0285376  50.1749871  47.7180790  73.9162437  49.9063819
  50.3480596  71.6188796  50.3522142  50.0193302  70.7386174  50.1697248
  50.7019966  71.5636464  51.2398532  49.5932594  75.7342490  62.2637808
  48.8514330  75.8825125  62.8502438  49.2725339  75.9950755  61.4004557
  47.5547310  74.6003593  55.0386068  47.2350094  73.7468901  54.7460442
  47.0080738  74.8152171  55.7944035  47.4235570  78.2206505  57.0079190
  46.7299041  77.8060457  56.4949144  48.1708561  78.2627041  56.4112609
  49.3372312  78.1524758  54.8845204  49.3143000  78.2512446  53.9327088
  49.6472949  78.9989909  55.2062371  47.8393986  73.1140163  62.2654814
  48.4852850  72.6039117  62.7542039  47.6311138  73.8508845  62.8398239
  82.8633609 107.2201554  57.1692229  83.5012019 107.1008302  56.4655569
  82.7454452 108.1682398  57.2280181  75.5310131 109.0264459  53.0950645
  74.9674996 108.9354396  52.3266932  75.4162526 108.2064363  53.5753137
  73.0774563 110.5215651  55.9334865  73.8695855 110.1806475  55.5181164
  73.3171213 110.6310626  56.8537018  81.1109690 112.6935427  48.4065109
  80.4597669 113.2789507  48.0199123  81.9054052 113.2241622  48.4660147
  75.0365317 109.7824564  48.8052244  75.8096193 109.2353551  48.6665120
  75.3890716 110.6468813  49.0166705  77.3731595 105.9417230  46.4370694
  77.6257115 105.4198751  45.6754157  76.4356154 105.7783375  46.5397377
  82.5884955 110.3825859  48.9434094  81.9530788 110.4560485  49.6554998
  82.2582361 110.9719457  48.2653173  87.8183304 104.8828241  55.1478415
  88.5508476 104.3127458  55.3816245  87.0622660 104.4949842  55.5884921
  77.0927883 107.8445336  48.6395069  76.9764141 107.1690239  49.3076153
  77.2030143 107.3577710  47.8227222  79.4359424 107.3055483  52.3441758
  79.0717631 106.7786104  53.0554679  80.2926540 106.9153952  52.1708243
  81.8340244 110.7962362  59.0068937  81.5340967 111.6987400  58.8984744
  81.4891304 110.5294545  59.8590090  79.0554132 104.7903040  48.3249773
  78.9353757 105.2360091  49.1635253  78.3606720 105.1388358  47.7663311
  76.8161024 117.5606682  51.9739904  76.7385054 118.5114507  52.0528385
  76.2122668 117.2152554  52.6314831  84.7539198 105.2624513  49.1530107
  85.6657054 105.4951900  48.9777805  84.2448845 105.8461558  48.5905186
  79.3911036 104.6221748  60.1624957  80.2372231 105.0461161  60.3059606
  79.3309674 103.9655372  60.8563520  83.3608780 110.2450332  56.5443689
  82.7317643 110.4096046  55.8419757  82.9734443 110.6591941  57.3154653
  87.2398012 111.1804770  53.8988052  86.5549051 111.5603671  53.3485086
  87.3241862 111.7900096  54.6320000  78.9136742 109.9824740  53.8093774
  79.3775088 110.2612443  53.0198396  78.6493540 109.0808184  53.6266865
  77.8505628 106.1047892  50.6183339  78.5529672 106.5568936  51.0857265
  77.5186257 105.4631711  51.2463232  85.6094772 111.7036684  58.6705753
  86.4312216 111.3016871  58.3888435  85.6057175 111.6004918  59.6221869
  79.3751375 111.2520727  60.8266464  79.4395808 111.7141135  61.6624636
  78.6662299 110.6218092  60.9548774  93.7000765 108.0475433  55.0190725
  92.9464473 107.4782831  54.8634729  93.8348306 108.0138097  55.9661360
  79.0899393 112.9188835  50.6945444  78.9545068 113.7640371  51.1230292
  79.6309206 113.1208113  49.9311378  72.5428790 110.4364273  51.2673369
  73.0553311 111.2307523  51.4178934  73.1951503 109.7390563  51.2006971
  74.3523675 113.5530029  53.3496122  74.5290303 114.4747994  53.1617106
  75.1480509 113.2388448  53.7790502  75.4754991 115.0708203  59.3506465
  76.0262416 114.9425266  58.5783459  74.6366467 115.3703092  59.0001358
  82.4042139 106.4328008  47.7316773  81.8888763 107.2032612  47.9705160
  82.1319448 105.7593144  48.3549834  87.3776413 109.1860362  49.6669946
  86.6005856 108.8471522  49.2225108  88.0567894 109.1912986  48.9924911
  82.1928443 104.3055100  49.5576554  81.8878578 104.6201249  50.4086697
  83.1458885 104.3836520  49.6003887  80.6374874 110.4645323  51.2069508
  80.1096236 109.7298083  50.8942745  80.1362377 111.2420000  50.9609476
  85.6167720 108.6594344  56.3236554  84.9591395 109.3493605  56.4116683
  86.4208120 109.0490776  56.6670541  84.4273179 107.0138716  54.3740496
  84.9405061 107.6468708  54.8762206  85.0774403 106.4139912  54.0083856
  75.6963189 103.1569451  47.5872005  74.8600501 103.4944137  47.9081279
  75.5567959 103.0218430  46.6499142  78.7827475 108.2825534  44.2104481
  77.8754536 108.0514787  44.4095630  79.2798507 107.4863153  44.3978463
  81.6895553 116.9923041  47.1301167  81.0157252 117.2954737  47.7386125
  82.0761375 117.7952121  46.7806624  81.6889058 105.8879588  51.7501517
  82.4360877 106.4000985  51.4408639  81.9580647 105.5663640  52.6105910
  79.9615708 108.3838128  48.7328471  79.0526927 108.0997161  48.8300941
  79.9910792 108.8037207  47.8731778  85.1934975 111.9944718  52.5019639
  84.7397302 111.1535628  52.5584829  84.5628942 112.6306116  52.8394419
  83.6367915 113.8321215  53.4369457  83.9290889 114.3926272  52.7181822
  84.1466535 114.1249776  54.1922616  79.6591796 109.9246872  46.0716550
  79.2211226 109.2082731  45.6122187  80.4002237 110.1522987  45.5101641
  78.6001540 114.6101566  54.5262910  78.5577719 114.8362412  53.5971442
  79.5164239 114.3764940  54.6748711  87.7764911 108.2004069  52.1292868
  87.6382809 108.3905665  51.2014057  87.4201129 108.9623452  52.5860919
  87.8034290 110.2680596  57.1404140  88.2370797 110.1755885  57.9887194
  88.5165871 110.2438097  56.5024156  76.7167341 111.4864595  54.3224873
  77.5107939 110.9914915  54.1207448  76.0059033 110.9582458  53.9592578
  81.5362185 113.8682690  58.6737240  81.5899207 114.4373627  59.4414956
  80.6676966 114.0384575  58.3091277  73.0250104 105.6307676  50.3984625
  72.0947692 105.5692132  50.6154587  73.1207576 105.1083629  49.6021267
  80.4950285 108.0342952  60.2324172  81.4242345 108.1854112  60.0593139
  80.0741315 108.1226973  59.3772819  79.2938617 112.0593617  58.0022710
  79.1549702 111.6912401  58.8748648  78.5053213 112.5741256  57.8306668
  79.8886769 117.1602713  49.3448246  80.0638524 116.6890756  50.1593869
  79.2019557 117.7868479  49.5729507  80.8443832 111.4375219  55.3911548
  80.5093664 111.3975989  56.2869197  80.3447777 110.7719935  54.9181958
  83.7803023 108.7831254  45.6648607  83.1632194 108.0578082  45.5681660
  83.3119512 109.5440614  45.3215681  74.4547854 120.3092076  56.1188106
  74.6944452 120.9410600  56.7967125  73.6117050 119.9580116  56.4053466
  78.9675716 116.1171198  58.5229610  78.8945887 116.9226170  59.0348915
  78.5253109 116.3163164  57.6977632  78.7565495 115.3542968  52.0332432
  77.9733017 115.8964649  52.1270657  79.4558241 115.8716948  52.4326673
  89.9191903 106.8677963  56.3184929  89.9081779 107.7502679  55.9478862
  89.0509282 106.5149514  56.1239466  81.4274399 116.0158032  60.6787769
  82.1402371 116.6505497  60.6063671  80.9364428 116.1121898  59.8627771
  83.1491926 109.9209285  52.2505061  82.2148205 110.0410748  52.0809765
  83.3268595 109.0181752  51.9865071  86.5364477 105.7626604  52.7855095
  87.0024930 106.5954596  52.7115398  86.9871978 105.2971586  53.4900353
  84.6040709 112.1070426  49.7841247  84.8800552 111.9927020  50.6935121
  83.7345207 111.7087910  49.7453420  81.2394773 116.3556776  53.4274061
  81.4217167 115.5378432  53.8901813  82.0627759 116.5724469  52.9898951
  81.5736938 115.2824962  50.6889109  82.1024705 114.7717416  50.0759271
  81.8365158 114.9667492  51.5534642  72.0754031 113.2988831  58.4324443
  72.6607468 112.5532519  58.5652347  71.8778869 113.6092788  59.3161107
  74.9292686 116.3340078  53.4486885  74.2603061 116.8186206  52.9650925
  74.7905556 116.5809299  54.3630264  79.0697955 118.3683822  60.0469543
  79.6216263 118.5315443  60.8118629  79.4104148 118.9588260  59.3749568
  82.2066342 116.3165797  57.0333226  82.0817481 115.5155537  56.5244171
  82.8645433 116.8111991  56.5447195  84.2701250 114.1174817  58.6612776
  83.3231586 113.9980169  58.5891102  84.6184023 113.2297315  58.7439037
  81.2747684 113.9127534  54.8617128  81.1272646 112.9844241  55.0424698
  82.1001177 113.9347624  54.3774203  84.8781805 114.7356092  55.9482001
  85.8028353 114.5298954  55.8106452  84.7097109 114.4872494  56.8571342
  84.6677122 115.2541760  51.3044092  84.8413999 114.6888182  50.5517944
  85.1606013 116.0542655  51.1223582  90.5216513 108.0178183  52.9234392
  90.9647659 107.2685508  52.5253515  89.6443023 108.0088319  52.5408124
  85.6552294 114.5708524  48.4040990  86.3503199 115.1915217  48.6228305
  85.9975444 113.7203875  48.6793368  87.5543717 112.0208230  49.9328321
  88.0795041 112.3595503  49.2077641  87.4666070 111.0855245  49.7491456
  79.2163766 115.9342303  62.0618198  79.5250892 115.6891450  62.9340897
  80.0139248 116.1388942  61.5737068  79.2384378 118.0880213  54.2923574
  78.7989368 117.5956592  54.9856431  79.9892495 117.5453181  54.0515650
  71.7176717 114.2791754  54.2948202  72.5434737 113.9795526  53.9146846
  71.3670769 113.5099376  54.7437991  76.6858250 113.6318222  56.3645876
  76.0638259 112.9688927  56.0648104  77.3563117 113.6579354  55.6819524
  69.9185322 112.1978080  55.2537136  69.0817230 111.7700255  55.0721137
  69.8908967 112.3910524  56.1907927  76.2471757 112.1822145  49.8404336
  76.3959877 112.8657610  49.1871009  77.0538201 112.1627236  50.3553792
  90.0649378 109.4883421  55.3156839  90.8996269 109.9273225  55.4794400
  90.2008506 109.0122074  54.4965085  74.0024390 108.2087323  50.8465405
  73.7570432 107.3049653  51.0445616  74.1720305 108.2104474  49.9044883
  73.2720038 103.9415681  48.3451567  72.5789283 104.0160036  47.6891603
  73.0271789 103.1776024  48.8673084  79.7467163 114.6770276  47.3116084
  79.1741130 115.2960463  46.8586556  80.3199956 115.2269638  47.8456006
  82.9664422 114.9607426  48.4424666  83.8995096 114.8952988  48.6457542
  82.8787635 115.7963693  47.9839199  85.5952439 114.2773296  45.4028614
  85.5166071 113.9433160  46.2964372  86.4162106 114.7695064  45.4020086
  80.1313961 106.0131089  44.6532136  81.0773066 105.8837297  44.7220554
  79.7528206 105.2745751  45.1301565  94.1107180 108.2051043  57.7510969
  94.8410569 107.9436331  58.3118672  93.5014126 107.4679764  57.7913037
  92.1922477 106.3458905  58.3485420  91.4655641 106.2114870  57.7401912
  91.7769764 106.6535734  59.1542138  78.3156878 103.9381065  44.5887022
  77.4088334 103.6414178  44.6649735  78.5932859 103.6410883  43.7221308
  73.6747199 110.8684749  58.9991819  74.6290453 110.8368691  58.9321750
  73.4759723 110.4075372  59.8142045  72.0297428 116.4104368  56.0162017
  71.8951896 115.6504769  55.4500015  71.6129490 117.1345268  55.5490806
  83.1656391 111.5941292  45.0238592  83.8692241 111.7991294  45.6396248
  82.4419040 112.1618054  45.2887676  83.9954201 107.3451153  51.1440862
  83.9389403 107.8019704  50.3048495  84.5482544 106.5841838  50.9663705
  87.8059007 103.1340885  51.9690982  87.5495941 102.7337521  52.7999189
  87.1811875 103.8484679  51.8441121  92.1171345 105.8736958  54.4762273
  91.5570903 105.9430147  55.2493835  91.5114848 105.6977943  53.7561769
  75.1866554 117.3073685  56.2280459  75.0698938 118.2519118  56.1259150
  74.3659000 117.0047247  56.6166259  85.0743088 112.0323821  47.0737052
  85.9088692 111.6005019  46.8914527  84.9127431 111.8605835  48.0013947
  84.7288980 108.5355934  48.4393391  84.6737784 108.3700206  47.4981836
  84.1035036 109.2431967  48.5955581  76.2121068 117.9601947  59.4436388
  77.1148315 117.9925557  59.7602883  75.9858438 117.0302398  59.4582724
  77.9674670 116.7132934  56.1046466  77.0170301 116.7134795  55.9910839
  78.2707156 115.9665668  55.5882501  93.7027363 122.5493472  57.1692229
  94.3405773 122.4300219  56.4655569  93.5848206 123.4974316  57.2280181
  90.5117070 122.5020900  57.1053754  90.1735581 122.3861965  56.2174288
  91.3806838 122.1012065  57.0854760  86.3703885 124.3556377  53.0950645
  85.8068750 124.2646314  52.3266932  86.2556280 123.5356281  53.5753137
  90.9936853 123.6555752  63.0639959  90.9825493 123.2608550  62.1920463
  91.1557492 122.9221825  63.6573731  83.9168317 125.8507568  55.9334865
  84.7089609 125.5098393  55.5181164  84.1564967 125.9602543  56.8537018
  91.9503444 128.0227344  48.4065109  91.2991424 128.6081425  48.0199123
  92.7447807 128.5533539  48.4660147  85.8759071 125.1116481  48.8052244
  86.6489947 124.5645469  48.6665120  86.2284470 125.9760731  49.0166705
  87.7144114 126.4392864  62.0119143  87.4233980 127.3438495  61.8965809
  88.3501098 126.4809391  62.7263213  88.6400321 123.8169712  58.6020503
  89.2363893 123.5925735  57.8877466  88.6975292 123.0754458  59.2045951
  88.2125349 121.2709148  46.4370694  88.4650870 120.7490669  45.6754157
  87.2749908 121.1075293  46.5397377  93.2568632 120.2744926  54.2445437
  94.0431721 119.8564349  53.8935854  93.5207336 121.1791018  54.4127085
  93.4278709 125.7117776  48.9434094  92.7924542 125.7852403  49.6554998
  93.0976116 126.3011375  48.2653173  98.6577059 120.2120159  55.1478415
  99.3902231 119.6419376  55.3816245  97.9016415 119.8241760  55.5884921
  87.9321638 123.1737254  48.6395069  87.8157896 122.4982157  49.3076153
  88.0423898 122.6869627  47.8227222  90.2753179 122.6347401  52.3441758
  89.9111386 122.1078022  53.0554679  91.1320295 122.2445870  52.1708243
  89.9158666 117.6637300  47.3403106  90.0833068 118.5317537  47.7073577
  89.7255835 117.8264582  46.4164396  92.6733999 126.1254279  59.0068937
  92.3734722 127.0279318  58.8984744  92.3285058 125.8586462  59.8590090
  86.1246480 122.5768076  55.0405641  85.1996977 122.4444290  55.2483333
  86.3730894 123.3562295  55.5375584  96.0731143 118.6436819  56.6866374
  95.1648020 118.5752228  56.3925135  96.0218738 119.1208764  57.5148200
  89.8947887 120.1194958  48.3249773  89.7747512 120.5652009  49.1635253
  89.2000475 120.4680276  47.7663311  83.4855291 122.2201350  55.8749430
  83.6147673 122.4735829  56.7888842  82.8052743 122.8129058  55.5554085
  87.6554779 132.8898600  51.9739904  87.5778808 133.8406425  52.0528385
  87.0516422 132.5444472  52.6314831  90.1472008 120.0626465  64.6301271
  89.3705342 120.6220385  64.6204136  90.7862571 120.5483248  65.1516141
  97.9392789 116.8453258  58.4644248  97.2967169 117.1385791  57.8184043
  97.4347718 116.7306178  59.2697445  95.5932953 120.5916431  49.1530107
  96.5050809 120.8243818  48.9777805  95.0842600 121.1753475  48.5905186
  88.4018381 122.8711918  64.1919238  89.1433065 123.4096962  63.9154062
  87.6955366 123.4978207  64.3490790  93.8773720 125.0141059  62.7891400
  94.2857076 124.5723469  62.0446032  93.1550982 124.4393686  63.0425593
  90.2304790 119.9513666  60.1624957  91.0765986 120.3753079  60.3059606
  90.1703428 119.2947290  60.8563520  94.2002535 125.5742249  56.5443689
  93.5711397 125.7387964  55.8419757  93.8128197 125.9883859  57.3154653
  98.0791767 126.5096687  53.8988052  97.3942805 126.8895589  53.3485086
  98.1635616 127.1192014  54.6320000  93.3804236 117.6118034  61.8206130
  93.1365168 118.3660094  61.2840406  93.6564166 117.9903382  62.6553377
  95.3342698 124.1556646  60.4983396  95.5459594 124.7988406  59.8217777
  95.2872447 123.3218963  60.0305326  89.7530497 125.3116658  53.8093774
  90.2168842 125.5904361  53.0198396  89.4887295 124.4100102  53.6266865
  86.6454578 124.8588139  56.7473537  87.2155935 125.2875407  56.1091022
  87.2362690 124.5770724  57.4457723  88.6899383 121.4339810  50.6183339
  89.3923426 121.8860854  51.0857265  88.3580011 120.7923629  51.2463232
  87.1379744 120.0251567  64.9934548  86.5078405 120.7067847  65.2269945
  87.0315832 119.9134648  64.0487687  82.4324717 119.6923363  55.9200473
  81.6423771 119.9480891  55.4440583  82.9235964 120.5071700  56.0252513
  96.4488526 127.0328602  58.6705753  97.2705970 126.6308789  58.3888435
  96.4450929 126.9296836  59.6221869  84.3839462 120.0567942  52.8783949
  83.5870626 120.1686636  53.3967445  84.1565054 120.3954594  52.0124840
  90.2145130 126.5812645  60.8266464  90.2789562 127.0433052  61.6624636
  89.5056054 125.9510010  60.9548774  80.7162420 119.9453853  58.3515463
  80.9670458 120.8300863  58.6173039  81.2521968 119.7658455  57.5790555
 104.5394519 123.3767350  55.0190725 103.7858228 122.8074748  54.8634729
 104.6742061 123.3430015  55.9661360  89.9293148 128.2480753  50.6945444
  89.7938822 129.0932288  51.1230292  90.4702960 128.4500030  49.9311378
  83.3822545 125.7656191  51.2673369  83.8947065 126.5599441  51.4178934
  84.0345258 125.0682481  51.2006971  85.1917430 128.8821947  53.3496122
  85.3684058 129.8039912  53.1617106  85.9874263 128.5680366  53.7790502
  84.4769786 120.9286579  63.2258286  84.3623301 120.0271836  63.5265385
  83.6214304 121.1750276  62.8743102  91.5561624 128.8704319  64.8245786
  91.1125478 128.0840698  64.5066691  92.2178837 129.0583470  64.1589677
  86.3148745 130.4000121  59.3506465  86.8656170 130.2717184  58.5783459
  85.4760221 130.6995010  59.0001358  93.6542862 129.1507119  62.8527188
  93.6361337 129.9716000  62.3607457  94.5762782 129.0261194  63.0777329
  90.1115916 126.6651248  63.6950696  90.6444253 125.9039537  63.4650004
  89.5829997 126.3724900  64.4374850  81.3471462 124.0944845  52.0432940
  82.1846684 124.5041853  51.8266648  81.5249729 123.1544287  52.0133134
  93.2435894 121.7619926  47.7316773  92.7282517 122.5324530  47.9705160
  92.9713202 121.0885062  48.3549834  90.8283005 116.6069626  52.7902011
  89.9724601 116.2176477  52.6107650  91.2409957 116.6861587  51.9301797
  92.3582151 114.1415970  57.1893571  91.8546947 114.1046105  56.3761376
  92.6512758 115.0508712  57.2490228  88.6025037 114.2254699  56.1959753
  89.4678034 114.0297508  55.8365642  88.6702546 113.9965051  57.1229109
  98.2170168 124.5152280  49.6669946  97.4399611 124.1763440  49.2225108
  98.8961649 124.5204903  48.9924911  93.0322197 119.6347018  49.5576554
  92.7272333 119.9493167  50.4086697  93.9852639 119.7128438  49.6003887
  91.4768629 125.7937241  51.2069508  90.9489990 125.0590001  50.8942745
  90.9756132 126.5711917  50.9609476  96.4561475 123.9886261  56.3236554
  95.7985149 124.6785523  56.4116683  97.2601874 124.3782693  56.6670541
  86.2087356 116.4556907  53.5676119  86.7831108 116.2332089  52.8349312
  86.7958339 116.5245602  54.3204721  95.2666934 122.3430634  54.3740496
  95.7798815 122.9760626  54.8762206  95.9168158 121.7431830  54.0083856
  86.5356944 118.4861368  47.5872005  85.6994256 118.8236055  47.9081279
  86.3961713 118.3510348  46.6499142  88.5110024 113.3298156  52.2951189
  87.8574437 113.0147173  51.6707804  88.4690498 112.7073897  53.0211012
  89.6221229 123.6117451  44.2104481  88.7148291 123.3806705  44.4095630
  90.1192261 122.8155070  44.3978463  92.5289308 132.3214958  47.1301167
  91.8551007 132.6246655  47.7386125  92.9155130 133.1244039  46.7806624
  91.7447765 119.8180090  56.6198836  90.8270326 120.0395037  56.4620525
  92.1607908 119.8926400  55.7610544  92.5282812 121.2171505  51.7501517
  93.2754631 121.7292903  51.4408639  92.7974402 120.8955558  52.6105910
  90.8009462 123.7130046  48.7328471  89.8920682 123.4289079  48.8300941
  90.8304546 124.1329125  47.8731778  96.0328730 127.3236636  52.5019639
  95.5791057 126.4827545  52.5584829  95.4022697 127.9598034  52.8394419
  94.9761649 118.2528622  53.7320306  94.2384406 117.7406008  54.0630549
  95.2288423 117.8129003  52.9203583  94.4761669 129.1613132  53.4369457
  94.7684643 129.7218189  52.7181822  94.9860290 129.4541693  54.1922616
  95.0773277 111.0304874  54.3262075  95.3832154 110.1702237  54.0387990
  95.8025882 111.6222494  54.1261069  81.3697633 121.4335560  52.7143673
  81.1722033 120.8404921  51.9894740  80.8144297 121.1287770  53.4319612
  89.3494357 121.3258667  54.8338266  89.4042966 120.3732503  54.7580743
  88.5385559 121.4818106  55.3179565  90.4985550 125.2538790  46.0716550
  90.0604980 124.5374649  45.6122187  91.2395991 125.4814905  45.5101641
  87.2886716 119.9435726  52.5928645  86.4754582 120.2429897  52.9993837
  87.7845711 119.5491415  53.3103128  89.4395294 129.9393483  54.5262910
  89.3971473 130.1654330  53.5971442  90.3557993 129.7056858  54.6748711
  92.8860928 120.4077551  61.4243539  93.2410316 120.6349024  62.2838005
  93.5333059 120.7395928  60.8020794  98.6158665 123.5295987  52.1292868
  98.4776564 123.7197583  51.2014057  98.2594884 124.2915370  52.5860919
  86.7800791 117.5154082  58.2089880  87.4200171 117.3742841  57.5112844
  85.9478322 117.2288595  57.8328482  98.6428045 125.5972514  57.1404140
  99.0764551 125.5047803  57.9887194  99.3559625 125.5730014  56.5024156
  87.5561095 126.8156512  54.3224873  88.3501694 126.3206833  54.1207448
  86.8452787 126.2874375  53.9592578  92.3755940 129.1974608  58.6737240
  92.4292962 129.7665544  59.4414956  91.5070721 129.3676493  58.3091277
  83.8643859 120.9599594  50.3984625  82.9341447 120.8984050  50.6154587
  83.9601331 120.4375547  49.6021267  83.7829408 117.4854407  52.9862867
  84.0436225 118.3999740  52.8772027  84.6046580 117.0178849  53.1359480
  85.2554333 118.8992164  60.1561692  85.9277386 118.6909526  59.5074340
  84.4284119 118.7014250  59.7166924  99.5043594 125.6396214  59.6737025
  99.6979484 126.5442025  59.9196300  99.4044212 125.1803634  60.5075610
  94.5658703 125.7902957  65.2477906  94.4144209 125.5613509  64.3307989
  94.5563382 126.7473559  65.2609251  91.3344039 123.3634870  60.2324172
  92.2636099 123.5146030  60.0593139  90.9135069 123.4518891  59.3772819
  90.1332371 127.3885534  58.0022710  89.9943457 127.0204319  58.8748648
  89.3446967 127.9033174  57.8306668  90.7280523 132.4894631  49.3448246
  90.9032279 132.0182674  50.1593869  90.0413311 133.1160397  49.5729507
  91.6837586 126.7667137  55.3911548  91.3487419 126.7267907  56.2869197
  91.1841532 126.1011853  54.9181958  85.6581830 122.1734767  60.9164129
  85.5201628 121.4415006  61.5175668  86.5686754 122.0843667  60.6348316
  94.6196778 124.1123171  45.6648607  94.0025949 123.3870000  45.5681660
  94.1513266 124.8732532  45.3215681  88.2864131 121.8854726  60.4047808
  88.9963749 121.2447919  60.3634427  88.2433439 122.1367621  61.3273989
  96.2750910 128.8222080  63.3254388  96.2163456 128.1381300  62.6584971
  96.6770428 129.5641070  62.8735014  86.9993065 118.8719944  62.2243448
  86.4630422 118.4210683  62.8765044  86.4109773 119.0065853  61.4813912
  85.2941608 135.6383994  56.1188106  85.5338207 136.2702518  56.7967125
  84.4510805 135.2872034  56.4053466  86.4095324 118.3308596  44.7869911
  85.5324790 118.2097396  44.4232158  86.8853077 117.5394674  44.5348800
  96.2768317 126.7861664  61.5568367  95.3895096 126.4487585  61.6794766
  96.8466868 126.0544695  61.7937133  77.9297464 123.1185755  54.8811419
  78.6168504 122.8047485  54.2932434  77.7745593 124.0227120  54.6078670
  82.7332186 118.0075952  59.3096442  82.6490375 117.4001622  58.5746852
  81.9114892 118.4984970  59.3105939  89.8069470 131.4463116  58.5229610
  89.7339642 132.2518088  59.0348915  89.3646863 131.6455082  57.6977632
  89.5959250 130.6834886  52.0332432  88.8126772 131.2256566  52.1270657
  90.2951995 131.2008866  52.4326673  92.9055900 116.4929516  54.6766637
  93.4024599 115.7399478  54.3567708  92.1342881 116.5293832  54.1109847
 100.7585657 122.1969881  56.3184929 100.7475534 123.0794596  55.9478862
  99.8903037 121.8441432  56.1239466  92.2668154 131.3449950  60.6787769
  92.9796126 131.9797415  60.6063671  91.7758182 131.4413816  59.8627771
  93.9885681 125.2501203  52.2505061  93.0541959 125.3702665  52.0809765
  94.1662349 124.3473670  51.9865071  89.4890869 118.6346899  54.4038322
  89.1188656 118.0817939  55.0919228  89.9849961 118.0305032  53.8513322
  97.3758232 121.0918522  52.7855095  97.8418684 121.9246514  52.7115398
  97.8265732 120.6263504  53.4900353  87.3180067 129.0944394  61.4993340
  88.0189527 129.7280876  61.6522734  86.8475182 129.4359125  60.7388979
  95.4434463 127.4362343  49.7841247  95.7194307 127.3218938  50.6935121
  94.5738962 127.0379828  49.7453420  95.3474895 113.4599109  56.8245996
  94.4337975 113.6903336  56.9928203  95.7767996 113.5437553  57.6760029
  95.1181353 121.6489001  59.3245890  94.4652803 121.8964908  58.6698343
  95.4961733 120.8353139  58.9908368  92.0788527 131.6848694  53.4274061
  92.2610922 130.8670350  53.8901813  92.9021513 131.9016386  52.9898951
  92.4130693 130.6116879  50.6889109  92.9418459 130.1009334  50.0759271
  92.6758912 130.2959409  51.5534642  91.1668926 122.3908812  65.8111927
  90.4909563 122.2902941  66.4814303  91.9896560 122.2348026  66.2747925
  82.9147785 128.6280749  58.4324443  83.5001222 127.8824436  58.5652347
  82.7172624 128.9384705  59.3161107  85.7686441 131.6631996  53.4486885
  85.0996816 132.1478124  52.9650925  85.6299310 131.9101216  54.3630264
  77.5065440 121.1986349  57.1528886  77.5449540 120.6649939  57.9466004
  77.0005733 120.6721554  56.5339863  89.9091709 133.6975739  60.0469543
  90.4610017 133.8607361  60.8118629  90.2497903 134.2880177  59.3749568
  84.8856202 116.0450889  60.6491428  84.9497529 116.9065720  60.2368826
  84.8223323 115.4324891  59.9163787  94.7602583 128.5236997  65.9018198
  95.3042487 129.1366955  65.4073153  94.1789428 129.0816575  66.4185211
  81.1374018 119.9250451  50.2282817  81.4327459 119.0161129  50.1749871
  80.2362053 119.9038190  49.9063819  93.0460096 131.6457715  57.0333226
  92.9211236 130.8447455  56.5244171  93.7039188 132.1403908  56.5447195
  84.6668265 118.0006447  56.2110366  83.9454850 118.6142415  56.0717839
  85.4561520 118.5364212  56.1327012  95.1095005 129.4466735  58.6612776
  94.1625340 129.3272086  58.5891102  95.4577778 128.5589233  58.7439037
  82.8661859 117.6064549  50.3522142  82.5374565 116.7261928  50.1697248
  83.2201230 117.5512217  51.2398532  92.1141438 129.2419451  54.8617128
  91.9666401 128.3136159  55.0424698  92.9394932 129.2639542  54.3774203
  85.9803682 117.8937518  50.7197620  86.3199755 118.4223440  49.9976228
  86.4275803 118.2317925  51.4956187  95.7175560 130.0648010  55.9482001
  96.6422107 129.8590871  55.8106452  95.5490863 129.8164411  56.8571342
  88.6747123 116.2774569  60.1700688  88.3343944 115.4782382  60.5721368
  87.9686129 116.5776280  59.5977521  89.3263595 113.3623882  58.6228011
  90.1489664 112.8884360  58.5006901  89.5701659 114.1414365  59.1226697
  87.9671830 116.3912140  48.9190913  88.6880192 116.7693393  48.4154630
  87.3437134 117.1101017  49.0225891  92.1102952 117.0957289  49.8549245
  92.3266567 117.9781927  49.5538073  91.6297020 116.7043502  49.1254887
  86.8502174 120.0543002  56.4319990  86.7046754 120.3683305  57.3244271
  86.3727377 120.6727903  55.8790888  88.7098557 117.0445550  56.4800879
  88.6960125 116.1486643  56.1433177  89.4270985 117.0516214  57.1139165
  90.5624687 117.4782890  58.5254007  90.3042465 118.3999961  58.5238337
  90.0309728 117.0813325  59.2154471  95.5070876 130.5833677  51.3044092
  95.6807754 130.0180100  50.5517944  95.9999767 131.3834572  51.1223582
  81.3247836 122.5948347  59.3707651  80.7801304 123.3708155  59.5027925
  82.2027186 122.9419151  59.2126772  88.1135453 115.9259930  51.7488449
  88.2351364 114.9976577  51.9479337  87.8237495 115.9398616  50.8366765
  90.9826643 113.6114841  54.8855169  91.0048340 113.6754174  53.9307149
  91.3994702 112.7719350  55.0795675 101.3610267 123.3470100  52.9234392
 101.8041413 122.5977426  52.5253515 100.4836778 123.3380237  52.5408124
  96.4946049 129.9000442  48.4040990  97.1896953 130.5207135  48.6228305
  96.8369199 129.0495793  48.6793368  82.1113858 121.7218243  62.2637808
  81.3695594 121.8700878  62.8502438  81.7906602 121.9826508  61.4004557
  98.3937472 127.3500147  49.9328321  98.9188796 127.6887420  49.2077641
  98.3059824 126.4147163  49.7491456  90.0557520 131.2634221  62.0618198
  90.3644647 131.0183368  62.9340897  90.8533002 131.4680860  61.5737068
  90.0778132 133.4172131  54.2923574  89.6383123 132.9248509  54.9856431
  90.8286249 132.8745098  54.0515650  82.5570471 129.6083672  54.2948202
  83.3828491 129.3087443  53.9146846  82.2064523 128.8391294  54.7437991
  87.5252005 128.9610140  56.3645876  86.9032014 128.2980845  56.0648104
  88.1956872 128.9871272  55.6819524  80.7579077 127.5269998  55.2537136
  79.9210985 127.0992172  55.0721137  80.7302722 127.7202441  56.1907927
  98.0831378 127.9833051  65.2379519  97.2926922 127.9657190  64.6984018
  97.8464732 128.5221345  65.9928556  98.2029253 124.8325517  62.5512248
  98.2527258 124.6675525  63.4927770  98.0943176 123.9652776  62.1610128
  87.0865512 127.5114063  49.8404336  87.2353632 128.1949528  49.1871009
  87.8931955 127.4919153  50.3553792  89.8275821 118.1923300  62.7124741
  88.9579130 118.4856866  62.4407329  90.0635301 118.7763745  63.4332004
  99.7047450 127.2522459  62.7954269  99.4132258 127.6152440  63.6317730
  99.0919581 126.5389467  62.6167601 100.9043132 124.8175339  55.3156839
 101.7390023 125.2565143  55.4794400 101.0402261 124.3413992  54.4965085
  97.9534638 122.3755074  61.2634327  98.4288760 122.5682720  60.4553178
  97.0300203 122.4314259  61.0177711  84.8418145 123.5379241  50.8465405
  84.5964186 122.6341571  51.0445616  85.0114059 123.5396391  49.9044883
  84.1113792 119.2707598  48.3451567  83.4183037 119.3451953  47.6891603
  83.8665544 118.5067942  48.8673084  92.7827449 110.8303200  55.7491058
  93.0629202 110.1626389  56.3751484  93.5678056 111.0232295  55.2365721
  90.5860917 130.0062194  47.3116084  90.0134884 130.6252381  46.8586556
  91.1593711 130.5561555  47.8456006  96.6536307 119.2520834  59.4962633
  97.6053730 119.3518931  59.5174857  96.4839757 118.4599102  60.0060717
  94.6750686 116.3376417  59.6822034  94.0800619 116.6181430  58.9868522
  94.3900383 116.8270318  60.4538775  93.8058177 130.2899344  48.4424666
  94.7388850 130.2244905  48.6457542  93.7181390 131.1255611  47.9839199
  96.4346194 129.6065214  45.4028614  96.3559825 129.2725078  46.2964372
  97.2555860 130.0986982  45.4020086  99.1324385 122.4726953  58.6104932
  99.1000705 121.5342954  58.7964616  99.7425008 122.5510990  57.8770757
  90.9707716 121.3423006  44.6532136  91.9166820 121.2129214  44.7220554
  90.5921961 120.6037668  45.1301565  96.9429600 113.0079012  54.6159028
  96.7454421 112.6994101  55.5002360  97.5529306 113.7340651  54.7456958
 104.9500935 123.5342960  57.7510969 105.6804323 123.2728248  58.3118672
 104.3407880 122.7971682  57.7913037 103.0316232 121.6750823  58.3485420
 102.3049395 121.5406788  57.7401912 102.6163519 121.9827651  59.1542138
  90.8546408 125.3940752  66.1132793  91.7749418 125.5719351  66.3072840
  90.8195991 124.4496798  65.9612493  89.1550633 119.2672983  44.5887022
  88.2482088 118.9706095  44.6649735  89.4326614 118.9702801  43.7221308
  80.0728573 120.5879346  55.0386068  79.7531357 119.7344654  54.7460442
  79.5262001 120.8027924  55.7944035  83.8508481 123.3041787  58.7555575
  84.0694490 124.2358895  58.7743608  84.2634254 122.9449762  59.5410378
  90.7712698 113.8109872  50.7431263  89.9613427 113.4656957  51.1186509
  91.4597115 113.5017416  51.3318874  92.7003247 112.8887919  52.3655560
  93.2534285 113.3083373  53.0245583  92.9373333 111.9623667  52.4078516
  87.9249417 116.1259918  44.7299001  88.7868581 116.4514816  44.9894818
  88.1099762 115.3391414  44.2172067  79.9416833 124.2082258  57.0079190
  79.2480305 123.7936210  56.4949144  80.6889824 124.2502794  56.4112609
  96.0782054 114.9988444  51.8734224  95.4980723 115.6573248  51.4912276
  95.8117987 114.1765789  51.4621641  94.5285620 114.3993502  54.0755544
  95.0285399 114.5110037  53.2669863  95.1721228 114.0954555  54.7156353
  81.8553576 124.1400511  54.8845204  81.8324264 124.2388199  53.9327088
  82.1654212 124.9865662  55.2062371  84.5140954 126.1976666  58.9991819
  85.4684207 126.1660609  58.9321750  84.3153477 125.7367290  59.8142045
  85.1040336 124.7677782  61.5662617  85.9233225 125.2621861  61.5897454
  85.3777143 123.8509751  61.5380184  94.8606932 117.1588535  50.9290572
  93.9732787 117.4438185  50.7110767  95.2760921 116.9982298  50.0817849
  98.2121468 117.1835056  54.6444911  98.9881858 117.6731508  54.9169528
  97.4869602 117.6093110  55.1016781 100.6494027 117.8962675  55.7018852
 101.2438517 117.6558411  54.9912160 100.7220610 117.1769806  56.3292388
  82.8691182 131.7396286  56.0162017  82.7345650 130.9796687  55.4500015
  82.4523245 132.4637186  55.5490806  94.0050145 126.9233209  45.0238592
  94.7085995 127.1283212  45.6396248  93.2812794 127.4909971  45.2887676
  94.8347956 122.6743071  51.1440862  94.7783157 123.1311622  50.3048495
  95.3876298 121.9133755  50.9663705  98.6452762 118.4632803  51.9690982
  98.3889696 118.0629438  52.7999189  98.0205630 119.1776597  51.8441121
 102.9565099 121.2028876  54.4762273 102.3964657 121.2722065  55.2493835
 102.3508603 121.0269860  53.7561769  86.0260308 132.6365603  56.2280459
  85.9092692 133.5811035  56.1259150  85.2052754 132.3339164  56.6166259
  95.9136843 127.3615739  47.0737052  96.7482447 126.9296937  46.8914527
  95.7521186 127.1897752  48.0013947  95.5682735 123.8647852  48.4393391
  95.5131539 123.6992123  47.4981836  94.9428790 124.5723885  48.5955581
  92.8828642 126.1696764  67.7646954  93.7519802 126.3437416  67.4033589
  92.4035394 126.9891181  67.6422684  88.8778860 113.3655961  48.0178710
  88.8657530 114.3097801  48.1746981  89.7702282 113.1826106  47.7238171
  87.0514822 133.2893865  59.4436388  87.9542069 133.3217475  59.7602883
  86.8252192 132.3594316  59.4582724  88.8068424 132.0424851  56.1046466
  87.8564055 132.0426713  55.9910839  89.1100910 131.2957586  55.5882501
  92.6930980 109.9598738  52.2724647  91.9263376 109.4057224  52.4181329
  93.1041685 110.0320606  53.1338798 104.5421118 137.8785390  57.1692229
 105.1799528 137.7592137  56.4655569 104.4241961 138.8266234  57.2280181
 101.3510824 137.8312818  57.1053754 101.0129336 137.7153883  56.2174288
 102.2200592 137.4303983  57.0854760  97.2097640 139.6848294  53.0950645
  96.6462505 139.5938231  52.3266932  97.0950035 138.8648199  53.5753137
 101.8330607 138.9847670  63.0639959 101.8219248 138.5900468  62.1920463
 101.9951247 138.2513742  63.6573731  94.7562072 141.1799486  55.9334865
  95.5483364 140.8390311  55.5181164  94.9958722 141.2894461  56.8537018
  96.7152826 140.4408399  48.8052244  97.4883702 139.8937386  48.6665120
  97.0678225 141.3052648  49.0166705  98.5537868 141.7684781  62.0119143
  98.2627734 142.6730412  61.8965809  99.1894853 141.8101309  62.7263213
  99.4794075 139.1461630  58.6020503 100.0757647 138.9217652  57.8877466
  99.5369047 138.4046375  59.2045951  99.0519103 136.6001065  46.4370694
  99.3044624 136.0782587  45.6754157  98.1143663 136.4367211  46.5397377
 104.0962386 135.6036844  54.2445437 104.8825476 135.1856267  53.8935854
 104.3601091 136.5082936  54.4127085 109.4970813 135.5412077  55.1478415
 110.2295985 134.9711294  55.3816245 108.7410169 135.1533677  55.5884921
  98.7715392 138.5029171  48.6395069  98.6551650 137.8274075  49.3076153
  98.8817652 138.0161545  47.8227222 101.1146933 137.9639318  52.3441758
 100.7505140 137.4369939  53.0554679 101.9714049 137.5737787  52.1708243
 107.0196234 129.2533651  59.6073024 106.6879559 130.1229062  59.3834239
 106.4241847 128.9369935  60.2867054 100.7552420 132.9929218  47.3403106
 100.9226822 133.8609454  47.7073577 100.5649589 133.1556500  46.4164396
  96.9640235 137.9059994  55.0405641  96.0390731 137.7736208  55.2483333
  97.2124648 138.6854213  55.5375584 106.9124897 133.9728737  56.6866374
 106.0041774 133.9044146  56.3925135 106.8612493 134.4500682  57.5148200
 100.7341641 135.4486876  48.3249773 100.6141266 135.8943926  49.1635253
 100.0394229 135.7972193  47.7663311  94.3249046 137.5493267  55.8749430
  94.4541427 137.8027746  56.7888842  93.6446497 138.1420975  55.5554085
 100.9865763 135.3918383  64.6301271 100.2099097 135.9512303  64.6204136
 101.6256326 135.8775166  65.1516141 108.7786544 132.1745175  58.4644248
 108.1360924 132.4677709  57.8184043 108.2741472 132.0598096  59.2697445
 106.4326707 135.9208349  49.1530107 107.3444563 136.1535735  48.9777805
 105.9236354 136.5045393  48.5905186  99.2412135 138.2003836  64.1919238
  99.9826820 138.7388880  63.9154062  98.5349121 138.8270125  64.3490790
 104.7167475 140.3432977  62.7891400 105.1250831 139.9015387  62.0446032
 103.9944736 139.7685604  63.0425593 101.0698545 135.2805583  60.1624957
 101.9159740 135.7044997  60.3059606 101.0097183 134.6239208  60.8563520
 104.2197990 132.9409952  61.8206130 103.9758922 133.6952012  61.2840406
 104.4957921 133.3195299  62.6553377 103.7762682 132.0966385  57.4019968
 102.9147161 132.3947638  57.6936706 103.8025117 132.3136784  56.4701001
 100.5924251 140.6408575  53.8093774 101.0562597 140.9196278  53.0198396
 100.3281049 139.7392020  53.6266865  97.4848332 140.1880057  56.7473537
  98.0549689 140.6167325  56.1091022  98.0756444 139.9062641  57.4457723
  99.5293137 136.7631728  50.6183339 100.2317181 137.2152771  51.0857265
  99.1973766 136.1215546  51.2463232  97.9773499 135.3543484  64.9934548
  97.3472160 136.0359765  65.2269945  97.8709587 135.2426566  64.0487687
  93.2718471 135.0215280  55.9200473  92.4817525 135.2772809  55.4440583
  93.7629719 135.8363618  56.0252513  95.2233217 135.3859860  52.8783949
  94.4264380 135.4978554  53.3967445  94.9958809 135.7246512  52.0124840
 101.0538884 141.9104563  60.8266464 101.1183317 142.3724970  61.6624636
 100.3449808 141.2801928  60.9548774  91.5556174 135.2745771  58.3515463
  91.8064213 136.1592781  58.6173039  92.0915723 135.0950372  57.5790555
  97.2554242 129.6564250  67.3559799  96.8621187 129.1030449  68.0307444
  98.0720382 129.9674829  67.7466317  94.2216299 141.0948108  51.2673369
  94.7340820 141.8891359  51.4178934  94.8739012 140.3974399  51.2006971
  96.0311184 144.2113865  53.3496122  96.2077812 145.1331829  53.1617106
  96.8268018 143.8972284  53.7790502 100.1722203 131.0722129  64.9480056
 100.9131916 131.6729282  64.8684518 100.4040125 130.3299767  64.3898099
  95.3163541 136.2578496  63.2258286  95.2017056 135.3563754  63.5265385
  94.4608058 136.5042193  62.8743102  97.1542500 145.7292038  59.3506465
  97.7049925 145.6009102  58.5783459  96.3153975 146.0286927  59.0001358
 100.9509671 141.9943166  63.6950696 101.4838007 141.2331454  63.4650004
 100.4223752 141.7016818  64.4374850 104.1179366 127.1003232  59.2244338
 103.7743635 127.9904874  59.1483448 104.4858328 126.9104890  58.3613923
  92.1865216 139.4236763  52.0432940  93.0240438 139.8333771  51.8266648
  92.3643484 138.4836205  52.0133134 104.0829648 137.0911843  47.7316773
 103.5676272 137.8616448  47.9705160 103.8106957 136.4176979  48.3549834
 101.6676759 131.9361544  52.7902011 100.8118356 131.5468394  52.6107650
 102.0803711 132.0153505  51.9301797 103.1975906 129.4707887  57.1893571
 102.6940702 129.4338022  56.3761376 103.4906513 130.3800630  57.2490228
  99.4418792 129.5546617  56.1959753 100.3071789 129.3589426  55.8365642
  99.5096301 129.3256969  57.1229109 103.8715951 134.9638935  49.5576554
 103.5666087 135.2785084  50.4086697 104.8246394 135.0420355  49.6003887
 102.3162383 141.1229159  51.2069508 101.7883745 140.3881918  50.8942745
 101.8149886 141.9003835  50.9609476  97.0481111 131.7848825  53.5676119
  97.6224863 131.5624006  52.8349312  97.6352093 131.8537519  54.3204721
 106.1060688 137.6722552  54.3740496 106.6192570 138.3052544  54.8762206
 106.7561912 137.0723747  54.0083856  97.3750698 133.8153286  47.5872005
  96.5388010 134.1527972  47.9081279  97.2355468 133.6802266  46.6499142
  99.3503779 128.6590074  52.2951189  98.6968191 128.3439091  51.6707804
  99.3084253 128.0365814  53.0211012 100.4614984 138.9409369  44.2104481
  99.5542045 138.7098622  44.4095630 100.9586015 138.1446988  44.3978463
 102.5841519 135.1472007  56.6198836 101.6664080 135.3686954  56.4620525
 103.0001663 135.2218318  55.7610544 103.3676567 136.5463423  51.7501517
 104.1148386 137.0584820  51.4408639 103.6368156 136.2247476  52.6105910
 101.6403217 139.0421964  48.7328471 100.7314436 138.7580997  48.8300941
 101.6698301 139.4621042  47.8731778 105.8155404 133.5820539  53.7320306
 105.0778161 133.0697925  54.0630549 106.0682177 133.1420921  52.9203583
 105.9167031 126.3596791  54.3262075 106.2225908 125.4994155  54.0387990
 106.6419636 126.9514411  54.1261069  92.2091387 136.7627478  52.7143673
  92.0115787 136.1696839  51.9894740  91.6538051 136.4579688  53.4319612
 100.1888111 136.6550584  54.8338266 100.2436721 135.7024421  54.7580743
  99.3779313 136.8110023  55.3179565 101.3379305 140.5830707  46.0716550
 100.8998735 139.8666566  45.6122187 102.0789746 140.8106822  45.5101641
  98.1280471 135.2727644  52.5928645  97.3148336 135.5721815  52.9993837
  98.6239465 134.8783333  53.3103128 103.7254683 135.7369469  61.4243539
 104.0804070 135.9640942  62.2838005 104.3726814 136.0687845  60.8020794
  97.6194546 132.8446000  58.2089880  98.2593925 132.7034759  57.5112844
  96.7872076 132.5580513  57.8328482  98.3954850 142.1448430  54.3224873
  99.1895448 141.6498750  54.1207448  97.6846542 141.6166293  53.9592578
  94.7037613 136.2891512  50.3984625  93.7735201 136.2275967  50.6154587
  94.7995085 135.7667465  49.6021267  94.6223162 132.8146325  52.9862867
  94.8829979 133.7291658  52.8772027  95.4440334 132.3470767  53.1359480
  96.0948087 134.2284082  60.1561692  96.7671141 134.0201444  59.5074340
  95.2677874 134.0306168  59.7166924 101.9973659 130.8546023  62.1727352
 101.3501574 131.5535972  62.0791829 102.7674675 131.2882167  62.5403601
 102.1737794 138.6926788  60.2324172 103.1029854 138.8437947  60.0593139
 101.7528824 138.7810808  59.3772819 100.9726126 142.7177452  58.0022710
 100.8337211 142.3496236  58.8748648 100.1840722 143.2325091  57.8306668
 102.5231341 142.0959055  55.3911548 102.1881173 142.0559825  56.2869197
 102.0235286 141.4303771  54.9181958  96.4975585 137.5026685  60.9164129
  96.3595383 136.7706924  61.5175668  97.4080508 137.4135585  60.6348316
 105.4590532 139.4415089  45.6648607 104.8419703 138.7161917  45.5681660
 104.9907021 140.2024449  45.3215681  99.1257885 137.2146644  60.4047808
  99.8357504 136.5739836  60.3634427  99.0827194 137.4659539  61.3273989
  97.8386819 134.2011862  62.2243448  97.3024176 133.7502600  62.8765044
  97.2503528 134.3357771  61.4813912  97.2489078 133.6600513  44.7869911
  96.3718545 133.5389314  44.4232158  97.7246831 132.8686592  44.5348800
  88.7691218 138.4477673  54.8811419  89.4562258 138.1339403  54.2932434
  88.6139347 139.3519038  54.6078670  93.5725941 133.3367870  59.3096442
  93.4884129 132.7293539  58.5746852  92.7508647 133.8276888  59.3105939
 103.7449654 131.8221433  54.6766637 104.2418354 131.0691396  54.3567708
 102.9736636 131.8585750  54.1109847 104.8279435 140.5793120  52.2505061
 103.8935714 140.6994583  52.0809765 105.0056104 139.6765587  51.9865071
 100.3284623 133.9638816  54.4038322  99.9582411 133.4109857  55.0919228
 100.8243716 133.3596950  53.8513322 108.2151986 136.4210440  52.7855095
 108.6812439 137.2538431  52.7115398 108.6659487 135.9555421  53.4900353
 106.1868649 128.7891027  56.8245996 105.2731729 129.0195254  56.9928203
 106.6161751 128.8729471  57.6760029 105.9575108 136.9780919  59.3245890
 105.3046558 137.2256826  58.6698343 106.3355488 136.1645057  58.9908368
 102.0062681 137.7200730  65.8111927 101.3303318 137.6194859  66.4814303
 102.8290315 137.5639943  66.2747925  93.7541540 143.9572666  58.4324443
  94.3394977 143.2116354  58.5652347  93.5566378 144.2676623  59.3161107
  88.3459195 136.5278266  57.1528886  88.3843294 135.9941857  57.9466004
  87.8399487 136.0013472  56.5339863  95.7249957 131.3742807  60.6491428
  95.7891283 132.2357638  60.2368826  95.6617077 130.7616809  59.9163787
  95.2002229 133.4465939  64.2964462  95.8274268 133.0643017  64.9101987
  94.3430148 133.2280141  64.6620155  91.9767772 135.2542369  50.2282817
  92.2721213 134.3453047  50.1749871  91.0755808 135.2330108  49.9063819
  95.5062019 133.3298365  56.2110366  94.7848605 133.9434333  56.0717839
  96.2955275 133.8656130  56.1327012  98.3088333 130.6652792  62.4851018
  98.8322734 130.9115088  63.2477327  98.0900666 131.4972826  62.0654155
  93.7055614 132.9356466  50.3522142  93.3768320 132.0553845  50.1697248
  94.0594984 132.8804135  51.2398532  96.8197437 133.2229436  50.7197620
  97.1593509 133.7515357  49.9976228  97.2669557 133.5609842  51.4956187
  99.5140878 131.6066487  60.1700688  99.1737698 130.8074300  60.5721368
  98.8079884 131.9068198  59.5977521 100.1657350 128.6915799  58.6228011
 100.9883419 128.2176277  58.5006901 100.4095413 129.4706283  59.1226697
  98.8065584 131.7204058  48.9190913  99.5273947 132.0985310  48.4154630
  98.1830888 132.4392934  49.0225891 102.9496707 132.4249207  49.8549245
 103.1660321 133.3073845  49.5538073 102.4690774 132.0335420  49.1254887
  97.6895928 135.3834920  56.4319990  97.5440509 135.6975223  57.3244271
  97.2121132 136.0019820  55.8790888  99.5492311 132.3737468  56.4800879
  99.5353880 131.4778561  56.1433177 100.2664739 132.3808132  57.1139165
 101.4018442 132.8074808  58.5254007 101.1436220 133.7291879  58.5238337
 100.8703482 132.4105243  59.2154471  92.1641590 137.9240264  59.3707651
  91.6195059 138.7000072  59.5027925  93.0420940 138.2711069  59.2126772
  98.9529207 131.2551848  51.7488449  99.0745118 130.3268494  51.9479337
  98.6631249 131.2690534  50.8366765 101.8220397 128.9406759  54.8855169
 101.8442094 129.0046092  53.9307149 102.2388456 128.1011267  55.0795675
  92.9507612 137.0510161  62.2637808  92.2089348 137.1992796  62.8502438
  92.6300357 137.3118426  61.4004557  93.3964226 144.9375589  54.2948202
  94.2222246 144.6379361  53.9146846  93.0458278 144.1683212  54.7437991
  98.3645759 144.2902057  56.3645876  97.7425768 143.6272762  56.0648104
  99.0350626 144.3163189  55.6819524  91.5972831 142.8561916  55.2537136
  90.7604739 142.4284090  55.0721137  91.5696476 143.0494359  56.1907927
  98.4370287 132.7683845  65.9578382  98.4858442 133.6445968  65.5756152
  98.9792801 132.2261239  65.3850025  97.9259266 142.8405981  49.8404336
  98.0747386 143.5241445  49.1871009  98.7325709 142.8211071  50.3553792
 106.3326770 136.1448363  63.8671554 107.2336632 136.0054828  63.5755552
 106.4074744 136.3102818  64.8069732 100.6669575 133.5215218  62.7124741
  99.7972884 133.8148784  62.4407329 100.9029055 134.1055663  63.4332004
  95.6811899 138.8671158  50.8465405  95.4357941 137.9633488  51.0445616
  95.8507814 138.8688309  49.9044883 103.3708609 129.7394835  60.2290161
 103.8890553 130.4755862  59.9036650 103.0163742 130.0458828  61.0636920
  94.9507547 134.5999516  48.3451567  94.2576791 134.6743871  47.6891603
  94.7059298 133.8359860  48.8673084 103.6221203 126.1595117  55.7491058
 103.9022957 125.4918306  56.3751484 104.4071810 126.3524213  55.2365721
 107.4930061 134.5812751  59.4962633 108.4447484 134.6810849  59.5174857
 107.3233512 133.7891020  60.0060717 105.5144441 131.6668335  59.6822034
 104.9194373 131.9473347  58.9868522 105.2294138 132.1562235  60.4538775
 101.8101470 136.6714924  44.6532136 102.7560575 136.5421132  44.7220554
 101.4315715 135.9329586  45.1301565 110.1212628 134.5929914  58.6563216
 109.6051676 133.8088371  58.4693144 111.0052576 134.2648631  58.8209735
 107.7823355 128.3370930  54.6159028 107.5848176 128.0286018  55.5002360
 108.3923060 129.0632569  54.7456958 101.6940163 140.7232670  66.1132793
 102.6143172 140.9011269  66.3072840 101.6589746 139.7788715  65.9612493
  99.9944387 134.5964900  44.5887022  99.0875843 134.2998013  44.6649735
 100.2720368 134.2994718  43.7221308  90.9122328 135.9171264  55.0386068
  90.5925112 135.0636572  54.7460442  90.3655756 136.1319842  55.7944035
  94.6902235 138.6333705  58.7555575  94.9088245 139.5650813  58.7743608
  95.1028009 138.2741679  59.5410378 101.6106453 129.1401790  50.7431263
 100.8007181 128.7948875  51.1186509 102.2990870 128.8309334  51.3318874
 103.5397001 128.2179837  52.3655560 104.0928040 128.6375290  53.0245583
 103.7767088 127.2915585  52.4078516  99.5630100 134.2066911  68.1458323
  99.4626827 135.1561268  68.0770415  99.3451643 133.8785149  67.2734394
  98.7643172 131.4551836  44.7299001  99.6262336 131.7806734  44.9894818
  98.9493516 130.6683332  44.2172067  90.7810588 139.5374175  57.0079190
  90.0874059 139.1228128  56.4949144  91.5283579 139.5794712  56.4112609
 106.9175808 130.3280362  51.8734224 106.3374477 130.9865166  51.4912276
 106.6511741 129.5057707  51.4621641 105.3679375 129.7285420  54.0755544
 105.8679153 129.8401954  53.2669863 106.0114983 129.4246473  54.7156353
  99.4261371 137.6364049  66.9623385  98.9428452 138.4364410  67.1687274
  99.5122310 137.6471994  66.0090829  92.6947330 139.4692429  54.8845204
  92.6718018 139.5680116  53.9327088  93.0047967 140.3157580  55.2062371
  95.3534708 141.5268584  58.9991819  96.3077962 141.4952526  58.9321750
  95.1547232 141.0659208  59.8142045  95.9434090 140.0969700  61.5662617
  96.7626979 140.5913779  61.5897454  96.2170898 139.1801668  61.5380184
 105.7000686 132.4880452  50.9290572 104.8126541 132.7730103  50.7110767
 106.1154675 132.3274216  50.0817849 109.0515222 132.5126973  54.6444911
 109.8275613 133.0023426  54.9169528 108.3263357 132.9385028  55.1016781
 111.4887781 133.2254593  55.7018852 112.0832272 132.9850329  54.9912160
 111.5614365 132.5061723  56.3292388  93.7084937 147.0688204  56.0162017
  93.5739405 146.3088604  55.4500015  93.2916999 147.7929103  55.5490806
 105.6741710 138.0034988  51.1440862 105.6176911 138.4603540  50.3048495
 106.2270053 137.2425673  50.9663705 109.4846516 133.7924720  51.9690982
 109.2283450 133.3921356  52.7999189 108.8599384 134.5068514  51.8441121
 106.4076489 139.1939770  48.4393391 106.3525293 139.0284041  47.4981836
 105.7822545 139.9015803  48.5955581  91.1969004 134.4307834  62.2654814
  91.8427868 133.9206788  62.7542039  90.9886155 135.1676516  62.8398239
  99.7172615 128.6947879  48.0178710  99.7051285 129.6389719  48.1746981
 100.6096037 128.5118024  47.7238171 103.5324734 125.2890655  52.2724647
 102.7657130 124.7349142  52.4181329 103.9435439 125.3612524  53.1338798
  95.5366495 131.5775451  66.3629828  96.3997957 131.2212256  66.5733152
  94.9631906 131.2389346  67.0505232  28.6664838   7.5804089  43.8937536
  29.3043248   7.4610836  43.1900876  28.5485681   8.5284933  43.9525488
  25.4754544   7.5331517  43.8299060  25.1373055   7.4172581  42.9419595
  26.3444312   7.1322682  43.8100066  25.9574327   8.6866368  49.7885266
  25.9462968   8.2919167  48.9165769  26.1194966   7.9532441  50.3819037
  18.8805792  10.8818185  42.6580172  19.6727083  10.5409009  42.2426471
  19.1202442  10.9913160  43.5782325  26.9140918  13.0537961  35.1310416
  26.2628898  13.6392041  34.7444430  27.7085281  13.5844156  35.1905454
  22.6781588  11.4703480  48.7364450  22.3871454  12.3749111  48.6211116
  23.3138572  11.5120008  49.4508519  23.6037795   8.8480329  45.3265809
  24.2001367   8.6236351  44.6122772  23.6612766   8.1065074  45.9291257
  28.2206106   5.3055542  40.9690744  29.0069195   4.8874966  40.6181161
  28.4844810   6.2101635  41.1372392  33.6214533   5.2430776  41.8723722
  34.3539705   4.6729992  42.1061552  32.8653889   4.8552376  42.3130228
  25.2390653   7.6658017  39.0687065  24.8748860   7.1388638  39.7799986
  26.0957769   7.2756486  38.8953550  27.6371473  11.1564896  45.7314243
  27.3372196  12.0589935  45.6230051  27.2922533  10.8897079  46.5835396
  21.0883955   7.6078693  41.7650948  20.1634451   7.4754907  41.9728640
  21.3368368   8.3872912  42.2620890  31.0368617   3.6747436  43.4111681
  30.1285494   3.6062844  43.1170442  30.9856213   4.1519381  44.2393506
  22.6192253  17.9209216  38.6985211  22.5416283  18.8717041  38.7773692
  22.0153897  17.5755089  39.3560137  25.1109483   5.0937082  51.3546578
  24.3342817   5.6531002  51.3449443  25.7500046   5.5793865  51.8761448
  32.9030263   1.8763874  45.1889555  32.2604644   2.1696408  44.5429349
  32.3985192   1.7616795  45.9942751  23.3655855   7.9022535  50.9164545
  24.1070539   8.4407579  50.6399369  22.6592840   8.5288824  51.0736097
  28.8411195  10.0451675  49.5136706  29.2494551   9.6034086  48.7691339
  28.1188456   9.4704303  49.7670899  25.1942265   4.9824282  46.8870263
  26.0403460   5.4063696  47.0304912  25.1340902   4.3257906  47.5808827
  29.1640009  10.6052866  43.2688995  28.5348872  10.7698580  42.5665063
  28.7765671  11.0194476  44.0399959  33.0429241  11.5407304  40.6233359
  32.3580279  11.9206205  40.0730392  33.1273091  12.1502631  41.3565307
  28.3441710   2.6428650  48.5451437  28.1002642   3.3970711  48.0085713
  28.6201641   3.0213998  49.3798684  30.2980173   9.1867263  47.2228703
  30.5097068   9.8299023  46.5463084  30.2509921   8.3529579  46.7550633
  27.9006402   1.7985084  44.1265275  27.0390881   2.0966337  44.4182012
  27.9268836   2.0155482  43.1946307  24.7167971  10.3427274  40.5339080
  25.1806317  10.6214977  39.7443703  24.4524769   9.4410719  40.3512171
  21.6092052   9.8898756  43.4718844  22.1793409  10.3186024  42.8336328
  22.2000164   9.6081340  44.1703029  31.4126001  12.0639218  45.3951060
  32.2343444  11.6619406  45.1133742  31.4088404  11.9607452  46.3467176
  25.1782604  11.6123262  47.5511770  25.2427037  12.0743669  48.3869942
  24.4693528  10.9820627  47.6794080  39.5031994   8.4077967  41.7436031
  38.7495702   7.8385365  41.5880036  39.6379535   8.3740631  42.6906666
  24.8930622  13.2791369  37.4190751  24.7576297  14.1242905  37.8475599
  25.4340434  13.4810647  36.6556685  20.1554904  13.9132563  40.0741429
  20.3321532  14.8350528  39.8862413  20.9511737  13.5990983  40.5035809
  26.5199098  13.9014936  51.5491093  26.0762952  13.1151314  51.2311997
  27.1816312  14.0894086  50.8834984  21.2786219  15.4310737  46.0751771
  21.8293645  15.3027801  45.3028765  20.4397695  15.7305626  45.7246664
  28.6180336  14.1817736  49.5772494  28.5998812  15.0026617  49.0852763
  29.5400256  14.0571811  49.8022635  25.0753390  11.6961865  50.4196003
  25.6081727  10.9350153  50.1895311  24.5467472  11.4035517  51.1620157
  33.1807642   9.5462897  36.3915253  32.4037085   9.2074056  35.9470415
  33.8599123   9.5515520  35.7170218  26.4406103  10.8247857  37.9314815
  25.9127465  10.0900617  37.6188052  25.9393606  11.6022534  37.6854783
  31.4198949   9.0196878  43.0481861  30.7622624   9.7096139  43.1361989
  32.2239348   9.4093310  43.3915847  30.2304408   7.3741251  41.0985803
  30.7436290   8.0071242  41.6007512  30.8805632   6.7742446  40.7329163
  27.4926782  17.3525575  33.8546474  26.8188481  17.6557272  34.4631432
  27.8792604  18.1554655  33.5051931  26.7085239   4.8490706  43.3444143
  25.7907800   5.0705653  43.1865831  27.1245382   4.9237017  42.4855850
  27.4920287   6.2482122  38.4746823  28.2392106   6.7603519  38.1653945
  27.7611876   5.9266175  39.3351217  30.9966204  12.3547252  39.2264945
  30.5428531  11.5138162  39.2830136  30.3660171  12.9908650  39.5639725
  29.9399124   3.2839238  40.4565613  29.2021881   2.7716624  40.7875855
  30.1925897   2.8439620  39.6448890  29.4399143  14.1923749  40.1614763
  29.7322118  14.7528806  39.4427129  29.9497764  14.4852310  40.9167922
  24.3131831   6.3569283  41.5583573  24.3680441   5.4043120  41.4826050
  23.5023033   6.5128722  42.0424871  24.4032769  14.9704100  41.2508217
  24.3608947  15.1964946  40.3216749  25.3195467  14.7367474  41.3994018
  27.8498402   5.4388167  48.1488846  28.2047790   5.6659641  49.0083312
  28.4970534   5.7706544  47.5266101  33.5796139   8.5606603  38.8538175
  33.4414038   8.7508199  37.9259364  33.2232358   9.3225986  39.3106226
  33.6065519  10.6283130  43.8649446  34.0402026  10.5358419  44.7132500
  34.3197100  10.6040631  43.2269462  22.5198569  11.8467129  41.0470179
  23.3139168  11.3517449  40.8452754  21.8090262  11.3184992  40.6837885
  27.3393414  14.2285224  45.3982547  27.3930436  14.7976161  46.1660263
  26.4708195  14.3987109  45.0336584  34.4681069  10.6706831  46.3982332
  34.6616959  11.5752641  46.6441607  34.3681687  10.2114250  47.2320917
  29.5296177  10.8213574  51.9723212  29.3781684  10.5924125  51.0553296
  29.5200857  11.7784175  51.9854557  26.2981514   8.3945486  46.9569479
  27.2273574   8.5456646  46.7838446  25.8772544   8.4829507  46.1018125
  25.0969845  12.4196151  44.7268016  24.9580931  12.0514935  45.5993955
  24.3084442  12.9343790  44.5551974  25.6917997  17.5205247  36.0693553
  25.8669753  17.0493291  36.8839176  25.0050785  18.1471014  36.2974814
  26.6475061  11.7977754  42.1156854  26.3124893  11.7578524  43.0114504
  26.1479006  11.1322469  41.6427264  20.6219305   7.2045384  47.6409435
  20.4839102   6.4725622  48.2420974  21.5324228   7.1154284  47.3593623
  23.2501605   6.9165343  47.1293115  23.9601224   6.2758535  47.0879733
  23.2070913   7.1678238  48.0519296  31.2388384  13.8532696  50.0499694
  31.1800930  13.1691916  49.3830277  31.6407902  14.5951686  49.5980320
  20.2579083  20.6694610  42.8433413  20.4975681  21.3013134  43.5212432
  19.4148279  20.3182650  43.1298772  31.2405791  11.8172280  48.2813674
  30.3532570  11.4798202  48.4040073  31.8104342  11.0855311  48.5182439
  24.7706945  16.4773733  45.2474917  24.6977116  17.2828704  45.7594222
  24.3284338  16.6765698  44.4222938  24.5596724  15.7145503  38.7577739
  23.7764246  16.2567183  38.8515963  25.2589469  16.2319482  39.1571980
  35.7223132   7.2280498  43.0430236  35.7113008   8.1105213  42.6724169
  34.8540511   6.8752048  42.8484773  27.2305628  16.3760567  47.4033076
  27.9433600  17.0108031  47.3308977  26.7395657  16.4724433  46.5873078
  28.9523155  10.2811819  38.9750367  28.0179434  10.4013282  38.8055072
  29.1299823   9.3784286  38.7110377  32.3395706   6.1229139  39.5100402
  32.8056159   6.9557130  39.4360704  32.7903207   5.6574120  40.2145660
  22.2817542  14.1255010  48.2238647  22.9827001  14.7591493  48.3768041
  21.8112657  14.4669742  47.4634286  30.4071937  12.4672960  36.5086554
  30.6831781  12.3529554  37.4180428  29.5376436  12.0690445  36.4698727
  30.0818828   6.6799618  46.0491197  29.4290278   6.9275525  45.3943650
  30.4599207   5.8663756  45.7153674  27.0426001  16.7159311  40.1519367
  27.2248396  15.8980967  40.6147120  27.8658987  16.9327003  39.7144257
  27.3768167  15.6427496  37.4134416  27.9055933  15.1319950  36.8004578
  27.6396387  15.3270026  38.2779949  26.1306401   7.4219429  52.5357234
  25.4547038   7.3213558  53.2059609  26.9534034   7.2658642  52.9993231
  17.8785260  13.6591365  45.1569749  18.4638696  12.9135053  45.2897653
  17.6810098  13.9695322  46.0406413  20.7323915  16.6942612  40.1732192
  20.0634290  17.1788740  39.6896232  20.5936785  16.9411833  41.0875570
  24.8729183  18.7286356  46.7714850  25.4247491  18.8917978  47.5363935
  25.2135377  19.3190794  46.0994875  29.7240058  13.5547614  52.6263504
  30.2679962  14.1677572  52.1318459  29.1426903  14.1127192  53.1430517
  28.0097571  16.6768332  43.7578532  27.8848710  15.8758071  43.2489478
  28.6676662  17.1714525  43.2692502  30.0732479  14.4777352  45.3858082
  29.1262815  14.3582703  45.3136409  30.4215252  13.5899850  45.4684344
  27.0778912  14.2730068  41.5862434  26.9303875  13.3446775  41.7670005
  27.9032406  14.2950159  41.1019510  30.6813034  15.0958627  42.6727307
  31.6059582  14.8901488  42.5351758  30.5128338  14.8475028  43.5816649
  30.4708350  15.6144294  38.0289399  30.6445228  15.0490717  37.2763251
  30.9637242  16.4145189  37.8468889  36.3247742   8.3780717  39.6479698
  36.7678888   7.6288042  39.2498822  35.4474252   8.3690853  39.2653430
  31.4583523  14.9311058  35.1286297  32.1534428  15.5517751  35.3473612
  31.8006673  14.0806410  35.4038675  33.3574946  12.3810764  36.6573628
  33.8826270  12.7198037  35.9322948  33.2697299  11.4457779  36.4736762
  25.0194995  16.2944838  48.7863504  25.3282121  16.0493984  49.6586204
  25.8170477  16.4991476  48.2982375  25.0415607  18.4482747  41.0168881
  24.6020597  17.9559126  41.7101738  25.7923724  17.9055715  40.7760956
  17.5207946  14.6394288  41.0193509  18.3465966  14.3398060  40.6392153
  17.1701998  13.8701911  41.4683298  22.4889479  13.9920756  43.0891183
  21.8669488  13.3291461  42.7893410  23.1594346  14.0181888  42.4064830
  15.7216551  12.5580615  41.9782443  14.8848459  12.1302789  41.7966444
  15.6940196  12.7513058  42.9153234  33.0468852  13.0143668  51.9624826
  32.2564396  12.9967806  51.4229325  32.8102207  13.5531961  52.7173862
  33.1666727   9.8636134  49.2757554  33.2164732   9.6986141  50.2173077
  33.0580651   8.9963393  48.8855435  30.4570490   5.8467062  50.5916861
  31.3580352   5.7073527  50.3000859  30.5318464   6.0121517  51.5315038
  34.6684924  12.2833075  49.5199576  34.3769732  12.6463056  50.3563037
  34.0557055  11.5700084  49.3412908  35.8680606   9.8485955  42.0402146
  36.7027498  10.2875759  42.2039706  36.0039735   9.3724608  41.2210392
  32.9172112   7.4065690  47.9879634  33.3926234   7.5993336  47.1798485
  31.9937678   7.4624876  47.7423017  31.6173781   4.2831450  46.2207939
  32.5691204   4.3829548  46.2420163  31.4477232   3.4909719  46.7306024
  29.6388161   1.3687033  46.4067340  29.0438093   1.6492046  45.7113829
  29.3537857   1.8580934  47.1784081  28.7695651  15.3209960  35.1669973
  29.7026324  15.2555522  35.3702848  28.6818864  16.1566227  34.7084505
  31.3983668  14.6375831  32.1273920  31.3197299  14.3035694  33.0209678
  32.2193335  15.1297598  32.1265393  34.0961859   7.5037570  45.3350239
  34.0638179   6.5653571  45.5209923  34.7062483   7.5821607  44.6016064
  34.2456348   4.2948613  45.3808522  33.7295396   3.5107070  45.1938451
  35.1296296   3.9667330  45.5455042  39.9138409   8.5653577  44.4756276
  40.6441797   8.3038865  45.0363979  39.3045354   7.8282299  44.5158344
  37.9953706   6.7061439  45.0730727  37.2686870   6.5717404  44.4647219
  37.5800993   7.0138268  45.8787445  25.8183882  10.4251369  52.8378100
  26.7386892  10.6029968  53.0318147  25.7833465   9.4807414  52.6857799
  18.8145955   8.3352404  45.4800881  19.0331965   9.2669511  45.4988915
  19.2271729   7.9760378  46.2655685  23.5505090   7.3382748  53.6868692
  23.0672172   8.1383108  53.8932581  23.6366029   7.3490693  52.7336136
  19.4778428  11.2287283  45.7237126  20.4321681  11.1971225  45.6567057
  19.2790951  10.7677907  46.5387351  20.0677810   9.7988399  48.2907923
  20.8870699  10.2932478  48.3142760  20.3414618   8.8820367  48.2625491
  33.1758942   2.2145672  41.3690218  33.9519332   2.7042125  41.6414835
  32.4507076   2.6403726  41.8262087  35.6131501   2.9273292  42.4264159
  36.2075992   2.6869027  41.7157467  35.6858085   2.2080422  43.0537695
  17.8328657  16.7706902  42.7407323  17.6983125  16.0107303  42.1745321
  17.4160719  17.4947802  42.2736112  29.7985430   7.7053687  37.8686169
  29.7420631   8.1622239  37.0293801  30.3513772   6.9444372  37.6909012
  33.6090236   3.4943419  38.6936288  33.3527170   3.0940055  39.5244496
  32.9843104   4.2087213  38.5686428  37.9202574   6.2339492  41.2007580
  37.3602132   6.3032682  41.9739142  37.3146077   6.0580477  40.4807076
  20.9897783  17.6676219  42.9525766  20.8730167  18.6121652  42.8504456
  20.1690229  17.3649781  43.3411565  30.8774317  12.3926355  33.7982359
  31.7119921  11.9607554  33.6159834  30.7158660  12.2208369  34.7259253
  27.8466116  11.2007380  54.4892261  28.7157276  11.3748033  54.1278896
  27.3672868  12.0201797  54.3667990  22.0152297  18.3204481  46.1681694
  22.9179543  18.3528092  46.4848189  21.7889667  17.3904932  46.1828030
  23.7705899  17.0735468  42.8291773  22.8201530  17.0737330  42.7156145
  24.0738385  16.3268202  42.3127808  39.5058592  22.9096006  43.8937536
  40.1437002  22.7902754  43.1900876  39.3879435  23.8576850  43.9525488
  36.3148298  22.8623434  43.8299060  35.9766810  22.7464499  42.9419595
  37.1838067  22.4614599  43.8100066  32.1735114  24.7158911  39.8195951
  31.6099979  24.6248848  39.0512239  32.0587509  23.8958815  40.2998444
  36.7968081  24.0158286  49.7885266  36.7856722  23.6211084  48.9165769
  36.9588721  23.2824359  50.3819037  29.7199546  26.2110102  42.6580172
  30.5120838  25.8700927  42.2426471  29.9596196  26.3205077  43.5782325
  37.7534673  28.3829879  35.1310416  37.1022653  28.9683959  34.7444430
  38.5479036  28.9136073  35.1905454  31.6790300  25.4719016  35.5297550
  32.4521176  24.9248003  35.3910426  32.0315699  26.3363265  35.7412012
  33.5175343  26.7995398  48.7364450  33.2265209  27.7041029  48.6211116
  34.1532327  26.8411926  49.4508519  34.4431549  24.1772246  45.3265809
  35.0395122  23.9528269  44.6122772  34.5006521  23.4356992  45.9291257
  34.0156578  21.6311682  33.1616000  34.2682098  21.1093203  32.3999463
  33.0781137  21.4677827  33.2642684  39.0599861  20.6347460  40.9690744
  39.8462950  20.2166883  40.6181161  39.3238565  21.5393552  41.1372392
  39.2309938  26.0720310  35.6679400  38.5955771  26.1454937  36.3800305
  38.9007344  26.6613909  34.9898480  44.4608288  20.5722693  41.8723722
  45.1933460  20.0021910  42.1061552  43.7047643  20.1844294  42.3130228
  33.7352867  23.5339788  35.3640375  33.6189125  22.8584691  36.0321460
  33.8455126  23.0472162  34.5472528  36.0784407  22.9949935  39.0687065
  35.7142615  22.4680556  39.7799986  36.9351523  22.6048404  38.8953550
  41.9833708  14.2844267  46.3318331  41.6517033  15.1539678  46.1079546
  41.3879321  13.9680551  47.0112361  35.7189894  18.0239835  34.0648413
  35.8864297  18.8920071  34.4318884  35.5287064  18.1867116  33.1409702
  38.4765228  26.4856813  45.7314243  38.1765951  27.3881852  45.6230051
  38.1316287  26.2188997  46.5835396  31.9277709  22.9370610  41.7650948
  31.0028206  22.8046824  41.9728640  32.1762122  23.7164830  42.2620890
  41.8762371  19.0039354  43.4111681  40.9679249  18.9354762  43.1170442
  41.8249967  19.4811299  44.2393506  35.6979115  20.4797492  35.0495080
  35.5778741  20.9254543  35.8880560  35.0031704  20.8282810  34.4908618
  29.2886520  22.5803884  42.5994737  29.4178901  22.8338363  43.5134149
  28.6083971  23.1731592  42.2799392  33.4586007  33.2501134  38.6985211
  33.3810037  34.2008959  38.7773692  32.8547651  32.9047006  39.3560137
  35.9503237  20.4228999  51.3546578  35.1736571  20.9822919  51.3449443
  36.5893800  20.9085782  51.8761448  43.7424018  17.2055792  45.1889555
  43.0998398  17.4988325  44.5429349  43.2378946  17.0908712  45.9942751
  41.3964181  20.9518965  35.8775414  42.3082038  21.1846352  35.7023111
  40.8873829  21.5356009  35.3150493  34.2049610  23.2314453  50.9164545
  34.9464294  23.7699497  50.6399369  33.4986595  23.8580741  51.0736097
  39.6804949  25.3743593  49.5136706  40.0888305  24.9326004  48.7691339
  38.9582211  24.7996221  49.7670899  36.0336019  20.3116200  46.8870263
  36.8797214  20.7355613  47.0304912  35.9734657  19.6549824  47.5808827
  40.0033764  25.9344784  43.2688995  39.3742626  26.0990498  42.5665063
  39.6159426  26.3486393  44.0399959  43.8822996  26.8699222  40.6233359
  43.1974034  27.2498123  40.0730392  43.9666845  27.4794548  41.3565307
  39.1835465  17.9720568  48.5451437  38.9396396  18.7262629  48.0085713
  39.4595395  18.3505916  49.3798684  41.1373927  24.5159181  47.2228703
  41.3490823  25.1590940  46.5463084  41.0903676  23.6821497  46.7550633
  38.7400156  17.1277001  44.1265275  37.8784635  17.4258255  44.4182012
  38.7662591  17.3447400  43.1946307  35.5561726  25.6719192  40.5339080
  36.0200071  25.9506895  39.7443703  35.2918524  24.7702636  40.3512171
  32.4485807  25.2190673  43.4718844  33.0187164  25.6477942  42.8336328
  33.0393919  24.9373258  44.1703029  34.4930612  21.7942344  37.3428646
  35.1954655  22.2463388  37.8102572  34.1611240  21.1526163  37.9708539
  32.9410973  20.3854101  51.7179855  32.3109634  21.0670382  51.9515252
  32.8347061  20.2737182  50.7732993  28.2355946  20.0525897  42.6445779
  27.4455000  20.3083425  42.1685890  28.7267193  20.8674235  42.7497820
  42.2519755  27.3931136  45.3951060  43.0737199  26.9911323  45.1133742
  42.2482158  27.2899370  46.3467176  30.1870691  20.4170476  39.6029256
  29.3901854  20.5289170  40.1212752  29.9596283  20.7557128  38.7370146
  36.0176359  26.9415179  47.5511770  36.0820791  27.4035586  48.3869942
  35.3087283  26.3112544  47.6794080  26.5193649  20.3056387  45.0760770
  26.7701687  21.1903397  45.3418346  27.0553197  20.1260989  44.3035862
  50.3425748  23.7369884  41.7436031  49.5889457  23.1677283  41.5880036
  50.4773290  23.7032549  42.6906666  35.7324376  28.6083287  37.4190751
  35.5970051  29.4534822  37.8475599  36.2734189  28.8102564  36.6556685
  32.2191716  14.6874867  54.0805106  31.8258662  14.1341065  54.7552750
  33.0357856  14.9985445  54.4711624  29.1853774  26.1258725  37.9918676
  29.6978294  26.9201975  38.1424241  29.8376487  25.4285015  37.9252277
  30.9948658  29.2424481  40.0741429  31.1715287  30.1642446  39.8862413
  31.7905492  28.9282900  40.5035809  35.1359677  16.1032746  51.6725363
  35.8769390  16.7039899  51.5929825  35.3677600  15.3610383  51.1143405
  30.2801015  21.2889113  49.9503592  30.1654530  20.3874370  50.2510691
  29.4245533  21.5352810  49.5988409  37.3592853  29.2306853  51.5491093
  36.9156707  28.4443232  51.2311997  38.0210066  29.4186004  50.8834984
  32.1179974  30.7602655  46.0751771  32.6687399  30.6319718  45.3028765
  31.2791450  31.0597544  45.7246664  39.4574091  29.5109653  49.5772494
  39.4392566  30.3318534  49.0852763  40.3794011  29.3863728  49.8022635
  35.9147145  27.0253783  50.4196003  36.4475482  26.2642071  50.1895311
  35.3861226  26.7327434  51.1620157  39.0816840  12.1313849  45.9489644
  38.7381109  13.0215490  45.8728755  39.4495803  11.9415506  45.0859229
  27.1502691  24.4547379  38.7678246  27.9877913  24.8644387  38.5511954
  27.3280958  23.5146821  38.7378440  39.0467123  22.1222460  34.4562079
  38.5313746  22.8927064  34.6950467  38.7744431  21.4487596  35.0795141
  36.6314234  16.9672161  39.5147318  35.7755830  16.5779011  39.3352956
  37.0441185  17.0464121  38.6547103  38.1613380  14.5018504  43.9138878
  37.6578176  14.4648639  43.1006683  38.4543987  15.4111247  43.9735534
  34.4056266  14.5857234  42.9205059  35.2709263  14.3900042  42.5610949
  34.4733775  14.3567585  43.8474416  44.0201397  24.8754814  36.3915253
  43.2430840  24.5365974  35.9470415  44.6992878  24.8807438  35.7170218
  38.8353426  19.9949552  36.2821861  38.5303561  20.3095701  37.1332004
  39.7883868  20.0730972  36.3249194  37.2799858  26.1539775  37.9314815
  36.7521219  25.4192535  37.6188052  36.7787360  26.9314451  37.6854783
  42.2592704  24.3488796  43.0481861  41.6016378  25.0388057  43.1361989
  43.0633103  24.7385228  43.3915847  32.0118585  16.8159441  40.2921426
  32.5862337  16.5934623  39.5594619  32.5989568  16.8848136  41.0450027
  41.0698162  22.7033168  41.0985803  41.5830044  23.3363160  41.6007512
  41.7199386  22.1034364  40.7329163  32.3388172  18.8463902  34.3117311
  31.5025485  19.1838589  34.6326586  32.1992942  18.7112882  33.3744448
  34.3141253  13.6900690  39.0196496  33.6605665  13.3749708  38.3953110
  34.2721727  13.0676431  39.7456318  35.4252458  23.9719985  30.9349788
  34.5179520  23.7409239  31.1340937  35.9223490  23.1757605  31.1223769
  38.3320537  32.6817493  33.8546474  37.6582235  32.9849189  34.4631432
  38.7186359  33.4846573  33.5051931  37.5478993  20.1782624  43.3444143
  36.6301555  20.3997571  43.1865831  37.9639137  20.2528934  42.4855850
  38.3314041  21.5774040  38.4746823  39.0785860  22.0895437  38.1653945
  38.6005631  21.2558092  39.3351217  36.6040691  24.0732580  35.4573778
  35.6951911  23.7891613  35.5546247  36.6335775  24.4931659  34.5977085
  41.8359959  27.6839170  39.2264945  41.3822286  26.8430080  39.2830136
  41.2053925  28.3200568  39.5639725  40.7792878  18.6131156  40.4565613
  40.0415635  18.1008542  40.7875855  41.0319652  18.1731537  39.6448890
  40.2792898  29.5215666  40.1614763  40.5715872  30.0820724  39.4427129
  40.7891519  29.8144227  40.9167922  40.8804506  11.3907408  41.0507382
  41.1863382  10.5304771  40.7633297  41.6057110  11.9825028  40.8506376
  27.1728862  21.7938094  39.4388980  26.9753261  21.2007455  38.7140046
  26.6175526  21.4890305  40.1564919  35.1525585  21.6861201  41.5583573
  35.2074195  20.7335037  41.4826050  34.3416787  21.8420640  42.0424871
  36.3016779  25.6141324  32.7961856  35.8636209  24.8977183  32.3367494
  37.0427220  25.8417439  32.2346948  33.0917945  20.3038261  39.3173952
  32.2785811  20.6032431  39.7239144  33.5876939  19.9093949  40.0348434
  35.2426523  30.2996018  41.2508217  35.2002702  30.5256864  40.3216749
  36.1589222  30.0659392  41.3994018  38.6892157  20.7680085  48.1488846
  39.0441545  20.9951558  49.0083312  39.3364288  21.0998462  47.5266101
  44.4189894  23.8898521  38.8538175  44.2807792  24.0800117  37.9259364
  44.0626113  24.6517904  39.3106226  32.5832020  17.8756616  44.9335187
  33.2231399  17.7345375  44.2358150  31.7509551  17.5891130  44.5573789
  44.4459273  25.9575048  43.8649446  44.8795780  25.8650337  44.7132500
  45.1590854  25.9332548  43.2269462  33.3592324  27.1759047  41.0470179
  34.1532922  26.6809367  40.8452754  32.6484016  26.6476910  40.6837885
  38.1787168  29.5577142  45.3982547  38.2324191  30.1268078  46.1660263
  37.3101950  29.7279027  45.0336584  29.6675087  21.3202128  37.1229932
  28.7372675  21.2586584  37.3399894  29.7632559  20.7978081  36.3266573
  29.5860636  17.8456941  39.7108174  29.8467454  18.7602274  39.6017334
  30.4077809  17.3781384  39.8604786  31.0585562  19.2594698  46.8806998
  31.7308615  19.0512060  46.2319647  30.2315348  19.0616784  46.4412230
  45.3074823  25.9998749  46.3982332  45.5010713  26.9044559  46.6441607
  45.2075441  25.5406168  47.2320917  36.9611134  15.8856639  48.8972659
  36.3139049  16.5846589  48.8037135  37.7312149  16.3192783  49.2648907
  40.3689932  26.1505491  51.9723212  40.2175438  25.9216043  51.0553296
  40.3594611  27.1076093  51.9854557  37.1375268  23.7237404  46.9569479
  38.0667328  23.8748564  46.7838446  36.7166298  23.8121425  46.1018125
  35.9363600  27.7488069  44.7268016  35.7974686  27.3806853  45.5993955
  35.1478196  28.2635708  44.5551974  36.5311752  32.8497165  36.0693553
  36.7063508  32.3785208  36.8839176  35.8444540  33.4762931  36.2974814
  37.4868815  27.1269671  42.1156854  37.1518648  27.0870441  43.0114504
  36.9872761  26.4614387  41.6427264  31.4613059  22.5337301  47.6409435
  31.3232857  21.8017540  48.2420974  32.3717982  22.4446201  47.3593623
  40.4228007  24.4725706  32.3893914  39.8057177  23.7472534  32.2926967
  39.9544495  25.2335066  32.0460988  34.0895360  22.2457261  47.1293115
  34.7994978  21.6050453  47.0879733  34.0464668  22.4970155  48.0519296
  42.0782138  29.1824614  50.0499694  42.0194685  28.4983834  49.3830277
  42.4801657  29.9243604  49.5980320  32.8024294  19.2322478  48.9488754
  32.2661651  18.7813217  49.6010351  32.2141002  19.3668387  48.2059219
  31.0972837  35.9986528  42.8433413  31.3369435  36.6305052  43.5212432
  30.2542034  35.6474568  43.1298772  32.2126553  18.6911130  31.5115218
  31.3356019  18.5699931  31.1477465  32.6884306  17.8997208  31.2594107
  42.0799546  27.1464198  48.2813674  41.1926324  26.8090120  48.4040073
  42.6498097  26.4147229  48.5182439  23.7328693  23.4788290  41.6056725
  24.4199733  23.1650020  41.0177741  23.5776821  24.3829654  41.3323977
  28.5363415  18.3678486  46.0341749  28.4521604  17.7604156  45.2992159
  27.7146121  18.8587505  46.0351245  35.6100699  31.8065650  45.2474917
  35.5370870  32.6120622  45.7594222  35.1678092  32.0057616  44.4222938
  35.3990479  31.0437420  38.7577739  34.6158001  31.5859100  38.8515963
  36.0983224  31.5611400  39.1571980  38.7087129  16.8532050  41.4011944
  39.2055828  16.1002012  41.0813014  37.9374110  16.8896366  40.8355153
  46.5616886  22.5572415  43.0430236  46.5506762  23.4397131  42.6724169
  45.6934266  22.2043966  42.8484773  38.0699383  31.7052484  47.4033076
  38.7827355  32.3399949  47.3308977  37.5789411  31.8016350  46.5873078
  39.7916909  25.6103737  38.9750367  38.8573188  25.7305199  38.8055072
  39.9693578  24.7076204  38.7110377  35.2922098  18.9949433  41.1283629
  34.9219885  18.4420473  41.8164534  35.7881190  18.3907566  40.5758629
  43.1789461  21.4521056  39.5100402  43.6449913  22.2849048  39.4360704
  43.6296961  20.9866038  40.2145660  33.1211296  29.4546928  48.2238647
  33.8220756  30.0883411  48.3768041  32.6506411  29.7961659  47.4634286
  41.2465692  27.7964878  36.5086554  41.5225536  27.6821472  37.4180428
  40.3770191  27.3982362  36.4698727  41.1506124  13.8201643  43.5491303
  40.2369203  14.0505870  43.7173510  41.5799225  13.9040087  44.4005335
  40.9212582  22.0091535  46.0491197  40.2684032  22.2567443  45.3943650
  41.2992962  21.1955673  45.7153674  37.8819756  32.0451228  40.1519367
  38.0642150  31.2272884  40.6147120  38.7052742  32.2618921  39.7144257
  38.2161921  30.9719413  37.4134416  38.7449688  30.4611868  36.8004578
  38.4790141  30.6561944  38.2779949  36.9700155  22.7511346  52.5357234
  36.2940792  22.6505476  53.2059609  37.7927789  22.5950560  52.9993231
  28.7179014  28.9883283  45.1569749  29.3032451  28.2426971  45.2897653
  28.5203853  29.2987239  46.0406413  31.5717669  32.0234530  40.1732192
  30.9028045  32.5080658  39.6896232  31.4330539  32.2703751  41.0875570
  23.3096669  21.5588883  43.8774192  23.3480768  21.0252474  44.6711310
  22.8036962  21.0324089  43.2585170  35.7122938  34.0578274  46.7714850
  36.2641246  34.2209895  47.5363935  36.0529131  34.6482712  46.0994875
  30.6887431  16.4053423  47.3736735  30.7528758  17.2668254  46.9614132
  30.6254551  15.7927425  46.6409093  30.1639704  18.4776556  51.0209769
  30.7911743  18.0953633  51.6347293  29.3067623  18.2590758  51.3865461
  40.5633812  28.8839531  52.6263504  41.1073716  29.4969489  52.1318459
  39.9820657  29.4419110  53.1430517  26.9405246  20.2852985  36.9528124
  27.2358688  19.3763664  36.8995177  26.0393282  20.2640725  36.6309126
  38.8491325  32.0060249  43.7578532  38.7242465  31.2049989  43.2489478
  39.5070416  32.5006443  43.2692502  30.4699493  18.3608982  42.9355672
  29.7486079  18.9744949  42.7963146  31.2592749  18.8966747  42.8572318
  40.9126234  29.8069269  45.3858082  39.9656569  29.6874620  45.3136409
  41.2609007  28.9191767  45.4684344  33.2725807  15.6963408  49.2096324
  33.7960209  15.9425705  49.9722633  33.0538140  16.5283443  48.7899461
  28.6693088  17.9667083  37.0767449  28.3405794  17.0864462  36.8942555
  29.0232459  17.9114751  37.9643838  37.9172667  29.6021986  41.5862434
  37.7697629  28.6738693  41.7670005  38.7426160  29.6242076  41.1019510
  31.7834911  18.2540053  37.4442927  32.1230984  18.7825974  36.7221535
  32.2307032  18.5920459  38.2201493  41.5206789  30.4250544  42.6727307
  42.4453336  30.2193406  42.5351758  41.3522092  30.1766945  43.5816649
  34.4778352  16.6377103  46.8945995  34.1375172  15.8384916  47.2966675
  33.7717358  16.9378814  46.3222828  35.1294824  13.7226416  45.3473318
  35.9520893  13.2486894  45.2252208  35.3732887  14.5016900  45.8472004
  33.7703058  16.7514674  35.6436219  34.4911421  17.1295927  35.1399936
  33.1468362  17.4703551  35.7471197  37.9134181  17.4559823  36.5794552
  38.1297796  18.3384461  36.2783380  37.4328248  17.0646037  35.8500194
  32.6533403  20.4145536  43.1565296  32.5077983  20.7285839  44.0489578
  32.1758606  21.0330437  42.6036195  34.5129785  17.4048084  43.2046186
  34.4991354  16.5089178  42.8678484  35.2302214  17.4118748  43.8384472
  36.3655916  17.8385425  45.2499313  36.1073694  18.7602495  45.2483644
  35.8340957  17.4415859  45.9399777  41.3102105  30.9436212  38.0289399
  41.4838982  30.3782634  37.2763251  41.8030996  31.7437107  37.8468889
  27.1279065  22.9550881  46.0952957  26.5832533  23.7310689  46.2273232
  28.0058415  23.3021685  45.9372079  33.9166681  16.2862465  38.4733756
  34.0382593  15.3579111  38.6724643  33.6268724  16.3001151  37.5612071
  36.7857872  13.9717375  41.6100476  36.8079569  14.0356708  40.6552455
  37.2025931  13.1321884  41.8040982  47.1641496  23.7072635  39.6479698
  47.6072642  22.9579960  39.2498822  46.2868006  23.6982771  39.2653430
  42.2977277  30.2602976  35.1286297  42.9928182  30.8809669  35.3473612
  42.6400428  29.4098327  35.4038675  27.9145087  22.0820777  48.9883114
  27.1726823  22.2303412  49.5747745  27.5937831  22.3429043  48.1249864
  44.1968701  27.7102682  36.6573628  44.7220025  28.0489954  35.9322948
  44.1091053  26.7749697  36.4736762  35.8588749  31.6236755  48.7863504
  36.1675876  31.3785902  49.6586204  36.6564231  31.8283394  48.2982375
  35.8809361  33.7774665  41.0168881  35.4414352  33.2851044  41.7101738
  36.6317478  33.2347633  40.7760956  28.3601700  29.9686206  41.0193509
  29.1859720  29.6689978  40.6392153  28.0095752  29.1993828  41.4683298
  33.3283233  29.3212674  43.0891183  32.7063243  28.6583379  42.7893410
  33.9988100  29.3473806  42.4064830  26.5610305  27.8872532  41.9782443
  25.7242214  27.4594707  41.7966444  26.5333951  28.0804976  42.9153234
  33.4007761  17.7994462  52.6823689  33.4495916  18.6756585  52.3001458
  33.9430275  17.2571855  52.1095332  43.8862607  28.3435585  51.9624826
  43.0958150  28.3259724  51.4229325  43.6495961  28.8823879  52.7173862
  44.0060482  25.1928052  49.2757554  44.0558487  25.0278059  50.2173077
  43.8974405  24.3255311  48.8855435  32.8896740  27.8716597  36.5649643
  33.0384861  28.5552062  35.9116316  33.6963184  27.8521687  37.0799099
  41.2964244  21.1758980  50.5916861  42.1974107  21.0365445  50.3000859
  41.3712219  21.3413435  51.5315038  35.6307049  18.5525834  49.4370047
  34.7610359  18.8459400  49.1652636  35.8666530  19.1366279  50.1577311
  45.5078679  27.6124993  49.5199576  45.2163487  27.9754974  50.3563037
  44.8950810  26.8992001  49.3412908  46.7074361  25.1777873  42.0402146
  47.5421252  25.6167677  42.2039706  46.8433490  24.7016526  41.2210392
  43.7565867  22.7357608  47.9879634  44.2319988  22.9285254  47.1798485
  42.8331432  22.7916794  47.7423017  30.6449373  23.8981775  37.5710712
  30.3995415  22.9944105  37.7690922  30.8145288  23.8998925  36.6290190
  38.3346083  14.7705451  46.9535468  38.8528027  15.5066478  46.6281956
  37.9801216  15.0769445  47.7882227  29.9145021  19.6310133  35.0696873
  29.2214266  19.7054488  34.4136909  29.6696773  18.8670476  35.5918390
  38.5858677  11.1905734  42.4736364  38.8660431  10.5228923  43.0996791
  39.3709284  11.3834829  41.9611028  36.3892146  30.3664728  34.0361391
  35.8166113  30.9854915  33.5831862  36.9624940  30.9164089  34.5701312
  42.4567536  19.6123368  46.2207939  43.4084959  19.7121466  46.2420163
  42.2870986  18.8201636  46.7306024  40.4781915  16.6978951  46.4067340
  39.8831847  16.9783964  45.7113829  40.1931612  17.1872852  47.1784081
  39.6089406  30.6501878  35.1669973  40.5420079  30.5847440  35.3702848
  39.5212619  31.4858145  34.7084505  42.2377422  29.9667748  32.1273920
  42.1591054  29.6327612  33.0209678  43.0587089  30.4589516  32.1265393
  44.9355614  22.8329488  45.3350239  44.9031934  21.8945488  45.5209923
  45.5456237  22.9113524  44.6016064  36.7738944  21.7025541  31.3777443
  37.7198049  21.5731749  31.4465861  36.3953189  20.9640202  31.8546871
  45.0850102  19.6240531  45.3808522  44.5689151  18.8398988  45.1938451
  45.9690051  19.2959248  45.5455042  42.7460829  13.3681547  41.3404335
  42.5485650  13.0596635  42.2247667  43.3560535  14.0943185  41.4702265
  50.7532163  23.8945494  44.4756276  51.4835552  23.6330783  45.0363979
  50.1439109  23.1574216  44.5158344  48.8347461  22.0353357  45.0730727
  48.1080624  21.9009322  44.4647219  48.4194747  22.3430186  45.8787445
  36.6577637  25.7543287  52.8378100  37.5780646  25.9321886  53.0318147
  36.6227220  24.8099332  52.6857799  34.9581862  19.6275517  31.3132328
  34.0513317  19.3308630  31.3895042  35.2357843  19.3305335  30.4466615
  25.8759802  20.9481880  41.7631375  25.5562586  20.0947189  41.4705749
  25.3293230  21.1630458  42.5189342  29.6539709  23.6644321  45.4800881
  29.8725719  24.5961429  45.4988915  30.0665483  23.3052296  46.2655685
  36.5743927  14.1712407  37.4676570  35.7644656  13.8259492  37.8431816
  37.2628344  13.8619950  38.0564181  38.5034476  13.2490453  39.0900866
  39.0565514  13.6685907  39.7490889  38.7404562  12.3226202  39.1323822
  34.5267575  19.2377527  54.8703630  34.4264302  20.1871884  54.8015721
  34.3089117  18.9095766  53.9979700  33.7280646  16.4862452  31.4544307
  34.5899810  16.8117350  31.7140125  33.9130990  15.6993948  30.9417373
  25.7448062  24.5684792  43.7324496  25.0511533  24.1538745  43.2194451
  26.4921053  24.6105328  43.1357915  41.8813283  15.3590979  38.5979530
  41.3011952  16.0175783  38.2157583  41.6149215  14.5368323  38.1866948
  40.3316849  14.7596036  40.8000851  40.8316627  14.8712571  39.9915170
  40.9752457  14.4557089  41.4401659  34.3898845  22.6674666  53.6868692
  33.9065927  23.4675026  53.8932581  34.4759784  22.6782611  52.7336136
  27.6584804  24.5003046  41.6090511  27.6355493  24.5990733  40.6572394
  27.9685441  25.3468196  41.9307677  30.3172182  26.5579201  45.7237126
  31.2715436  26.5263143  45.6567057  30.1184706  26.0969824  46.5387351
  30.9071564  25.1280317  48.2907923  31.7264453  25.6224395  48.3142760
  31.1808372  24.2112285  48.2625491  40.6638161  17.5191069  37.6535879
  39.7764016  17.8040720  37.4356073  41.0792150  17.3584832  36.8063156
  44.0152697  17.5437590  41.3690218  44.7913087  18.0334042  41.6414835
  43.2900831  17.9695644  41.8262087  46.4525255  18.2565209  42.4264159
  47.0469746  18.0160945  41.7157467  46.5251839  17.5372340  43.0537695
  28.6722411  32.0998820  42.7407323  28.5376879  31.3399221  42.1745321
  28.2554473  32.8239720  42.2736112  39.8081374  27.2835744  31.7483899
  40.5117224  27.4885746  32.3641554  39.0844023  27.8512506  32.0132982
  40.6379184  23.0345605  37.8686169  40.5814386  23.4914156  37.0293801
  41.1907527  22.2736290  37.6909012  44.4483990  18.8235337  38.6936288
  44.1920925  18.4231972  39.5244496  43.8236858  19.5379131  38.5686428
  48.7596328  21.5631410  41.2007580  48.1995886  21.6324599  41.9739142
  48.1539832  21.3872395  40.4807076  31.8291537  32.9968137  42.9525766
  31.7123921  33.9413570  42.8504456  31.0083983  32.6941699  43.3411565
  41.7168072  27.7218273  33.7982359  42.5513675  27.2899471  33.6159834
  41.5552414  27.5500287  34.7259253  41.3713964  24.2250386  35.1638698
  41.3162768  24.0594658  34.2227142  40.7460019  24.9326419  35.3200888
  26.1606479  19.4618451  48.9900120  26.8065342  18.9517405  49.4787345
  25.9523630  20.1987132  49.5643546  38.6859871  26.5299298  54.4892261
  39.5551031  26.7039950  54.1278896  38.2066622  27.3493715  54.3667990
  34.6810089  13.7258495  34.7424016  34.6688759  14.6700335  34.8992287
  35.5733511  13.5428641  34.4483478  32.8546051  33.6496399  46.1681694
  33.7573298  33.6820009  46.4848189  32.6283421  32.7196850  46.1828030
  34.6099653  32.4027386  42.8291773  33.6595284  32.4029247  42.7156145
  34.9132139  31.6560120  42.3127808  38.4962209  10.3201272  38.9969953
  37.7294604   9.7659759  39.1426636  38.9072914  10.3923141  39.8584105
  30.5003970  16.6086068  53.0875135  31.3635431  16.2522872  53.2978459
  29.9269380  16.2699962  53.7750539  50.3452347  38.2387924  43.8937536
  50.9830757  38.1194671  43.1900876  50.2273190  39.1868768  43.9525488
  47.1542053  38.1915352  43.8299060  46.8160564  38.0756417  42.9419595
  48.0231821  37.7906517  43.8100066  43.0128869  40.0450828  39.8195951
  42.4493734  39.9540765  39.0512239  42.8981264  39.2250733  40.2998444
  47.6361836  39.3450204  49.7885266  47.6250477  38.9503002  48.9165769
  47.7982475  38.6116276  50.3819037  40.5593301  41.5402020  42.6580172
  41.3514592  41.1992845  42.2426471  40.7989951  41.6496995  43.5782325
  48.5928427  43.7121796  35.1310416  47.9416407  44.2975877  34.7444430
  49.3872790  44.2427991  35.1905454  42.5184054  40.8010933  35.5297550
  43.2914930  40.2539920  35.3910426  42.8709453  41.6655183  35.7412012
  44.3569097  42.1287316  48.7364450  44.0658963  43.0332946  48.6211116
  44.9926081  42.1703843  49.4508519  45.2825304  39.5064164  45.3265809
  45.8788876  39.2820187  44.6122772  45.3400275  38.7648910  45.9291257
  44.8550332  36.9603599  33.1616000  45.1075853  36.4385121  32.3999463
  43.9174891  36.7969745  33.2642684  49.8993615  35.9639378  40.9690744
  50.6856704  35.5458801  40.6181161  50.1632319  36.8685470  41.1372392
  50.0703692  41.4012228  35.6679400  49.4349525  41.4746855  36.3800305
  49.7401099  41.9905827  34.9898480  55.3002042  35.9014611  41.8723722
  56.0327214  35.3313828  42.1061552  54.5441398  35.5136211  42.3130228
  44.5746621  38.8631705  35.3640375  44.4582879  38.1876609  36.0321460
  44.6848881  38.3764079  34.5472528  46.9178162  38.3241853  39.0687065
  46.5536369  37.7972473  39.7799986  47.7745278  37.9340322  38.8953550
  52.8227463  29.6136185  46.3318331  52.4910787  30.4831596  46.1079546
  52.2273076  29.2972469  47.0112361  46.5583649  33.3531752  34.0648413
  46.7258051  34.2211989  34.4318884  46.3680818  33.5159034  33.1409702
  49.3158982  41.8148731  45.7314243  49.0159705  42.7173770  45.6230051
  48.9710042  41.5480914  46.5835396  42.7671464  38.2662528  41.7650948
  41.8421960  38.1338742  41.9728640  43.0155877  39.0456747  42.2620890
  52.7156126  34.3331271  43.4111681  51.8073003  34.2646680  43.1170442
  52.6643722  34.8103216  44.2393506  46.5372870  35.8089410  35.0495080
  46.4172495  36.2546460  35.8880560  45.8425458  36.1574727  34.4908618
  40.1280275  37.9095802  42.5994737  40.2572656  38.1630280  43.5134149
  39.4477726  38.5023510  42.2799392  44.2979762  48.5793051  38.6985211
  44.2203792  49.5300877  38.7773692  43.6941406  48.2338924  39.3560137
  46.7896992  35.7520917  51.3546578  46.0130326  36.3114837  51.3449443
  47.4287555  36.2377700  51.8761448  54.5817772  32.5347710  45.1889555
  53.9392153  32.8280243  44.5429349  54.0772701  32.4200630  45.9942751
  52.2357936  36.2810883  35.8775414  53.1475792  36.5138270  35.7023111
  51.7267583  36.8647927  35.3150493  45.0443364  38.5606370  50.9164545
  45.7858048  39.0991414  50.6399369  44.3380349  39.1872659  51.0736097
  50.5198704  40.7035511  49.5136706  50.9282060  40.2617921  48.7691339
  49.7975965  40.1288138  49.7670899  46.8729774  35.6408117  46.8870263
  47.7190969  36.0647531  47.0304912  46.8128411  34.9841742  47.5808827
  50.8427518  41.2636701  43.2688995  50.2136381  41.4282415  42.5665063
  50.4553180  41.6778311  44.0399959  54.7216750  42.1991139  40.6233359
  54.0367788  42.5790041  40.0730392  54.8060599  42.8086466  41.3565307
  50.0229219  33.3012486  48.5451437  49.7790151  34.0554546  48.0085713
  50.2989150  33.6797833  49.3798684  51.9767682  39.8451098  47.2228703
  52.1884577  40.4882858  46.5463084  51.9297430  39.0113415  46.7550633
  49.5793911  32.4568919  44.1265275  48.7178390  32.7550172  44.4182012
  49.6056345  32.6739318  43.1946307  46.3955480  41.0011109  40.5339080
  46.8593826  41.2798812  39.7443703  46.1312278  40.0994554  40.3512171
  43.2879561  40.5482591  43.4718844  43.8580918  40.9769859  42.8336328
  43.8787673  40.2665176  44.1703029  45.3324366  37.1234262  37.3428646
  46.0348410  37.5755305  37.8102572  45.0004995  36.4818081  37.9708539
  43.7804728  35.7146018  51.7179855  43.1503388  36.3962299  51.9515252
  43.6740816  35.6029100  50.7732993  39.0749700  35.3817814  42.6445779
  38.2848754  35.6375343  42.1685890  39.5660948  36.1966152  42.7497820
  53.0913510  42.7223054  45.3951060  53.9130953  42.3203241  45.1133742
  53.0875913  42.6191288  46.3467176  41.0264446  35.7462394  39.6029256
  40.2295609  35.8581088  40.1212752  40.7990038  36.0849046  38.7370146
  46.8570113  42.2707097  47.5511770  46.9214546  42.7327504  48.3869942
  46.1481037  41.6404462  47.6794080  37.3587403  35.6348305  45.0760770
  37.6095442  36.5195315  45.3418346  37.8946952  35.4552906  44.3035862
  61.1819503  39.0661802  41.7436031  60.4283211  38.4969200  41.5880036
  61.3167044  39.0324467  42.6906666  46.5718131  43.9375204  37.4190751
  46.4363806  44.7826740  37.8475599  47.1127943  44.1394482  36.6556685
  43.0585470  30.0166784  54.0805106  42.6652416  29.4632983  54.7552750
  43.8751611  30.3277363  54.4711624  40.0247528  41.4550642  37.9918676
  40.5372049  42.2493893  38.1424241  40.6770241  40.7576933  37.9252277
  41.8342413  44.5716399  40.0741429  42.0109041  45.4934363  39.8862413
  42.6299246  44.2574818  40.5035809  45.9753431  31.4324663  51.6725363
  46.7163145  32.0331817  51.5929825  46.2071354  30.6902301  51.1143405
  41.1194769  36.6181031  49.9503592  41.0048285  35.7166288  50.2510691
  40.2639287  36.8644727  49.5988409  48.1986607  44.5598771  51.5491093
  47.7550461  43.7735149  51.2311997  48.8603821  44.7477921  50.8834984
  42.9573728  46.0894573  46.0751771  43.5081154  45.9611636  45.3028765
  42.1185204  46.3889462  45.7246664  50.2967845  44.8401571  49.5772494
  50.2786321  45.6610452  49.0852763  51.2187765  44.7155646  49.8022635
  46.7540899  42.3545700  50.4196003  47.2869236  41.5933989  50.1895311
  46.2254981  42.0619352  51.1620157  49.9210594  27.4605766  45.9489644
  49.5774864  28.3507408  45.8728755  50.2889557  27.2707424  45.0859229
  37.9896445  39.7839297  38.7678246  38.8271667  40.1936305  38.5511954
  38.1674713  38.8438739  38.7378440  49.8860877  37.4514377  34.4562079
  49.3707501  38.2218982  34.6950467  49.6138186  36.7779514  35.0795141
  47.4707988  32.2964078  39.5147318  46.6149584  31.9070929  39.3352956
  47.8834940  32.3756039  38.6547103  49.0007135  29.8310421  43.9138878
  48.4971930  29.7940557  43.1006683  49.2937742  30.7403164  43.9735534
  45.2450021  29.9149151  42.9205059  46.1103017  29.7191960  42.5610949
  45.3127530  29.6859503  43.8474416  54.8595151  40.2046732  36.3915253
  54.0824594  39.8657892  35.9470415  55.5386632  40.2099355  35.7170218
  49.6747180  35.3241470  36.2821861  49.3697316  35.6387619  37.1332004
  50.6277622  35.4022889  36.3249194  48.1193612  41.4831693  37.9314815
  47.5914974  40.7484452  37.6188052  47.6181115  42.2606369  37.6854783
  53.0986458  39.6780713  43.0481861  52.4410133  40.3679975  43.1361989
  53.9026857  40.0677145  43.3915847  42.8512340  32.1451359  40.2921426
  43.4256092  31.9226541  39.5594619  43.4383322  32.2140054  41.0450027
  51.9091917  38.0325086  41.0985803  52.4223799  38.6655078  41.6007512
  52.5593141  37.4326282  40.7329163  43.1781927  34.1755820  34.3117311
  42.3419239  34.5130507  34.6326586  43.0386697  34.0404800  33.3744448
  45.1535007  29.0192608  39.0196496  44.4999420  28.7041625  38.3953110
  45.1115482  28.3968348  39.7456318  46.2646212  39.3011903  30.9349788
  45.3573274  39.0701157  31.1340937  46.7617244  38.5049522  31.1223769
  49.1714291  48.0109410  33.8546474  48.4975990  48.3141107  34.4631432
  49.5580113  48.8138491  33.5051931  48.3872748  35.5074542  43.3444143
  47.4695309  35.7289489  43.1865831  48.8032891  35.5820852  42.4855850
  49.1707796  36.9065957  38.4746823  49.9179615  37.4187354  38.1653945
  49.4399385  36.5850010  39.3351217  47.4434446  39.4024498  35.4573778
  46.5345665  39.1183531  35.5546247  47.4729530  39.8223577  34.5977085
  52.6753713  43.0131087  39.2264945  52.2216040  42.1721997  39.2830136
  52.0447680  43.6492486  39.5639725  51.6186633  33.9423073  40.4565613
  50.8809390  33.4300460  40.7875855  51.8713406  33.5023455  39.6448890
  51.1186652  44.8507584  40.1614763  51.4109627  45.4112641  39.4427129
  51.6285273  45.1436145  40.9167922  51.7198260  26.7199325  41.0507382
  52.0257137  25.8596689  40.7633297  52.4450865  27.3116946  40.8506376
  38.0122616  37.1230012  39.4388980  37.8147016  36.5299373  38.7140046
  37.4569280  36.8182222  40.1564919  45.9919340  37.0153119  41.5583573
  46.0467950  36.0626955  41.4826050  45.1810542  37.1712558  42.0424871
  47.1410534  40.9433242  32.7961856  46.7029963  40.2269101  32.3367494
  47.8820974  41.1709356  32.2346948  43.9311700  35.6330178  39.3173952
  43.1179565  35.9324349  39.7239144  44.4270694  35.2385867  40.0348434
  46.0820278  45.6287935  41.2508217  46.0396456  45.8548782  40.3216749
  46.9982976  45.3951310  41.3994018  49.5285911  36.0972003  48.1488846
  49.8835299  36.3243476  49.0083312  50.1758043  36.4290380  47.5266101
  55.2583648  39.2190439  38.8538175  55.1201547  39.4092035  37.9259364
  54.9019867  39.9809821  39.3106226  43.4225774  33.2048534  44.9335187
  44.0625154  33.0637293  44.2358150  42.5903305  32.9183047  44.5573789
  55.2853028  41.2866966  43.8649446  55.7189535  41.1942255  44.7132500
  55.9984609  41.2624466  43.2269462  44.1986078  42.5050964  41.0470179
  44.9926677  42.0101284  40.8452754  43.4877771  41.9768827  40.6837885
  49.0180923  44.8869060  45.3982547  49.0717945  45.4559996  46.1660263
  48.1495704  45.0570945  45.0336584  40.5068842  36.6494046  37.1229932
  39.5766430  36.5878501  37.3399894  40.6026314  36.1269999  36.3266573
  40.4254391  33.1748859  39.7108174  40.6861208  34.0894192  39.6017334
  41.2471563  32.7073301  39.8604786  41.8979316  34.5886616  46.8806998
  42.5702370  34.3803978  46.2319647  41.0709103  34.3908702  46.4412230
  56.1468578  41.3290666  46.3982332  56.3404468  42.2336477  46.6441607
  56.0469196  40.8698085  47.2320917  47.8004888  31.2148557  48.8972659
  47.1532803  31.9138507  48.8037135  48.5705904  31.6484701  49.2648907
  51.2083686  41.4797409  51.9723212  51.0569193  41.2507961  51.0553296
  51.1988366  42.4368010  51.9854557  47.9769023  39.0529322  46.9569479
  48.9061083  39.2040481  46.7838446  47.5560053  39.1413343  46.1018125
  46.7757354  43.0779986  44.7268016  46.6368440  42.7098771  45.5993955
  45.9871951  43.5927626  44.5551974  47.3705506  48.1789083  36.0693553
  47.5457262  47.7077126  36.8839176  46.6838294  48.8054849  36.2974814
  48.3262570  42.4561589  42.1156854  47.9912402  42.4162359  43.0114504
  47.8266515  41.7906305  41.6427264  42.3006813  37.8629219  47.6409435
  42.1626611  37.1309458  48.2420974  43.2111737  37.7738119  47.3593623
  51.2621761  39.8017623  32.3893914  50.6450932  39.0764451  32.2926967
  50.7938250  40.5626984  32.0460988  44.9289114  37.5749178  47.1293115
  45.6388733  36.9342370  47.0879733  44.8858422  37.8262073  48.0519296
  52.9175893  44.5116532  50.0499694  52.8588439  43.8275752  49.3830277
  53.3195411  45.2535522  49.5980320  43.6418048  34.5614396  48.9488754
  43.1055405  34.1105135  49.6010351  43.0534757  34.6960305  48.2059219
  41.9366592  51.3278445  42.8433413  42.1763190  51.9596970  43.5212432
  41.0935788  50.9766485  43.1298772  43.0520307  34.0203048  31.5115218
  42.1749773  33.8991848  31.1477465  43.5278060  33.2289126  31.2594107
  52.9193300  42.4756116  48.2813674  52.0320079  42.1382037  48.4040073
  53.4891851  41.7439147  48.5182439  34.5722447  38.8080207  41.6056725
  35.2593487  38.4941937  41.0177741  34.4170576  39.7121572  41.3323977
  39.3757169  33.6970404  46.0341749  39.2915358  33.0896073  45.2992159
  38.5539876  34.1879422  46.0351245  46.4494454  47.1357568  45.2474917
  46.3764625  47.9412539  45.7594222  46.0071847  47.3349534  44.4222938
  46.2384233  46.3729338  38.7577739  45.4551755  46.9151018  38.8515963
  46.9376978  46.8903318  39.1571980  49.5480883  32.1823967  41.4011944
  50.0449583  31.4293930  41.0813014  48.7767865  32.2188284  40.8355153
  57.4010641  37.8864333  43.0430236  57.3900517  38.7689048  42.6724169
  56.5328020  37.5335884  42.8484773  48.9093137  47.0344402  47.4033076
  49.6221109  47.6691867  47.3308977  48.4183166  47.1308268  46.5873078
  50.6310664  40.9395655  38.9750367  49.6966943  41.0597117  38.8055072
  50.8087332  40.0368121  38.7110377  46.1315852  34.3241350  41.1283629
  45.7613640  33.7712391  41.8164534  46.6274944  33.7199484  40.5758629
  54.0183215  36.7812974  39.5100402  54.4843667  37.6140965  39.4360704
  54.4690716  36.3157955  40.2145660  43.9605051  44.7838845  48.2238647
  44.6614510  45.4175328  48.3768041  43.4900166  45.1253577  47.4634286
  52.0859446  43.1256795  36.5086554  52.3619290  43.0113390  37.4180428
  51.2163945  42.7274280  36.4698727  51.9899878  29.1493561  43.5491303
  51.0762958  29.3797788  43.7173510  52.4192979  29.2332005  44.4005335
  51.7606337  37.3383453  46.0491197  51.1077787  37.5859360  45.3943650
  52.1386716  36.5247591  45.7153674  48.7213510  47.3743146  40.1519367
  48.9035905  46.5564802  40.6147120  49.5446496  47.5910838  39.7144257
  49.0555676  46.3011331  37.4134416  49.5843442  45.7903786  36.8004578
  49.3183895  45.9853861  38.2779949  47.8093910  38.0803264  52.5357234
  47.1334547  37.9797393  53.2059609  48.6321543  37.9242478  52.9993231
  39.5572769  44.3175200  45.1569749  40.1426205  43.5718888  45.2897653
  39.3597607  44.6279157  46.0406413  42.4111424  47.3526448  40.1732192
  41.7421799  47.8372575  39.6896232  42.2724294  47.5995668  41.0875570
  34.1490423  36.8880801  43.8774192  34.1874523  36.3544391  44.6711310
  33.6430716  36.3616006  43.2585170  46.5516692  49.3870191  46.7714850
  47.1035000  49.5501813  47.5363935  46.8922886  49.9774629  46.0994875
  41.5281186  31.7345341  47.3736735  41.5922512  32.5960172  46.9614132
  41.4648306  31.1219343  46.6409093  41.0033458  33.8068474  51.0209769
  41.6305497  33.4245551  51.6347293  40.1461377  33.5882676  51.3865461
  51.4027567  44.2131449  52.6263504  51.9467471  44.8261407  52.1318459
  50.8214412  44.7711027  53.1430517  37.7799001  35.6144903  36.9528124
  38.0752442  34.7055581  36.8995177  36.8787037  35.5932642  36.6309126
  49.6885080  47.3352167  43.7578532  49.5636219  46.5341907  43.2489478
  50.3464171  47.8298360  43.2692502  41.3093248  33.6900899  42.9355672
  40.5879834  34.3036867  42.7963146  42.0986504  34.2258664  42.8572318
  51.7519988  45.1361187  45.3858082  50.8050324  45.0166538  45.3136409
  52.1002761  44.2483685  45.4684344  44.1119561  31.0255326  49.2096324
  44.6353963  31.2717622  49.9722633  43.8931895  31.8575361  48.7899461
  39.5086843  33.2959000  37.0767449  39.1799549  32.4156379  36.8942555
  39.8626213  33.2406669  37.9643838  48.7566421  44.9313903  41.5862434
  48.6091384  44.0030611  41.7670005  49.5819915  44.9533994  41.1019510
  42.6228666  33.5831970  37.4442927  42.9624738  34.1117892  36.7221535
  43.0700786  33.9212376  38.2201493  52.3600543  45.7542462  42.6727307
  53.2847091  45.5485323  42.5351758  52.1915847  45.5058863  43.5816649
  45.3172107  31.9669021  46.8945995  44.9768927  31.1676834  47.2966675
  44.6111113  32.2670732  46.3222828  45.9688578  29.0518333  45.3473318
  46.7914648  28.5778812  45.2252208  46.2126642  29.8308817  45.8472004
  44.6096813  32.0806592  35.6436219  45.3305175  32.4587845  35.1399936
  43.9862117  32.7995469  35.7471197  48.7527936  32.7851741  36.5794552
  48.9691550  33.6676379  36.2783380  48.2722003  32.3937954  35.8500194
  43.4927157  35.7437454  43.1565296  43.3471738  36.0577757  44.0489578
  43.0152361  36.3622354  42.6036195  45.3523540  32.7340002  43.2046186
  45.3385109  31.8381095  42.8678484  46.0695968  32.7410666  43.8384472
  47.2049671  33.1677342  45.2499313  46.9467449  34.0894413  45.2483644
  46.6734711  32.7707777  45.9399777  52.1495859  46.2728129  38.0289399
  52.3232737  45.7074552  37.2763251  52.6424751  47.0729024  37.8468889
  37.9672819  38.2842798  46.0952957  37.4226287  39.0602606  46.2273232
  38.8452169  38.6313603  45.9372079  44.7560436  31.6154382  38.4733756
  44.8776347  30.6871029  38.6724643  44.4662478  31.6293068  37.5612071
  47.6251626  29.3009293  41.6100476  47.6473323  29.3648626  40.6552455
  48.0419685  28.4613801  41.8040982  58.0035251  39.0364552  39.6479698
  58.4466397  38.2871878  39.2498822  57.1261761  39.0274689  39.2653430
  53.1371032  45.5894894  35.1286297  53.8321937  46.2101586  35.3473612
  53.4794182  44.7390245  35.4038675  38.7538841  37.4112695  48.9883114
  38.0120577  37.5595330  49.5747745  38.4331585  37.6720960  48.1249864
  55.0362455  43.0394599  36.6573628  55.5613779  43.3781872  35.9322948
  54.9484808  42.1041615  36.4736762  46.6982504  46.9528673  48.7863504
  47.0069630  46.7077820  49.6586204  47.4957986  47.1575311  48.2982375
  46.7203116  49.1066583  41.0168881  46.2808106  48.6142961  41.7101738
  47.4711233  48.5639550  40.7760956  39.1995455  45.2978123  41.0193509
  40.0253475  44.9981895  40.6392153  38.8489507  44.5285746  41.4683298
  44.1676988  44.6504592  43.0891183  43.5456997  43.9875297  42.7893410
  44.8381855  44.6765724  42.4064830  37.4004060  43.2164450  41.9782443
  36.5635968  42.7886624  41.7966444  37.3727705  43.4096893  42.9153234
  44.2401515  33.1286380  52.6823689  44.2889671  34.0048503  52.3001458
  44.7824030  32.5863773  52.1095332  54.7256361  43.6727503  51.9624826
  53.9351905  43.6551642  51.4229325  54.4889716  44.2115797  52.7173862
  54.8454236  40.5219969  49.2757554  54.8952241  40.3569977  50.2173077
  54.7368160  39.6547228  48.8855435  43.7290495  43.2008515  36.5649643
  43.8778615  43.8843979  35.9116316  44.5356938  43.1813605  37.0799099
  52.1357999  36.5050897  50.5916861  53.0367861  36.3657362  50.3000859
  52.2105973  36.6705352  51.5315038  46.4700804  33.8817752  49.4370047
  45.6004113  34.1751318  49.1652636  46.7060284  34.4658197  50.1577311
  56.3472433  42.9416911  49.5199576  56.0557241  43.3046891  50.3563037
  55.7344564  42.2283919  49.3412908  57.5468115  40.5069791  42.0402146
  58.3815007  40.9459595  42.2039706  57.6827244  40.0308444  41.2210392
  54.5959621  38.0649525  47.9879634  55.0713743  38.2577172  47.1798485
  53.6725187  38.1208711  47.7423017  41.4843128  39.2273693  37.5710712
  41.2389170  38.3236023  37.7690922  41.6539042  39.2290843  36.6290190
  49.1739838  30.0997369  46.9535468  49.6921782  30.8358396  46.6281956
  48.8194970  30.4061362  47.7882227  40.7538775  34.9602050  35.0696873
  40.0608020  35.0346405  34.4136909  40.5090527  34.1962394  35.5918390
  49.4252432  26.5197652  42.4736364  49.7054186  25.8520841  43.0996791
  50.2103039  26.7126747  41.9611028  47.2285900  45.6956645  34.0361391
  46.6559867  46.3146833  33.5831862  47.8018694  46.2456007  34.5701312
  53.2961290  34.9415286  46.2207939  54.2478713  35.0413383  46.2420163
  53.1264741  34.1493554  46.7306024  51.3175670  32.0270869  46.4067340
  50.7225602  32.3075881  45.7113829  51.0325366  32.5164770  47.1784081
  50.4483160  45.9793796  35.1669973  51.3813833  45.9139357  35.3702848
  50.3606373  46.8150062  34.7084505  53.0771177  45.2959666  32.1273920
  52.9984808  44.9619530  33.0209678  53.8980844  45.7881434  32.1265393
  55.7749368  38.1621405  45.3350239  55.7425688  37.2237406  45.5209923
  56.3849992  38.2405442  44.6016064  47.6132699  37.0317458  31.3777443
  48.5591804  36.9023666  31.4465861  47.2346944  36.2932120  31.8546871
  55.9243857  34.9532449  45.3808522  55.4082905  34.1690905  45.1938451
  56.8083805  34.6251165  45.5455042  53.5854583  28.6973464  41.3404335
  53.3879405  28.3888552  42.2247667  54.1954289  29.4235103  41.4702265
  61.5925918  39.2237412  44.4756276  62.3229306  38.9622700  45.0363979
  60.9832863  38.4866134  44.5158344  59.6741215  37.3645275  45.0730727
  58.9474379  37.2301240  44.4647219  59.2588502  37.6722103  45.8787445
  47.4971391  41.0835204  52.8378100  48.4174401  41.2613803  53.0318147
  47.4620974  40.1391250  52.6857799  45.7975616  34.9567435  31.3132328
  44.8907071  34.6600547  31.3895042  46.0751597  34.6597253  30.4466615
  36.7153556  36.2773798  41.7631375  36.3956341  35.4239106  41.4705749
  36.1686985  36.4922376  42.5189342  40.4933464  38.9936239  45.4800881
  40.7119474  39.9253347  45.4988915  40.9059238  38.6344213  46.2655685
  47.4137682  29.5004324  37.4676570  46.6038410  29.1551409  37.8431816
  48.1022099  29.1911868  38.0564181  49.3428230  28.5782371  39.0900866
  49.8959269  28.9977825  39.7490889  49.5798316  27.6518119  39.1323822
  45.3661329  34.5669445  54.8703630  45.2658056  35.5163802  54.8015721
  45.1482871  34.2387684  53.9979700  44.5674401  31.8154370  31.4544307
  45.4293565  32.1409268  31.7140125  44.7524745  31.0285866  30.9417373
  36.5841816  39.8976709  43.7324496  35.8905288  39.4830662  43.2194451
  37.3314807  39.9397246  43.1357915  52.7207037  30.6882896  38.5979530
  52.1405706  31.3467700  38.2157583  52.4542970  29.8660241  38.1866948
  51.1710604  30.0887954  40.8000851  51.6710382  30.2004489  39.9915170
  51.8146211  29.7849007  41.4401659  45.2292599  37.9966584  53.6868692
  44.7459681  38.7966944  53.8932581  45.3153538  38.0074528  52.7336136
  38.4978559  39.8294963  41.6090511  38.4749247  39.9282651  40.6572394
  38.8079195  40.6760114  41.9307677  41.1565937  41.8871118  45.7237126
  42.1109190  41.8555061  45.6567057  40.9578460  41.4261742  46.5387351
  41.7465319  40.4572234  48.2907923  42.5658208  40.9516313  48.3142760
  42.0202127  39.5404202  48.2625491  51.5031915  32.8482987  37.6535879
  50.6157770  33.1332637  37.4356073  51.9185904  32.6876750  36.8063156
  54.8546451  32.8729508  41.3690218  55.6306841  33.3625960  41.6414835
  54.1294585  33.2987562  41.8262087  57.2919010  33.5857127  42.4264159
  57.8863501  33.3452863  41.7157467  57.3645594  32.8664257  43.0537695
  39.5116166  47.4290738  42.7407323  39.3770634  46.6691139  42.1745321
  39.0948228  48.1531638  42.2736112  50.6475129  42.6127661  31.7483899
  51.3510979  42.8177664  32.3641554  49.9237777  43.1804423  32.0132982
  51.4772939  38.3637523  37.8686169  51.4208140  38.8206074  37.0293801
  52.0301281  37.6028207  37.6909012  55.2877745  34.1527254  38.6936288
  55.0314679  33.7523890  39.5244496  54.6630613  34.8671048  38.5686428
  59.5990083  36.8923328  41.2007580  59.0389641  36.9616517  41.9739142
  58.9933586  36.7164312  40.4807076  42.6685291  48.3260055  42.9525766
  42.5517676  49.2705487  42.8504456  41.8477738  48.0233616  43.3411565
  52.5561826  43.0510191  33.7982359  53.3907430  42.6191389  33.6159834
  52.3946169  42.8792204  34.7259253  52.2107718  39.5542304  35.1638698
  52.1556522  39.3886575  34.2227142  51.5853773  40.2618337  35.3200888
  37.0000233  34.7910368  48.9900120  37.6459097  34.2809322  49.4787345
  36.7917384  35.5279050  49.5643546  49.5253625  41.8591216  54.4892261
  50.3944785  42.0331868  54.1278896  49.0460377  42.6785633  54.3667990
  45.5203844  29.0550413  34.7424016  45.5082513  29.9992253  34.8992287
  46.4127266  28.8720558  34.4483478  43.6939806  48.9788317  46.1681694
  44.5967052  49.0111927  46.4848189  43.4677176  48.0488768  46.1828030
  45.4493408  47.7319303  42.8291773  44.4989039  47.7321165  42.7156145
  45.7525894  46.9852038  42.3127808  49.3355963  25.6493189  38.9969953
  48.5688359  25.0951676  39.1426636  49.7466668  25.7215058  39.8584105
  41.3397724  31.9377985  53.0875135  42.2029186  31.5814790  53.2978459
  40.7663135  31.5991880  53.7750539  61.1846101  53.5679842  43.8937536
  61.8224511  53.4486589  43.1900876  61.0666944  54.5160686  43.9525488
  57.9935807  53.5207270  43.8299060  57.6554319  53.4048334  42.9419595
  58.8625576  53.1198435  43.8100066  53.8522623  55.3742746  39.8195951
  53.2887488  55.2832683  39.0512239  53.7375018  54.5542651  40.2998444
  58.4755590  54.6742121  49.7885266  58.4644231  54.2794920  48.9165769
  58.6376230  53.9408194  50.3819037  51.3987055  56.8693938  42.6580172
  52.1908347  56.5284762  42.2426471  51.6383705  56.9788913  43.5782325
  59.4322182  59.0413714  35.1310416  58.7810162  59.6267794  34.7444430
  60.2266545  59.5719909  35.1905454  53.3577809  56.1302851  35.5297550
  54.1308685  55.5831838  35.3910426  53.7103208  56.9947100  35.7412012
  55.1962852  57.4579233  48.7364450  54.9052718  58.3624864  48.6211116
  55.8319836  57.4995761  49.4508519  56.1219058  54.8356082  45.3265809
  56.7182631  54.6112104  44.6122772  56.1794030  54.0940827  45.9291257
  55.6944087  52.2895517  33.1616000  55.9469607  51.7677038  32.3999463
  54.7568646  52.1261663  33.2642684  60.7387370  51.2931295  40.9690744
  61.5250459  50.8750719  40.6181161  61.0026074  52.1977388  41.1372392
  60.9097447  56.7304146  35.6679400  60.2743280  56.8038772  36.3800305
  60.5794853  57.3197745  34.9898480  66.1395797  51.2306529  41.8723722
  66.8720969  50.6605746  42.1061552  65.3835152  50.8428129  42.3130228
  55.4140376  54.1923623  35.3640375  55.2976634  53.5168526  36.0321460
  55.5242635  53.7055997  34.5472528  57.7571916  53.6533770  39.0687065
  57.3930124  53.1264391  39.7799986  58.6139032  53.2632239  38.8953550
  63.6621217  44.9428103  46.3318331  63.3304542  45.8123514  46.1079546
  63.0666830  44.6264387  47.0112361  57.3977403  48.6823670  34.0648413
  57.5651806  49.5503906  34.4318884  57.2074573  48.8450952  33.1409702
  60.1552737  57.1440649  45.7314243  59.8553460  58.0465688  45.6230051
  59.8103796  56.8772832  46.5835396  53.6065218  53.5954446  41.7650948
  52.6815715  53.4630660  41.9728640  53.8549631  54.3748665  42.2620890
  63.5549880  49.6623189  43.4111681  62.6466758  49.5938597  43.1170442
  63.5037476  50.1395134  44.2393506  57.3766624  51.1381327  35.0495080
  57.2566250  51.5838378  35.8880560  56.6819213  51.4866645  34.4908618
  50.9674029  53.2387719  42.5994737  51.0966410  53.4922198  43.5134149
  50.2871480  53.8315427  42.2799392  55.1373516  63.9084969  38.6985211
  55.0597546  64.8592794  38.7773692  54.5335160  63.5630842  39.3560137
  57.6290746  51.0812835  51.3546578  56.8524080  51.6406755  51.3449443
  58.2681309  51.5669618  51.8761448  65.4211527  47.8639627  45.1889555
  64.7785907  48.1572161  44.5429349  64.9166455  47.7492548  45.9942751
  63.0751690  51.6102801  35.8775414  63.9869547  51.8430187  35.7023111
  62.5661338  52.1939845  35.3150493  55.8837118  53.8898288  50.9164545
  56.6251803  54.4283332  50.6399369  55.1774104  54.5164577  51.0736097
  61.3592458  56.0327428  49.5136706  61.7675814  55.5909839  48.7691339
  60.6369720  55.4580056  49.7670899  57.7123528  50.9700035  46.8870263
  58.5584723  51.3939449  47.0304912  57.6522166  50.3133659  47.5808827
  61.6821273  56.5928619  43.2688995  61.0530135  56.7574333  42.5665063
  61.2946935  57.0070229  44.0399959  65.5610505  57.5283057  40.6233359
  64.8761543  57.9081958  40.0730392  65.6454354  58.1378384  41.3565307
  60.8622974  48.6304404  48.5451437  60.6183905  49.3846464  48.0085713
  61.1382904  49.0089751  49.3798684  62.8161436  55.1743016  47.2228703
  63.0278332  55.8174776  46.5463084  62.7691185  54.3405332  46.7550633
  60.4187665  47.7860837  44.1265275  59.5572144  48.0842090  44.4182012
  60.4450100  48.0031235  43.1946307  57.2349235  56.3303027  40.5339080
  57.6987580  56.6090730  39.7443703  56.9706033  55.4286472  40.3512171
  54.1273316  55.8774509  43.4718844  54.6974673  56.3061777  42.8336328
  54.7181428  55.5957093  44.1703029  56.1718121  52.4526179  37.3428646
  56.8742164  52.9047223  37.8102572  55.8398749  51.8109998  37.9708539
  54.6198482  51.0437936  51.7179855  53.9897143  51.7254217  51.9515252
  54.5134570  50.9321018  50.7732993  49.9143455  50.7109732  42.6445779
  49.1242509  50.9667261  42.1685890  50.4054702  51.5258070  42.7497820
  63.9307264  58.0514971  45.3951060  64.7524708  57.6495159  45.1133742
  63.9269667  57.9483205  46.3467176  51.8658200  51.0754311  39.6029256
  51.0689363  51.1873006  40.1212752  51.6383792  51.4140964  38.7370146
  57.6963868  57.5999015  47.5511770  57.7608300  58.0619422  48.3869942
  56.9874792  56.9696380  47.6794080  48.1981158  50.9640223  45.0760770
  48.4489196  51.8487233  45.3418346  48.7340706  50.7844824  44.3035862
  72.0213257  54.3953720  41.7436031  71.2676966  53.8261118  41.5880036
  72.1560798  54.3616384  42.6906666  57.4111885  59.2667122  37.4190751
  57.2757560  60.1118658  37.8475599  57.9521698  59.4686400  36.6556685
  53.8979225  45.3458702  54.0805106  53.5046171  44.7924901  54.7552750
  54.7145365  45.6569280  54.4711624  50.8641283  56.7842560  37.9918676
  51.3765803  57.5785810  38.1424241  51.5163996  56.0868851  37.9252277
  52.6736167  59.9008316  40.0741429  52.8502796  60.8226281  39.8862413
  53.4693001  59.5866736  40.5035809  56.8147186  46.7616581  51.6725363
  57.5556899  47.3623734  51.5929825  57.0465109  46.0194219  51.1143405
  51.9588524  51.9472948  49.9503592  51.8442039  51.0458206  50.2510691
  51.1033042  52.1936645  49.5988409  59.0380362  59.8890689  51.5491093
  58.5944216  59.1027067  51.2311997  59.6997575  60.0769839  50.8834984
  53.7967483  61.4186490  46.0751771  54.3474908  61.2903554  45.3028765
  52.9578959  61.7181379  45.7246664  57.5934654  57.6837618  50.4196003
  58.1262991  56.9225906  50.1895311  57.0648735  57.3911270  51.1620157
  60.7604349  42.7897684  45.9489644  60.4168618  43.6799326  45.8728755
  61.1283311  42.5999342  45.0859229  48.8290200  55.1131214  38.7678246
  49.6665422  55.5228223  38.5511954  49.0068467  54.1730657  38.7378440
  60.7254632  52.7806295  34.4562079  60.2101255  53.5510900  34.6950467
  60.4531940  52.1071431  35.0795141  58.3101743  47.6255996  39.5147318
  57.4543339  47.2362846  39.3352956  58.7228694  47.7047957  38.6547103
  59.8400889  45.1602339  43.9138878  59.3365685  45.1232474  43.1006683
  60.1331496  46.0695082  43.9735534  56.0843775  45.2441069  42.9205059
  56.9496772  45.0483878  42.5610949  56.1521284  45.0151421  43.8474416
  65.6988906  55.5338650  36.3915253  64.9218349  55.1949809  35.9470415
  66.3780387  55.5391273  35.7170218  60.5140935  50.6533387  36.2821861
  60.2091070  50.9679536  37.1332004  61.4671377  50.7314807  36.3249194
  58.9587367  56.8123611  37.9314815  58.4308728  56.0776370  37.6188052
  58.4574869  57.5898287  37.6854783  63.9380213  55.0072631  43.0481861
  63.2803887  55.6971892  43.1361989  64.7420612  55.3969063  43.3915847
  53.6906094  47.4743277  40.2921426  54.2649846  47.2518458  39.5594619
  54.2777077  47.5431971  41.0450027  62.7485671  53.3617004  41.0985803
  63.2617553  53.9946996  41.6007512  63.3986895  52.7618199  40.7329163
  54.0175681  49.5047738  34.3117311  53.1812994  49.8422424  34.6326586
  53.8780451  49.3696718  33.3744448  55.9928762  44.3484526  39.0196496
  55.3393174  44.0333543  38.3953110  55.9509236  43.7260266  39.7456318
  57.1039967  54.6303821  30.9349788  56.1967029  54.3993074  31.1340937
  57.6010999  53.8341440  31.1223769  60.0108046  63.3401328  33.8546474
  59.3369744  63.6433025  34.4631432  60.3973868  64.1430408  33.5051931
  59.2266502  50.8366459  43.3444143  58.3089064  51.0581406  43.1865831
  59.6426646  50.9112770  42.4855850  60.0101550  52.2357875  38.4746823
  60.7573369  52.7479272  38.1653945  60.2793140  51.9141928  39.3351217
  58.2828200  54.7316416  35.4573778  57.3739420  54.4475448  35.5546247
  58.3123284  55.1515494  34.5977085  63.5147468  58.3423005  39.2264945
  63.0609795  57.5013915  39.2830136  62.8841434  58.9784404  39.5639725
  62.4580387  49.2714991  40.4565613  61.7203144  48.7592377  40.7875855
  62.7107161  48.8315373  39.6448890  61.9580407  60.1799502  40.1614763
  62.2503381  60.7404559  39.4427129  62.4679027  60.4728063  40.9167922
  62.5592015  42.0491243  41.0507382  62.8650891  41.1888607  40.7633297
  63.2844619  42.6408863  40.8506376  48.8516371  52.4521930  39.4388980
  48.6540770  51.8591290  38.7140046  48.2963035  52.1474140  40.1564919
  56.8313094  52.3445036  41.5583573  56.8861704  51.3918873  41.4826050
  56.0204296  52.5004475  42.0424871  57.9804288  56.2725159  32.7961856
  57.5423718  55.5561018  32.3367494  58.7214729  56.5001274  32.2346948
  54.7705454  50.9622096  39.3173952  53.9573320  51.2616267  39.7239144
  55.2664448  50.5677785  40.0348434  56.9214032  60.9579853  41.2508217
  56.8790211  61.1840699  40.3216749  57.8376731  60.7243228  41.3994018
  60.3679666  51.4263920  48.1488846  60.7229054  51.6535394  49.0083312
  61.0151797  51.7582297  47.5266101  66.0977403  54.5482356  38.8538175
  65.9595301  54.7383952  37.9259364  65.7413622  55.3101739  39.3106226
  54.2619529  48.5340452  44.9335187  54.9018908  48.3929211  44.2358150
  53.4297060  48.2474965  44.5573789  66.1246782  56.6158883  43.8649446
  66.5583289  56.5234172  44.7132500  66.8378363  56.5916384  43.2269462
  55.0379833  57.8342882  41.0470179  55.8320431  57.3393202  40.8452754
  54.3271525  57.3060745  40.6837885  51.3462596  51.9785964  37.1229932
  50.4160184  51.9170419  37.3399894  51.4420068  51.4561916  36.3266573
  51.2648145  48.5040776  39.7108174  51.5254963  49.4186110  39.6017334
  52.0865318  48.0365219  39.8604786  52.7373071  49.9178534  46.8806998
  53.4096124  49.7095896  46.2319647  51.9102857  49.7200620  46.4412230
  58.6398643  46.5440475  48.8972659  57.9926558  47.2430424  48.8037135
  59.4099658  46.9776619  49.2648907  62.0477441  56.8089327  51.9723212
  61.8962947  56.5799878  51.0553296  62.0382120  57.7659928  51.9854557
  58.8162777  54.3821239  46.9569479  59.7454837  54.5332399  46.7838446
  58.3953807  54.4705260  46.1018125  57.6151109  58.4071904  44.7268016
  57.4762195  58.0390688  45.5993955  56.8265705  58.9219543  44.5551974
  58.2099261  63.5081000  36.0693553  58.3851017  63.0369044  36.8839176
  57.5232049  64.1346767  36.2974814  59.1656324  57.7853507  42.1156854
  58.8306157  57.7454277  43.0114504  58.6660270  57.1198223  41.6427264
  53.1400568  53.1921137  47.6409435  53.0020366  52.4601375  48.2420974
  54.0505491  53.1030037  47.3593623  62.1015516  55.1309541  32.3893914
  61.4844686  54.4056369  32.2926967  61.6332004  55.8918901  32.0460988
  55.7682869  52.9041096  47.1293115  56.4782487  52.2634288  47.0879733
  55.7252177  53.1553991  48.0519296  54.4811803  49.8906314  48.9488754
  53.9449160  49.4397052  49.6010351  53.8928511  50.0252223  48.2059219
  53.8914062  49.3494965  31.5115218  53.0143528  49.2283766  31.1477465
  54.3671815  48.5581044  31.2594107  63.7587055  57.8048033  48.2813674
  62.8713833  57.4673955  48.4040073  64.3285606  57.0731064  48.5182439
  45.4116202  54.1372125  41.6056725  46.0987242  53.8233855  41.0177741
  45.2564330  55.0413490  41.3323977  50.2150924  49.0262322  46.0341749
  50.1309113  48.4187991  45.2992159  49.3933630  49.5171340  46.0351245
  57.0777988  61.7021256  38.7577739  56.2945510  62.2442936  38.8515963
  57.7770733  62.2195235  39.1571980  60.3874638  47.5115885  41.4011944
  60.8843337  46.7585847  41.0813014  59.6161619  47.5480202  40.8355153
  68.2404395  53.2156251  43.0430236  68.2294271  54.0980966  42.6724169
  67.3721775  52.8627801  42.8484773  61.4704418  56.2687572  38.9750367
  60.5360697  56.3889035  38.8055072  61.6481087  55.3660039  38.7110377
  56.9709606  49.6533268  41.1283629  56.6007394  49.1004308  41.8164534
  57.4668699  49.0491402  40.5758629  64.8576970  52.1104892  39.5100402
  65.3237422  52.9432883  39.4360704  65.3084470  51.6449873  40.2145660
  54.7998805  60.1130763  48.2238647  55.5008265  60.7467246  48.3768041
  54.3293920  60.4545495  47.4634286  62.9253201  58.4548713  36.5086554
  63.2013045  58.3405307  37.4180428  62.0557700  58.0566198  36.4698727
  62.8293633  44.4785479  43.5491303  61.9156712  44.7089705  43.7173510
  63.2586734  44.5623923  44.4005335  62.6000091  52.6675371  46.0491197
  61.9471541  52.9151278  45.3943650  62.9780471  51.8539509  45.7153674
  59.5607265  62.7035064  40.1519367  59.7429659  61.8856720  40.6147120
  60.3840251  62.9202756  39.7144257  59.8949430  61.6303249  37.4134416
  60.4237197  61.1195703  36.8004578  60.1577650  61.3145779  38.2779949
  58.6487664  53.4095182  52.5357234  57.9728301  53.3089311  53.2059609
  59.4715298  53.2534395  52.9993231  50.3966523  59.6467118  45.1569749
  50.9819960  58.9010806  45.2897653  50.1991362  59.9571075  46.0406413
  53.2505178  62.6818366  40.1732192  52.5815554  63.1664493  39.6896232
  53.1118048  62.9287586  41.0875570  44.9884178  52.2172718  43.8774192
  45.0268277  51.6836309  44.6711310  44.4824471  51.6907924  43.2585170
  52.3674940  47.0637259  47.3736735  52.4316267  47.9252090  46.9614132
  52.3042060  46.4511260  46.6409093  51.8427213  49.1360391  51.0209769
  52.4699251  48.7537469  51.6347293  50.9855132  48.9174593  51.3865461
  48.6192755  50.9436820  36.9528124  48.9146197  50.0347499  36.8995177
  47.7180791  50.9224560  36.6309126  52.1487002  49.0192817  42.9355672
  51.4273588  49.6328785  42.7963146  52.9380258  49.5550582  42.8572318
  54.9513316  46.3547244  49.2096324  55.4747718  46.6009540  49.9722633
  54.7325649  47.1867278  48.7899461  50.3480597  48.6250918  37.0767449
  50.0193303  47.7448297  36.8942555  50.7019968  48.5698587  37.9643838
  59.5960176  60.2605821  41.5862434  59.4485138  59.3322528  41.7670005
  60.4213669  60.2825912  41.1019510  53.4622420  48.9123888  37.4442927
  53.8018493  49.4409809  36.7221535  53.9094541  49.2504294  38.2201493
  63.1994298  61.0834380  42.6727307  64.1240845  60.8777241  42.5351758
  63.0309601  60.8350781  43.5816649  56.1565861  47.2960939  46.8945995
  55.8162681  46.4968752  47.2966675  55.4504867  47.5962650  46.3222828
  56.8082333  44.3810251  45.3473318  57.6308402  43.9070729  45.2252208
  57.0520396  45.1600735  45.8472004  55.4490567  47.4098510  35.6436219
  56.1698930  47.7879762  35.1399936  54.8255871  48.1287386  35.7471197
  59.5921690  48.1143659  36.5794552  59.8085305  48.9968296  36.2783380
  59.1115757  47.7229872  35.8500194  54.3320912  51.0729372  43.1565296
  54.1865492  51.3869675  44.0489578  53.8546115  51.6914272  42.6036195
  56.1917294  48.0631920  43.2046186  56.1778863  47.1673013  42.8678484
  56.9089723  48.0702583  43.8384472  58.0443425  48.4969260  45.2499313
  57.7861203  49.4186331  45.2483644  57.5128466  48.0999694  45.9399777
  62.9889614  61.6020047  38.0289399  63.1626491  61.0366470  37.2763251
  63.4818505  62.4020942  37.8468889  48.8066574  53.6134716  46.0952957
  48.2620042  54.3894524  46.2273232  49.6845924  53.9605521  45.9372079
  55.5954190  46.9446300  38.4733756  55.7170102  46.0162946  38.6724643
  55.3056233  46.9584986  37.5612071  58.4645381  44.6301210  41.6100476
  58.4867078  44.6940544  40.6552455  58.8813440  43.7905719  41.8040982
  68.8429005  54.3656470  39.6479698  69.2860151  53.6163795  39.2498822
  67.9655515  54.3566606  39.2653430  63.9764786  60.9186811  35.1286297
  64.6715691  61.5393504  35.3473612  64.3187937  60.0682163  35.4038675
  49.5932596  52.7404612  48.9883114  48.8514332  52.8887248  49.5747745
  49.2725340  53.0012878  48.1249864  65.8756210  58.3686517  36.6573628
  66.4007534  58.7073790  35.9322948  65.7878562  57.4333532  36.4736762
  57.5596870  64.4358500  41.0168881  57.1201861  63.9434879  41.7101738
  58.3104987  63.8931468  40.7760956  50.0389209  60.6270041  41.0193509
  50.8647229  60.3273813  40.6392153  49.6883261  59.8577664  41.4683298
  55.0070742  59.9796509  43.0891183  54.3850752  59.3167214  42.7893410
  55.6775609  60.0057641  42.4064830  48.2397814  58.5456368  41.9782443
  47.4029723  58.1178542  41.7966444  48.2121460  58.7388811  42.9153234
  55.0795270  48.4578297  52.6823689  55.1283425  49.3340420  52.3001458
  55.6217784  47.9155690  52.1095332  54.5684249  58.5300433  36.5649643
  54.7172370  59.2135897  35.9116316  55.3750693  58.5105523  37.0799099
  62.9751753  51.8342815  50.5916861  63.8761616  51.6949280  50.3000859
  63.0499728  51.9997270  51.5315038  57.3094558  49.2109670  49.4370047
  56.4397868  49.5043236  49.1652636  57.5454039  49.7950115  50.1577311
  68.3861870  55.8361708  42.0402146  69.2208761  56.2751512  42.2039706
  68.5220999  55.3600362  41.2210392  52.3236882  54.5565610  37.5710712
  52.0782924  53.6527940  37.7690922  52.4932797  54.5582761  36.6290190
  60.0133592  45.4289287  46.9535468  60.5315536  46.1650314  46.6281956
  59.6588725  45.7353280  47.7882227  51.5932530  50.2893968  35.0696873
  50.9001775  50.3638323  34.4136909  51.3484282  49.5254312  35.5918390
  60.2646186  41.8489569  42.4736364  60.5447940  41.1812758  43.0996791
  61.0496793  42.0418665  41.9611028  58.0679655  61.0248563  34.0361391
  57.4953622  61.6438750  33.5831862  58.6412449  61.5747925  34.5701312
  64.1355045  50.2707203  46.2207939  65.0872468  50.3705301  46.2420163
  63.9658495  49.4785472  46.7306024  62.1569424  47.3562786  46.4067340
  61.5619356  47.6367799  45.7113829  61.8719121  47.8456687  47.1784081
  61.2876915  61.3085713  35.1669973  62.2207588  61.2431275  35.3702848
  61.2000127  62.1441980  34.7084505  63.9164931  60.6251584  32.1273920
  63.8378563  60.2911447  33.0209678  64.7374598  61.1173352  32.1265393
  58.4526453  52.3609376  31.3777443  59.3985558  52.2315584  31.4465861
  58.0740698  51.6224038  31.8546871  64.4248338  44.0265382  41.3404335
  64.2273159  43.7180470  42.2247667  65.0348043  44.7527021  41.4702265
  58.3365146  56.4127122  52.8378100  59.2568155  56.5905721  53.0318147
  58.3014729  55.4683167  52.6857799  56.6369371  50.2859352  31.3132328
  55.7300826  49.9892465  31.3895042  56.9145352  49.9889170  30.4466615
  47.5547311  51.6065716  41.7631375  47.2350095  50.7531024  41.4705749
  47.0080739  51.8214294  42.5189342  51.3327218  54.3228157  45.4800881
  51.5513228  55.2545264  45.4988915  51.7452992  53.9636131  46.2655685
  58.2531436  44.8296242  37.4676570  57.4432165  44.4843327  37.8431816
  58.9415853  44.5203786  38.0564181  60.1821985  43.9074289  39.0900866
  60.7353023  44.3269742  39.7490889  60.4192071  42.9810037  39.1323822
  56.2055084  49.8961362  54.8703630  56.1051811  50.8455719  54.8015721
  55.9876626  49.5679601  53.9979700  55.4068155  47.1446288  31.4544307
  56.2687319  47.4701186  31.7140125  55.5918499  46.3577783  30.9417373
  47.4235571  55.2268627  43.7324496  46.7299042  54.8122580  43.2194451
  48.1708562  55.2689164  43.1357915  63.5600792  46.0174814  38.5979530
  62.9799461  46.6759618  38.2157583  63.2936724  45.1952159  38.1866948
  62.0104358  45.4179872  40.8000851  62.5104136  45.5296406  39.9915170
  62.6539966  45.1140925  41.4401659  56.0686354  53.3258501  53.6868692
  55.5853436  54.1258861  53.8932581  56.1547293  53.3366446  52.7336136
  49.3372313  55.1586881  41.6090511  49.3143002  55.2574568  40.6572394
  49.6472950  56.0052032  41.9307677  51.9959691  57.2163036  45.7237126
  52.9502945  57.1846978  45.6567057  51.7972215  56.7553660  46.5387351
  52.5859073  55.7864152  48.2907923  53.4051962  56.2808231  48.3142760
  52.8595881  54.8696120  48.2625491  62.3425670  48.1774904  37.6535879
  61.4551525  48.4624555  37.4356073  62.7579659  48.0168668  36.8063156
  65.6940206  48.2021425  41.3690218  66.4700596  48.6917878  41.6414835
  64.9688340  48.6279480  41.8262087  68.1312764  48.9149045  42.4264159
  68.7257255  48.6744781  41.7157467  68.2039348  48.1956175  43.0537695
  50.3509920  62.7582655  42.7407323  50.2164388  61.9983056  42.1745321
  49.9341982  63.4823555  42.2736112  61.4868883  57.9419579  31.7483899
  62.1904733  58.1469582  32.3641554  60.7631532  58.5096341  32.0132982
  62.3166693  53.6929440  37.8686169  62.2601895  54.1497992  37.0293801
  62.8695036  52.9320125  37.6909012  66.1271499  49.4819172  38.6936288
  65.8708434  49.0815808  39.5244496  65.5024367  50.1962966  38.5686428
  70.4383837  52.2215245  41.2007580  69.8783395  52.2908435  41.9739142
  69.8327341  52.0456230  40.4807076  53.5079046  63.6551973  42.9525766
  53.3911430  64.5997405  42.8504456  52.6871492  63.3525534  43.3411565
  63.3955581  58.3802108  33.7982359  64.2301184  57.9483307  33.6159834
  63.2339923  58.2084122  34.7259253  63.0501473  54.8834222  35.1638698
  62.9950276  54.7178493  34.2227142  62.4247528  55.5910254  35.3200888
  47.8393988  50.1202286  48.9900120  48.4852851  49.6101240  49.4787345
  47.6311139  50.8570968  49.5643546  60.3647380  57.1883133  54.4892261
  61.2338540  57.3623786  54.1278896  59.8854131  58.0077550  54.3667990
  56.3597598  44.3842331  34.7424016  56.3476268  45.3284170  34.8992287
  57.2521020  44.2012476  34.4483478  60.1749718  40.9785107  38.9969953
  59.4082113  40.4243594  39.1426636  60.5860423  41.0506976  39.8584105
  52.1791479  47.2669903  53.0875135  53.0422940  46.9106708  53.2978459
  51.6056889  46.9283798  53.7750539  68.2371158  64.0115588  34.0648413
  68.4045560  64.8795824  34.4318884  68.0468327  64.1742869  33.1409702
  73.9145445  66.9394718  35.8775414  74.8263301  67.1722105  35.7023111
  73.4055092  67.5231762  35.3150493  71.2581420  63.1152754  44.1265275
  70.3965899  63.4134008  44.4182012  71.2843854  63.3323153  43.1946307
  82.8607012  69.7245637  41.7436031  82.1070720  69.1553036  41.5880036
  82.9954553  69.6908302  42.6906666  71.5648386  68.1098213  34.4562079
  71.0495010  68.8802817  34.6950467  71.2925695  67.4363349  35.0795141
  69.1495497  62.9547914  39.5147318  68.2937093  62.5654764  39.3352956
  69.5622449  63.0339874  38.6547103  76.5382660  70.8630567  36.3915253
  75.7612103  70.5241727  35.9470415  77.2174141  70.8683191  35.7170218
  71.3534689  65.9825305  36.2821861  71.0484825  66.2971454  37.1332004
  72.3065131  66.0606725  36.3249194  64.5299849  62.8035194  40.2921426
  65.1043601  62.5810376  39.5594619  65.1170831  62.8723889  41.0450027
  66.8322516  59.6776443  39.0196496  66.1786929  59.3625461  38.3953110
  66.7902991  59.0552184  39.7456318  67.9433721  69.9595738  30.9349788
  67.0360783  69.7284992  31.1340937  68.4404753  69.1633358  31.1223769
  73.3985769  57.3783161  41.0507382  73.7044646  56.5180524  40.7633297
  74.1238374  57.9700781  40.8506376  76.9371157  69.8774274  38.8538175
  76.7989056  70.0675870  37.9259364  76.5807376  70.6393657  39.3106226
  72.9409270  70.4601459  32.3893914  72.3238441  69.7348287  32.2926967
  72.4725759  71.2210819  32.0460988  64.7307816  64.6786883  31.5115218
  63.8537282  64.5575684  31.1477465  65.2065569  63.8872961  31.2594107
  71.2268392  62.8407803  41.4011944  71.7237092  62.0877765  41.0813014
  70.4555374  62.8772119  40.8355153  79.0798150  68.5448168  43.0430236
  79.0688026  69.4272884  42.6724169  78.2115529  68.1919719  42.8484773
  75.6970724  67.4396809  39.5100402  76.1631176  68.2724801  39.4360704
  76.1478225  66.9741791  40.2145660  64.3016175  64.2415806  37.4442927
  64.6412247  64.7701727  36.7221535  64.7488295  64.5796212  38.2201493
  66.2884322  62.7390427  35.6436219  67.0092684  63.1171680  35.1399936
  65.6649626  63.4579304  35.7471197  70.4315445  63.4435576  36.5794552
  70.6479059  64.3260214  36.2783380  69.9509512  63.0521790  35.8500194
  66.4347945  62.2738218  38.4733756  66.5563856  61.3454864  38.6724643
  66.1449987  62.2876904  37.5612071  69.3039135  59.9593128  41.6100476
  69.3260832  60.0232461  40.6552455  69.7207194  59.1197637  41.8040982
  79.6822760  69.6948388  39.6479698  80.1253906  68.9455713  39.2498822
  78.8049270  69.6858524  39.2653430  76.7149964  73.6978435  36.6573628
  77.2401288  74.0365707  35.9322948  76.6272317  72.7625450  36.4736762
  79.2255624  71.1653626  42.0402146  80.0602516  71.6043430  42.2039706
  79.3614753  70.6892279  41.2210392  69.2920208  67.6901294  31.3777443
  70.2379313  67.5607502  31.4465861  68.9134453  66.9515955  31.8546871
  75.2642092  59.3557300  41.3404335  75.0666914  59.0472388  42.2247667
  75.8741798  60.0818939  41.4702265  83.2713427  69.8821247  44.4756276
  84.0016815  69.6206536  45.0363979  82.6620372  69.1449969  44.5158344
  67.4763125  65.6151270  31.3132328  66.5694580  65.3184383  31.3895042
  67.7539106  65.3181088  30.4466615  69.0925191  60.1588160  37.4676570
  68.2825919  59.8135245  37.8431816  69.7809608  59.8495703  38.0564181
  71.0215739  59.2366206  39.0900866  71.5746778  59.6561660  39.7490889
  71.2585825  58.3101955  39.1323822  66.2461910  62.4738205  31.4544307
  67.1081074  62.7993103  31.7140125  66.4312254  61.6869701  30.9417373
  74.3994546  61.3466732  38.5979530  73.8193215  62.0051536  38.2157583
  74.1330479  60.5244076  38.1866948  72.8498112  60.7471789  40.8000851
  73.3497891  60.8588324  39.9915170  73.4933720  60.4432842  41.4401659
  73.1819424  63.5066822  37.6535879  72.2945279  63.7916473  37.4356073
  73.5973413  63.3460585  36.8063156  72.3262638  73.2711497  31.7483899
  73.0298488  73.4761499  32.3641554  71.6025286  73.8388259  32.0132982
  73.1560448  69.0221358  37.8686169  73.0995649  69.4789909  37.0293801
  73.7088790  68.2612043  37.6909012  76.9665254  64.8111090  38.6936288
  76.7102188  64.4107725  39.5244496  76.3418122  65.5254884  38.5686428
  81.2777592  67.5507163  41.2007580  80.7177150  67.6200352  41.9739142
  80.6721095  67.3748148  40.4807076  73.8895227  70.2126139  35.1638698
  73.8344031  70.0470411  34.2227142  73.2641282  70.9202172  35.3200888
  67.1991353  59.7134248  34.7424016  67.1870022  60.6576088  34.8992287
  68.0914775  59.5304394  34.4483478  71.0143472  56.3077025  38.9969953
  70.2475868  55.7535512  39.1426636  71.4254177  56.3798894  39.8584105
  82.4174879  81.9515131  40.9690744  83.2037968  81.5334554  40.6181161
  82.6813583  82.8561223  41.1372392  85.3408726  75.6011938  46.3318331
  85.0092051  76.4707349  46.1079546  84.7454339  75.2848222  47.0112361
  79.0764912  79.3407505  34.0648413  79.2439315  80.2087742  34.4318884
  78.8862081  79.5034787  33.1409702  85.2337389  80.3207024  43.4111681
  84.3254267  80.2522433  43.1170442  85.1824985  80.7978969  44.2393506
  87.0999036  78.5223463  45.1889555  86.4573416  78.8155996  44.5429349
  86.5953964  78.4076383  45.9942751  79.3911037  81.6283871  46.8870263
  80.2372232  82.0523284  47.0304912  79.3309675  80.9717495  47.5808827
  82.5410482  79.2888239  48.5451437  82.2971414  80.0430299  48.0085713
  82.8170413  79.6673586  49.3798684  82.0975174  78.4444672  44.1265275
  81.2359653  78.7425925  44.4182012  82.1237609  78.6615071  43.1946307
  78.4934695  77.4200416  51.6725363  79.2344408  78.0207570  51.5929825
  78.7252618  76.6778054  51.1143405  82.4391858  73.4481519  45.9489644
  82.0956127  74.3383161  45.8728755  82.8070820  73.2583177  45.0859229
  79.9889252  78.2839831  39.5147318  79.1330848  77.8946682  39.3352956
  80.4016203  78.3631792  38.6547103  81.5188398  75.8186174  43.9138878
  81.0153194  75.7816310  43.1006683  81.8119005  76.7278917  43.9735534
  77.7631284  75.9024904  42.9205059  78.6284281  75.7067713  42.5610949
  77.8308793  75.6735256  43.8474416  77.6716271  75.0068361  39.0196496
  77.0180683  74.6917378  38.3953110  77.6296745  74.3844102  39.7456318
  78.7827476  85.2887656  30.9349788  77.8754538  85.0576910  31.1340937
  79.2798508  84.4925275  31.1223769  81.6895555  93.9985163  33.8546474
  81.0157253  94.3016860  34.4631432  82.0761377  94.8014244  33.5051931
  84.1367896  79.9298827  40.4565613  83.3990653  79.4176213  40.7875855
  84.3894670  79.4899208  39.6448890  84.2379524  72.7075079  41.0507382
  84.5438400  71.8472442  40.7633297  84.9632128  73.2992699  40.8506376
  79.6591797  86.9308995  32.7961856  79.2211227  86.2144854  32.3367494
  80.4002238  87.1585109  32.2346948  80.3186152  77.2024310  48.8972659
  79.6714067  77.9014260  48.8037135  81.0887167  77.6360454  49.2648907
  75.5701571  80.0078801  31.5115218  74.6931037  79.8867601  31.1477465
  76.0459324  79.2164879  31.2594107  82.0662147  78.1699720  41.4011944
  82.5630846  77.4169683  41.0813014  81.2949128  78.2064037  40.8355153
  78.6497115  80.3117103  41.1283629  78.2794903  79.7588144  41.8164534
  79.1456208  79.7075237  40.5758629  84.5081141  75.1369314  43.5491303
  83.5944221  75.3673541  43.7173510  84.9374243  75.2207758  44.4005335
  76.6300825  77.0131079  49.2096324  77.1535227  77.2593375  49.9722633
  76.4113158  77.8451114  48.7899461  77.8353370  77.9544774  46.8945995
  77.4950190  77.1552587  47.2966675  77.1292376  78.2546485  46.3222828
  78.4869842  75.0394086  45.3473318  79.3095911  74.5654565  45.2252208
  78.7307905  75.8184570  45.8472004  77.1278076  78.0682345  35.6436219
  77.8486439  78.4463598  35.1399936  76.5043380  78.7871222  35.7471197
  77.8704803  78.7215755  43.2046186  77.8566372  77.8256848  42.8678484
  78.5877232  78.7286419  43.8384472  79.7230934  79.1553095  45.2499313
  79.4648712  80.0770166  45.2483644  79.1915975  78.7583530  45.9399777
  77.2741699  77.6030135  38.4733756  77.3957611  76.6746782  38.6724643
  76.9843742  77.6168821  37.5612071  80.1432890  75.2885046  41.6100476
  80.1654587  75.3524379  40.6552455  80.5600949  74.4489554  41.8040982
  76.7582779  79.1162133  52.6823689  76.8070934  79.9924256  52.3001458
  77.3005293  78.5739526  52.1095332  78.9882067  79.8693505  49.4370047
  78.1185377  80.1627071  49.1652636  79.2241548  80.4533950  50.1577311
  81.6921101  76.0873122  46.9535468  82.2103045  76.8234149  46.6281956
  81.3376234  76.3937115  47.7882227  81.9433695  72.5073405  42.4736364
  82.2235449  71.8396594  43.0996791  82.7284302  72.7002500  41.9611028
  83.8356933  78.0146622  46.4067340  83.2406865  78.2951635  45.7113829
  83.5506630  78.5040523  47.1784081  80.1313962  83.0193211  31.3777443
  81.0773067  82.8899419  31.4465861  79.7528207  82.2807873  31.8546871
  86.1035847  74.6849217  41.3404335  85.9060668  74.3764305  42.2247667
  86.7135552  75.4110856  41.4702265  78.3156880  80.9443188  31.3132328
  77.4088335  80.6476300  31.3895042  78.5932861  80.6473006  30.4466615
  79.9318945  75.4880077  37.4676570  79.1219674  75.1427162  37.8431816
  80.6203362  75.1787621  38.0564181  81.8609494  74.5658124  39.0900866
  82.4140532  74.9853578  39.7490889  82.0979580  73.6393872  39.1323822
  77.0855664  77.8030123  31.4544307  77.9474828  78.1285021  31.7140125
  77.2706008  77.0161619  30.9417373  85.2388301  76.6758649  38.5979530
  84.6586970  77.3343453  38.2157583  84.9724233  75.8535994  38.1866948
  83.6891867  76.0763707  40.8000851  84.1891645  76.1880242  39.9915170
  84.3327475  75.7724760  41.4401659  87.3727715  78.8605261  41.3690218
  88.1488105  79.3501713  41.6414835  86.6475849  79.2863315  41.8262087
  89.8100273  79.5732880  42.4264159  90.4044764  79.3328616  41.7157467
  89.8826857  78.8540010  43.0537695  83.1656392  88.6003414  31.7483899
  83.8692242  88.8053417  32.3641554  82.4419041  89.1680176  32.0132982
  87.8059008  80.1403007  38.6936288  87.5495943  79.7399643  39.5244496
  87.1811876  80.8546801  38.5686428  78.0385107  75.0426166  34.7424016
  78.0263777  75.9868006  34.8992287  78.9308529  74.8596311  34.4483478
  81.8537227  71.6368943  38.9969953  81.0869622  71.0827429  39.1426636
  82.2647932  71.7090811  39.8584105  86.3703887 101.3618499  39.8195951
  85.8068752 101.2708436  39.0512239  86.2556282 100.5418404  40.2998444
  91.9503445 105.0289467  35.1310416  91.2991425 105.6143547  34.7444430
  92.7447808 105.5595662  35.1905454  85.8759072 102.1178604  35.5297550
  86.6489948 101.5707591  35.3910426  86.2284471 102.9822853  35.7412012
  88.2125350  98.2771270  33.1616000  88.4650871  97.7552791  32.3999463
  87.2749909  98.1137416  33.2642684  93.4278710 102.7179899  35.6679400
  92.7924543 102.7914525  36.3800305  93.0976117 103.3073498  34.9898480
  98.6577060  97.2182282  41.8723722  99.3902232  96.6481499  42.1061552
  97.9016416  96.8303882  42.3130228  87.9321639 100.1799376  35.3640375
  87.8157897  99.5044280  36.0321460  88.0423899  99.6931750  34.5472528
  90.2753180  99.6409523  39.0687065  89.9111387  99.1140144  39.7799986
  91.1320296  99.2507992  38.8953550  89.8947888  97.1257080  35.0495080
  89.7747513  97.5714131  35.8880560  89.2000476  97.4742398  34.4908618
  87.6554780 109.8960722  38.6985211  87.5778810 110.8468547  38.7773692
  87.0516423 109.5506595  39.3560137  95.5932954  97.5978554  35.8775414
  96.5050810  97.8305940  35.7023111  95.0842601  98.1815598  35.3150493
  94.2002536 102.5804372  43.2688995  93.5711399 102.7450086  42.5665063
  93.8128198 102.9945982  44.0399959  98.0791768 103.5158810  40.6233359
  97.3942806 103.8957711  40.0730392  98.1635617 104.1254137  41.3565307
  89.7530498 102.3178780  40.5339080  90.2168844 102.5966483  39.7443703
  89.4887296 101.4162225  40.3512171  88.6899384  98.4401933  37.3428646
  89.3923428  98.8922976  37.8102572  88.3580013  97.7985751  37.9708539
  96.4488528 104.0390724  45.3951060  97.2705971 103.6370912  45.1133742
  96.4450931 103.9358959  46.3467176 104.5394521 100.3829473  41.7436031
 103.7858229  99.8136871  41.5880036 104.6742062 100.3492137  42.6906666
  89.9293149 105.2542875  37.4190751  89.7938824 106.0994411  37.8475599
  90.4702961 105.4562153  36.6556685  83.3822546 102.7718313  37.9918676
  83.8947067 103.5661563  38.1424241  84.0345259 102.0744604  37.9252277
  85.1917431 105.8884069  40.0741429  85.3684059 106.8102034  39.8862413
  85.9874264 105.5742489  40.5035809  91.5561625 105.8766442  51.5491093
  91.1125479 105.0902820  51.2311997  92.2178839 106.0645592  50.8834984
  86.3148746 107.4062243  46.0751771  86.8656171 107.2779307  45.3028765
  85.4760222 107.7057132  45.7246664  93.6542863 106.1569242  49.5772494
  93.6361339 106.9778123  49.0852763  94.5762783 106.0323317  49.8022635
  90.1115917 103.6713371  50.4196003  90.6444254 102.9101659  50.1895311
  89.5829998 103.3787023  51.1620157  93.2435895  98.7682048  34.4562079
  92.7282519  99.5386653  34.6950467  92.9713204  98.0947184  35.0795141
  98.2170169 101.5214403  36.3915253  97.4399612 101.1825562  35.9470415
  98.8961650 101.5267026  35.7170218  93.0322198  96.6409140  36.2821861
  92.7272334  96.9555289  37.1332004  93.9852640  96.7190560  36.3249194
  91.4768630 102.7999364  37.9314815  90.9489992 102.0652123  37.6188052
  90.9756133 103.5774040  37.6854783  96.4561476 100.9948384  43.0481861
  95.7985151 101.6847645  43.1361989  97.2601875 101.3844816  43.3915847
  95.2666935  99.3492757  41.0985803  95.7798817  99.9822749  41.6007512
  95.9168159  98.7493952  40.7329163  89.6221230 100.6179574  30.9349788
  88.7148292 100.3868827  31.1340937  90.1192262  99.8217193  31.1223769
  92.5289309 109.3277081  33.8546474  91.8551008 109.6308778  34.4631432
  92.9155131 110.1306161  33.5051931  92.5282814  98.2233628  38.4746823
  93.2754632  98.7355025  38.1653945  92.7974403  97.9017681  39.3351217
  90.8009464 100.7192169  35.4573778  89.8920683 100.4351201  35.5546247
  90.8304548 101.1391247  34.5977085  96.0328731 104.3298758  39.2264945
  95.5791058 103.4889668  39.2830136  95.4022698 104.9660157  39.5639725
  94.4761670 106.1675255  40.1614763  94.7684645 106.7280312  39.4427129
  94.9860291 106.4603816  40.9167922  89.3494358  98.3320789  41.5583573
  89.4042968  97.3794626  41.4826050  88.5385560  98.4880228  42.0424871
  90.4985552 102.2600912  32.7961856  90.0604981 101.5436771  32.3367494
  91.2395992 102.4877027  32.2346948  87.2886718  96.9497849  39.3173952
  86.4754583  97.2492020  39.7239144  87.7845712  96.5553538  40.0348434
  89.4395296 106.9455606  41.2508217  89.3971474 107.1716452  40.3216749
  90.3557994 106.7118981  41.3994018  98.6158666 100.5358109  38.8538175
  98.4776565 100.7259705  37.9259364  98.2594885 101.2977492  39.3106226
  98.6428046 102.6034636  43.8649446  99.0764553 102.5109925  44.7132500
  99.3559627 102.5792137  43.2269462  87.5561096 103.8218635  41.0470179
  88.3501695 103.3268955  40.8452754  86.8452789 103.2936498  40.6837885
  92.3755941 106.2036730  45.3982547  92.4292963 106.7727667  46.1660263
  91.5070722 106.3738616  45.0336584  99.5043595 102.6458337  46.3982332
  99.6979486 103.5504148  46.6441607  99.4044214 102.1865756  47.2320917
  94.5658704 102.7965080  51.9723212  94.4144211 102.5675631  51.0553296
  94.5563384 103.7535681  51.9854557  90.1332372 104.3947657  44.7268016
  89.9943458 104.0266441  45.5993955  89.3446969 104.9095296  44.5551974
  90.7280524 109.4956753  36.0693553  90.9032280 109.0244797  36.8839176
  90.0413312 110.1222520  36.2974814  91.6837587 103.7729260  42.1156854
  91.3487420 103.7330030  43.0114504  91.1841533 103.1073976  41.6427264
  94.6196779 101.1185294  32.3893914  94.0025950 100.3932122  32.2926967
  94.1513268 101.8794654  32.0460988  96.2750911 105.8284202  50.0499694
  96.2163457 105.1443422  49.3830277  96.6770429 106.5703192  49.5980320
  85.2941610 112.6446116  42.8433413  85.5338208 113.2764640  43.5212432
  84.4510806 112.2934156  43.1298772  86.4095325  95.3370718  31.5115218
  85.5324791  95.2159519  31.1477465  86.8853078  94.5456797  31.2594107
  96.2768318 103.7923786  48.2813674  95.3895097 103.4549708  48.4040073
  96.8466869 103.0606817  48.5182439  89.8069471 108.4525239  45.2474917
  89.7339643 109.2580210  45.7594222  89.3646865 108.6517204  44.4222938
  89.5959251 107.6897009  38.7577739  88.8126773 108.2318689  38.8515963
  90.2951996 108.2070988  39.1571980 100.7585659  99.2032004  43.0430236
 100.7475535 100.0856719  42.6724169  99.8903038  98.8503554  42.8484773
  92.2668155 108.3512073  47.4033076  92.9796127 108.9859537  47.3308977
  91.7758184 108.4475939  46.5873078  93.9885682 102.2563325  38.9750367
  93.0541961 102.3764788  38.8055072  94.1662350 101.3535792  38.7110377
  97.3758233  98.0980645  39.5100402  97.8418685  98.9308636  39.4360704
  97.8265734  97.6325626  40.2145660  87.3180069 106.1006516  48.2238647
  88.0189528 106.7342999  48.3768041  86.8475184 106.4421248  47.4634286
  95.4434464 104.4424466  36.5086554  95.7194308 104.3281060  37.4180428
  94.5738963 104.0441951  36.4698727  92.0788528 108.6910817  40.1519367
  92.2610923 107.8732473  40.6147120  92.9021514 108.9078509  39.7144257
  92.4130694 107.6179002  37.4134416  92.9418460 107.1071456  36.8004578
  92.6758913 107.3021532  38.2779949  82.9147787 105.6342871  45.1569749
  83.5001223 104.8886559  45.2897653  82.7172625 105.9446828  46.0406413
  85.7686442 108.6694119  40.1732192  85.0996817 109.1540246  39.6896232
  85.6299311 108.9163339  41.0875570  89.9091710 110.7037862  46.7714850
  90.4610018 110.8669484  47.5363935  90.2497904 111.2942300  46.0994875
  94.7602585 105.5299120  52.6263504  95.3042489 106.1429078  52.1318459
  94.1789430 106.0878698  53.1430517  93.0460098 108.6519838  43.7578532
  92.9211237 107.8509577  43.2489478  93.7039189 109.1466031  43.2692502
  95.1095006 106.4528858  45.3858082  94.1625342 106.3334209  45.3136409
  95.4577779 105.5651356  45.4684344  92.1141439 106.2481574  41.5862434
  91.9666402 105.3198281  41.7670005  92.9394933 106.2701665  41.1019510
  95.7175561 107.0710133  42.6727307  96.6422109 106.8652994  42.5351758
  95.5490865 106.8226534  43.5816649  95.5070877 107.5895800  38.0289399
  95.6807755 107.0242223  37.2763251  95.9999769 108.3896695  37.8468889
 101.3610269 100.3532223  39.6479698 101.8041415  99.6039548  39.2498822
 100.4836779 100.3442359  39.2653430  96.4946050 106.9062564  35.1286297
  97.1896955 107.5269257  35.3473612  96.8369200 106.0557916  35.4038675
  98.3937473 104.3562270  36.6573628  98.9188797 104.6949543  35.9322948
  98.3059826 103.4209285  36.4736762  90.0557522 108.2696344  48.7863504
  90.3644648 108.0245490  49.6586204  90.8533004 108.4742982  48.2982375
  90.0778134 110.4234253  41.0168881  89.6383124 109.9310632  41.7101738
  90.8286251 109.8807221  40.7760956  82.5570473 106.6145794  41.0193509
  83.3828493 106.3149566  40.6392153  82.2064525 105.8453417  41.4683298
  87.5252006 105.9672262  43.0891183  86.9032015 105.3042967  42.7893410
  88.1956873 105.9933394  42.4064830  80.7579078 104.5332121  41.9782443
  79.9210986 104.1054295  41.7966444  80.7302723 104.7264564  42.9153234
  98.0831379 104.9895174  51.9624826  97.2926923 104.9719313  51.4229325
  97.8464734 105.5283467  52.7173862  98.2029254 101.8387640  49.2757554
  98.2527259 101.6737647  50.2173077  98.0943177 100.9714899  48.8855435
  87.0865513 104.5176186  36.5649643  87.2353633 105.2011650  35.9116316
  87.8931956 104.4981276  37.0799099  99.7047451 104.2584582  49.5199576
  99.4132259 104.6214562  50.3563037  99.0919582 103.5451590  49.3412908
 100.9043133 101.8237461  42.0402146 101.7390025 102.2627265  42.2039706
 101.0402262 101.3476115  41.2210392  97.9534639  99.3817196  47.9879634
  98.4288761  99.5744842  47.1798485  97.0300205  99.4376382  47.7423017
  90.5860918 107.0124316  34.0361391  90.0134885 107.6314503  33.5831862
  91.1593712 107.5623678  34.5701312  93.8058178 107.2961466  35.1669973
  94.7388851 107.2307028  35.3702848  93.7181391 108.1317733  34.7084505
  96.4346195 106.6127337  32.1273920  96.3559826 106.2787200  33.0209678
  97.2555862 107.1049105  32.1265393  99.1324386  99.4789076  45.3350239
  99.1000706  98.5405077  45.5209923  99.7425010  99.5573113  44.6016064
  90.9707717  98.3485129  31.3777443  91.9166822  98.2191337  31.4465861
  90.5921962  97.6099791  31.8546871 104.9500936 100.5405083  44.4756276
 105.6804324 100.2790371  45.0363979 104.3407881  99.8033805  44.5158344
  89.1550634  96.2735105  31.3132328  88.2482089  95.9768218  31.3895042
  89.4326615  95.9764923  30.4466615  87.9249419  93.1322041  31.4544307
  88.7868583  93.4576939  31.7140125  88.1099763  92.3453536  30.9417373
  98.2121469  94.1897178  41.3690218  98.9881859  94.6793631  41.6414835
  97.4869603  94.6155233  41.8262087 100.6494028  94.9024798  42.4264159
 101.2438519  94.6620534  41.7157467 100.7220612  94.1831928  43.0537695
  82.8691184 108.7458409  42.7407323  82.7345651 107.9858809  42.1745321
  82.4523246 109.4699308  42.2736112  94.0050147 103.9295332  31.7483899
  94.7085997 104.1345335  32.3641554  93.2812795 104.4972094  32.0132982
  94.8347957  99.6805193  37.8686169  94.7783158 100.1373745  37.0293801
  95.3876299  98.9195878  37.6909012  98.6452763  95.4694925  38.6936288
  98.3889697  95.0691561  39.5244496  98.0205631  96.1838719  38.5686428
 102.9565101  98.2090998  41.2007580 102.3964659  98.2784188  41.9739142
 102.3508604  98.0331983  40.4807076  86.0260309 109.6427726  42.9525766
  85.9092694 110.5873158  42.8504456  85.2052756 109.3401287  43.3411565
  95.9136844 104.3677861  33.7982359  96.7482448 103.9359060  33.6159834
  95.7521187 104.1959875  34.7259253  95.5682736 100.8709975  35.1638698
  95.5131540 100.7054246  34.2227142  94.9428791 101.5786007  35.3200888
  92.8828643 103.1758886  54.4892261  93.7519803 103.3499539  54.1278896
  92.4035395 103.9953303  54.3667990  87.0514824 110.2955987  46.1681694
  87.9542070 110.3279598  46.4848189  86.8252194 109.3656438  46.1828030
  88.8068426 109.0486974  42.8291773  87.8564057 109.0488836  42.7156145
  89.1100912 108.3019709  42.3127808 104.5421119 114.8847512  43.8937536
 105.1799529 114.7654260  43.1900876 104.4241962 115.8328356  43.9525488
 101.3510825 114.8374940  43.8299060 101.0129337 114.7216005  42.9419595
 102.2200594 114.4366106  43.8100066  97.2097641 116.6910417  39.8195951
  96.6462506 116.6000354  39.0512239  97.0950036 115.8710321  40.2998444
 101.8330608 115.9909792  49.7885266 101.8219249 115.5962590  48.9165769
 101.9951248 115.2575865  50.3819037  94.7562073 118.1861608  42.6580172
  95.5483365 117.8452433  42.2426471  94.9958723 118.2956584  43.5782325
 102.7897200 120.3581385  35.1310416 102.1385180 120.9435465  34.7444430
 103.5841563 120.8887579  35.1905454  96.7152827 117.4470522  35.5297550
  97.4883703 116.8999509  35.3910426  97.0678226 118.3114771  35.7412012
  98.5537869 118.7746904  48.7364450  98.2627735 119.6792535  48.6211116
  99.1894854 118.8163432  49.4508519  99.4794076 116.1523753  45.3265809
 100.0757649 115.9279775  44.6122772  99.5369048 115.4108498  45.9291257
  99.0519105 113.6063188  33.1616000  99.3044625 113.0844709  32.3999463
  98.1143664 113.4429333  33.2642684 104.0962388 112.6098966  40.9690744
 104.8825477 112.1918389  40.6181161 104.3601092 113.5145058  41.1372392
 104.2672465 118.0471817  35.6679400 103.6318298 118.1206443  36.3800305
 103.9369871 118.6365415  34.9898480 109.4970815 112.5474199  41.8723722
 110.2295987 111.9773416  42.1061552 108.7410170 112.1595800  42.3130228
  98.7715393 115.5091294  35.3640375  98.6551652 114.8336197  36.0321460
  98.8817653 115.0223668  34.5472528 101.1146934 114.9701441  39.0687065
 100.7505142 114.4432062  39.7799986 101.9714050 114.5799910  38.8953550
 107.0196235 106.2595774  46.3318331 106.6879560 107.1291184  46.1079546
 106.4241848 105.9432058  47.0112361 100.7552421 109.9991341  34.0648413
 100.9226824 110.8671577  34.4318884 100.5649590 110.1618622  33.1409702
 103.5127755 118.4608320  45.7314243 103.2128478 119.3633358  45.6230051
 103.1678814 118.1940503  46.5835396  96.9640236 114.9122116  41.7650948
  96.0390733 114.7798330  41.9728640  97.2124649 115.6916336  42.2620890
 106.9124898 110.9790860  43.4111681 106.0041776 110.9106268  43.1170442
 106.8612494 111.4562805  44.2393506 100.7341642 112.4548998  35.0495080
 100.6141267 112.9006049  35.8880560 100.0394231 112.8034316  34.4908618
  94.3249047 114.5555390  42.5994737  94.4541428 114.8089869  43.5134149
  93.6446498 115.1483098  42.2799392  98.4948534 125.2252640  38.6985211
  98.4172564 126.1760465  38.7773692  97.8910178 124.8798512  39.3560137
 100.9865764 112.3980505  51.3546578 100.2099098 112.9574425  51.3449443
 101.6256327 112.8837288  51.8761448 108.7786545 109.1807298  45.1889555
 108.1360925 109.4739831  44.5429349 108.2741473 109.0660218  45.9942751
 106.4326708 112.9270471  35.8775414 107.3444565 113.1597858  35.7023111
 105.9236355 113.5107515  35.3150493  99.2412136 115.2065959  50.9164545
  99.9826821 115.7451003  50.6399369  98.5349122 115.8332247  51.0736097
 104.7167476 117.3495099  49.5136706 105.1250832 116.9077510  48.7691339
 103.9944738 116.7747727  49.7670899 101.0698546 112.2867706  46.8870263
 101.9159741 112.7107119  47.0304912 101.0097184 111.6301330  47.5808827
 105.0396291 117.9096290  43.2688995 104.4105153 118.0742004  42.5665063
 104.6521953 118.3237899  44.0399959 108.9185523 118.8450728  40.6233359
 108.2336561 119.2249629  40.0730392 109.0029372 119.4546054  41.3565307
 104.2197991 109.9472074  48.5451437 103.9758923 110.7014135  48.0085713
 104.4957922 110.3257422  49.3798684 106.1736454 116.4910687  47.2228703
 106.3853349 117.1342446  46.5463084 106.1266202 115.6573003  46.7550633
 103.7762683 109.1028507  44.1265275 102.9147162 109.4009761  44.4182012
 103.8025118 109.3198906  43.1946307 100.5924253 117.6470698  40.5339080
 101.0562598 117.9258401  39.7443703 100.3281051 116.7454142  40.3512171
  97.4848334 117.1942179  43.4718844  98.0549691 117.6229448  42.8336328
  98.0756446 116.9124764  44.1703029  99.5293139 113.7693850  37.3428646
 100.2317182 114.2214894  37.8102572  99.1973767 113.1277669  37.9708539
  97.9773500 112.3605607  51.7179855  97.3472161 113.0421888  51.9515252
  97.8709588 112.2488688  50.7732993  93.2718473 112.0277403  42.6445779
  92.4817527 112.2834931  42.1685890  93.7629720 112.8425741  42.7497820
 107.2882282 119.3682642  45.3951060 108.1099726 118.9662829  45.1133742
 107.2844685 119.2650876  46.3467176  95.2233218 112.3921982  39.6029256
  94.4264381 112.5040676  40.1212752  94.9958810 112.7308634  38.7370146
 101.0538886 118.9166685  47.5511770 101.1183318 119.3787093  48.3869942
 100.3449810 118.2864050  47.6794080  91.5556176 112.2807893  45.0760770
  91.8064214 113.1654903  45.3418346  92.0915724 112.1012495  44.3035862
 115.3788275 115.7121391  41.7436031 114.6251984 115.1428789  41.5880036
 115.5135816 115.6784055  42.6906666 100.7686903 120.5834793  37.4190751
 100.6332578 121.4286329  37.8475599 101.3096716 120.7854070  36.6556685
  97.2554243 106.6626373  54.0805106  96.8621188 106.1092571  54.7552750
  98.0720383 106.9736951  54.4711624  94.2216301 118.1010231  37.9918676
  94.7340821 118.8953481  38.1424241  94.8739014 117.4036521  37.9252277
  96.0311185 121.2175987  40.0741429  96.2077814 122.1393952  39.8862413
  96.8268019 120.9034406  40.5035809 100.1722204 108.0784252  51.6725363
 100.9131917 108.6791405  51.5929825 100.4040127 107.3361890  51.1143405
  95.3163542 113.2640619  49.9503592  95.2017057 112.3625876  50.2510691
  94.4608060 113.5104316  49.5988409 102.3955380 121.2058359  51.5491093
 101.9519234 120.4194738  51.2311997 103.0572593 121.3937510  50.8834984
  97.1542501 122.7354161  46.0751771  97.7049926 122.6071224  45.3028765
  96.3153977 123.0349050  45.7246664 104.4936618 121.4861159  49.5772494
 104.4755093 122.3070040  49.0852763 105.4156538 121.3615234  49.8022635
 100.9509672 119.0005289  50.4196003 101.4838009 118.2393577  50.1895311
 100.4223753 118.7078941  51.1620157 104.1179367 104.1065355  45.9489644
 103.7743636 104.9966996  45.8728755 104.4858329 103.9167012  45.0859229
  92.1865217 116.4298885  38.7678246  93.0240439 116.8395894  38.5511954
  92.3643485 115.4898327  38.7378440 104.0829650 114.0973966  34.4562079
 103.5676273 114.8678570  34.6950467 103.8106958 113.4239102  35.0795141
 101.6676761 108.9423667  39.5147318 100.8118357 108.5530517  39.3352956
 102.0803712 109.0215627  38.6547103 103.1975907 106.4770010  43.9138878
 102.6940703 106.4400145  43.1006683 103.4906514 107.3862753  43.9735534
  99.4418793 106.5608740  42.9205059 100.3071790 106.3651548  42.5610949
  99.5096302 106.3319091  43.8474416 109.0563924 116.8506320  36.3915253
 108.2793366 116.5117480  35.9470415 109.7355405 116.8558944  35.7170218
 103.8715953 111.9701058  36.2821861 103.5666088 112.2847207  37.1332004
 104.8246395 112.0482478  36.3249194 102.3162385 118.1291281  37.9314815
 101.7883746 117.3944041  37.6188052 101.8149887 118.9065958  37.6854783
 107.2955231 116.3240302  43.0481861 106.6378905 117.0139563  43.1361989
 108.0995630 116.7136734  43.3915847  97.0481112 108.7910947  40.2921426
  97.6224864 108.5686129  39.5594619  97.6352095 108.8599642  41.0450027
 106.1060689 114.6784674  41.0985803 106.6192571 115.3114666  41.6007512
 106.7561913 114.0785870  40.7329163  97.3750699 110.8215409  34.3117311
  96.5388012 111.1590095  34.6326586  97.2355469 110.6864388  33.3744448
  99.3503780 105.6652196  39.0196496  98.6968192 105.3501214  38.3953110
  99.3084254 105.0427937  39.7456318 100.4614985 115.9471491  30.9349788
  99.5542047 115.7160745  31.1340937 100.9586017 115.1509111  31.1223769
 103.3683064 124.6568999  33.8546474 102.6944762 124.9600695  34.4631432
 103.7548886 125.4598079  33.5051931 102.5841520 112.1534130  43.3444143
 101.6664082 112.3749077  43.1865831 103.0001664 112.2280440  42.4855850
 103.3676568 113.5525546  38.4746823 104.1148387 114.0646943  38.1653945
 103.6368158 113.2309598  39.3351217 101.6403218 116.0484086  35.4573778
 100.7314437 115.7643119  35.5546247 101.6698302 116.4683165  34.5977085
 106.8722486 119.6590676  39.2264945 106.4184813 118.8181586  39.2830136
 106.2416452 120.2952074  39.5639725 105.8155405 110.5882662  40.4565613
 105.0778162 110.0760048  40.7875855 106.0682179 110.1483043  39.6448890
 105.3155425 121.4967173  40.1614763 105.6078399 122.0572230  39.4427129
 105.8254045 121.7895734  40.9167922 105.9167033 103.3658914  41.0507382
 106.2225909 102.5056277  40.7633297 106.6419637 103.9576534  40.8506376
  92.2091389 113.7689600  39.4388980  92.0115788 113.1758961  38.7140046
  91.6538053 113.4641811  40.1564919 100.1888112 113.6612707  41.5583573
 100.2436722 112.7086543  41.4826050  99.3779314 113.8172146  42.0424871
 101.3379306 117.5892830  32.7961856 100.8998736 116.8728689  32.3367494
 102.0789747 117.8168945  32.2346948  98.1280472 112.2789767  39.3173952
  97.3148338 112.5783937  39.7239144  98.6239466 111.8845455  40.0348434
 100.2789050 122.2747524  41.2508217 100.2365229 122.5008370  40.3216749
 101.1951749 122.0410898  41.3994018 103.7254684 112.7431591  48.1488846
 104.0804072 112.9703064  49.0083312 104.3726815 113.0749968  47.5266101
 109.4552421 115.8650027  38.8538175 109.3170319 116.0551623  37.9259364
 109.0988640 116.6269410  39.3106226  97.6194547 109.8508122  44.9335187
  98.2593926 109.7096881  44.2358150  96.7872077 109.5642636  44.5573789
 109.4821800 117.9326554  43.8649446 109.9158307 117.8401843  44.7132500
 110.1953381 117.9084055  43.2269462  98.3954851 119.1510553  41.0470179
  99.1895449 118.6560873  40.8452754  97.6846543 118.6228416  40.6837885
 103.2149695 121.5328648  45.3982547 103.2686718 122.1019584  46.1660263
 102.3464477 121.7030533  45.0336584  94.7037614 113.2953634  37.1229932
  93.7735202 113.2338090  37.3399894  94.7995086 112.7729587  36.3266573
  94.6223163 109.8208447  39.7108174  94.8829981 110.7353780  39.6017334
  95.4440336 109.3532890  39.8604786  96.0948089 111.2346204  46.8806998
  96.7671142 111.0263567  46.2319647  95.2677875 111.0368290  46.4412230
 110.3437350 117.9750255  46.3982332 110.5373240 118.8796065  46.6441607
 110.2437968 117.5157674  47.2320917 101.9973661 107.8608145  48.8972659
 101.3501576 108.5598095  48.8037135 102.7674676 108.2944289  49.2648907
 105.4052459 118.1256997  51.9723212 105.2537965 117.8967549  51.0553296
 105.3957138 119.0827599  51.9854557 102.1737795 115.6988910  46.9569479
 103.1029855 115.8500070  46.7838446 101.7528825 115.7872931  46.1018125
 100.9726127 119.7239575  44.7268016 100.8337213 119.3558359  45.5993955
 100.1840723 120.2387214  44.5551974 101.5674279 124.8248671  36.0693553
 101.7426034 124.3536714  36.8839176 100.8807067 125.4514437  36.2974814
 102.5231342 119.1021177  42.1156854 102.1881175 119.0621947  43.0114504
 102.0235288 118.4365893  41.6427264  96.4975586 114.5088807  47.6409435
  96.3595384 113.7769046  48.2420974  97.4080509 114.4197707  47.3593623
 105.4590534 116.4477212  32.3893914 104.8419704 115.7224040  32.2926967
 104.9907022 117.2086572  32.0460988  99.1257887 114.2208767  47.1293115
  99.8357505 113.5801959  47.0879733  99.0827195 114.4721662  48.0519296
 107.1144665 121.1576120  50.0499694 107.0557211 120.4735340  49.3830277
 107.5164184 121.8995110  49.5980320  97.8386821 111.2073985  48.9488754
  97.3024178 110.7564723  49.6010351  97.2503529 111.3419893  48.2059219
  96.1335364 127.9738034  42.8433413  96.3731962 128.6056558  43.5212432
  95.2904561 127.6226074  43.1298772  97.2489080 110.6662636  31.5115218
  96.3718546 110.5451437  31.1477465  97.7246833 109.8748714  31.2594107
 107.1162073 119.1215704  48.2813674 106.2288851 118.7841626  48.4040073
 107.6860624 118.3898735  48.5182439  88.7691220 115.4539796  41.6056725
  89.4562260 115.1401526  41.0177741  88.6139348 116.3581160  41.3323977
  93.5725942 110.3429992  46.0341749  93.4884131 109.7355662  45.2992159
  92.7508648 110.8339011  46.0351245 100.6463226 123.7817156  45.2474917
 100.5733397 124.5872128  45.7594222 100.2040619 123.9809122  44.4222938
 100.4353006 123.0188926  38.7577739  99.6520527 123.5610607  38.8515963
 101.1345751 123.5362906  39.1571980 103.7449656 108.8283556  41.4011944
 104.2418355 108.0753518  41.0813014 102.9736637 108.8647872  40.8355153
 111.5979413 114.5323921  43.0430236 111.5869289 115.4148637  42.6724169
 110.7296793 114.1795472  42.8484773 103.1061909 123.6803990  47.4033076
 103.8189882 124.3151455  47.3308977 102.6151938 123.7767856  46.5873078
 104.8279436 117.5855243  38.9750367 103.8935715 117.7056705  38.8055072
 105.0056105 116.6827710  38.7110377 100.3284624 110.9700939  41.1283629
  99.9582412 110.4171979  41.8164534 100.8243717 110.3659072  40.5758629
 108.2151988 113.4272562  39.5100402 108.6812440 114.2600554  39.4360704
 108.6659488 112.9617544  40.2145660  98.1573823 121.4298434  48.2238647
  98.8583282 122.0634917  48.3768041  97.6868938 121.7713165  47.4634286
 106.2828219 119.7716384  36.5086554 106.5588063 119.6572978  37.4180428
 105.4132718 119.3733868  36.4698727 106.1868650 105.7953149  43.5491303
 105.2731730 106.0257376  43.7173510 106.6161752 105.8791593  44.4005335
 105.9575109 113.9843041  46.0491197 105.3046559 114.2318949  45.3943650
 106.3355489 113.1707179  45.7153674 102.9182283 124.0202734  40.1519367
 103.1004677 123.2024390  40.6147120 103.7415269 124.2370427  39.7144257
 103.2524448 122.9470920  37.4134416 103.7812215 122.4363374  36.8004578
 103.5152668 122.6313450  38.2779949 102.0062682 114.7262852  52.5357234
 101.3303319 114.6256982  53.2059609 102.8290316 114.5702066  52.9993231
  93.7541541 120.9634789  45.1569749  94.3394978 120.2178477  45.2897653
  93.5566380 121.2738746  46.0406413  96.6080196 123.9986036  40.1732192
  95.9390572 124.4832164  39.6896232  96.4693066 124.2455257  41.0875570
  88.3459196 113.5340389  43.8774192  88.3843295 113.0003980  44.6711310
  87.8399489 113.0075595  43.2585170 100.7485465 126.0329780  46.7714850
 101.3003773 126.1961401  47.5363935 101.0891658 126.6234218  46.0994875
  95.7249958 108.3804930  47.3736735  95.7891285 109.2419760  46.9614132
  95.6617078 107.7678931  46.6409093  95.2002231 110.4528062  51.0209769
  95.8274269 110.0705139  51.6347293  94.3430149 110.2342264  51.3865461
 105.5996339 120.8591037  52.6263504 106.1436243 121.4720996  52.1318459
 105.0183184 121.4170616  53.1430517  91.9767773 112.2604491  36.9528124
  92.2721214 111.3515170  36.8995177  91.0755809 112.2392231  36.6309126
 103.8853852 123.9811755  43.7578532 103.7604992 123.1801495  43.2489478
 104.5432943 124.4757949  43.2692502  95.5062020 110.3360488  42.9355672
  94.7848606 110.9496455  42.7963146  96.2955276 110.8718253  42.8572318
 105.9488761 121.7820775  45.3858082 105.0019096 121.6626127  45.3136409
 106.2971534 120.8943273  45.4684344  98.3088334 107.6714914  49.2096324
  98.8322736 107.9177211  49.9722633  98.0900667 108.5034949  48.7899461
  93.7055615 109.9418589  37.0767449  93.3768321 109.0615968  36.8942555
  94.0594986 109.8866258  37.9643838 102.9535194 121.5773492  41.5862434
 102.8060156 120.6490199  41.7670005 103.7788687 121.5993582  41.1019510
  96.8197438 110.2291559  37.4442927  97.1593511 110.7577480  36.7221535
  97.2669559 110.5671965  38.2201493 106.5569316 122.4002050  42.6727307
 107.4815863 122.1944912  42.5351758 106.3884619 122.1518451  43.5816649
  99.5140879 108.6128609  46.8945995  99.1737699 107.8136422  47.2966675
  98.8079885 108.9130320  46.3222828 100.1657351 105.6977922  45.3473318
 100.9883420 105.2238400  45.2252208 100.4095414 106.4768406  45.8472004
  98.8065585 108.7266180  35.6436219  99.5273948 109.1047433  35.1399936
  98.1830889 109.4455057  35.7471197 102.9496708 109.4311329  36.5794552
 103.1660323 110.3135967  36.2783380 102.4690775 109.0397543  35.8500194
  97.6895930 112.3897042  43.1565296  97.5440510 112.7037346  44.0489578
  97.2121133 113.0081943  42.6036195  99.5492312 109.3799590  43.2046186
  99.5353881 108.4840684  42.8678484 100.2664741 109.3870254  43.8384472
 101.4018443 109.8136931  45.2499313 101.1436221 110.7354001  45.2483644
 100.8703484 109.4167365  45.9399777 106.3464632 122.9187718  38.0289399
 106.5201509 122.3534140  37.2763251 106.8393523 123.7188613  37.8468889
  92.1641592 114.9302387  46.0952957  91.6195060 115.7062195  46.2273232
  93.0420942 115.2773191  45.9372079  98.9529208 108.2613971  38.4733756
  99.0745120 107.3330617  38.6724643  98.6631251 108.2752657  37.5612071
 101.8220399 105.9468881  41.6100476 101.8442096 106.0108214  40.6552455
 102.2388458 105.1073390  41.8040982 112.2004023 115.6824141  39.6479698
 112.6435169 114.9331466  39.2498822 111.3230533 115.6734277  39.2653430
 107.3339804 122.2354482  35.1286297 108.0290709 122.8561175  35.3473612
 107.6762955 121.3849833  35.4038675  92.9507614 114.0572283  48.9883114
  92.2089350 114.2054918  49.5747745  92.6300358 114.3180549  48.1249864
 109.2331227 119.6854188  36.6573628 109.7582552 120.0241460  35.9322948
 109.1453580 118.7501203  36.4736762 100.8951276 123.5988261  48.7863504
 101.2038403 123.3537408  49.6586204 101.6926758 123.8034900  48.2982375
 100.9171888 125.7526171  41.0168881 100.4776879 125.2602550  41.7101738
 101.6680005 125.2099139  40.7760956  93.3964227 121.9437712  41.0193509
  94.2222247 121.6441484  40.6392153  93.0458279 121.1745334  41.4683298
  98.3645760 121.2964180  43.0891183  97.7425770 120.6334885  42.7893410
  99.0350627 121.3225312  42.4064830  91.5972832 119.8624038  41.9782443
  90.7604741 119.4346213  41.7966444  91.5696478 120.0556482  42.9153234
  98.4370288 109.7745968  52.6823689  98.4858443 110.6508091  52.3001458
  98.9792802 109.2323361  52.1095332 108.9225134 120.3187091  51.9624826
 108.1320677 120.3011230  51.4229325 108.6858488 120.8575385  52.7173862
 109.0423009 117.1679558  49.2757554 109.0921014 117.0029565  50.2173077
 108.9336932 116.3006817  48.8855435  97.9259267 119.8468103  36.5649643
  98.0747388 120.5303568  35.9116316  98.7325711 119.8273193  37.0799099
 106.3326771 113.1510486  50.5916861 107.2336634 113.0116951  50.3000859
 106.4074746 113.3164941  51.5315038 100.6669576 110.5277340  49.4370047
  99.7972886 110.8210907  49.1652636 100.9029057 111.1117785  50.1577311
 110.5441205 119.5876499  49.5199576 110.2526014 119.9506480  50.3563037
 109.9313337 118.8743508  49.3412908 111.7436888 117.1529379  42.0402146
 112.5783779 117.5919183  42.2039706 111.8796017 116.6768032  41.2210392
 108.7928394 114.7109114  47.9879634 109.2682515 114.9036760  47.1798485
 107.8693959 114.7668300  47.7423017  95.6811900 115.8733281  37.5710712
  95.4357942 114.9695611  37.7690922  95.8507815 115.8750431  36.6290190
 103.3708610 106.7456957  46.9535468 103.8890554 107.4817984  46.6281956
 103.0163743 107.0520951  47.7882227  94.9507548 111.6061639  35.0696873
  94.2576793 111.6805994  34.4136909  94.7059300 110.8421982  35.5918390
 103.6221204 103.1657240  42.4736364 103.9022958 102.4980429  43.0996791
 104.4071811 103.3586336  41.9611028 101.4254673 122.3416234  34.0361391
 100.8528640 122.9606421  33.5831862 101.9987467 122.8915596  34.5701312
 107.4930063 111.5874874  46.2207939 108.4447486 111.6872972  46.2420163
 107.3233513 110.7953142  46.7306024 105.5144442 108.6730457  46.4067340
 104.9194374 108.9535470  45.7113829 105.2294139 109.1624358  47.1784081
 104.6451933 122.6253384  35.1669973 105.5782606 122.5598946  35.3702848
 104.5575145 123.4609651  34.7084505 107.2739949 121.9419254  32.1273920
 107.1953581 121.6079118  33.0209678 108.0949616 122.4341022  32.1265393
 109.9718140 114.8080994  45.3350239 109.9394461 113.8696994  45.5209923
 110.5818764 114.8865030  44.6016064 101.8101471 113.6777047  31.3777443
 102.7560576 113.5483255  31.4465861 101.4315716 112.9391709  31.8546871
 110.1212629 111.5992037  45.3808522 109.6051678 110.8150494  45.1938451
 111.0052577 111.2710754  45.5455042 107.7823356 105.3433053  41.3404335
 107.5848177 105.0348141  42.2247667 108.3923061 106.0694692  41.4702265
 115.7894690 115.8697000  44.4756276 116.5198079 115.6082289  45.0363979
 115.1801636 115.1325722  44.5158344 113.8709987 114.0104863  45.0730727
 113.1443151 113.8760828  44.4647219 113.4557274 114.3181692  45.8787445
 101.6940164 117.7294793  52.8378100 102.6143173 117.9073392  53.0318147
 101.6589747 116.7850838  52.6857799  99.9944388 111.6027023  31.3132328
  99.0875844 111.3060136  31.3895042 100.2720369 111.3056841  30.4466615
  90.9122329 112.9233386  41.7631375  90.5925113 112.0698695  41.4705749
  90.3655757 113.1381965  42.5189342  94.6902236 115.6395827  45.4800881
  94.9088246 116.5712935  45.4988915  95.1028010 115.2803802  46.2655685
 101.6106454 106.1463913  37.4676570 100.8007183 105.8010998  37.8431816
 102.2990871 105.8371456  38.0564181 103.5397002 105.2241960  39.0900866
 104.0928041 105.6437413  39.7490889 103.7767089 104.2977708  39.1323822
  99.5630102 111.2129033  54.8703630  99.4626829 112.1623390  54.8015721
  99.3451644 110.8847272  53.9979700  98.7643173 108.4613958  31.4544307
  99.6262337 108.7868857  31.7140125  98.9493517 107.6745454  30.9417373
  90.7810589 116.5436298  43.7324496  90.0874060 116.1290251  43.2194451
  91.5283580 116.5856834  43.1357915 106.9175810 107.3342485  38.5979530
 106.3374479 107.9927289  38.2157583 106.6511742 106.5119829  38.1866948
 105.3679376 106.7347542  40.8000851 105.8679154 106.8464077  39.9915170
 106.0114984 106.4308595  41.4401659  99.4261372 114.6426172  53.6868692
  98.9428453 115.4426532  53.8932581  99.5122311 114.6534117  52.7336136
  92.6947331 116.4754552  41.6090511  92.6718019 116.5742239  40.6572394
  93.0047968 117.3219702  41.9307677  95.3534709 118.5330707  45.7237126
  96.3077963 118.5014649  45.6567057  95.1547233 118.0721330  46.5387351
  95.9434091 117.1031823  48.2907923  96.7626980 117.5975901  48.3142760
  96.2170899 116.1863791  48.2625491 105.7000688 109.4942575  37.6535879
 104.8126543 109.7792226  37.4356073 106.1154677 109.3336338  36.8063156
 109.0515224 109.5189096  41.3690218 109.8275614 110.0085548  41.6414835
 108.3263358 109.9447150  41.8262087 111.4887782 110.2316715  42.4264159
 112.0832273 109.9912451  41.7157467 111.5614366 109.5123846  43.0537695
  93.7084938 124.0750326  42.7407323  93.5739406 123.3150727  42.1745321
  93.2917000 124.7991226  42.2736112 104.8443901 119.2587250  31.7483899
 105.5479751 119.4637252  32.3641554 104.1206550 119.8264012  32.0132982
 105.6741711 115.0097111  37.8686169 105.6176913 115.4665662  37.0293801
 106.2270054 114.2487796  37.6909012 109.4846517 110.7986843  38.6936288
 109.2283451 110.3983479  39.5244496 108.8599385 111.5130637  38.5686428
 113.7958855 113.5382916  41.2007580 113.2358413 113.6076105  41.9739142
 113.1902358 113.3623901  40.4807076  96.8654064 124.9719643  42.9525766
  96.7486448 125.9165076  42.8504456  96.0446510 124.6693205  43.3411565
 106.7530598 119.6969779  33.7982359 107.5876202 119.2650977  33.6159834
 106.5914941 119.5251793  34.7259253 106.4076491 116.2001892  35.1638698
 106.3525294 116.0346164  34.2227142 105.7822546 116.9077925  35.3200888
  91.1969006 111.4369957  48.9900120  91.8427869 110.9268911  49.4787345
  90.9886157 112.1738638  49.5643546 103.7222398 118.5050804  54.4892261
 104.5913557 118.6791456  54.1278896 103.2429149 119.3245221  54.3667990
  99.7172616 105.7010001  34.7424016  99.7051286 106.6451841  34.8992287
 100.6096038 105.5180147  34.4483478  97.8908578 125.6247905  46.1681694
  98.7935825 125.6571515  46.4848189  97.6645948 124.6948356  46.1828030
  99.6462180 124.3778892  42.8291773  98.6957811 124.3780753  42.7156145
  99.9494666 123.6311626  42.3127808 103.5324736 102.2952778  38.9969953
 102.7657131 101.7411265  39.1426636 103.9435441 102.3674647  39.8584105
  95.5366497 108.5837574  53.0875135  96.3997958 108.2274379  53.2978459
  94.9631907 108.2451469  53.7750539 115.3814874 130.2139430  43.8937536
 116.0193284 130.0946177  43.1900876 115.2635716 131.1620274  43.9525488
 112.1904580 130.1666858  43.8299060 111.8523091 130.0507923  42.9419595
 113.0594348 129.7658023  43.8100066 108.0491396 132.0202335  39.8195951
 107.4856261 131.9292271  39.0512239 107.9343791 131.2002239  40.2998444
 112.6724363 131.3201710  49.7885266 112.6613004 130.9254508  48.9165769
 112.8345002 130.5867782  50.3819037 105.5955827 133.5153526  42.6580172
 106.3877119 133.1744351  42.2426471 105.8352478 133.6248501  43.5782325
 109.3931624 134.1038822  48.7364450 109.1021490 135.0084453  48.6211116
 110.0288608 134.1455349  49.4508519 110.3187831 131.4815670  45.3265809
 110.9151403 131.2571693  44.6122772 110.3762802 130.7400416  45.9291257
 114.9356142 127.9390884  40.9690744 115.7219231 127.5210307  40.6181161
 115.1994846 128.8436976  41.1372392 120.3364569 127.8766117  41.8723722
 121.0689741 127.3065334  42.1061552 119.5803925 127.4887718  42.3130228
 111.9540689 130.2993359  39.0687065 111.5898896 129.7723980  39.7799986
 112.8107805 129.9091828  38.8953550 117.8589990 121.5887691  46.3318331
 117.5273314 122.4583102  46.1079546 117.2635603 121.2723975  47.0112361
 107.8033991 130.2414034  41.7650948 106.8784487 130.1090248  41.9728640
 108.0518404 131.0208253  42.2620890 117.7518653 126.3082777  43.4111681
 116.8435530 126.2398186  43.1170442 117.7006249 126.7854722  44.2393506
 105.1642802 129.8847308  42.5994737 105.2935183 130.1381787  43.5134149
 104.4840253 130.4775016  42.2799392 111.8259519 127.7272423  51.3546578
 111.0492853 128.2866343  51.3449443 112.4650082 128.2129206  51.8761448
 119.6180299 124.5099216  45.1889555 118.9754679 124.8031749  44.5429349
 119.1135228 124.3952136  45.9942751 110.0805891 130.5357876  50.9164545
 110.8220575 131.0742920  50.6399369 109.3742876 131.1624165  51.0736097
 115.5561231 132.6787017  49.5136706 115.9644587 132.2369427  48.7691339
 114.8338492 132.1039644  49.7670899 111.9092301 127.6159624  46.8870263
 112.7553496 128.0399037  47.0304912 111.8490938 126.9593248  47.5808827
 115.0591746 125.2763992  48.5451437 114.8152678 126.0306052  48.0085713
 115.3351676 125.6549340  49.3798684 114.6156438 124.4320425  44.1265275
 113.7540917 124.7301678  44.4182012 114.6418872 124.6490824  43.1946307
 111.4318007 132.9762615  40.5339080 111.8956353 133.2550318  39.7443703
 111.1674805 132.0746060  40.3512171 108.3242088 132.5234097  43.4718844
 108.8943445 132.9521365  42.8336328 108.9150200 132.2416682  44.1703029
 110.3686893 129.0985768  37.3428646 111.0710936 129.5506812  37.8102572
 110.0367522 128.4569587  37.9708539 108.8167255 127.6897524  51.7179855
 108.1865915 128.3713805  51.9515252 108.7103343 127.5780606  50.7732993
 104.1112227 127.3569321  42.6445779 103.3211281 127.6126849  42.1685890
 104.6023474 128.1717658  42.7497820 106.0626972 127.7213900  39.6029256
 105.2658136 127.8332594  40.1212752 105.8352565 128.0600552  38.7370146
 111.8932640 134.2458603  47.5511770 111.9577073 134.7079010  48.3869942
 111.1843564 133.6155968  47.6794080 102.3949930 127.6099811  45.0760770
 102.6457969 128.4946821  45.3418346 102.9309478 127.4304413  44.3035862
 108.0947997 121.9918290  54.0805106 107.7014943 121.4384489  54.7552750
 108.9114138 122.3028869  54.4711624 105.0610055 133.4302149  37.9918676
 105.5734576 134.2245399  38.1424241 105.7132768 132.7328439  37.9252277
 111.0115958 123.4076169  51.6725363 111.7525672 124.0083323  51.5929825
 111.2433881 122.6653807  51.1143405 106.1557296 128.5932537  49.9503592
 106.0410812 127.6917794  50.2510691 105.3001814 128.8396233  49.5988409
 107.9936255 138.0646079  46.0751771 108.5443680 137.9363142  45.3028765
 107.1547731 138.3640968  45.7246664 111.7903426 134.3297206  50.4196003
 112.3231763 133.5685495  50.1895311 111.2617507 134.0370858  51.1620157
 114.9573121 119.4357272  45.9489644 114.6137391 120.3258914  45.8728755
 115.3252084 119.2458930  45.0859229 103.0258972 131.7590803  38.7678246
 103.8634194 132.1687811  38.5511954 103.2037240 130.8190245  38.7378440
 112.5070515 124.2715584  39.5147318 111.6512111 123.8822435  39.3352956
 112.9197467 124.3507545  38.6547103 114.0369662 121.8061928  43.9138878
 113.5334457 121.7692063  43.1006683 114.3300269 122.7154670  43.9735534
 110.2812548 121.8900657  42.9205059 111.1465544 121.6943466  42.5610949
 110.3490057 121.6611009  43.8474416 107.8874867 124.1202865  40.2921426
 108.4618619 123.8978047  39.5594619 108.4745849 124.1891560  41.0450027
 116.9454444 130.0076592  41.0985803 117.4586326 130.6406584  41.6007512
 117.5955668 129.4077788  40.7329163 110.1897534 120.9944114  39.0196496
 109.5361947 120.6793131  38.3953110 110.1478009 120.3719855  39.7456318
 113.4235275 127.4826048  43.3444143 112.5057836 127.7040995  43.1865831
 113.8395418 127.5572358  42.4855850 116.6549160 125.9174580  40.4565613
 115.9171916 125.4051966  40.7875855 116.9075933 125.4774961  39.6448890
 116.7560787 118.6950832  41.0507382 117.0619664 117.8348195  40.7633297
 117.4813392 119.2868452  40.8506376 103.0485143 129.0981518  39.4388980
 102.8509543 128.5050879  38.7140046 102.4931807 128.7933728  40.1564919
 111.0281867 128.9904625  41.5583573 111.0830477 128.0378461  41.4826050
 110.2173069 129.1464064  42.0424871 108.9674227 127.6081684  39.3173952
 108.1542092 127.9075855  39.7239144 109.4633221 127.2137373  40.0348434
 114.5648438 128.0723509  48.1488846 114.9197826 128.2994982  49.0083312
 115.2120570 128.4041886  47.5266101 108.4588301 125.1800040  44.9335187
 109.0987681 125.0388799  44.2358150 107.6265832 124.8934553  44.5573789
 109.2348605 134.4802470  41.0470179 110.0289204 133.9852790  40.8452754
 108.5240298 133.9520333  40.6837885 105.5431369 128.6245552  37.1229932
 104.6128957 128.5630008  37.3399894 105.6388841 128.1021505  36.3266573
 105.4616918 125.1500365  39.7108174 105.7223735 126.0645698  39.6017334
 106.2834090 124.6824807  39.8604786 106.9341843 126.5638122  46.8806998
 107.6064897 126.3555484  46.2319647 106.1071630 126.3660208  46.4412230
 112.8367415 123.1900063  48.8972659 112.1895330 123.8890013  48.8037135
 113.6068431 123.6236207  49.2648907 113.0131550 131.0280828  46.9569479
 113.9423610 131.1791987  46.7838446 112.5922580 131.1164849  46.1018125
 111.8119881 135.0531492  44.7268016 111.6730967 134.6850277  45.5993955
 111.0234478 135.5679132  44.5551974 113.3625096 134.4313095  42.1156854
 113.0274929 134.3913865  43.0114504 112.8629042 133.7657811  41.6427264
 107.3369340 129.8380725  47.6409435 107.1989138 129.1060964  48.2420974
 108.2474264 129.7489625  47.3593623 109.9651641 129.5500684  47.1293115
 110.6751260 128.9093877  47.0879733 109.9220949 129.8013579  48.0519296
 108.6780575 126.5365902  48.9488754 108.1417932 126.0856641  49.6010351
 108.0897284 126.6711811  48.2059219  99.6084974 130.7831713  41.6056725
 100.2956014 130.4693443  41.0177741  99.4533103 131.6873078  41.3323977
 104.4119696 125.6721910  46.0341749 104.3277885 125.0647579  45.2992159
 103.5902403 126.1630928  46.0351245 114.5843410 124.1575473  41.4011944
 115.0812110 123.4045436  41.0813014 113.8130392 124.1939790  40.8355153
 111.1678379 126.2992856  41.1283629 110.7976166 125.7463897  41.8164534
 111.6637471 125.6950990  40.5758629 117.0262405 121.1245067  43.5491303
 116.1125485 121.3549294  43.7173510 117.4555506 121.2083511  44.4005335
 116.7968863 129.3134959  46.0491197 116.1440314 129.5610866  45.3943650
 117.1749243 128.4999097  45.7153674 112.8456436 130.0554770  52.5357234
 112.1697074 129.9548899  53.2059609 113.6684070 129.8993984  52.9993231
 104.5935296 136.2926707  45.1569749 105.1788732 135.5470394  45.2897653
 104.3960134 136.6030663  46.0406413  99.1852950 128.8632307  43.8774192
  99.2237050 128.3295897  44.6711310  98.6793243 128.3367512  43.2585170
 106.5643713 123.7096847  47.3736735 106.6285039 124.5711678  46.9614132
 106.5010833 123.0970849  46.6409093 106.0395985 125.7819980  51.0209769
 106.6668024 125.3997057  51.6347293 105.1823904 125.5634182  51.3865461
 102.8161528 127.5896409  36.9528124 103.1114969 126.6807087  36.8995177
 101.9149564 127.5684148  36.6309126 106.3455775 125.6652405  42.9355672
 105.6242361 126.2788373  42.7963146 107.1349031 126.2010170  42.8572318
 109.1482088 123.0006832  49.2096324 109.6716490 123.2469128  49.9722633
 108.9294422 123.8326867  48.7899461 104.5449369 125.2710507  37.0767449
 104.2162076 124.3907885  36.8942555 104.8988740 125.2158175  37.9643838
 107.6591193 125.5583476  37.4442927 107.9987265 126.0869398  36.7221535
 108.1063313 125.8963882  38.2201493 110.3534633 123.9420527  46.8945995
 110.0131454 123.1428340  47.2966675 109.6473640 124.2422238  46.3222828
 111.0051105 121.0269839  45.3473318 111.8277175 120.5530318  45.2252208
 111.2489169 121.8060323  45.8472004 109.6459340 124.0558098  35.6436219
 110.3667702 124.4339351  35.1399936 109.0224644 124.7746975  35.7471197
 113.7890463 124.7603247  36.5794552 114.0054077 125.6427885  36.2783380
 113.3084530 124.3689460  35.8500194 108.5289684 127.7188960  43.1565296
 108.3834265 128.0329263  44.0489578 108.0514888 128.3373860  42.6036195
 110.3886067 124.7091508  43.2046186 110.3747636 123.8132601  42.8678484
 111.1058495 124.7162172  43.8384472 112.2412198 125.1428848  45.2499313
 111.9829975 126.0645919  45.2483644 111.7097238 124.7459283  45.9399777
 103.0035346 130.2594305  46.0952957 102.4588814 131.0354112  46.2273232
 103.8814696 130.6065109  45.9372079 109.7922963 123.5905888  38.4733756
 109.9138874 122.6622535  38.6724643 109.5025005 123.6044574  37.5612071
 112.6614153 121.2760799  41.6100476 112.6835850 121.3400132  40.6552455
 113.0782212 120.4365307  41.8040982 103.7901368 129.3864201  48.9883114
 103.0483104 129.5346836  49.5747745 103.4694112 129.6472466  48.1249864
 104.2357982 137.2729630  41.0193509 105.0616002 136.9733401  40.6392153
 103.8852034 136.5037252  41.4683298 109.2039515 136.6256098  43.0891183
 108.5819524 135.9626803  42.7893410 109.8744382 136.6517230  42.4064830
 102.4366587 135.1915956  41.9782443 101.5998495 134.7638130  41.7966444
 102.4090232 135.3848399  42.9153234 109.2764042 125.1037886  52.6823689
 109.3252198 125.9800009  52.3001458 109.8186557 124.5615279  52.1095332
 117.1720525 128.4802403  50.5916861 118.0730388 128.3408868  50.3000859
 117.2468500 128.6456858  51.5315038 111.5063331 125.8569258  49.4370047
 110.6366640 126.1502824  49.1652636 111.7422811 126.4409703  50.1577311
 106.5205655 131.2025199  37.5710712 106.2751697 130.2987529  37.7690922
 106.6901569 131.2042349  36.6290190 114.2102365 122.0748875  46.9535468
 114.7284309 122.8109902  46.6281956 113.8557497 122.3812868  47.7882227
 105.7901302 126.9353556  35.0696873 105.0970547 127.0097911  34.4136909
 105.5453054 126.1713900  35.5918390 114.4614959 118.4949158  42.4736364
 114.7416713 117.8272347  43.0996791 115.2465566 118.6878253  41.9611028
 118.3323817 126.9166792  46.2207939 119.2841240 127.0164889  46.2420163
 118.1627268 126.1245060  46.7306024 116.3538197 124.0022375  46.4067340
 115.7588129 124.2827388  45.7113829 116.0687893 124.4916276  47.1784081
 120.9606383 126.9283955  45.3808522 120.4445432 126.1442411  45.1938451
 121.8446332 126.6002671  45.5455042 118.6217110 120.6724970  41.3404335
 118.4241931 120.3640058  42.2247667 119.2316816 121.3986609  41.4702265
 112.5333918 133.0586710  52.8378100 113.4536928 133.2365309  53.0318147
 112.4983501 132.1142756  52.6857799 101.7516083 128.2525304  41.7631375
 101.4318868 127.3990612  41.4705749 101.2049512 128.4673882  42.5189342
 105.5295991 130.9687745  45.4800881 105.7482001 131.9004853  45.4988915
 105.9421765 130.6095719  46.2655685 112.4500209 121.4755830  37.4676570
 111.6400937 121.1302915  37.8431816 113.1384626 121.1663374  38.0564181
 114.3790757 120.5533877  39.0900866 114.9321796 120.9729331  39.7490889
 114.6160843 119.6269625  39.1323822 110.4023856 126.5420951  54.8703630
 110.3020583 127.4915308  54.8015721 110.1845398 126.2139190  53.9979700
 101.6204343 131.8728216  43.7324496 100.9267815 131.4582168  43.2194451
 102.3677334 131.9148752  43.1357915 117.7569564 122.6634402  38.5979530
 117.1768233 123.3219206  38.2157583 117.4905497 121.8411747  38.1866948
 116.2073130 122.0639460  40.8000851 116.7072909 122.1755995  39.9915170
 116.8508738 121.7600513  41.4401659 110.2655126 129.9718090  53.6868692
 109.7822208 130.7718450  53.8932581 110.3516065 129.9826035  52.7336136
 103.5341086 131.8046469  41.6090511 103.5111774 131.9034157  40.6572394
 103.8441722 132.6511620  41.9307677 106.1928464 133.8622624  45.7237126
 107.1471717 133.8306567  45.6567057 105.9940987 133.4013248  46.5387351
 106.7827846 132.4323740  48.2907923 107.6020735 132.9267819  48.3142760
 107.0564654 131.5155709  48.2625491 116.5394442 124.8234493  37.6535879
 115.6520297 125.1084143  37.4356073 116.9548431 124.6628256  36.8063156
 119.8908978 124.8481014  41.3690218 120.6669368 125.3377466  41.6414835
 119.1657112 125.2739068  41.8262087 122.3281537 125.5608633  42.4264159
 122.9226028 125.3204369  41.7157467 122.4008121 124.8415763  43.0537695
 104.5478693 139.4042244  42.7407323 104.4133160 138.6442645  42.1745321
 104.1310755 140.1283144  42.2736112 102.0362760 126.7661874  48.9900120
 102.6821624 126.2560828  49.4787345 101.8279911 127.5030556  49.5643546
 110.5566371 121.0301919  34.7424016 110.5445040 121.9743759  34.8992287
 111.4489792 120.8472064  34.4483478 114.3718490 117.6244696  38.9969953
 113.6050886 117.0703182  39.1426636 114.7829195 117.6966564  39.8584105
 106.3760251 123.9129491  53.0875135 107.2391713 123.5566296  53.2978459
 105.8025662 123.5743386  53.7750539  37.3592854   6.2368976  38.2736400
  36.9156708   5.4505354  37.9557304  38.0210068   6.4248126  37.6080290
  39.4574092   6.5171776  36.3017801  39.4392567   7.3380657  35.8098070
  40.3794012   6.3925851  36.5267942  35.9147146   4.0315905  37.1441309
  36.4475483   3.2704193  36.9140617  35.3861227   3.7389557  37.8865464
  45.3074824   3.0060871  33.1227638  45.5010714   3.9106682  33.3686913
  45.2075442   2.5468290  33.9566223  40.3689933   3.1567614  38.6968519
  40.2175439   2.9278166  37.7798603  40.3594612   4.1138215  38.7099864
  42.0782140   6.1886737  36.7745001  42.0194686   5.5045957  36.1075584
  42.4801658   6.9305727  36.3225627  42.0799547   4.1526320  35.0058981
  41.1926326   3.8152242  35.1285379  42.6498098   3.4209352  35.2427746
  38.0699384   8.7114607  34.1278382  38.7827356   9.3462072  34.0554284
  37.5789412   8.8078473  33.3118384  36.9700156  -0.2426531  39.2602541
  36.2940793  -0.3432402  39.9304916  37.7927790  -0.3987317  39.7238538
  35.7122939  11.0640396  33.4960157  36.2641247  11.2272018  34.2609242
  36.0529133  11.6544834  32.8240181  40.5633814   5.8901654  39.3508811
  41.1073717   6.5031612  38.8563766  39.9820658   6.4481232  39.8675824
  35.8588751   8.6298878  35.5108811  36.1675877   8.3848025  36.3831511
  36.6564233   8.8345516  35.0227681  43.8862608   5.3497708  38.6870132
  43.0958152   5.3321847  38.1474632  43.6495962   5.8886002  39.4419169
  44.0060483   2.1990174  36.0002861  44.0558488   2.0340182  36.9418384
  43.8974406   1.3317433  35.6100742  41.2964245  -1.8178898  37.3162168
  42.1974108  -1.9572433  37.0246165  41.3712220  -1.6524443  38.2560345
  45.5078680   4.6187116  36.2444882  45.2163488   4.9817096  37.0808343
  44.8950811   3.9054124  36.0658214  36.6577638   2.7605409  39.5623407
  37.5780648   2.9384008  39.7563453  36.6227221   1.8161455  39.4103106
  34.3898846  -0.3263211  40.4113998  33.9065928   0.4737149  40.6177887
  34.4759785  -0.3155267  39.4581442  38.6859872   3.5361421  41.2137567
  39.5551032   3.7102073  40.8524202  38.2066624   4.3555837  41.0913297
  50.3452348  15.2450047  30.6182842  50.9830758  15.1256794  29.9146182
  50.2273191  16.1930891  30.6770794  47.1542054  15.1977475  30.5544367
  46.8160566  15.0818539  29.6664902  48.0231822  14.7968640  30.5345373
  47.6361837  16.3512326  36.5130572  47.6250478  15.9565125  35.6411076
  47.7982477  15.6178399  37.1064344  40.5593302  18.5464143  29.3825478
  41.3514594  18.2054967  28.9671778  40.7989952  18.6559118  30.3027632
  48.5928429  20.7183919  21.8555723  47.9416408  21.3037999  21.4689736
  49.3872791  21.2490114  21.9150760  44.3569098  19.1349438  35.4609756
  44.0658964  20.0395069  35.3456423  44.9926083  19.1765966  36.1753826
  45.2825305  16.5126287  32.0511116  45.8788877  16.2882309  31.3368079
  45.3400277  15.7711032  32.6536564  49.8993616  12.9701500  27.6936050
  50.6856706  12.5520924  27.3426467  50.1632321  13.8747593  27.8617699
  55.3002044  12.9076734  28.5969029  56.0327215  12.3375950  28.8306858
  54.5441399  12.5198334  29.0375534  46.9178163  15.3303975  25.7932371
  46.5536370  14.8034596  26.5045293  47.7745279  14.9402444  25.6198857
  52.8227464   6.6198308  33.0563637  52.4910789   7.4893719  32.8324852
  52.2273077   6.3034592  33.7357668  49.3158983  18.8210854  32.4559550
  49.0159706  19.7235893  32.3475357  48.9710043  18.5543037  33.3080703
  42.7671465  15.2724651  28.4896254  41.8421961  15.1400865  28.6973946
  43.0155878  16.0518870  28.9866197  52.7156127  11.3393394  30.1356987
  51.8073005  11.2708802  29.8415748  52.6643723  11.8165339  30.9638813
  40.1280276  14.9157924  29.3240044  40.2572657  15.1692403  30.2379455
  39.4477727  15.5085632  29.0044699  44.2979763  25.5855174  25.4230518
  44.2203793  26.5362999  25.5018998  43.6941407  25.2401047  26.0805444
  46.7896993  12.7583039  38.0791885  46.0130327  13.3176960  38.0694749
  47.4287556  13.2439822  38.6006755  54.5817774   9.5409832  31.9134861
  53.9392154   9.8342365  31.2674656  54.0772702   9.4262753  32.7188058
  45.0443365  15.5668493  37.6409852  45.7858050  16.1053537  37.3644675
  44.3380351  16.1934782  37.7981403  50.5198705  17.7097633  36.2382013
  50.9282061  17.2680044  35.4936645  49.7975966  17.1350261  36.4916206
  46.8729775  12.6470240  33.6115570  47.7190970  13.0709654  33.7550219
  46.8128413  11.9903864  34.3054133  50.8427520  18.2698824  29.9934302
  50.2136382  18.4344538  29.2910370  50.4553182  18.6840433  30.7645266
  54.7216751  19.2053262  27.3478666  54.0367790  19.5852163  26.7975699
  54.8060601  19.8148588  28.0810614  50.0229220  10.3074608  35.2696744
  49.7790152  11.0616669  34.7331019  50.2989151  10.6859956  36.1043991
  51.9767683  16.8513221  33.9474009  52.1884578  17.4944981  33.2708390
  51.9297431  16.0175537  33.4795939  49.5793912   9.4631041  30.8510581
  48.7178391   9.7612295  31.1427319  49.6056347   9.6801440  29.9191614
  46.3955481  18.0073232  27.2584387  46.8593827  18.2860935  26.4689010
  46.1312280  17.1056677  27.0757478  43.2879562  17.5544714  30.1964150
  43.8580920  17.9831982  29.5581635  43.8787674  17.2727298  30.8948336
  43.7804729  12.7208141  38.4425162  43.1503390  13.4024422  38.6760558
  43.6740817  12.6091223  37.4978300  53.0913511  19.7285176  32.1196367
  53.9130955  19.3265364  31.8379048  53.0875914  19.6253410  33.0712482
  46.8570114  19.2769220  34.2757077  46.9214547  19.7389627  35.1115249
  46.1481038  18.6466584  34.4039387  37.3587404  12.6410428  31.8006077
  37.6095443  13.5257437  32.0663653  37.8946953  12.4615029  31.0281168
  61.1819504  16.0723925  28.4681338  60.4283212  15.5031323  28.3125343
  61.3167045  16.0386589  29.4151973  46.5718132  20.9437327  24.1436057
  46.4363807  21.7888863  24.5720905  47.1127945  21.1456605  23.3801991
  43.0585472   7.0228907  40.8050413  42.6652417   6.4695105  41.4798057
  43.8751612   7.3339485  41.1956930  41.8342414  21.5778521  26.7986736
  42.0109043  22.4996486  26.6107720  42.6299248  21.2636941  27.2281116
  45.9753433   8.4386786  38.3970669  46.7163146   9.0393939  38.3175132
  46.2071356   7.6964424  37.8388712  41.1194771  13.6243153  36.6748899
  41.0048286  12.7228410  36.9755998  40.2639288  13.8706850  36.3233715
  48.1986608  21.5660894  38.2736400  47.7550463  20.7797272  37.9557304
  48.8603822  21.7540044  37.6080290  42.9573730  23.0956695  32.7997078
  43.5081155  22.9673758  32.0274072  42.1185206  23.3951584  32.4491971
  50.2967847  21.8463693  36.3017801  50.2786322  22.6672575  35.8098070
  51.2187767  21.7217769  36.5267942  46.7540901  19.3607823  37.1441309
  47.2869237  18.5996111  36.9140617  46.2254982  19.0681475  37.8865464
  49.9210596   4.4667889  32.6734951  49.5774865   5.3569531  32.5974062
  50.2889558   4.2769547  31.8104536  49.0007136   6.8372544  30.6384184
  48.4971932   6.8002679  29.8251989  49.2937743   7.7465287  30.6980841
  54.8595153  17.2108855  23.1160560  54.0824595  16.8720014  22.6715722
  55.5386633  17.2161478  22.4415525  48.1193613  18.4893815  24.6560121
  47.5914975  17.7546575  24.3433359  47.6181116  19.2668492  24.4100090
  53.0986459  16.6842836  29.7727168  52.4410134  17.3742097  29.8607296
  53.9026859  17.0739268  30.1161154  51.9091918  15.0387209  27.8231109
  52.4223800  15.6717200  28.3252819  52.5593142  14.4388404  27.4574469
  49.1714292  25.0171533  20.5791780  48.4975991  25.3203230  21.1876738
  49.5580114  25.8200613  20.2297237  48.3872749  12.5136664  30.0689450
  47.4695310  12.7351611  29.9111138  48.8032893  12.5882975  29.2101157
  49.1707797  13.9128080  25.1992130  49.9179616  14.4249477  24.8899252
  49.4399386  13.5912133  26.0596524  52.6753714  20.0193210  25.9510252
  52.2216042  19.1784120  26.0075442  52.0447681  20.6554608  26.2885032
  51.6186634  10.9485196  27.1810919  50.8809391  10.4362582  27.5121162
  51.8713408  10.5085578  26.3694196  51.1186654  21.8569707  26.8860070
  51.4109628  22.4174764  26.1672436  51.6285274  22.1498268  27.6413229
  45.9919341  14.0215241  28.2828880  46.0467951  13.0689078  28.2071356
  45.1810543  14.1774680  28.7670178  46.0820279  22.6350058  27.9753523
  46.0396458  22.8610904  27.0462055  46.9982978  22.4013432  28.1239324
  49.5285913  13.1034125  34.8734152  49.8835300  13.3305599  35.7328618
  50.1758044  13.4352502  34.2511408  55.2583650  16.2252561  25.5783481
  55.1201548  16.4154157  24.6504671  54.9019868  16.9871944  26.0351533
  43.4225776  10.2110656  31.6580493  44.0625155  10.0699416  30.9603457
  42.5903306   9.9245170  31.2819095  55.2853029  18.2929088  30.5894753
  55.7189536  18.2004377  31.4377807  55.9984610  18.2686589  29.9514769
  44.1986080  19.5113087  27.7715486  44.9926678  19.0163407  27.5698061
  43.4877772  18.9830950  27.4083192  49.0180924  21.8931182  32.1227854
  49.0717946  22.4622119  32.8905569  48.1495705  22.0633067  31.7581891
  41.8979317  11.5948739  33.6052305  42.5702371  11.3866101  32.9564954
  41.0709104  11.3970825  33.1657537  56.1468579  18.3352789  33.1227638
  56.3404469  19.2398599  33.3686913  56.0469197  17.8760208  33.9566223
  47.8004890   8.2210680  35.6217966  47.1532805   8.9200629  35.5282442
  48.5705905   8.6546823  35.9894214  51.2083687  18.4859532  38.6968519
  51.0569194  18.2570083  37.7798603  51.1988367  19.4430133  38.7099864
  47.9769024  16.0591444  33.6814785  48.9061084  16.2102604  33.5083753
  47.5560054  16.1475465  32.8263432  46.7757356  20.0842109  31.4513323
  46.6368441  19.7160893  32.3239261  45.9871952  20.5989748  31.2797281
  47.3705508  25.1851205  22.7938860  47.5457263  24.7139248  23.6084482
  46.6838296  25.8116971  23.0220120  48.3262571  19.4623712  28.8402161
  47.9912403  19.4224481  29.7359811  47.8266516  18.7968427  28.3672571
  42.3006815  14.8691342  34.3654742  42.1626613  14.1371580  34.9666281
  43.2111738  14.7800242  34.0838930  44.9289115  14.5811301  33.8538422
  45.6388734  13.9404493  33.8125040  44.8858424  14.8324196  34.7764602
  52.9175894  21.5178654  36.7745001  52.8588440  20.8337874  36.1075584
  53.3195412  22.2597644  36.3225627  43.6418049  11.5676519  35.6734061
  43.1055406  11.1167257  36.3255657  43.0534758  11.7022428  34.9304525
  41.9366593  28.3340568  29.5678720  42.1763191  28.9659092  30.2457738
  41.0935789  27.9828608  29.8544079  52.9193301  19.4818238  35.0058981
  52.0320080  19.1444160  35.1285379  53.4891852  18.7501269  35.2427746
  39.3757171  10.7032526  32.7587056  39.2915359  10.0958196  32.0237466
  38.5539877  11.1941545  32.7596552  46.4494455  24.1419691  31.9720224
  46.3764626  24.9474662  32.4839528  46.0071848  24.3411656  31.1468245
  46.2384234  23.3791461  25.4823045  45.4551756  23.9213141  25.5761270
  46.9376980  23.8965440  25.8817286  57.4010642  14.8926456  29.7675542
  57.3900518  15.7751171  29.3969475  56.5328021  14.5398006  29.5730079
  48.9093138  24.0406525  34.1278382  49.6221110  24.6753989  34.0554284
  48.4183167  24.1370391  33.3118384  50.6310665  17.9457777  25.6995674
  49.6966944  18.0659240  25.5300378  50.8087334  17.0430244  25.4355684
  54.0183217  13.7875096  26.2345708  54.4843669  14.6203088  26.1606011
  54.4690717  13.3220078  26.9390967  43.9605052  21.7900968  34.9483953
  44.6614511  22.4237451  35.1013347  43.4900167  22.1315700  34.1879592
  52.0859448  20.1318918  23.2331860  52.3619292  20.0175512  24.1425734
  51.2163946  19.7336403  23.1944033  51.9899879   6.1555683  30.2736610
  51.0762959   6.3859910  30.4418816  52.4192981   6.2394128  31.1250642
  51.7606338  14.3445575  32.7736504  51.1077788  14.5921483  32.1188956
  52.1386718  13.5309714  32.4398981  48.7213512  24.3805269  26.8764674
  48.9035906  23.5626925  27.3392426  49.5446498  24.5972961  26.4389564
  49.0555677  23.3073454  24.1379722  49.5843444  22.7965908  23.5249884
  49.3183897  22.9915984  25.0025255  47.8093911  15.0865387  39.2602541
  47.1334548  14.9859516  39.9304916  48.6321545  14.9304600  39.7238538
  39.5572770  21.3237323  31.8815056  40.1426207  20.5781011  32.0142960
  39.3597608  21.6341280  32.7651720  42.4111425  24.3588570  26.8977498
  41.7421800  24.8434698  26.4141538  42.2724295  24.6057791  27.8120877
  46.5516694  26.3932314  33.4960157  47.1035002  26.5563935  34.2609242
  46.8922887  26.9836752  32.8240181  41.5281187   8.7407464  34.0982041
  41.5922513   9.6022295  33.6859439  41.4648307   8.1281465  33.3654400
  41.0033459  10.8130596  37.7455076  41.6305498  10.4307674  38.3592600
  40.1461378  10.5944798  38.1110768  51.4027568  21.2193571  39.3508811
  51.9467472  21.8323530  38.8563766  50.8214413  21.7773150  39.8675824
  49.6885081  24.3414289  30.4823839  49.5636220  23.5404029  29.9734784
  50.3464172  24.8360483  29.9937809  51.7519989  22.1423310  32.1103389
  50.8050325  22.0228661  32.0381716  52.1002762  21.2545808  32.1929650
  44.1119563   8.0317448  35.9341631  44.6353965   8.2779745  36.6967940
  43.8931896   8.8637483  35.5144768  48.7566423  21.9376026  28.3107741
  48.6091385  21.0092733  28.4915311  49.5819916  21.9596116  27.8264816
  52.3600544  22.7604585  29.3972614  53.2847092  22.5547446  29.2597065
  52.1915848  22.5120986  30.3061955  45.3172108   8.9731144  33.6191301
  44.9768928   8.1738957  34.0211981  44.6111114   9.2732854  33.0468134
  45.9688580   6.0580456  32.0718624  46.7914649   5.5840934  31.9497515
  46.2126643   6.8370940  32.5717311  43.4927158  12.7499577  29.8810603
  43.3471739  13.0639880  30.7734884  43.0152362  13.3684477  29.3281502
  45.3523541   9.7402125  29.9291492  45.3385110   8.8443218  29.5923790
  46.0695969   9.7472788  30.5629779  47.2049672  10.1739465  31.9744620
  46.9467450  11.0956535  31.9728950  46.6734712   9.7769899  32.6645084
  52.1495861  23.2790252  24.7534705  52.3232738  22.7136674  24.0008558
  52.6424752  24.0791147  24.5714195  37.9672820  15.2904921  32.8198264
  37.4226289  16.0664729  32.9518538  38.8452170  15.6375726  32.6617386
  58.0035252  16.0426675  26.3725005  58.4466398  15.2934000  25.9744128
  57.1261762  16.0336811  25.9898737  53.1371033  22.5957016  21.8531604
  53.8321938  23.2163709  22.0718918  53.4794183  21.7452368  22.1283981
  38.7538842  14.4174817  35.7128421  38.0120578  14.5657453  36.2993051
  38.4331587  14.6783083  34.8495170  55.0362456  20.0456722  23.3818934
  55.5613780  20.3843995  22.6568254  54.9484809  19.1103737  23.1982069
  46.6982505  23.9590796  35.5108811  47.0069631  23.7139942  36.3831511
  47.4957987  24.1637434  35.0227681  46.7203117  26.1128705  27.7414188
  46.2808107  25.6205084  28.4347044  47.4711234  25.5701673  27.5006263
  39.1995456  22.3040246  27.7438816  40.0253476  22.0044018  27.3637459
  38.8489508  21.5347868  28.1928604  44.1676989  21.6566714  29.8136489
  43.5456998  20.9937419  29.5138717  44.8381856  21.6827846  29.1310137
  37.4004061  20.2226572  28.7027749  36.5635969  19.7948747  28.5211750
  37.3727707  20.4159016  29.6398540  44.2401517  10.1348502  39.4068995
  44.2889672  11.0110625  39.0246765  44.7824031   9.5925895  38.8340638
  54.7256362  20.6789626  38.6870132  53.9351906  20.6613764  38.1474632
  54.4889717  21.2177919  39.4419169  54.8454237  17.5282092  36.0002861
  54.8952242  17.3632099  36.9418384  54.7368161  16.6609351  35.6100742
  52.1358000  13.5113020  37.3162168  53.0367863  13.3719485  37.0246165
  52.2105974  13.6767475  38.2560345  46.4700805  10.8879875  36.1615354
  45.6004115  11.1813441  35.8897942  46.7060285  11.4720320  36.8822618
  56.3472434  19.9479033  36.2444882  56.0557243  20.3109014  37.0808343
  55.7344566  19.2346042  36.0658214  57.5468117  17.5131913  28.7647453
  58.3815008  17.9521717  28.9285013  57.6827245  17.0370566  27.9455698
  54.5959622  15.0711648  34.7124940  55.0713744  15.2639294  33.9043792
  53.6725188  15.1270834  34.4668324  49.1739839   7.1059492  33.6780774
  49.6921783   7.8420519  33.3527263  48.8194972   7.4123485  34.5127533
  53.2961291  11.9477408  32.9453246  54.2478714  12.0475506  32.9665470
  53.1264742  11.1555677  33.4551330  51.3175671   9.0332991  33.1312647
  50.7225603   9.3138004  32.4359136  51.0325368   9.5226892  33.9029388
  50.4483161  22.9855918  21.8915279  51.3813835  22.9201480  22.0948155
  50.3606374  23.8212185  21.4329812  53.0771178  22.3021789  18.8519227
  52.9984810  21.9681652  19.7454985  53.8980845  22.7943556  18.8510699
  55.7749369  15.1683528  32.0595546  55.7425689  14.2299529  32.2455229
  56.3849993  15.2467565  31.3261371  55.9243858  11.9594571  32.1053829
  55.4082906  11.1753028  31.9183758  56.8083806  11.6313288  32.2700348
  53.5854585   5.7035587  28.0649641  53.3879406   5.3950675  28.9492973
  54.1954290   6.4297226  28.1947571  61.5925919  16.2299535  31.2001582
  62.3229308  15.9684823  31.7609286  60.9832865  15.4928257  31.2403650
  59.6741216  14.3707397  31.7976034  58.9474380  14.2363362  31.1892525
  59.2588503  14.6784226  32.6032752  47.4971393  18.0897327  39.5623407
  48.4174402  18.2675926  39.7563453  47.4620976  17.1453372  39.4103106
  40.4933465  15.9998362  32.2046188  40.7119475  16.9315469  32.2234222
  40.9059239  15.6406336  32.9900992  45.3661331  11.5731567  41.5948937
  45.2658057  12.5225924  41.5261028  45.1482873  11.2449806  40.7225007
  36.5841818  16.9038832  30.4569803  35.8905289  16.4892785  29.9439757
  37.3314809  16.9459369  29.8603222  45.2292601  15.0028706  40.4113998
  44.7459682  15.8029066  40.6177887  45.3153540  15.0136651  39.4581442
  41.1565938  18.8933241  32.4482432  42.1109192  18.8617183  32.3812364
  40.9578462  18.4323865  33.2632658  41.7465320  17.4634357  35.0153230
  42.5658209  17.9578436  35.0388067  42.0202128  16.5466325  34.9870797
  54.8546453   9.8791630  28.0935525  55.6306843  10.3688083  28.3660141
  54.1294587  10.3049684  28.5507394  57.2919011  10.5919249  29.1509465
  57.8863502  10.3514985  28.4402773  57.3645595   9.8726380  29.7783002
  39.5116167  24.4352860  29.4652630  39.3770635  23.6753261  28.8990628
  39.0948229  25.1593760  28.9981419  51.4772940  15.3699645  24.5931476
  51.4208142  15.8268197  23.7539108  52.0301283  14.6090330  24.4154318
  55.2877746  11.1589377  25.4181595  55.0314680  10.7586013  26.2489803
  54.6630614  11.8733171  25.2931734  59.5990084  13.8985450  27.9252886
  59.0389642  13.9678640  28.6984448  58.9933587  13.7226435  27.2052383
  42.6685293  25.3322177  29.6771073  42.5517677  26.2767610  29.5749763
  41.8477739  25.0295739  30.0656872  52.5561827  20.0572313  20.5227665
  53.3907431  19.6253512  20.3405140  52.3946170  19.8854327  21.4504560
  37.0000234  11.7972491  35.7145427  37.6459098  11.2871445  36.2032652
  36.7917386  12.5341172  36.2888852  49.5253627  18.8653338  41.2137567
  50.3944786  19.0393991  40.8524202  49.0460378  19.6847755  41.0913297
  43.6939807  25.9850439  32.8927001  44.5967054  26.0174050  33.2093496
  43.4677177  25.0550890  32.9073337  45.4493409  24.7381426  29.5537080
  44.4989040  24.7383287  29.4401452  45.7525895  23.9914160  29.0373114
  41.3397725   8.9440108  39.8120441  42.2029187   8.5876913  40.0223766
  40.7663136   8.6054003  40.4995845  61.1846102  30.5741964  30.6182842
  61.8224512  30.4548712  29.9146182  61.0666945  31.5222808  30.6770794
  57.9935809  30.5269392  30.5544367  57.6554320  30.4110457  29.6664902
  58.8625577  30.1260557  30.5345373  53.8522624  32.3804869  26.5441258
  53.2887489  32.2894806  25.7757546  53.7375019  31.5604773  27.0243750
  58.4755592  31.6804244  36.5130572  58.4644232  31.2857042  35.6411076
  58.6376231  30.9470317  37.1064344  51.3987056  33.8756060  29.3825478
  52.1908348  33.5346885  28.9671778  51.6383706  33.9851035  30.3027632
  59.4322183  36.0475836  21.8555723  58.7810163  36.6329917  21.4689736
  60.2266546  36.5782031  21.9150760  53.3577810  33.1364974  22.2542857
  54.1308686  32.5893961  22.1155733  53.7103209  34.0009223  22.4657318
  55.1962853  34.4641356  35.4609756  54.9052719  35.3686987  35.3456423
  55.8319837  34.5057883  36.1753826  56.1219060  31.8418204  32.0511116
  56.7182632  31.6174227  31.3368079  56.1794031  31.1002950  32.6536564
  55.6944088  29.2957640  19.8861307  55.9469609  28.7739161  19.1244770
  54.7568647  29.1323785  19.9887991  60.7387371  28.2993418  27.6936050
  61.5250460  27.8812841  27.3426467  61.0026075  29.2039510  27.8617699
  60.9097448  33.7366268  22.3924707  60.2743281  33.8100895  23.1045612
  60.5794855  34.3259867  21.7143786  66.1395798  28.2368651  28.5969029
  66.8720970  27.6667868  28.8306858  65.3835154  27.8490252  29.0375534
  55.4140377  31.1985746  22.0885682  55.2976635  30.5230649  22.7566766
  55.5242637  30.7118120  21.2717835  57.7571918  30.6595893  25.7932371
  57.3930125  30.1326514  26.5045293  58.6139034  30.2694362  25.6198857
  63.6621218  21.9490225  33.0563637  63.3304543  22.8185636  32.8324852
  63.0666832  21.6326509  33.7357668  57.3977405  25.6885792  20.7893720
  57.5651807  26.5566029  21.1564191  57.2074574  25.8513074  19.8655009
  60.1552738  34.1502771  32.4559550  59.8553461  35.0527810  32.3475357
  59.8103797  33.8834955  33.3080703  53.6065219  30.6016568  28.4896254
  52.6815716  30.4692782  28.6973946  53.8549633  31.3810787  28.9866197
  63.5549882  26.6685312  30.1356987  62.6466759  26.6000720  29.8415748
  63.5037477  27.1457257  30.9638813  57.3766626  28.1443450  21.7740386
  57.2566251  28.5900501  22.6125867  56.6819214  28.4928768  21.2153925
  50.9674030  30.2449842  29.3240044  51.0966412  30.4984321  30.2379455
  50.2871482  30.8377550  29.0044699  55.1373518  40.9147092  25.4230518
  55.0597547  41.8654917  25.5018998  54.5335161  40.5692964  26.0805444
  57.6290747  28.0874957  38.0791885  56.8524082  28.6468877  38.0694749
  58.2681310  28.5731740  38.6006755  65.4211528  24.8701750  31.9134861
  64.7785908  25.1634283  31.2674656  64.9166457  24.7554670  32.7188058
  63.0751692  28.6164923  22.6020721  63.9869548  28.8492310  22.4268418
  62.5661339  29.2001967  22.0395799  55.8837120  30.8960411  37.6409852
  56.6251804  31.4345454  37.3644675  55.1774105  31.5226699  37.7981403
  61.3592459  33.0389551  36.2382013  61.7675815  32.5971962  35.4936645
  60.6369721  32.4642179  36.4916206  57.7123529  27.9762158  33.6115570
  58.5584725  28.4001571  33.7550219  57.6522167  27.3195782  34.3054133
  61.6821274  33.5990742  29.9934302  61.0530136  33.7636456  29.2910370
  61.2946936  34.0132351  30.7645266  65.5610506  34.5345179  27.3478666
  64.8761544  34.9144081  26.7975699  65.6454355  35.1440506  28.0810614
  60.8622975  25.6366526  35.2696744  60.6183907  26.3908587  34.7331019
  61.1382905  26.0151874  36.1043991  62.8161438  32.1805138  33.9474009
  63.0278333  32.8236898  33.2708390  62.7691186  31.3467455  33.4795939
  60.4187666  24.7922959  30.8510581  59.5572146  25.0904213  31.1427319
  60.4450101  25.0093358  29.9191614  57.2349236  33.3365150  27.2584387
  57.6987581  33.6152853  26.4689010  56.9706034  32.4348594  27.0757478
  54.1273317  32.8836631  30.1964150  54.6974674  33.3123900  29.5581635
  54.7181429  32.6019216  30.8948336  56.1718122  29.4588302  24.0673952
  56.8742165  29.9109346  24.5347879  55.8398750  28.8172121  24.6953845
  54.6198483  28.0500059  38.4425162  53.9897144  28.7316340  38.6760558
  54.5134571  27.9383140  37.4978300  49.9143456  27.7171855  29.3691086
  49.1242510  27.9729383  28.8931196  50.4054703  28.5320193  29.4743126
  63.9307265  35.0577094  32.1196367  64.7524709  34.6557281  31.8379048
  63.9269668  34.9545328  33.0712482  51.8658201  28.0816434  26.3274563
  51.0689365  28.1935128  26.8458058  51.6383794  28.4203086  25.4615453
  57.6963869  34.6061137  34.2757077  57.7608301  35.0681544  35.1115249
  56.9874793  33.9758502  34.4039387  48.1981159  27.9702345  31.8006077
  48.4489197  28.8549355  32.0663653  48.7340707  27.7906947  31.0281168
  72.0213259  31.4015842  28.4681338  71.2676967  30.8323240  28.3125343
  72.1560800  31.3678507  29.4151973  57.4111887  36.2729245  24.1436057
  57.2757561  37.1180780  24.5720905  57.9521699  36.4748522  23.3801991
  53.8979226  22.3520825  40.8050413  53.5046172  21.7987023  41.4798057
  54.7145367  22.6631403  41.1956930  50.8641284  33.7904683  24.7163983
  51.3765805  34.5847933  24.8669547  51.5163997  33.0930973  24.6497584
  52.6736169  36.9070439  26.7986736  52.8502797  37.8288404  26.6107720
  53.4693002  36.5928858  27.2281116  56.8147187  23.7678704  38.3970669
  57.5556901  24.3685857  38.3175132  57.0465110  23.0256341  37.8388712
  51.9588525  28.9535071  36.6748899  51.8442040  28.0520328  36.9755998
  51.1033043  29.1998768  36.3233715  59.0380363  36.8952811  38.2736400
  58.5944217  36.1089190  37.9557304  59.6997577  37.0831962  37.6080290
  53.7967484  38.4248613  32.7997078  54.3474909  38.2965676  32.0274072
  52.9578960  38.7243502  32.4491971  61.1361601  37.1755611  36.3017801
  61.1180076  37.9964492  35.8098070  62.0581521  37.0509686  36.5267942
  57.5934655  34.6899741  37.1441309  58.1262992  33.9288029  36.9140617
  57.0648736  34.3973392  37.8865464  60.7604350  19.7959807  32.6734951
  60.4168620  20.6861448  32.5974062  61.1283313  19.6061464  31.8104536
  48.8290201  32.1193337  25.4923553  49.6665423  32.5290345  25.2757261
  49.0068468  31.1792779  25.4623747  60.7254633  29.7868418  21.1807386
  60.2101256  30.5573022  21.4195773  60.4531941  29.1133554  21.8040447
  58.3101744  24.6318118  26.2392624  57.4543340  24.2424969  26.0598263
  58.7228696  24.7110079  25.3792410  59.8400891  22.1664462  30.6384184
  59.3365686  22.1294597  29.8251989  60.1331497  23.0757204  30.6980841
  56.0843776  22.2503191  29.6450366  56.9496773  22.0546000  29.2856255
  56.1521285  22.0213543  30.5719723  65.6988907  32.5400772  23.1160560
  64.9218350  32.2011932  22.6715722  66.3780388  32.5453395  22.4415525
  60.5140936  27.6595510  23.0067167  60.2091072  27.9741659  23.8577310
  61.4671378  27.7376930  23.0494500  58.9587368  33.8185733  24.6560121
  58.4308729  33.0838493  24.3433359  58.4574871  34.5960409  24.4100090
  63.9380214  32.0134754  29.7727168  63.2803888  32.7034015  29.8607296
  64.7420613  32.4031186  30.1161154  53.6906096  24.4805399  27.0166733
  54.2649847  24.2580581  26.2839926  54.2777078  24.5494094  27.7695334
  62.7485673  30.3679126  27.8231109  63.2617554  31.0009118  28.3252819
  63.3986897  29.7680322  27.4574469  54.0175683  26.5109860  21.0362618
  53.1812995  26.8484547  21.3571893  53.8780452  26.3758840  20.0989755
  55.9928763  21.3546648  25.7441802  55.3393176  21.0395665  25.1198417
  55.9509237  20.7322389  26.4701625  57.1039968  31.6365943  17.6595094
  56.1967030  31.4055197  17.8586243  57.6011000  30.8403563  17.8469076
  60.0108047  40.3463451  20.5791780  59.3369746  40.6495147  21.1876738
  60.3973869  41.1492531  20.2297237  59.2266504  27.8428582  30.0689450
  58.3089065  28.0643529  29.9111138  59.6426647  27.9174892  29.2101157
  60.0101551  29.2419998  25.1992130  60.7573370  29.7541395  24.8899252
  60.2793141  28.9204050  26.0596524  58.2828202  31.7378538  22.1819084
  57.3739421  31.4537571  22.2791554  58.3123285  32.1577617  21.3222391
  63.5147469  35.3485128  25.9510252  63.0609796  34.5076038  26.0075442
  62.8841436  35.9846526  26.2885032  62.4580388  26.2777114  27.1810919
  61.7203145  25.7654500  27.5121162  62.7107162  25.8377495  26.3694196
  61.9580408  37.1861624  26.8860070  62.2503383  37.7466682  26.1672436
  62.4679029  37.4790185  27.6413229  62.5592016  19.0553366  27.7752689
  62.8650893  18.1950729  27.4878604  63.2844621  19.6470986  27.5751683
  48.8516372  29.4584052  26.1634287  48.6540772  28.8653413  25.4385353
  48.2963036  29.1536263  26.8810225  56.8313096  29.3507159  28.2828880
  56.8861705  28.3980995  28.2071356  56.0204298  29.5066598  28.7670178
  57.9804289  33.2787282  19.5207163  57.5423719  32.5623141  19.0612800
  58.7214730  33.5063397  18.9592254  54.7705455  27.9684219  26.0419259
  53.9573321  28.2678389  26.4484451  55.2664450  27.5739907  26.7593741
  56.9214033  37.9641976  27.9753523  56.8790212  38.1902822  27.0462055
  57.8376732  37.7305350  28.1239324  60.3679667  28.4326043  34.8734152
  60.7229055  28.6597516  35.7328618  61.0151798  28.7644420  34.2511408
  66.0977404  31.5544479  25.5783481  65.9595303  31.7446075  24.6504671
  65.7413623  32.3163862  26.0351533  54.2619530  25.5402574  31.6580493
  54.9018910  25.3991333  30.9603457  53.4297061  25.2537087  31.2819095
  66.1246784  33.6221006  30.5894753  66.5583290  33.5296295  31.4377807
  66.8378364  33.5978506  29.9514769  55.0379834  34.8405005  27.7715486
  55.8320433  34.3455325  27.5698061  54.3271527  34.3122868  27.4083192
  59.8574679  37.2223100  32.1227854  59.9111701  37.7914036  32.8905569
  58.9889460  37.3924985  31.7581891  51.3462598  28.9848086  23.8475239
  50.4160186  28.9232542  24.0645201  51.4420070  28.4624039  23.0511880
  51.2648147  25.5102899  26.4353480  51.5254964  26.4248232  26.3262641
  52.0865319  25.0427342  26.5850093  52.7373072  26.9240656  33.6052305
  53.4096125  26.7158018  32.9564954  51.9102859  26.7262742  33.1657537
  66.9862333  33.6644707  33.1227638  67.1798223  34.5690517  33.3686913
  66.8862951  33.2052126  33.9566223  58.6398644  23.5502597  35.6217966
  57.9926559  24.2492547  35.5282442  59.4099659  23.9838741  35.9894214
  62.0477442  33.8151449  38.6968519  61.8962948  33.5862001  37.7798603
  62.0382121  34.7722051  38.7099864  58.8162778  31.3883362  33.6814785
  59.7454838  31.5394522  33.5083753  58.3953808  31.4767383  32.8263432
  57.6151110  35.4134027  31.4513323  57.4762196  35.0452811  32.3239261
  56.8265706  35.9281666  31.2797281  58.2099262  40.5143123  22.7938860
  58.3851018  40.0431166  23.6084482  57.5232050  41.1408889  23.0220120
  59.1656325  34.7915629  28.8402161  58.8306158  34.7516399  29.7359811
  58.6660271  34.1260345  28.3672571  53.1400569  30.1983259  34.3654742
  53.0020367  29.4663498  34.9666281  54.0505493  30.1092159  34.0838930
  62.1015517  32.1371664  19.1139220  61.4844688  31.4118492  19.0172273
  61.6332005  32.8981024  18.7706295  55.7682870  29.9103219  33.8538422
  56.4782488  29.2696411  33.8125040  55.7252178  30.1616113  34.7764602
  63.7569649  36.8470572  36.7745001  63.6982195  36.1629792  36.1075584
  64.1589167  37.5889562  36.3225627  54.4811804  26.8968436  35.6734061
  53.9449161  26.4459175  36.3255657  53.8928512  27.0314345  34.9304525
  52.7760347  43.6632486  29.5678720  53.0156946  44.2951010  30.2457738
  51.9329544  43.3120526  29.8544079  53.8914063  26.3557088  18.2360525
  53.0143529  26.2345889  17.8722771  54.3671816  25.5643166  17.9839413
  63.7587056  34.8110156  35.0058981  62.8713835  34.4736078  35.1285379
  64.3285607  34.0793187  35.2427746  45.4116203  31.1434248  28.3302032
  46.0987243  30.8295978  27.7423047  45.2564332  32.0475612  28.0569283
  50.2150925  26.0324444  32.7587056  50.1309114  25.4250114  32.0237466
  49.3933632  26.5233462  32.7596552  57.2888209  39.4711608  31.9720224
  57.2158381  40.2766580  32.4839528  56.8465602  39.6703574  31.1468245
  57.0777989  38.7083378  25.4823045  56.2945511  39.2505058  25.5761270
  57.7770734  39.2257358  25.8817286  60.3874639  24.5178008  28.1257251
  60.8843339  23.7647970  27.8058321  59.6161620  24.5542324  27.5600460
  68.2404396  30.2218373  29.7675542  68.2294273  31.1043089  29.3969475
  67.3721776  29.8689924  29.5730079  59.7486893  39.3698442  34.1278382
  60.4614865  40.0045907  34.0554284  59.2576921  39.4662308  33.3118384
  61.4704420  33.2749695  25.6995674  60.5360698  33.3951157  25.5300378
  61.6481088  32.3722162  25.4355684  56.9709608  26.6595391  27.8528935
  56.6007395  26.1066431  28.5409841  57.4668700  26.0553524  27.3003935
  64.8576971  29.1167014  26.2345708  65.3237423  29.9495006  26.1606011
  65.3084472  28.6511996  26.9390967  54.7998806  37.1192886  34.9483953
  55.5008266  37.7529369  35.1013347  54.3293921  37.4607617  34.1879592
  62.9253202  35.4610835  23.2331860  63.2013046  35.3467430  24.1425734
  62.0557701  35.0628320  23.1944033  62.8293634  21.4847601  30.2736610
  61.9156714  21.7151828  30.4418816  63.2586735  21.5686045  31.1250642
  62.6000092  29.6737493  32.7736504  61.9471543  29.9213401  32.1188956
  62.9780472  28.8601631  32.4398981  59.5607266  39.7097186  26.8764674
  59.7429661  38.8918842  27.3392426  60.3840252  39.9264879  26.4389564
  59.8949432  38.6365371  24.1379722  60.4237198  38.1257826  23.5249884
  60.1577651  38.3207902  25.0025255  58.6487665  30.4157304  39.2602541
  57.9728302  30.3151434  39.9304916  59.4715299  30.2596518  39.7238538
  50.3966524  36.6529241  31.8815056  50.9819961  35.9072929  32.0142960
  50.1991363  36.9633197  32.7651720  53.2505180  39.6880488  26.8977498
  52.5815555  40.1726616  26.4141538  53.1118049  39.9349709  27.8120877
  44.9884179  29.2234841  30.6019499  45.0268279  28.6898432  31.3956617
  44.4824472  28.6970046  29.9830476  57.3910448  41.7224232  33.4960157
  57.9428756  41.8855853  34.2609242  57.7316642  42.3128669  32.8240181
  52.3674941  24.0699381  34.0982041  52.4316268  24.9314212  33.6859439
  52.3042062  23.4573383  33.3654400  51.8427214  26.1422514  37.7455076
  52.4699253  25.7599591  38.3592600  50.9855133  25.9236716  38.1110768
  62.2421322  36.5485489  39.3508811  62.7861226  37.1615447  38.8563766
  61.6608167  37.1065068  39.8675824  48.6192757  27.9498943  23.6773430
  48.9146198  27.0409622  23.6240484  47.7180792  27.9286683  23.3554433
  60.5278835  39.6706207  30.4823839  60.4029975  38.8695947  29.9734784
  61.1857927  40.1652401  29.9937809  52.1487004  26.0254940  29.6600979
  51.4273589  26.6390907  29.5208452  52.9380259  26.5612704  29.5817625
  62.5913744  37.4715227  32.1103389  61.6444079  37.3520578  32.0381716
  62.9396517  36.5837725  32.1929650  54.9513317  23.3609366  35.9341631
  55.4747719  23.6071663  36.6967940  54.7325650  24.1929401  35.5144768
  50.3480598  25.6313041  23.8012756  50.0193304  24.7510420  23.6187861
  50.7019969  25.5760709  24.6889145  59.5960177  37.2667943  28.3107741
  59.4485140  36.3384651  28.4915311  60.4213671  37.2888034  27.8264816
  53.4622421  25.9186011  24.1688233  53.8018494  26.4471932  23.4466842
  53.9094542  26.2566417  24.9446800  63.1994299  38.0896502  29.3972614
  64.1240846  37.8839364  29.2597065  63.0309602  37.8412903  30.3061955
  56.1565862  24.3023061  33.6191301  55.8162683  23.5030874  34.0211981
  55.4504869  24.6024772  33.0468134  56.8082334  21.3872374  32.0718624
  57.6308403  20.9132852  31.9497515  57.0520398  22.1662857  32.5717311
  55.4490569  24.4160632  22.3681526  56.1698931  24.7941885  21.8645243
  54.8255873  25.1349509  22.4716504  59.5921691  25.1205781  23.3039858
  59.8085306  26.0030419  23.0028686  59.1115759  24.7291995  22.5745500
  54.3320913  28.0791494  29.8810603  54.1865494  28.3931797  30.7734884
  53.8546116  28.6976395  29.3281502  56.1917296  25.0694042  29.9291492
  56.1778864  24.1735136  29.5923790  56.9089724  25.0764706  30.5629779
  58.0443426  25.5031383  31.9744620  57.7861204  26.4248453  31.9728950
  57.5128467  25.1061817  32.6645084  62.9889615  38.6082170  24.7534705
  63.1626493  38.0428592  24.0008558  63.4818506  39.4083065  24.5714195
  48.8066575  30.6196839  32.8198264  48.2620043  31.3956647  32.9518538
  49.6845925  30.9667643  32.6617386  55.5954192  23.9508423  25.1979063
  55.7170103  23.0225069  25.3969950  55.3056234  23.9647109  24.2857378
  58.4645382  21.6363333  28.3345782  58.4867079  21.7002666  27.3797762
  58.8813441  20.7967842  28.5286289  68.8429006  31.3718593  26.3725005
  69.2860152  30.6225918  25.9744128  67.9655517  31.3628729  25.9898737
  63.9764788  37.9248934  21.8531604  64.6715692  38.5455627  22.0718918
  64.3187938  37.0744285  22.1283981  49.5932597  29.7466735  35.7128421
  48.8514333  29.8949370  36.2993051  49.2725341  30.0075001  34.8495170
  65.8756211  35.3748640  23.3818934  66.4007535  35.7135912  22.6568254
  65.7878563  34.4395655  23.1982069  57.5376259  39.2882713  35.5108811
  57.8463386  39.0431860  36.3831511  58.3351742  39.4929352  35.0227681
  57.5596872  41.4420623  27.7414188  57.1201862  40.9497002  28.4347044
  58.3104988  40.8993591  27.5006263  50.0389211  37.6332164  27.7438816
  50.8647230  37.3335936  27.3637459  49.6883263  36.8639786  28.1928604
  55.0070744  36.9858632  29.8136489  54.3850753  36.3229337  29.5138717
  55.6775611  37.0119764  29.1310137  48.2397816  35.5518490  28.7027749
  47.4029724  35.1240665  28.5211750  48.2121461  35.7450934  29.6398540
  55.0795271  25.4640420  39.4068995  55.1283427  26.3402543  39.0246765
  55.6217785  24.9217813  38.8340638  65.5650117  36.0081543  38.6870132
  64.7745661  35.9905682  38.1474632  65.3283471  36.5469837  39.4419169
  65.6847992  32.8574010  36.0002861  65.7345997  32.6924017  36.9418384
  65.5761915  31.9901269  35.6100742  54.5684251  35.5362555  23.2894950
  54.7172371  36.2198020  22.6361622  55.3750694  35.5167645  23.8044405
  62.9751754  28.8404938  37.3162168  63.8761617  28.7011402  37.0246165
  63.0499729  29.0059392  38.2560345  57.3094560  26.2171792  36.1615354
  56.4397869  26.5105358  35.8897942  57.5454040  26.8012237  36.8822618
  67.1866189  35.2770951  36.2444882  66.8950997  35.6400932  37.0808343
  66.5738320  34.5637959  36.0658214  68.3861871  32.8423831  28.7647453
  69.2208762  33.2813635  28.9285013  68.5221000  32.3662484  27.9455698
  65.4353377  30.4003566  34.7124940  65.9107499  30.5931212  33.9043792
  64.5118942  30.4562752  34.4668324  52.3236884  31.5627733  24.2956019
  52.0782926  30.6590063  24.4936229  52.4932798  31.5644883  23.3535497
  60.0133593  22.4351409  33.6780774  60.5315537  23.1712436  33.3527263
  59.6588726  22.7415403  34.5127533  51.5932531  27.2956091  21.7942180
  50.9001776  27.3700445  21.1382216  51.3484283  26.5316434  22.3163697
  60.2646188  18.8551692  29.1981671  60.5447941  18.1874881  29.8242097
  61.0496795  19.0480787  28.6856335  58.0679656  38.0310686  20.7606697
  57.4953623  38.6500873  20.3077169  58.6412450  38.5810047  21.2946619
  64.1355046  27.2769326  32.9453246  65.0872469  27.3767423  32.9665470
  63.9658496  26.4847594  33.4551330  62.1569425  24.3624909  33.1312647
  61.5619358  24.6429922  32.4359136  61.8719122  24.8518810  33.9029388
  61.2876916  38.3147836  21.8915279  62.2207589  38.2493398  22.0948155
  61.2000129  39.1504103  21.4329812  63.9164933  37.6313706  18.8519227
  63.8378564  37.2973570  19.7454985  64.7374599  38.1235474  18.8510699
  66.6143124  30.4975446  32.0595546  66.5819444  29.5591446  32.2455229
  67.2243747  30.5759482  31.3261371  58.4526455  29.3671498  18.1022750
  59.3985559  29.2377707  18.1711168  58.0740700  28.6286160  18.5792178
  66.7637612  27.2886489  32.1053829  66.2476661  26.5044946  31.9183758
  67.6477561  26.9605206  32.2700348  64.4248339  21.0327505  28.0649641
  64.2273160  20.7242593  28.9492973  65.0348045  21.7589143  28.1947571
  72.4319674  31.5591452  31.2001582  73.1623062  31.2976740  31.7609286
  71.8226619  30.8220174  31.2403650  70.5134971  29.6999315  31.7976034
  69.7868134  29.5655280  31.1892525  70.0982258  30.0076144  32.6032752
  58.3365147  33.4189245  39.5623407  59.2568157  33.5967844  39.7563453
  58.3014730  32.4745290  39.4103106  56.6369372  27.2921475  18.0377635
  55.7300827  26.9954588  18.1140348  56.9145353  26.9951293  17.1711921
  47.5547312  28.6127838  28.4876681  47.2350097  27.7593146  28.1951055
  47.0080740  28.8276416  29.2434649  51.3327220  31.3290279  32.2046188
  51.5513229  32.2607387  32.2234222  51.7452994  30.9698254  32.9900992
  58.2531438  21.8358365  24.1921876  57.4432166  21.4905450  24.5677122
  58.9415854  21.5265908  24.7809488  60.1821986  20.9136411  25.8146173
  60.7353024  21.3331865  26.4736196  60.4192072  19.9872160  25.8569129
  56.2055085  26.9023485  41.5948937  56.1051812  27.8517842  41.5261028
  55.9876627  26.5741724  40.7225007  55.4068156  24.1508410  18.1789614
  56.2687320  24.4763308  18.4385431  55.5918501  23.3639906  17.6662680
  47.4235572  32.2330750  30.4569803  46.7299044  31.8184703  29.9439757
  48.1708563  32.2751286  29.8603222  63.5600793  23.0236937  25.3224837
  62.9799462  23.6821741  24.9402890  63.2936726  22.2014281  24.9112255
  62.0104359  22.4241994  27.5246157  62.5104138  22.5358529  26.7160476
  62.6539967  22.1203047  28.1646966  56.0686355  30.3320624  40.4113998
  55.5853437  31.1320984  40.6177887  56.1547294  30.3428569  39.4581442
  49.3372315  32.1649004  28.3335818  49.3143003  32.2636691  27.3817701
  49.6472951  33.0114154  28.6552984  51.9959693  34.2225159  32.4482432
  52.9502946  34.1909101  32.3812364  51.7972216  33.7615782  33.2632658
  52.5859075  32.7926275  35.0153230  53.4051964  33.2870353  35.0388067
  52.8595882  31.8758243  34.9870797  62.3425671  25.1837027  24.3781185
  61.4551526  25.4686678  24.1601380  62.7579660  25.0230790  23.5308462
  65.6940207  25.2083548  28.0935525  66.4700597  25.6980000  28.3660141
  64.9688341  25.6341602  28.5507394  68.1312766  25.9211167  29.1509465
  68.7257256  25.6806903  28.4402773  68.2039349  25.2018298  29.7783002
  50.3509921  39.7644778  29.4652630  50.2164389  39.0045179  28.8990628
  49.9341984  40.4885678  28.9981419  61.4868884  34.9481702  18.4729205
  62.1904734  35.1531704  19.0886861  60.7631533  35.5158464  18.7378289
  62.3166695  30.6991563  24.5931476  62.2601896  31.1560114  23.7539108
  62.8695037  29.9382247  24.4154318  66.1271501  26.4881295  25.4181595
  65.8708435  26.0877930  26.2489803  65.5024369  27.2025089  25.2931734
  70.4383838  29.2277368  27.9252886  69.8783396  29.2970557  28.6984448
  69.8327342  29.0518353  27.2052383  53.5079047  40.6614095  29.6771073
  53.3911431  41.6059528  29.5749763  52.6871493  40.3587657  30.0656872
  63.3955582  35.3864231  20.5227665  64.2301186  34.9545429  20.3405140
  63.2339925  35.2146245  21.4504560  63.0501474  31.8896344  21.8884005
  62.9950278  31.7240616  20.9472449  62.4247529  32.5972377  22.0446194
  47.8393989  27.1264409  35.7145427  48.4852853  26.6163362  36.2032652
  47.6311140  27.8633090  36.2888852  60.3647381  34.1945256  41.2137567
  61.2338541  34.3685908  40.8524202  59.8854133  35.0139673  41.0913297
  56.3597599  21.3904453  21.4669323  56.3476269  22.3346293  21.6237594
  57.2521021  21.2074599  21.1728784  54.5333561  41.3142357  32.8927001
  55.4360808  41.3465967  33.2093496  54.3070931  40.3842808  32.9073337
  56.2887163  40.0673344  29.5537080  55.3382794  40.0675205  29.4401452
  56.5919650  39.3206078  29.0373114  60.1749719  17.9847230  25.7215260
  59.4082115  17.4305716  25.8671942  60.5860424  18.0569099  26.5829412
  52.1791480  24.2732026  39.8120441  53.0422941  23.9168830  40.0223766
  51.6056891  23.9345920  40.4995845  72.0239857  45.9033882  30.6182842
  72.6618267  45.7840629  29.9146182  71.9060700  46.8514726  30.6770794
  68.8329563  45.8561310  30.5544367  68.4948075  45.7402375  29.6664902
  69.7019331  45.4552475  30.5345373  64.6916379  47.7096786  26.5441258
  64.1281244  47.6186723  25.7757546  64.5768774  46.8896691  27.0243750
  69.3149346  47.0096162  36.5130572  69.3037987  46.6148960  35.6411076
  69.4769986  46.2762234  37.1064344  62.2380811  49.2047978  29.3825478
  63.0302103  48.8638803  28.9671778  62.4777461  49.3142953  30.3027632
  70.2715938  51.3767754  21.8555723  69.6203917  51.9621835  21.4689736
  71.0660300  51.9073949  21.9150760  64.1971565  48.4656891  22.2542857
  64.9702441  47.9185878  22.1155733  64.5496964  49.3301141  22.4657318
  66.0356607  49.7933274  35.4609756  65.7446473  50.6978904  35.3456423
  66.6713592  49.8349801  36.1753826  66.9612814  47.1710122  32.0511116
  67.5576386  46.9466144  31.3368079  67.0187786  46.4294868  32.6536564
  66.5337843  44.6249557  19.8861307  66.7863363  44.1031079  19.1244770
  65.5962402  44.4615703  19.9887991  71.5781125  43.6285336  27.6936050
  72.3644215  43.2104759  27.3426467  71.8419830  44.5331428  27.8617699
  71.7491203  49.0658186  22.3924707  71.1137036  49.1392813  23.1045612
  71.4188609  49.6551785  21.7143786  76.9789552  43.5660569  28.5969029
  77.7114724  42.9959786  28.8306858  76.2228908  43.1782169  29.0375534
  66.2534131  46.5277663  22.0885682  66.1370389  45.8522567  22.7566766
  66.3636391  46.0410037  21.2717835  68.5965672  45.9887810  25.7932371
  68.2323879  45.4618431  26.5045293  69.4532788  45.5986280  25.6198857
  74.5014973  37.2782143  33.0563637  74.1698298  38.1477554  32.8324852
  73.9060586  36.9618427  33.7357668  68.2371159  41.0177710  20.7893720
  68.4045562  41.8857947  21.1564191  68.0468328  41.1804992  19.8655009
  70.9946492  49.4794689  32.4559550  70.6947215  50.3819728  32.3475357
  70.6497552  49.2126872  33.3080703  64.4458974  45.9308486  28.4896254
  63.5209470  45.7984700  28.6973946  64.6943387  46.7102705  28.9866197
  74.3943636  41.9977229  30.1356987  73.4860513  41.9292638  29.8415748
  74.3431232  42.4749174  30.9638813  68.2160380  43.4735368  21.7740386
  68.0960005  43.9192418  22.6125867  67.5212968  43.8220685  21.2153925
  61.8067785  45.5741759  29.3240044  61.9360166  45.8276238  30.2379455
  61.1265236  46.1669467  29.0044699  65.9767272  56.2439009  25.4230518
  65.8991302  57.1946835  25.5018998  65.3728916  55.8984882  26.0805444
  68.4684502  43.4166875  38.0791885  67.6917836  43.9760795  38.0694749
  69.1075065  43.9023658  38.6006755  76.2605283  40.1993668  31.9134861
  75.6179663  40.4926201  31.2674656  75.7560211  40.0846588  32.7188058
  73.9145446  43.9456841  22.6020721  74.8263302  44.1784228  22.4268418
  73.4055093  44.5293885  22.0395799  66.7230874  46.2252328  37.6409852
  67.4645559  46.7637372  37.3644675  66.0167860  46.8518617  37.7981403
  72.1986214  48.3681469  36.2382013  72.6069570  47.9263879  35.4936645
  71.4763475  47.7934096  36.4916206  68.5517284  43.3054075  33.6115570
  69.3978479  43.7293489  33.7550219  68.4915922  42.6487700  34.3054133
  72.5215029  48.9282659  29.9934302  71.8923891  49.0928373  29.2910370
  72.1340691  49.3424269  30.7645266  76.4004260  49.8637097  27.3478666
  75.7155299  50.2435999  26.7975699  76.4848110  50.4732424  28.0810614
  71.7016729  40.9658444  35.2696744  71.4577661  41.7200504  34.7331019
  71.9776660  41.3443791  36.1043991  73.6555192  47.5097056  33.9474009
  73.8672087  48.1528816  33.2708390  73.6084940  46.6759373  33.4795939
  71.2581421  40.1214877  30.8510581  70.3965900  40.4196130  31.1427319
  71.2843856  40.3385276  29.9191614  68.0742990  48.6657067  27.2584387
  68.5381336  48.9444770  26.4689010  67.8099789  47.7640512  27.0757478
  64.9667071  48.2128549  30.1964150  65.5368429  48.6415817  29.5581635
  65.5575183  47.9311134  30.8948336  67.0111876  44.7880220  24.0673952
  67.7135920  45.2401263  24.5347879  66.6792505  44.1464039  24.6953845
  65.4592238  43.3791976  38.4425162  64.8290899  44.0608257  38.6760558
  65.3528326  43.2675058  37.4978300  60.7537210  43.0463772  29.3691086
  59.9636264  43.3021301  28.8931196  61.2448458  43.8612110  29.4743126
  74.7701020  50.3869012  32.1196367  75.5918464  49.9849199  31.8379048
  74.7663423  50.2837246  33.0712482  62.7051956  43.4108352  26.3274563
  61.9083119  43.5227046  26.8458058  62.4777548  43.7495004  25.4615453
  68.5357623  49.9353055  34.2757077  68.6002056  50.3973462  35.1115249
  67.8268547  49.3050420  34.4039387  59.0374913  43.2994263  31.8006077
  59.2882952  44.1841273  32.0663653  59.5734462  43.1198864  31.0281168
  82.8607013  46.7307760  28.4681338  82.1070721  46.1615158  28.3125343
  82.9954554  46.6970425  29.4151973  68.2505641  51.6021162  24.1436057
  68.1151316  52.4472698  24.5720905  68.7915454  51.8040440  23.3801991
  64.7372981  37.6812742  40.8050413  64.3439926  37.1278941  41.4798057
  65.5539121  37.9923321  41.1956930  61.7035038  49.1196600  24.7163983
  62.2159559  49.9139851  24.8669547  62.3557751  48.4222891  24.6497584
  63.5129923  52.2362357  26.7986736  63.6896552  53.1580321  26.6107720
  64.3086757  51.9220776  27.2281116  67.6540942  39.0970621  38.3970669
  68.3950655  39.6977774  38.3175132  67.8858865  38.3548259  37.8388712
  62.7982280  44.2826989  36.6748899  62.6835795  43.3812246  36.9755998
  61.9426797  44.5290685  36.3233715  69.8774117  52.2244729  38.2736400
  69.4337972  51.4381107  37.9557304  70.5391331  52.4123879  37.6080290
  64.6361239  53.7540530  32.7997078  65.1868664  53.6257594  32.0274072
  63.7972715  54.0535419  32.4491971  71.9755356  52.5047529  36.3017801
  71.9573831  53.3256410  35.8098070  72.8975276  52.3801604  36.5267942
  68.4328410  50.0191658  37.1441309  68.9656746  49.2579946  36.9140617
  67.9042491  49.7265310  37.8865464  71.5998105  35.1251724  32.6734951
  71.2562374  36.0153366  32.5974062  71.9677067  34.9353382  31.8104536
  59.6683955  47.4485255  25.4923553  60.5059177  47.8582263  25.2757261
  59.8462223  46.5084697  25.4623747  71.5648387  45.1160335  21.1807386
  71.0495011  45.8864940  21.4195773  71.2925696  44.4425472  21.8040447
  69.1495498  39.9610036  26.2392624  68.2937095  39.5716887  26.0598263
  69.5622450  40.0401997  25.3792410  70.6794645  37.4956379  30.6384184
  70.1759441  37.4586515  29.8251989  70.9725252  38.4049122  30.6980841
  66.9237531  37.5795109  29.6450366  67.7890528  37.3837918  29.2856255
  66.9915040  37.3505461  30.5719723  76.5382661  47.8692690  23.1160560
  75.7612104  47.5303850  22.6715722  77.2174142  47.8745313  22.4415525
  71.3534691  42.9887427  23.0067167  71.0484826  43.3033577  23.8577310
  72.3065133  43.0668847  23.0494500  69.7981122  49.1477651  24.6560121
  69.2702484  48.4130410  24.3433359  69.2968625  49.9252327  24.4100090
  74.7773968  47.3426671  29.7727168  74.1197643  48.0325933  29.8607296
  75.5814368  47.7323103  30.1161154  64.5299850  39.8097317  27.0166733
  65.1043602  39.5872499  26.2839926  65.1170832  39.8786012  27.7695334
  73.5879427  45.6971044  27.8231109  74.1011309  46.3301036  28.3252819
  74.2380651  45.0972239  27.4574469  64.8569437  41.8401778  21.0362618
  64.0206749  42.1776465  21.3571893  64.7174207  41.7050758  20.0989755
  66.8322518  36.6838566  25.7441802  66.1786930  36.3687583  25.1198417
  66.7902992  36.0614306  26.4701625  67.9433723  46.9657861  17.6595094
  67.0360784  46.7347114  17.8586243  68.4404755  46.1695480  17.8469076
  70.8501801  55.6755368  20.5791780  70.1763500  55.9787065  21.1876738
  71.2367623  56.4784449  20.2297237  70.0660258  43.1720500  30.0689450
  69.1482819  43.3935447  29.9111138  70.4820402  43.2466810  29.2101157
  70.8495306  44.5711915  25.1992130  71.5967125  45.0833312  24.8899252
  71.1186895  44.2495968  26.0596524  69.1221956  47.0670456  22.1819084
  68.2133175  46.7829489  22.2791554  69.1517040  47.4869534  21.3222391
  74.3541223  50.6777045  25.9510252  73.9003551  49.8367955  26.0075442
  73.7235190  51.3138444  26.2885032  73.2974143  41.6069031  27.1810919
  72.5596900  41.0946418  27.5121162  73.5500917  41.1669413  26.3694196
  72.7974163  52.5153542  26.8860070  73.0897137  53.0758599  26.1672436
  73.3072783  52.8082103  27.6413229  73.3985770  34.3845283  27.7752689
  73.7044647  33.5242647  27.4878604  74.1238375  34.9762904  27.5751683
  59.6910126  44.7875970  26.1634287  59.4934526  44.1945331  25.4385353
  59.1356790  44.4828180  26.8810225  67.6706850  44.6799077  28.2828880
  67.7255460  43.7272913  28.2071356  66.8598052  44.8358516  28.7670178
  68.8198044  48.6079200  19.5207163  68.3817474  47.8915059  19.0612800
  69.5608485  48.8355314  18.9592254  65.6099210  43.2976136  26.0419259
  64.7967075  43.5970307  26.4484451  66.1058204  42.9031825  26.7593741
  67.7607788  53.2933893  27.9753523  67.7183967  53.5194739  27.0462055
  68.6770487  53.0597268  28.1239324  71.2073422  43.7617961  34.8734152
  71.5622809  43.9889434  35.7328618  71.8545553  44.0936338  34.2511408
  76.9371159  46.8836397  25.5783481  76.7989057  47.0737993  24.6504671
  76.5807377  47.6455779  26.0351533  65.1013285  40.8694492  31.6580493
  65.7412664  40.7283251  30.9603457  64.2690815  40.5829005  31.2819095
  76.9640538  48.9512924  30.5894753  77.3977045  48.8588213  31.4377807
  77.6772119  48.9270424  29.9514769  65.8773589  50.1696922  27.7715486
  66.6714187  49.6747242  27.5698061  65.1665281  49.6414785  27.4083192
  70.6968433  52.5515018  32.1227854  70.7505455  53.1205954  32.8905569
  69.8283214  52.7216903  31.7581891  62.1856352  44.3140004  23.8475239
  61.2553940  44.2524459  24.0645201  62.2813824  43.7915957  23.0511880
  62.1041901  40.8394817  26.4353480  62.3648718  41.7540150  26.3262641
  62.9259073  40.3719259  26.5850093  63.5766826  42.2532574  33.6052305
  64.2489880  42.0449936  32.9564954  62.7496613  42.0554660  33.1657537
  77.8256088  48.9936624  33.1227638  78.0191978  49.8982435  33.3686913
  77.7256706  48.5344043  33.9566223  69.4792398  38.8794515  35.6217966
  68.8320314  39.5784465  35.5282442  70.2493414  39.3130659  35.9894214
  72.8871196  49.1443367  38.6968519  72.7356703  48.9153919  37.7798603
  72.8775876  50.1013968  38.7099864  69.6556533  46.7175280  33.6814785
  70.5848593  46.8686439  33.5083753  69.2347563  46.8059301  32.8263432
  68.4544865  50.7425944  31.4513323  68.3155950  50.3744729  32.3239261
  67.6659461  51.2573584  31.2797281  69.0493017  55.8435041  22.7938860
  69.2244772  55.3723084  23.6084482  68.3625805  56.4700807  23.0220120
  70.0050080  50.1207547  28.8402161  69.6699912  50.0808317  29.7359811
  69.5054025  49.4552263  28.3672571  63.9794324  45.5275177  34.3654742
  63.8414122  44.7955416  34.9666281  64.8899247  45.4384077  34.0838930
  72.9409271  47.4663581  19.1139220  72.3238442  46.7410409  19.0172273
  72.4725760  48.2272941  18.7706295  66.6076624  45.2395136  33.8538422
  67.3176243  44.5988328  33.8125040  66.5645933  45.4908031  34.7764602
  74.5963403  52.1762490  36.7745001  74.5375949  51.4921710  36.1075584
  74.9982921  52.9181480  36.3225627  65.3205558  42.2260354  35.6734061
  64.7842915  41.7751093  36.3255657  64.7322267  42.3606263  34.9304525
  63.6154102  58.9924403  29.5678720  63.8550700  59.6242928  30.2457738
  62.7723298  58.6412443  29.8544079  64.7307817  41.6849006  18.2360525
  63.8537284  41.5637806  17.8722771  65.2065570  40.8935084  17.9839413
  74.5980810  50.1402074  35.0058981  73.7107589  49.8027995  35.1285379
  75.1679361  49.4085105  35.2427746  56.2509957  46.4726165  28.3302032
  56.9380997  46.1587895  27.7423047  56.0958086  47.3767530  28.0569283
  61.0544680  41.3616362  32.7587056  60.9702868  40.7542031  32.0237466
  60.2327386  41.8525380  32.7596552  68.1281964  54.8003526  31.9720224
  68.0552135  55.6058497  32.4839528  67.6859357  54.9995492  31.1468245
  67.9171743  54.0375296  25.4823045  67.1339265  54.5796976  25.5761270
  68.6164489  54.5549276  25.8817286  71.2268393  39.8469925  28.1257251
  71.7237093  39.0939888  27.8058321  70.4555375  39.8834242  27.5600460
  79.0798151  45.5510291  29.7675542  79.0688027  46.4335006  29.3969475
  78.2115530  45.1981842  29.5730079  70.5880647  54.6990360  34.1278382
  71.3008619  55.3337825  34.0554284  70.0970676  54.7954226  33.3118384
  72.3098174  48.6041613  25.6995674  71.3754453  48.7243075  25.5300378
  72.4874843  47.7014079  25.4355684  67.8103362  41.9887308  27.8528935
  67.4401150  41.4358349  28.5409841  68.3062455  41.3845442  27.3003935
  75.6970726  44.4458932  26.2345708  76.1631178  45.2786923  26.1606011
  76.1478226  43.9803913  26.9390967  65.6392561  52.4484803  34.9483953
  66.3402020  53.0821286  35.1013347  65.1687676  52.7899535  34.1879592
  73.7646957  50.7902753  23.2331860  74.0406801  50.6759348  24.1425734
  72.8951455  50.3920238  23.1944033  73.6687388  36.8139519  30.2736610
  72.7550468  37.0443746  30.4418816  74.0980490  36.8977963  31.1250642
  73.4393847  45.0029411  32.7736504  72.7865297  45.2505318  32.1188956
  73.8174227  44.1893549  32.4398981  70.4001021  55.0389104  26.8764674
  70.5823415  54.2210760  27.3392426  71.2234007  55.2556796  26.4389564
  70.7343186  53.9657289  24.1379722  71.2630953  53.4549744  23.5249884
  70.9971406  53.6499819  25.0025255  69.4881420  45.7449222  39.2602541
  68.8122057  45.6443351  39.9304916  70.3109054  45.5888436  39.7238538
  61.2360279  51.9821158  31.8815056  61.8213716  51.2364846  32.0142960
  61.0385117  52.2925115  32.7651720  64.0898934  55.0172406  26.8977498
  63.4209309  55.5018533  26.4141538  63.9511804  55.2641626  27.8120877
  55.8277934  44.5526759  30.6019499  55.8662033  44.0190349  31.3956617
  55.3218226  44.0261964  29.9830476  68.2304203  57.0516149  33.4960157
  68.7822511  57.2147771  34.2609242  68.5710396  57.6420587  32.8240181
  63.2068696  39.3991299  34.0982041  63.2710022  40.2606130  33.6859439
  63.1435816  38.7865301  33.3654400  62.6820968  41.4714432  37.7455076
  63.3093007  41.0891509  38.3592600  61.8248887  41.2528634  38.1110768
  73.0815077  51.8777407  39.3508811  73.6254981  52.4907365  38.8563766
  72.5001922  52.4356985  39.8675824  59.4586511  43.2790861  23.6773430
  59.7539952  42.3701539  23.6240484  58.5574547  43.2578600  23.3554433
  71.3672590  54.9998125  30.4823839  71.2423729  54.1987865  29.9734784
  72.0251681  55.4944318  29.9937809  62.9880758  41.3546857  29.6600979
  62.2667344  41.9682825  29.5208452  63.7774014  41.8904622  29.5817625
  73.4307498  52.8007145  32.1103389  72.4837834  52.6812496  32.0381716
  73.7790271  51.9129643  32.1929650  65.7907072  38.6901284  35.9341631
  66.3141474  38.9363580  36.6967940  65.5719405  39.5221319  35.5144768
  61.1874353  40.9604958  23.8012756  60.8587059  40.0802337  23.6187861
  61.5413723  40.9052627  24.6889145  70.4353932  52.5959861  28.3107741
  70.2878894  51.6676569  28.4915311  71.2607425  52.6179952  27.8264816
  64.3016176  41.2477928  24.1688233  64.6412248  41.7763849  23.4466842
  64.7488296  41.5858334  24.9446800  74.0388053  53.4188420  29.3972614
  74.9634601  53.2131281  29.2597065  73.8703357  53.1704821  30.3061955
  66.9959617  39.6314979  33.6191301  66.6556437  38.8322792  34.0211981
  66.2898623  39.9316690  33.0468134  67.6476089  36.7164291  32.0718624
  68.4702158  36.2424770  31.9497515  67.8914152  37.4954775  32.5717311
  66.2884323  39.7452550  22.3681526  67.0092686  40.1233803  21.8645243
  65.6649627  40.4641427  22.4716504  70.4315446  40.4497699  23.3039858
  70.6479060  41.3322337  23.0028686  69.9509513  40.0583912  22.5745500
  65.1714667  43.4083412  29.8810603  65.0259248  43.7223715  30.7734884
  64.6939871  44.0268312  29.3281502  67.0311050  40.3985960  29.9291492
  67.0172619  39.5027053  29.5923790  67.7483478  40.4056624  30.5629779
  68.8837181  40.8323300  31.9744620  68.6254959  41.7540371  31.9728950
  68.3522221  40.4353735  32.6645084  73.8283370  53.9374087  24.7534705
  74.0020247  53.3720510  24.0008558  74.3212261  54.7374982  24.5714195
  59.6460329  45.9488756  32.8198264  59.1013798  46.7248564  32.9518538
  60.5239679  46.2959561  32.6617386  66.4347946  39.2800340  25.1979063
  66.5563857  38.3516986  25.3969950  66.1449989  39.2939026  24.2857378
  69.3039137  36.9655251  28.3345782  69.3260833  37.0294584  27.3797762
  69.7207196  36.1259759  28.5286289  79.6822761  46.7010510  26.3725005
  80.1253907  45.9517835  25.9744128  78.8049271  46.6920647  25.9898737
  74.8158542  53.2540852  21.8531604  75.5109447  53.8747544  22.0718918
  75.1581692  52.4036203  22.1283981  60.4326351  45.0758653  35.7128421
  59.6908087  45.2241288  36.2993051  60.1119096  45.3366918  34.8495170
  76.7149965  50.7040557  23.3818934  77.2401289  51.0427830  22.6568254
  76.6272318  49.7687573  23.1982069  68.3770014  54.6174631  35.5108811
  68.6857140  54.3723778  36.3831511  69.1745496  54.8221269  35.0227681
  68.3990626  56.7712541  27.7414188  67.9595616  56.2788919  28.4347044
  69.1498743  56.2285508  27.5006263  60.8782965  52.9624081  27.7438816
  61.7040985  52.6627853  27.3637459  60.5277017  52.1931704  28.1928604
  65.8464498  52.3150550  29.8136489  65.2244507  51.6521255  29.5138717
  66.5169365  52.3411682  29.1310137  59.0791570  50.8810408  28.7027749
  58.2423478  50.4532582  28.5211750  59.0515215  51.0742851  29.6398540
  65.9189026  40.7932338  39.4068995  65.9677181  41.6694460  39.0246765
  66.4611540  40.2509731  38.8340638  76.4043871  51.3373461  38.6870132
  75.6139415  51.3197600  38.1474632  76.1677226  51.8761755  39.4419169
  76.5241746  48.1865927  36.0002861  76.5739751  48.0215935  36.9418384
  76.4155670  47.3193186  35.6100742  65.4078005  50.8654473  23.2894950
  65.5566125  51.5489937  22.6361622  66.2144449  50.8459563  23.8044405
  73.8145509  44.1696855  37.3162168  74.7155372  44.0303320  37.0246165
  73.8893483  44.3351310  38.2560345  68.1488314  41.5463710  36.1615354
  67.2791624  41.8397276  35.8897942  68.3847794  42.1304155  36.8822618
  78.0259943  50.6062869  36.2444882  77.7344752  50.9692849  37.0808343
  77.4132075  49.8929877  36.0658214  79.2255626  48.1715749  28.7647453
  80.0602517  48.6105553  28.9285013  79.3614754  47.6954402  27.9455698
  76.2747131  45.7295483  34.7124940  76.7501253  45.9223130  33.9043792
  75.3512697  45.7854669  34.4668324  63.1630638  46.8919651  24.2956019
  62.9176680  45.9881981  24.4936229  63.3326553  46.8936801  23.3535497
  70.8527348  37.7643327  33.6780774  71.3709292  38.5004354  33.3527263
  70.4982481  38.0707320  34.5127533  62.4326286  42.6248008  21.7942180
  61.7395531  42.6992363  21.1382216  62.1878038  41.8608352  22.3163697
  71.1039942  34.1843610  29.1981671  71.3841696  33.5166799  29.8242097
  71.8890549  34.3772705  28.6856335  68.9073411  53.3602603  20.7606697
  68.3347378  53.9792791  20.3077169  69.4806204  53.9101965  21.2946619
  74.9748800  42.6061244  32.9453246  75.9266223  42.7059341  32.9665470
  74.8052251  41.8139512  33.4551330  72.9963180  39.6916827  33.1312647
  72.4013112  39.9721839  32.4359136  72.7112877  40.1810728  33.9029388
  72.1270670  53.6439754  21.8915279  73.0601344  53.5785315  22.0948155
  72.0393883  54.4796020  21.4329812  74.7558687  52.9605624  18.8519227
  74.6772319  52.6265487  19.7454985  75.5768354  53.4527392  18.8510699
  77.4536878  45.8267363  32.0595546  77.4213198  44.8883364  32.2455229
  78.0637502  45.9051400  31.3261371  69.2920209  44.6963416  18.1022750
  70.2379314  44.5669624  18.1711168  68.9134454  43.9578078  18.5792178
  77.6031367  42.6178407  32.1053829  77.0870415  41.8336863  31.9183758
  78.4871315  42.2897123  32.2700348  75.2642094  36.3619422  28.0649641
  75.0666915  36.0534510  28.9492973  75.8741799  37.0881061  28.1947571
  83.2713428  46.8883370  31.2001582  84.0016817  46.6268658  31.7609286
  82.6620374  46.1512092  31.2403650  81.3528725  45.0291233  31.7976034
  80.6261889  44.8947198  31.1892525  80.9376012  45.3368061  32.6032752
  69.1758902  48.7481162  39.5623407  70.0961911  48.9259761  39.7563453
  69.1408485  47.8037208  39.4103106  67.4763126  42.6213393  18.0377635
  66.5694582  42.3246505  18.1140348  67.7539107  42.3243211  17.1711921
  58.3941067  43.9419756  28.4876681  58.0743851  43.0885064  28.1951055
  57.8474495  44.1568334  29.2434649  62.1720974  46.6582197  32.2046188
  62.3906984  47.5899305  32.2234222  62.5846748  46.2990171  32.9900992
  69.0925192  37.1650282  24.1921876  68.2825920  36.8197367  24.5677122
  69.7809609  36.8557826  24.7809488  71.0215740  36.2428329  25.8146173
  71.5746779  36.6623782  26.4736196  71.2585827  35.3164077  25.8569129
  67.0448840  42.2315403  41.5948937  66.9445566  43.1809760  41.5261028
  66.8270382  41.9033642  40.7225007  66.2461911  39.4800328  18.1789614
  67.1081075  39.8055226  18.4385431  66.4312255  38.6931824  17.6662680
  58.2629327  47.5622667  30.4569803  57.5692798  47.1476620  29.9439757
  59.0102318  47.6043204  29.8603222  74.3994547  38.3528854  25.3224837
  73.8193216  39.0113658  24.9402890  74.1330480  37.5306199  24.9112255
  72.8498114  37.7533912  27.5246157  73.3497892  37.8650446  26.7160476
  73.4933722  37.4494965  28.1646966  66.9080110  45.6612542  40.4113998
  66.4247191  46.4612902  40.6177887  66.9941049  45.6720486  39.4581442
  60.1766069  47.4940921  28.3335818  60.1536757  47.5928609  27.3817701
  60.4866706  48.3406072  28.6552984  62.8353447  49.5517076  32.4482432
  63.7896701  49.5201019  32.3812364  62.6365971  49.0907700  33.2632658
  63.4252829  48.1218192  35.0153230  64.2445718  48.6162271  35.0388067
  63.6989637  47.2050160  34.9870797  73.1819425  40.5128945  24.3781185
  72.2945280  40.7978595  24.1601380  73.5973414  40.3522708  23.5308462
  76.5333962  40.5375466  28.0935525  77.3094352  41.0271918  28.3660141
  75.8082096  40.9633520  28.5507394  78.9706520  41.2503085  29.1509465
  79.5651011  41.0098821  28.4402773  79.0433104  40.5310215  29.7783002
  61.1903676  55.0936696  29.4652630  61.0558144  54.3337097  28.8990628
  60.7735738  55.8177596  28.9981419  72.3262639  50.2773619  18.4729205
  73.0298489  50.4823622  19.0886861  71.6025288  50.8450381  18.7378289
  73.1560449  46.0283481  24.5931476  73.0995651  46.4852032  23.7539108
  73.7088792  45.2674165  24.4154318  76.9665255  41.8173212  25.4181595
  76.7102189  41.4169848  26.2489803  76.3418123  42.5317006  25.2931734
  81.2777593  44.5569286  27.9252886  80.7177151  44.6262475  28.6984448
  80.6721096  44.3810270  27.2052383  64.3472802  55.9906013  29.6771073
  64.2305186  56.9351445  29.5749763  63.5265248  55.6879574  30.0656872
  74.2349336  50.7156148  20.5227665  75.0694940  50.2837347  20.3405140
  74.0733679  50.5438162  21.4504560  73.8895228  47.2188262  21.8884005
  73.8344032  47.0532533  20.9472449  73.2641284  47.9264295  22.0446194
  58.6787743  42.4556326  35.7145427  59.3246607  41.9455280  36.2032652
  58.4704895  43.1925008  36.2888852  71.2041136  49.5237174  41.2137567
  72.0732295  49.6977826  40.8524202  70.7247887  50.3431590  41.0913297
  67.1991354  36.7196371  21.4669323  67.1870024  37.6638211  21.6237594
  68.0914776  36.5366516  21.1728784  65.3727316  56.6434275  32.8927001
  66.2754563  56.6757885  33.2093496  65.1464686  55.7134726  32.9073337
  67.1280918  55.3965261  29.5537080  66.1776549  55.3967123  29.4401452
  67.4313404  54.6497996  29.0373114  71.0143473  33.3139147  25.7215260
  70.2475869  32.7597634  25.8671942  71.4254178  33.3861016  26.5829412
  63.0185234  39.6023943  39.8120441  63.8816696  39.2460748  40.0223766
  62.4450645  39.2637838  40.4995845  82.8633611  61.2325800  30.6182842
  83.5012021  61.1132547  29.9146182  82.7454454  62.1806644  30.6770794
  79.6723318  61.1853228  30.5544367  79.3341829  61.0694292  29.6664902
  80.5413086  60.7844393  30.5345373  75.5310133  63.0388704  26.5441258
  74.9674998  62.9478641  25.7757546  75.4162528  62.2188609  27.0243750
  80.1543101  62.3388079  36.5130572  80.1431741  61.9440878  35.6411076
  80.3163740  61.6054152  37.1064344  73.0774565  64.5339896  29.3825478
  73.8695857  64.1930720  28.9671778  73.3171215  64.6434871  30.3027632
  81.1109692  66.7059672  21.8555723  80.4597672  67.2913752  21.4689736
  81.9054055  67.2365867  21.9150760  75.0365319  63.7948809  22.2542857
  75.8096195  63.2477796  22.1155733  75.3890718  64.6593058  22.4657318
  76.8750362  65.1225191  35.4609756  76.5840228  66.0270822  35.3456423
  77.5107346  65.1641719  36.1753826  77.8006569  62.5002040  32.0511116
  78.3970141  62.2758062  31.3368079  77.8581540  61.7586785  32.6536564
  77.3731597  59.9541475  19.8861307  77.6257118  59.4322996  19.1244770
  76.4356156  59.7907621  19.9887991  82.4174880  58.9577253  27.6936050
  83.2037969  58.5396677  27.3426467  82.6813584  59.8623346  27.8617699
  82.5884957  64.3950104  22.3924707  81.9530790  64.4684730  23.1045612
  82.2582364  64.9843703  21.7143786  87.8183307  58.8952487  28.5969029
  88.5508479  58.3251703  28.8306858  87.0622663  58.5074087  29.0375534
  77.0927886  61.8569581  22.0885682  76.9764144  61.1814484  22.7566766
  77.2030146  61.3701955  21.2717835  79.4359427  61.3179728  25.7932371
  79.0717634  60.7910349  26.5045293  80.2926543  60.9278197  25.6198857
  85.3408727  52.6074061  33.0563637  85.0092052  53.4769472  32.8324852
  84.7454341  52.2910345  33.7357668  79.0764914  56.3469628  20.7893720
  79.2439316  57.2149864  21.1564191  78.8862083  56.5096910  19.8655009
  81.8340247  64.8086607  32.4559550  81.5340970  65.7111646  32.3475357
  81.4891306  64.5418790  33.3080703  75.2852728  61.2600404  28.4896254
  74.3603225  61.1276618  28.6973946  75.5337142  62.0394623  28.9866197
  85.2337391  57.3269147  30.1356987  84.3254268  57.2584555  29.8415748
  85.1824986  57.8041092  30.9638813  79.0554135  58.8027285  21.7740386
  78.9353760  59.2484336  22.6125867  78.3606723  59.1512603  21.2153925
  72.6461539  60.9033677  29.3240044  72.7753921  61.1568156  30.2379455
  71.9658991  61.4961385  29.0044699  76.8161027  71.5730927  25.4230518
  76.7385056  72.5238752  25.5018998  76.2122670  71.2276800  26.0805444
  79.3078256  58.7458793  38.0791885  78.5311590  59.3052713  38.0694749
  79.9468819  59.2315576  38.6006755  87.0999037  55.5285585  31.9134861
  86.4573417  55.8218118  31.2674656  86.5953966  55.4138506  32.7188058
  84.7539201  59.2748759  22.6020721  85.6657057  59.5076145  22.4268418
  84.2448848  59.8585803  22.0395799  77.5624629  61.5544246  37.6409852
  78.3039313  62.0929290  37.3644675  76.8561614  62.1810535  37.7981403
  83.0379968  63.6973386  36.2382013  83.4463324  63.2555797  35.4936645
  82.3157230  63.1226014  36.4916206  79.3911038  58.6345993  33.6115570
  80.2372234  59.0585407  33.7550219  79.3309676  57.9779617  34.3054133
  83.3608783  64.2574577  29.9934302  82.7317645  64.4220291  29.2910370
  82.9734445  64.6716187  30.7645266  87.2398015  65.1929015  27.3478666
  86.5549053  65.5727916  26.7975699  87.3241864  65.8024341  28.0810614
  82.5410484  56.2950361  35.2696744  82.2971416  57.0492422  34.7331019
  82.8170414  56.6735709  36.1043991  84.4948947  62.8388974  33.9474009
  84.7065842  63.4820734  33.2708390  84.4478695  62.0051290  33.4795939
  82.0975175  55.4506794  30.8510581  81.2359655  55.7488048  31.1427319
  82.1237610  55.6677193  29.9191614  78.9136745  63.9948985  27.2584387
  79.3775090  64.2736688  26.4689010  78.6493543  63.0932430  27.0757478
  75.8060826  63.5420467  30.1964150  76.3762183  63.9707735  29.5581635
  76.3968938  63.2603051  30.8948336  77.8505631  60.1172137  24.0673952
  78.5529674  60.5693181  24.5347879  77.5186259  59.4755956  24.6953845
  76.2985992  58.7083894  38.4425162  75.6684653  59.3900175  38.6760558
  76.1922080  58.5966976  37.4978300  71.5930965  58.3755690  29.3691086
  70.8030019  58.6313219  28.8931196  72.0842212  59.1904028  29.4743126
  85.6094774  65.7160929  32.1196367  86.4312218  65.3141117  31.8379048
  85.6057177  65.6129163  33.0712482  73.5445710  58.7400269  26.3274563
  72.7476874  58.8518964  26.8458058  73.3171302  59.0786922  25.4615453
  79.3751378  65.2644973  34.2757077  79.4395810  65.7265380  35.1115249
  78.6662302  64.6342337  34.4039387  69.8768668  58.6286181  31.8006077
  70.1276706  59.5133190  32.0663653  70.4128216  58.4490782  31.0281168
  93.7000768  62.0599678  28.4681338  92.9464476  61.4907076  28.3125343
  93.8348309  62.0262342  29.4151973  79.0899396  66.9313080  24.1436057
  78.9545070  67.7764616  24.5720905  79.6309208  67.1332358  23.3801991
  72.5428793  64.4488518  24.7163983  73.0553314  65.2431768  24.8669547
  73.1951506  63.7514809  24.6497584  74.3523678  67.5654274  26.7986736
  74.5290306  68.4872239  26.6107720  75.1480511  67.2512694  27.2281116
  78.4934696  54.4262539  38.3970669  79.2344410  55.0269692  38.3175132
  78.7252619  53.6840177  37.8388712  73.6376034  59.6118906  36.6748899
  73.5229549  58.7104163  36.9755998  72.7820552  59.8582603  36.3233715
  80.7167872  67.5536647  38.2736400  80.2731726  66.7673025  37.9557304
  81.3785086  67.7415797  37.6080290  75.4754993  69.0832448  32.7997078
  76.0262418  68.9549512  32.0274072  74.6366469  69.3827337  32.4491971
  82.8149110  67.8339446  36.3017801  82.7967585  68.6548328  35.8098070
  83.7369030  67.7093522  36.5267942  79.2722164  65.3483576  37.1441309
  79.8050501  64.5871864  36.9140617  78.7436245  65.0557228  37.8865464
  82.4391859  50.4543642  32.6734951  82.0956129  51.3445284  32.5974062
  82.8070822  50.2645300  31.8104536  70.5077710  62.7777172  25.4923553
  71.3452932  63.1874181  25.2757261  70.6855977  61.8376615  25.4623747
  82.4042142  60.4452253  21.1807386  81.8888765  61.2156858  21.4195773
  82.1319450  59.7717389  21.8040447  79.9889253  55.2901954  26.2392624
  79.1330849  54.9008804  26.0598263  80.4016205  55.3693915  25.3792410
  81.5188400  52.8248297  30.6384184  81.0153195  52.7878432  29.8251989
  81.8119006  53.7341040  30.6980841  77.7631285  52.9087027  29.6450366
  78.6284282  52.7129835  29.2856255  77.8308794  52.6797379  30.5719723
  87.3776416  63.1984608  23.1160560  86.6005859  62.8595767  22.6715722
  88.0567897  63.2037231  22.4415525  82.1928445  58.3179345  23.0067167
  81.8878581  58.6325494  23.8577310  83.1458887  58.3960765  23.0494500
  80.6374877  64.4769568  24.6560121  80.1096238  63.7422328  24.3433359
  80.1362380  65.2544245  24.4100090  85.6167723  62.6718589  29.7727168
  84.9591397  63.3617850  29.8607296  86.4208122  63.0615021  30.1161154
  75.3693604  55.1389235  27.0166733  75.9437356  54.9164416  26.2839926
  75.9564587  55.2077929  27.7695334  84.4273182  61.0262962  27.8231109
  84.9405063  61.6592953  28.3252819  85.0774406  60.4264157  27.4574469
  75.6963192  57.1693696  21.0362618  74.8600504  57.5068382  21.3571893
  75.5567961  57.0342676  20.0989755  77.6716272  52.0130484  25.7441802
  77.0180685  51.6979501  25.1198417  77.6296746  51.3906224  26.4701625
  78.7827477  62.2949779  17.6595094  77.8754539  62.0639032  17.8586243
  79.2798509  61.4987398  17.8469076  81.6895556  71.0047286  20.5791780
  81.0157255  71.3078983  21.1876738  82.0761378  71.8076366  20.2297237
  80.9054013  58.5012417  30.0689450  79.9876574  58.7227364  29.9111138
  81.3214156  58.5758728  29.2101157  81.6889060  59.9003833  25.1992130
  82.4360879  60.4125230  24.8899252  81.9580650  59.5787886  26.0596524
  79.9615710  62.3962374  22.1819084  79.0526930  62.1121406  22.2791554
  79.9910794  62.8161452  21.3222391  85.1934978  66.0068963  25.9510252
  84.7397305  65.1659873  26.0075442  84.5628945  66.6430361  26.2885032
  84.1367897  56.9360949  27.1810919  83.3990654  56.4238335  27.5121162
  84.3894671  56.4961331  26.3694196  83.6367917  67.8445460  26.8860070
  83.9290892  68.4050517  26.1672436  84.1466538  68.1374021  27.6413229
  84.2379525  49.7137201  27.7752689  84.5438402  48.8534565  27.4878604
  84.9632130  50.3054821  27.5751683  70.5303881  60.1167888  26.1634287
  70.3328281  59.5237248  25.4385353  69.9750545  59.8120098  26.8810225
  78.5100605  60.0090994  28.2828880  78.5649214  59.0564831  28.2071356
  77.6991807  60.1650433  28.7670178  79.6591798  63.9371117  19.5207163
  79.2211228  63.2206976  19.0612800  80.4002239  64.1647232  18.9592254
  76.4492964  58.6268054  26.0419259  75.6360830  58.9262224  26.4484451
  76.9451959  58.2323743  26.7593741  78.6001542  68.6225811  27.9753523
  78.5577721  68.8486657  27.0462055  79.5164241  68.3889185  28.1239324
  82.0467176  59.0909878  34.8734152  82.4016564  59.3181352  35.7328618
  82.6939307  59.4228255  34.2511408  87.7764913  62.2128314  25.5783481
  87.6382812  62.4029910  24.6504671  87.4201132  62.9747697  26.0351533
  75.9407039  56.1986409  31.6580493  76.5806419  56.0575169  30.9603457
  75.1084570  55.9120923  31.2819095  87.8034293  64.2804841  30.5894753
  88.2370799  64.1880130  31.4377807  88.5165873  64.2562342  29.9514769
  76.7167343  65.4988840  27.7715486  77.5107942  65.0039160  27.5698061
  76.0059035  64.9706703  27.4083192  81.5362188  67.8806935  32.1227854
  81.5899210  68.4497872  32.8905569  80.6676969  68.0508820  31.7581891
  73.0250107  59.6431922  23.8475239  72.0947695  59.5816377  24.0645201
  73.1207579  59.1207874  23.0511880  72.9435656  56.1686734  26.4353480
  73.2042473  57.0832068  26.3262641  73.7652828  55.7011177  26.5850093
  74.4160581  57.5824492  33.6052305  75.0883634  57.3741854  32.9564954
  73.5890367  57.3846578  33.1657537  88.6649842  64.3228542  33.1227638
  88.8585732  65.2274352  33.3686913  88.5650460  63.8635961  33.9566223
  80.3186153  54.2086433  35.6217966  79.6714068  54.9076382  35.5282442
  81.0887168  54.6422576  35.9894214  83.7264951  64.4735285  38.6968519
  83.5750457  64.2445836  37.7798603  83.7169630  65.4305886  38.7099864
  80.4950287  62.0467197  33.6814785  81.4242347  62.1978357  33.5083753
  80.0741317  62.1351218  32.8263432  79.2938619  66.0717862  31.4513323
  79.1549705  65.7036646  32.3239261  78.5053215  66.5865501  31.2797281
  79.8886771  71.1726958  22.7938860  80.0638527  70.7015002  23.6084482
  79.2019559  71.7992725  23.0220120  80.8443834  65.4499465  28.8402161
  80.5093667  65.4100235  29.7359811  80.3447780  64.7844180  28.3672571
  74.8188078  60.8567095  34.3654742  74.6807876  60.1247333  34.9666281
  75.7293002  60.7675995  34.0838930  83.7803026  62.7955499  19.1139220
  83.1632197  62.0702327  19.0172273  83.3119514  63.5564859  18.7706295
  77.4470379  60.5687054  33.8538422  78.1569997  59.9280246  33.8125040
  77.4039687  60.8199949  34.7764602  85.4357158  67.5054407  36.7745001
  85.3769704  66.8213627  36.1075584  85.8376676  68.2473397  36.3225627
  76.1599313  57.5552272  35.6734061  75.6236670  57.1043010  36.3255657
  75.5716021  57.6898181  34.9304525  74.4547856  74.3216321  29.5678720
  74.6944455  74.9534845  30.2457738  73.6117053  73.9704361  29.8544079
  75.5701572  57.0140923  18.2360525  74.6931038  56.8929724  17.8722771
  76.0459325  56.2227002  17.9839413  85.4374565  65.4693991  35.0058981
  84.5501344  65.1319913  35.1285379  86.0073116  64.7377022  35.2427746
  67.0903712  61.8018083  28.3302032  67.7774752  61.4879813  27.7423047
  66.9351841  62.7059448  28.0569283  71.8938434  56.6908279  32.7587056
  71.8096623  56.0833949  32.0237466  71.0721140  57.1817298  32.7596552
  78.9675718  70.1295444  31.9720224  78.8945890  70.9350415  32.4839528
  78.5253111  70.3287409  31.1468245  78.7565498  69.3667214  25.4823045
  77.9733020  69.9088894  25.5761270  79.4558243  69.8841193  25.8817286
  82.0662148  55.1761843  28.1257251  82.5630848  54.4231805  27.8058321
  81.2949129  55.2126160  27.5600460  89.9191905  60.8802209  29.7675542
  89.9081782  61.7626924  29.3969475  89.0509285  60.5273759  29.5730079
  81.4274402  70.0282278  34.1278382  82.1402374  70.6629742  34.0554284
  80.9364430  70.1246144  33.3118384  83.1491929  63.9333530  25.6995674
  82.2148207  64.0534993  25.5300378  83.3268597  63.0305997  25.4355684
  78.6497117  57.3179226  27.8528935  78.2794904  56.7650266  28.5409841
  79.1456209  56.7137359  27.3003935  86.5364480  59.7750850  26.2345708
  87.0024932  60.6078841  26.1606011  86.9871981  59.3095831  26.9390967
  76.4786315  67.7776721  34.9483953  77.1795775  68.4113204  35.1013347
  76.0081430  68.1191453  34.1879592  84.6040711  66.1194671  23.2331860
  84.8800555  66.0051265  24.1425734  83.7345210  65.7212156  23.1944033
  84.5081143  52.1431437  30.2736610  83.5944223  52.3735663  30.4418816
  84.9374244  52.2269881  31.1250642  84.2787601  60.3321328  32.7736504
  83.6259051  60.5797236  32.1188956  84.6567981  59.5185467  32.4398981
  81.2394775  70.3681022  26.8764674  81.4217170  69.5502678  27.3392426
  82.0627761  70.5848714  26.4389564  81.5736941  69.2949207  24.1379722
  82.1024707  68.7841661  23.5249884  81.8365160  68.9791737  25.0025255
  80.3275174  61.0741140  39.2602541  79.6515811  60.9735269  39.9304916
  81.1502808  60.9180353  39.7238538  72.0754033  67.3113076  31.8815056
  72.6607470  66.5656764  32.0142960  71.8778872  67.6217033  32.7651720
  74.9292689  70.3464323  26.8977498  74.2603064  70.8310451  26.4141538
  74.7905558  70.5933544  27.8120877  66.6671688  59.8818676  30.6019499
  66.7055788  59.3482267  31.3956617  66.1611981  59.3553882  29.9830476
  79.0697957  72.3808067  33.4960157  79.6216265  72.5439688  34.2609242
  79.4104151  72.9712505  32.8240181  74.0462450  54.7283217  34.0982041
  74.1103777  55.5898048  33.6859439  73.9829571  54.1157218  33.3654400
  73.5214723  56.8006349  37.7455076  74.1486762  56.4183427  38.3592600
  72.6642642  56.5820551  38.1110768  83.9208831  67.2069325  39.3508811
  84.4648735  67.8199283  38.8563766  83.3395676  67.7648903  39.8675824
  70.2980266  58.6082778  23.6773430  70.5933707  57.6993457  23.6240484
  69.3968301  58.5870518  23.3554433  82.2066344  70.3290043  30.4823839
  82.0817484  69.5279782  29.9734784  82.8645436  70.8236236  29.9937809
  73.8274513  56.6838775  29.6600979  73.1061098  57.2974743  29.5208452
  74.6167768  57.2196540  29.5817625  84.2701253  68.1299063  32.1103389
  83.3231588  68.0104414  32.0381716  84.6184026  67.2421561  32.1929650
  76.6300826  54.0193202  35.9341631  77.1535228  54.2655498  36.6967940
  76.4113159  54.8513236  35.5144768  72.0268107  56.2896876  23.8012756
  71.6980813  55.4094255  23.6187861  72.3807478  56.2344545  24.6889145
  81.2747686  67.9251779  28.3107741  81.1272649  66.9968486  28.4915311
  82.1001180  67.9471870  27.8264816  75.1409930  56.5769846  24.1688233
  75.4806003  57.1055767  23.4466842  75.5882051  56.9150252  24.9446800
  84.8781808  68.7480338  29.3972614  85.8028355  68.5423199  29.2597065
  84.7097111  68.4996739  30.3061955  77.8353371  54.9606897  33.6191301
  77.4950192  54.1614710  34.0211981  77.1292377  55.2608607  33.0468134
  78.4869843  52.0456209  32.0718624  79.3095912  51.5716687  31.9497515
  78.7307907  52.8246693  32.5717311  77.1278078  55.0744467  22.3681526
  77.8486440  55.4525720  21.8645243  76.5043382  55.7933344  22.4716504
  81.2709200  55.7789616  23.3039858  81.4872815  56.6614254  23.0028686
  80.7903268  55.3875830  22.5745500  76.0108422  58.7375330  29.8810603
  75.8653003  59.0515633  30.7734884  75.5333625  59.3560230  29.3281502
  77.8704805  55.7277878  29.9291492  77.8566373  54.8318971  29.5923790
  78.5877233  55.7348541  30.5629779  79.7230935  56.1615218  31.9744620
  79.4648713  57.0832289  31.9728950  79.1915976  55.7645652  32.6645084
  84.6677124  69.2666005  24.7534705  84.8414002  68.7012427  24.0008558
  85.1606015  70.0666900  24.5714195  70.4854084  61.2780674  32.8198264
  69.9407552  62.0540482  32.9518538  71.3633434  61.6251479  32.6617386
  77.2741701  54.6092258  25.1979063  77.3957612  53.6808904  25.3969950
  76.9843743  54.6230944  24.2857378  80.1432891  52.2947168  28.3345782
  80.1654588  52.3586501  27.3797762  80.5600950  51.4551677  28.5286289
  90.5216515  62.0302428  26.3725005  90.9647661  61.2809753  25.9744128
  89.6443026  62.0212564  25.9898737  85.6552297  68.5832769  21.8531604
  86.3503201  69.2039462  22.0718918  85.9975447  67.7328121  22.1283981
  71.2720106  60.4050570  35.7128421  70.5301842  60.5533206  36.2993051
  70.9512850  60.6658836  34.8495170  87.5543720  66.0332475  23.3818934
  88.0795044  66.3719748  22.6568254  87.4666072  65.0979490  23.1982069
  79.2163768  69.9466549  35.5108811  79.5250895  69.7015695  36.3831511
  80.0139250  70.1513187  35.0227681  79.2384381  72.1004458  27.7414188
  78.7989371  71.6080837  28.4347044  79.9892497  71.5577426  27.5006263
  71.7176720  68.2915999  27.7438816  72.5434739  67.9919771  27.3637459
  71.3670771  67.5223622  28.1928604  76.6858253  67.6442467  29.8136489
  76.0638262  66.9813172  29.5138717  77.3563120  67.6703599  29.1310137
  69.9185325  66.2102326  28.7027749  69.0817233  65.7824500  28.5211750
  69.8908970  66.4034769  29.6398540  76.7582780  56.1224255  39.4068995
  76.8070936  56.9986378  39.0246765  77.3005294  55.5801648  38.8340638
  87.2437626  66.6665379  38.6870132  86.4533170  66.6489517  38.1474632
  87.0070980  67.2053672  39.4419169  87.3635501  63.5157845  36.0002861
  87.4133506  63.3507852  36.9418384  87.2549424  62.6485104  35.6100742
  76.2471760  66.1946391  23.2894950  76.3959880  66.8781855  22.6361622
  77.0538203  66.1751481  23.8044405  84.6539263  59.4988773  37.3162168
  85.5549126  59.3595238  37.0246165  84.7287238  59.6643228  38.2560345
  78.9882069  56.8755628  36.1615354  78.1185378  57.1689194  35.8897942
  79.2241549  57.4596073  36.8822618  88.8653698  65.9354786  36.2444882
  88.5738506  66.2984767  37.0808343  88.2525829  65.2221795  36.0658214
  90.0649380  63.5007666  28.7647453  90.8996271  63.9397470  28.9285013
  90.2008509  63.0246319  27.9455698  87.1140886  61.0587401  34.7124940
  87.5895008  61.2515047  33.9043792  86.1906451  61.1146587  34.4668324
  74.0024393  62.2211568  24.2956019  73.7570435  61.3173898  24.4936229
  74.1720307  62.2228719  23.3535497  81.6921102  53.0935245  33.6780774
  82.2103046  53.8296272  33.3527263  81.3376235  53.3999238  34.5127533
  73.2720040  57.9539926  21.7942180  72.5789285  58.0284281  21.1382216
  73.0271792  57.1900269  22.3163697  81.9433697  49.5135527  29.1981671
  82.2235450  48.8458716  29.8242097  82.7284304  49.7064623  28.6856335
  79.7467165  68.6894521  20.7606697  79.1741132  69.3084708  20.3077169
  80.3199959  69.2393883  21.2946619  85.8142555  57.9353161  32.9453246
  86.7659978  58.0351259  32.9665470  85.6446005  57.1431430  33.4551330
  83.8356934  55.0208744  33.1312647  83.2406867  55.3013757  32.4359136
  83.5506631  55.5102645  33.9029388  82.9664425  68.9731671  21.8915279
  83.8995098  68.9077233  22.0948155  82.8787638  69.8087938  21.4329812
  85.5952442  68.2897542  18.8519227  85.5166073  67.9557405  19.7454985
  86.4162108  68.7819309  18.8510699  88.2930633  61.1559281  32.0595546
  88.2606953  60.2175282  32.2455229  88.9031256  61.2343318  31.3261371
  80.1313964  60.0255334  18.1022750  81.0773068  59.8961542  18.1711168
  79.7528209  59.2869996  18.5792178  88.4425121  57.9470324  32.1053829
  87.9264170  57.1628781  31.9183758  89.3265070  57.6189041  32.2700348
  86.1035848  51.6911340  28.0649641  85.9060669  51.3826428  28.9492973
  86.7135554  52.4172979  28.1947571  94.1107183  62.2175288  31.2001582
  94.8410571  61.9560576  31.7609286  93.5014128  61.4804010  31.2403650
  92.1922480  60.3583150  31.7976034  91.4655643  60.2239115  31.1892525
  91.7769767  60.6659979  32.6032752  80.0152656  64.0773080  39.5623407
  80.9355666  64.2551679  39.7563453  79.9802239  63.1329125  39.4103106
  78.3156881  57.9505310  18.0377635  77.4088336  57.6538423  18.1140348
  78.5932862  57.6535128  17.1711921  69.2334821  59.2711674  28.4876681
  68.9137605  58.4176982  28.1951055  68.6868249  59.4860252  29.2434649
  73.0114729  61.9874115  32.2046188  73.2300738  62.9191222  32.2234222
  73.4240503  61.6282089  32.9900992  79.9318946  52.4942200  24.1921876
  79.1219675  52.1489285  24.5677122  80.6203363  52.1849744  24.7809488
  81.8609495  51.5720247  25.8146173  82.4140533  51.9915700  26.4736196
  82.0979581  50.6455995  25.8569129  77.8842594  57.5607320  41.5948937
  77.7839321  58.5101677  41.5261028  77.6664136  57.2325559  40.7225007
  77.0855665  54.8092245  18.1789614  77.9474829  55.1347144  18.4385431
  77.2706010  54.0223741  17.6662680  69.1023081  62.8914585  30.4569803
  68.4086553  62.4768538  29.9439757  69.8496072  62.9335122  29.8603222
  85.2388302  53.6820772  25.3224837  84.6586971  54.3405576  24.9402890
  84.9724235  52.8598117  24.9112255  83.6891868  53.0825830  27.5246157
  84.1891647  53.1942364  26.7160476  84.3327476  52.7786882  28.1646966
  77.7473864  60.9904459  40.4113998  77.2640946  61.7904819  40.6177887
  77.8334803  61.0012404  39.4581442  71.0159824  62.8232839  28.3335818
  70.9930512  62.9220526  27.3817701  71.3260460  63.6697990  28.6552984
  73.6747202  64.8808994  32.4482432  74.6290455  64.8492936  32.3812364
  73.4759725  64.4199618  33.2632658  74.2646584  63.4510110  35.0153230
  75.0839473  63.9454189  35.0388067  74.5383391  62.5342078  34.9870797
  84.0213180  55.8420862  24.3781185  83.1339035  56.1270513  24.1601380
  84.4367169  55.6814626  23.5308462  87.3727716  55.8667383  28.0935525
  88.1488106  56.3563836  28.3660141  86.6475850  56.2925437  28.5507394
  89.8100275  56.5795002  29.1509465  90.4044765  56.3390738  28.4402773
  89.8826858  55.8602133  29.7783002  72.0297430  70.4228613  29.4652630
  71.8951898  69.6629014  28.8990628  71.6129493  71.1469513  28.9981419
  83.1656393  65.6065537  18.4729205  83.8692243  65.8115539  19.0886861
  82.4419042  66.1742299  18.7378289  83.9954204  61.3575398  24.5931476
  83.9389405  61.8143950  23.7539108  84.5482546  60.5966083  24.4154318
  87.8059010  57.1465130  25.4181595  87.5495944  56.7461766  26.2489803
  87.1811878  57.8608924  25.2931734  92.1171347  59.8861203  27.9252886
  91.5570905  59.9554393  28.6984448  91.5114851  59.7102188  27.2052383
  75.1866556  71.3197930  29.6771073  75.0698940  72.2643363  29.5749763
  74.3659002  71.0171492  30.0656872  85.0743091  66.0448066  20.5227665
  85.9088695  65.6129265  20.3405140  84.9127434  65.8730080  21.4504560
  84.7288983  62.5480179  21.8884005  84.6737787  62.3824451  20.9472449
  84.1035038  63.2556212  22.0446194  69.5181498  57.7848244  35.7145427
  70.1640362  57.2747198  36.2032652  69.3098649  58.5216925  36.2888852
  82.0434890  64.8529091  41.2137567  82.9126050  65.0269744  40.8524202
  81.5641642  65.6723508  41.0913297  78.0385108  52.0488288  21.4669323
  78.0263778  52.9930128  21.6237594  78.9308530  51.8658434  21.1728784
  76.2121070  71.9726192  32.8927001  77.1148317  72.0049803  33.2093496
  75.9858440  71.0426643  32.9073337  77.9674672  70.7257179  29.5537080
  77.0170303  70.7259040  29.4401452  78.2707158  69.9789913  29.0373114
  81.8537228  48.6431065  25.7215260  81.0869624  48.0889552  25.8671942
  82.2647933  48.7152934  26.5829412  73.8578989  54.9315861  39.8120441
  74.7210450  54.5752666  40.0223766  73.2844400  54.5929756  40.4995845
  93.7027366  76.5617717  30.6182842  94.3405776  76.4424465  29.9146182
  93.5848209  77.5098561  30.6770794  90.5117072  76.5145145  30.5544367
  90.1735584  76.3986210  29.6664902  91.3806840  76.1136310  30.5345373
  86.3703888  78.3680622  26.5441258  85.8068753  78.2770559  25.7757546
  86.2556283  77.5480526  27.0243750  83.9168320  79.8631813  29.3825478
  84.7089612  79.5222638  28.9671778  84.1564970  79.9726788  30.3027632
  91.9503447  82.0351589  21.8555723  91.2991426  82.6205670  21.4689736
  92.7447809  82.5657784  21.9150760  85.8759074  79.1240727  22.2542857
  86.6489950  78.5769714  22.1155733  86.2284473  79.9884976  22.4657318
  88.6400323  77.8293957  32.0511116  89.2363895  77.6049980  31.3368079
  88.6975295  77.0878703  32.6536564  88.2125352  75.2833393  19.8861307
  88.4650872  74.7614914  19.1244770  87.2749911  75.1199538  19.9887991
  93.2568634  74.2869171  27.6936050  94.0431724  73.8688594  27.3426467
  93.5207339  75.1915263  27.8617699  93.4278712  79.7242021  22.3924707
  92.7924545  79.7976648  23.1045612  93.0976118  80.3135620  21.7143786
  98.6577061  74.2244404  28.5969029  99.3902233  73.6543621  28.8306858
  97.9016417  73.8366005  29.0375534  87.9321640  77.1861499  22.0885682
  87.8157898  76.5106402  22.7566766  88.0423900  76.6993873  21.2717835
  90.2753181  76.6471646  25.7932371  89.9111388  76.1202267  26.5045293
  91.1320297  76.2570115  25.6198857  96.1802482  67.9365978  33.0563637
  95.8485807  68.8061389  32.8324852  95.5848095  67.6202262  33.7357668
  89.9158668  71.6761546  20.7893720  90.0833071  72.5441782  21.1564191
  89.7255837  71.8388827  19.8655009  86.1246483  76.5892321  28.4896254
  85.1996979  76.4568535  28.6973946  86.3730896  77.3686541  28.9866197
  96.0731145  72.6561065  30.1356987  95.1648022  72.5876473  29.8415748
  96.0218741  73.1333010  30.9638813  89.8947889  74.1319203  21.7740386
  89.7747514  74.5776254  22.6125867  89.2000477  74.4804521  21.2153925
  83.4855294  76.2325595  29.3240044  83.6147675  76.4860074  30.2379455
  82.8052745  76.8253303  29.0044699  87.6554781  86.9022845  25.4230518
  87.5778811  87.8530670  25.5018998  87.0516425  86.5568717  26.0805444
  90.1472011  74.0750710  38.0791885  89.3705345  74.6344630  38.0694749
  90.7862574  74.5607493  38.6006755  97.9392792  70.8577503  31.9134861
  97.2967172  71.1510036  31.2674656  97.4347720  70.7430423  32.7188058
  95.5932955  74.6040676  22.6020721  96.5050811  74.8368063  22.4268418
  95.0842602  75.1877720  22.0395799  88.4018383  76.8836164  37.6409852
  89.1433068  77.4221208  37.3644675  87.6955369  77.5102452  37.7981403
  90.2304793  73.9637911  33.6115570  91.0765988  74.3877324  33.7550219
  90.1703431  73.3071535  34.3054133  94.2002538  79.5866495  29.9934302
  93.5711400  79.7512209  29.2910370  93.8128200  80.0008104  30.7645266
  98.0791769  80.5220932  27.3478666  97.3942808  80.9019834  26.7975699
  98.1635619  81.1316259  28.0810614  93.3804238  71.6242279  35.2696744
  93.1365170  72.3784340  34.7331019  93.6564169  72.0027627  36.1043991
  92.9368930  70.7798712  30.8510581  92.0753409  71.0779966  31.1427319
  92.9631365  70.9969111  29.9191614  89.7530499  79.3240903  27.2584387
  90.2168845  79.6028606  26.4689010  89.4887297  78.4224347  27.0757478
  86.6454580  78.8712384  30.1964150  87.2155938  79.2999653  29.5581635
  87.2362692  78.5894969  30.8948336  88.6899385  75.4464055  24.0673952
  89.3923429  75.8985099  24.5347879  88.3580014  74.8047874  24.6953845
  87.1379747  74.0375812  38.4425162  86.5078408  74.7192093  38.6760558
  87.0315835  73.9258893  37.4978300  82.4324719  73.7047608  29.3691086
  81.6423773  73.9605136  28.8931196  82.9235967  74.5195946  29.4743126
  96.4488529  81.0452847  32.1196367  97.2705973  80.6433034  31.8379048
  96.4450932  80.9421081  33.0712482  84.3839465  74.0692187  26.3274563
  83.5870628  74.1810881  26.8458058  84.1565057  74.4078839  25.4615453
  80.7162422  73.9578098  31.8006077  80.9670461  74.8425108  32.0663653
  81.2521971  73.7782700  31.0281168 104.5394522  77.3891595  28.4681338
 103.7858230  76.8198993  28.3125343 104.6742063  77.3554260  29.4151973
  89.9293150  82.2604998  24.1436057  89.7938825  83.1056533  24.5720905
  90.4702963  82.4624275  23.3801991  86.4160490  68.3396578  40.8050413
  86.0227435  67.7862776  41.4798057  87.2326630  68.6507156  41.1956930
  83.3822547  79.7780436  24.7163983  83.8947068  80.5723686  24.8669547
  84.0345260  79.0806726  24.6497584  85.1917432  82.8946192  26.7986736
  85.3684060  83.8164157  26.6107720  85.9874266  82.5804611  27.2281116
  89.3328451  69.7554457  38.3970669  90.0738164  70.3561610  38.3175132
  89.5646374  69.0132094  37.8388712  84.4769789  74.9410824  36.6748899
  84.3623304  74.0396081  36.9755998  83.6214306  75.1874521  36.3233715
  93.2785614  65.7835560  32.6734951  92.9349883  66.6737201  32.5974062
  93.6464576  65.5937217  31.8104536  81.3471464  78.1069090  25.4923553
  82.1846686  78.5166098  25.2757261  81.5249732  77.1668532  25.4623747
  93.2435896  75.7744171  21.1807386  92.7282520  76.5448775  21.4195773
  92.9713205  75.1009307  21.8040447  90.8283007  70.6193871  26.2392624
  89.9724604  70.2300722  26.0598263  91.2409959  70.6985832  25.3792410
  92.3582154  68.1540215  30.6384184  91.8546950  68.1170350  29.8251989
  92.6512761  69.0632957  30.6980841  88.6025040  68.2378944  29.6450366
  89.4678037  68.0421753  29.2856255  88.6702549  68.0089296  30.5719723
  98.2170170  78.5276525  23.1160560  97.4399613  78.1887685  22.6715722
  98.8961651  78.5329149  22.4415525  93.0322200  73.6471263  23.0067167
  92.7272335  73.9617412  23.8577310  93.9852642  73.7252683  23.0494500
  91.4768631  79.8061486  24.6560121  90.9489993  79.0714246  24.3433359
  90.9756134  80.5836162  24.4100090  96.4561477  78.0010507  29.7727168
  95.7985152  78.6909768  29.8607296  97.2601877  78.3906939  30.1161154
  86.2087359  70.4681152  27.0166733  86.7831111  70.2456334  26.2839926
  86.7958341  70.5369847  27.7695334  95.2666936  76.3554879  27.8231109
  95.7798818  76.9884871  28.3252819  95.9168160  75.7556075  27.4574469
  86.5356946  72.4985613  21.0362618  85.6994258  72.8360300  21.3571893
  86.3961716  72.3634593  20.0989755  88.5110027  67.3422401  25.7441802
  87.8574439  67.0271418  25.1198417  88.4690501  66.7198142  26.4701625
  89.6221232  77.6241696  17.6595094  88.7148293  77.3930950  17.8586243
  90.1192264  76.8279316  17.8469076  92.5289310  86.3339204  20.5791780
  91.8551009  86.6370900  21.1876738  92.9155132  87.1368284  20.2297237
  91.7447767  73.8304335  30.0689450  90.8270328  74.0519282  29.9111138
  92.1607911  73.9050645  29.2101157  92.5282815  75.2295751  25.1992130
  93.2754634  75.7417148  24.8899252  92.7974404  74.9079803  26.0596524
  90.8009465  77.7254291  22.1819084  89.8920684  77.4413324  22.2791554
  90.8304549  78.1453370  21.3222391  96.0328732  81.3360881  25.9510252
  95.5791059  80.4951791  26.0075442  95.4022699  81.9722279  26.2885032
  94.9761652  72.2652867  27.1810919  94.2384409  71.7530253  27.5121162
  95.2288425  71.8253248  26.3694196  94.4761672  83.1737377  26.8860070
  94.7684646  83.7342435  26.1672436  94.9860292  83.4665938  27.6413229
  95.0773279  65.0429119  27.7752689  95.3832156  64.1826482  27.4878604
  95.8025884  65.6346739  27.5751683  81.3697635  75.4459805  26.1634287
  81.1722035  74.8529166  25.4385353  80.8144299  75.1412016  26.8810225
  89.3494359  75.3382912  28.2828880  89.4042969  74.3856748  28.2071356
  88.5385561  75.4942351  28.7670178  90.4985553  79.2663035  19.5207163
  90.0604983  78.5498894  19.0612800  91.2395994  79.4939150  18.9592254
  87.2886719  73.9559972  26.0419259  86.4754584  74.2554142  26.4484451
  87.7845713  73.5615660  26.7593741  89.4395297  83.9517729  27.9753523
  89.3971476  84.1778575  27.0462055  90.3557996  83.7181103  28.1239324
  92.8860931  74.4201796  34.8734152  93.2410318  74.6473269  35.7328618
  93.5333062  74.7520173  34.2511408  98.6158668  77.5420232  25.5783481
  98.4776566  77.7321828  24.6504671  98.2594886  78.3039615  26.0351533
  86.7800794  71.5278327  31.6580493  87.4200173  71.3867086  30.9603457
  85.9478324  71.2412841  31.2819095  98.6428047  79.6096759  30.5894753
  99.0764554  79.5172048  31.4377807  99.3559628  79.5854259  29.9514769
  87.5561098  80.8280758  27.7715486  88.3501696  80.3331078  27.5698061
  86.8452790  80.2998621  27.4083192  92.3755942  83.2098853  32.1227854
  92.4292964  83.7789789  32.8905569  91.5070723  83.3800738  31.7581891
  83.8643861  74.9723839  23.8475239  82.9341449  74.9108295  24.0645201
  83.9601333  74.4499792  23.0511880  83.7829410  71.4978652  26.4353480
  84.0436227  72.4123985  26.3262641  84.6046582  71.0303095  26.5850093
  85.2554335  72.9116409  33.6052305  85.9277389  72.7033771  32.9564954
  84.4284122  72.7138495  33.1657537  91.1579907  69.5378350  35.6217966
  90.5107823  70.2368300  35.5282442  91.9280923  69.9714494  35.9894214
  91.3344042  77.3759115  33.6814785  92.2636102  77.5270275  33.5083753
  90.9135072  77.4643136  32.8263432  90.1332374  81.4009780  31.4513323
  89.9943459  81.0328564  32.3239261  89.3446970  81.9157419  31.2797281
  90.7280526  86.5018876  22.7938860  90.9032281  86.0306919  23.6084482
  90.0413314  87.1284642  23.0220120  91.6837589  80.7791382  28.8402161
  91.3487421  80.7392152  29.7359811  91.1841534  80.1136098  28.3672571
  85.6581833  76.1859012  34.3654742  85.5201631  75.4539251  34.9666281
  86.5686756  76.0967912  34.0838930  94.6196780  78.1247417  19.1139220
  94.0025951  77.3994245  19.0172273  94.1513269  78.8856777  18.7706295
  88.2864133  75.8978972  33.8538422  88.9963752  75.2572164  33.8125040
  88.2433442  76.1491866  34.7764602  86.9993067  72.8844189  35.6734061
  86.4630424  72.4334928  36.3255657  86.4109776  73.0190098  34.9304525
  85.2941611  89.6508239  29.5678720  85.5338209  90.2826763  30.2457738
  84.4510807  89.2996279  29.8544079  86.4095326  72.3432841  18.2360525
  85.5324793  72.2221642  17.8722771  86.8853079  71.5518919  17.9839413
  77.9297466  77.1310001  28.3302032  78.6168506  76.8171731  27.7423047
  77.7745595  78.0351365  28.0569283  82.7332189  72.0200197  32.7587056
  82.6490377  71.4125867  32.0237466  81.9114895  72.5109215  32.7596552
  89.5959252  84.6959131  25.4823045  88.8126774  85.2380811  25.5761270
  90.2951998  85.2133111  25.8817286  92.9055902  70.5053761  28.1257251
  93.4024602  69.7523723  27.8058321  92.1342884  70.5418077  27.5600460
  93.9885683  79.2625448  25.6995674  93.0541962  79.3826910  25.5300378
  94.1662352  78.3597915  25.4355684  89.4890871  72.6471144  27.8528935
  89.1188659  72.0942184  28.5409841  89.9849964  72.0429277  27.3003935
  97.3758234  75.1042767  26.2345708  97.8418687  75.9370759  26.1606011
  97.8265735  74.6387749  26.9390967  95.4434466  81.4486588  23.2331860
  95.7194310  81.3343183  24.1425734  94.5738964  81.0504073  23.1944033
  95.3474897  67.4723354  30.2736610  94.4337977  67.7027581  30.4418816
  95.7767999  67.5561798  31.1250642  92.0788530  85.6972939  26.8764674
  92.2610924  84.8794595  27.3392426  92.9021516  85.9140632  26.4389564
  92.4130695  84.6241124  24.1379722  92.9418462  84.1133579  23.5249884
  92.6758915  84.3083655  25.0025255  91.1668929  76.4033057  39.2602541
  90.4909566  76.3027187  39.9304916  91.9896563  76.2472271  39.7238538
  85.7686443  85.6756241  26.8977498  85.0996818  86.1602369  26.4141538
  85.6299313  85.9225462  27.8120877  77.5065443  75.2110594  30.6019499
  77.5449542  74.6774185  31.3956617  77.0005735  74.6845799  29.9830476
  84.8856205  70.0575134  34.0982041  84.9497531  70.9189965  33.6859439
  84.8223325  69.4449136  33.3654400  84.3608477  72.1298267  37.7455076
  84.9880516  71.7475344  38.3592600  83.5036396  71.9112469  38.1110768
  81.1374020  73.9374696  23.6773430  81.4327461  73.0285375  23.6240484
  80.2362056  73.9162436  23.3554433  93.0460099  85.6581960  30.4823839
  92.9211238  84.8571700  29.9734784  93.7039190  86.1528154  29.9937809
  84.6668267  72.0130693  29.6600979  83.9454853  72.6266660  29.5208452
  85.4561523  72.5488458  29.5817625  95.1095007  83.4590980  32.1103389
  94.1625343  83.3396331  32.0381716  95.4577780  82.5713478  32.1929650
  87.4694581  69.3485119  35.9341631  87.9928982  69.5947416  36.6967940
  87.2506914  70.1805154  35.5144768  82.8661862  71.6188794  23.8012756
  82.5374568  70.7386173  23.6187861  83.2201232  71.5636462  24.6889145
  92.1141441  83.2543696  28.3107741  91.9666403  82.3260404  28.4915311
  92.9394934  83.2763787  27.8264816  85.9803685  71.9061764  24.1688233
  86.3199757  72.4347685  23.4466842  86.4275805  72.2442170  24.9446800
  95.7175562  84.0772255  29.3972614  96.6422110  83.8715117  29.2597065
  95.5490866  83.8288656  30.3061955  88.6747126  70.2898814  33.6191301
  88.3343946  69.4906627  34.0211981  87.9686132  70.5900525  33.0468134
  89.3263598  67.3748127  32.0718624  90.1489667  66.9008605  31.9497515
  89.5701661  68.1538610  32.5717311  87.9671832  70.4036385  22.3681526
  88.6880195  70.7817638  21.8645243  87.3437136  71.1225262  22.4716504
  92.1102955  71.1081534  23.3039858  92.3266569  71.9906172  23.0028686
  91.6297022  70.7167748  22.5745500  86.8502176  74.0667247  29.8810603
  86.7046757  74.3807550  30.7734884  86.3727380  74.6852148  29.3281502
  88.7098559  71.0569795  29.9291492  88.6960128  70.1610889  29.5923790
  89.4270987  71.0640459  30.5629779  90.5624690  71.4907136  31.9744620
  90.3042468  72.4124206  31.9728950  90.0309730  71.0937570  32.6645084
  95.5070879  84.5957923  24.7534705  95.6807756  84.0304345  24.0008558
  95.9999770  85.3958818  24.5714195  81.3247838  76.6072592  32.8198264
  80.7801307  77.3832400  32.9518538  82.2027188  76.9543396  32.6617386
  88.1135455  69.9384176  25.1979063  88.2351366  69.0100822  25.3969950
  87.8237497  69.9522862  24.2857378  90.9826645  67.6239086  28.3345782
  91.0048342  67.6878419  27.3797762  91.3994705  66.7843595  28.5286289
 101.3610270  77.3594346  26.3725005 101.8041416  76.6101671  25.9744128
 100.4836780  77.3504482  25.9898737  96.4946051  83.9124687  21.8531604
  97.1896956  84.5331380  22.0718918  96.8369201  83.0620038  22.1283981
  82.1113860  75.7342488  35.7128421  81.3695596  75.8825123  36.2993051
  81.7906605  75.9950754  34.8495170  98.3937474  81.3624393  23.3818934
  98.9188798  81.7011665  22.6568254  98.3059827  80.4271408  23.1982069
  90.0778135  87.4296376  27.7414188  89.6383125  86.9372755  28.4347044
  90.8286252  86.8869344  27.5006263  82.5570474  83.6207917  27.7438816
  83.3828494  83.3211689  27.3637459  82.2064526  82.8515539  28.1928604
  87.5252007  82.9734385  29.8136489  86.9032016  82.3105090  29.5138717
  88.1956874  82.9995517  29.1310137  80.7579079  81.5394243  28.7027749
  79.9210987  81.1116418  28.5211750  80.7302724  81.7326687  29.6398540
  87.5976535  71.4516173  39.4068995  87.6464690  72.3278296  39.0246765
  88.1399049  70.9093566  38.8340638  87.0865514  81.5238308  23.2894950
  87.2353634  82.2073773  22.6361622  87.8931958  81.5043398  23.8044405
  95.4933018  74.8280691  37.3162168  96.3942881  74.6887156  37.0246165
  95.5680992  74.9935145  38.2560345  89.8275823  72.2047545  36.1615354
  88.9579133  72.4981111  35.8897942  90.0635303  72.7887990  36.8822618
 100.9043135  78.8299584  28.7647453 101.7390026  79.2689388  28.9285013
 101.0402263  78.3538237  27.9455698  84.8418147  77.5503486  24.2956019
  84.5964189  76.6465816  24.4936229  85.0114062  77.5520636  23.3535497
  92.5314857  68.4227162  33.6780774  93.0496801  69.1588189  33.3527263
  92.1769990  68.7291156  34.5127533  84.1113795  73.2831844  21.7942180
  83.4183040  73.3576199  21.1382216  83.8665546  72.5192187  22.3163697
  92.7827451  64.8427445  29.1981671  93.0629205  64.1750634  29.8242097
  93.5678058  65.0356540  28.6856335  90.5860920  84.0186439  20.7606697
  90.0134887  84.6376626  20.3077169  91.1593713  84.5685800  21.2946619
  94.6750689  70.3500662  33.1312647  94.0800621  70.6305675  32.4359136
  94.3900386  70.8394563  33.9029388  93.8058179  84.3023589  21.8915279
  94.7388853  84.2369151  22.0948155  93.7181392  85.1379856  21.4329812
  96.4346196  83.6189459  18.8519227  96.3559828  83.2849323  19.7454985
  97.2555863  84.1111227  18.8510699  90.9707718  75.3547252  18.1022750
  91.9166823  75.2253460  18.1711168  90.5921963  74.6161913  18.5792178
  96.9429603  67.0203258  28.0649641  96.7454424  66.7118346  28.9492973
  97.5529308  67.7464896  28.1947571 104.9500937  77.5467205  31.2001582
 105.6804326  77.2852494  31.7609286 104.3407883  76.8095927  31.2403650
  89.1550635  73.2797228  18.0377635  88.2482091  72.9830341  18.1140348
  89.4326616  72.9827046  17.1711921  80.0728576  74.6003591  28.4876681
  79.7531360  73.7468900  28.1951055  79.5262004  74.8152169  29.2434649
  83.8508483  77.3166032  32.2046188  84.0694493  78.2483140  32.2234222
  84.2634257  76.9574007  32.9900992  90.7712701  67.8234118  24.1921876
  89.9613429  67.4781203  24.5677122  91.4597118  67.5141661  24.7809488
  92.7003249  66.9012164  25.8146173  93.2534288  67.3207618  26.4736196
  92.9373336  65.9747913  25.8569129  88.7236348  72.8899238  41.5948937
  88.6233075  73.8393595  41.5261028  88.5057891  72.5617477  40.7225007
  87.9249420  70.1384163  18.1789614  88.7868584  70.4639061  18.4385431
  88.1099764  69.3515659  17.6662680  79.9416836  78.2206503  30.4569803
  79.2480307  77.8060456  29.9439757  80.6889827  78.2627039  29.8603222
  96.0782056  69.0112690  25.3224837  95.4980725  69.6697494  24.9402890
  95.8117989  68.1890034  24.9112255  94.5285623  68.4117747  27.5246157
  95.0285401  68.5234282  26.7160476  95.1721231  68.1078800  28.1646966
  88.5867619  76.3196377  40.4113998  88.1034700  77.1196737  40.6177887
  88.6728558  76.3304322  39.4581442  81.8553578  78.1524757  28.3335818
  81.8324266  78.2512444  27.3817701  82.1654215  78.9989907  28.6552984
  94.8606934  71.1712780  24.3781185  93.9732789  71.4562431  24.1601380
  95.2760923  71.0106543  23.5308462  98.2121471  71.1959301  28.0935525
  98.9881861  71.6855753  28.3660141  97.4869605  71.6217355  28.5507394
 100.6494029  71.9086920  29.1509465 101.2438520  71.6682656  28.4402773
 100.7220613  71.1894051  29.7783002  82.8691185  85.7520531  29.4652630
  82.7345653  84.9920932  28.8990628  82.4523247  86.4761431  28.9981419
  94.0050148  80.9357455  18.4729205  94.7085998  81.1407457  19.0886861
  93.2812797  81.5034217  18.7378289  94.8347958  76.6867316  24.5931476
  94.7783160  77.1435867  23.7539108  95.3876301  75.9258001  24.4154318
  98.6452764  72.4757048  25.4181595  98.3889698  72.0753683  26.2489803
  98.0205632  73.1900842  25.2931734 102.9565102  75.2153121  27.9252886
 102.3964660  75.2846310  28.6984448 102.3508605  75.0394106  27.2052383
  86.0260311  86.6489848  29.6771073  85.9092695  87.5935281  29.5749763
  85.2052757  86.3463410  30.0656872  95.9136845  81.3739984  20.5227665
  96.7482449  80.9421182  20.3405140  95.7521188  81.2021998  21.4504560
  95.5682737  77.8772097  21.8884005  95.5131541  77.7116369  20.9472449
  94.9428793  78.5848130  22.0446194  80.3575252  73.1140162  35.7145427
  81.0034116  72.6039116  36.2032652  80.1492404  73.8508843  36.2888852
  88.8778863  67.3780206  21.4669323  88.8657533  68.3222046  21.6237594
  89.7702285  67.1950352  21.1728784  88.8068427  86.0549097  29.5537080
  87.8564058  86.0550958  29.4401452  89.1100913  85.3081831  29.0373114
  92.6930982  63.9722983  25.7215260  91.9263378  63.4181469  25.8671942
  93.1041687  64.0444852  26.5829412  84.6972743  70.2607779  39.8120441
  85.5604205  69.9044583  40.0223766  84.1238154  69.9221673  40.4995845
 104.5421120  91.8909635  30.6182842 105.1799530  91.7716382  29.9146182
 104.4241963  92.8390479  30.6770794 101.3510827  91.8437063  30.5544367
 101.0129338  91.7278128  29.6664902 102.2200595  91.4428228  30.5345373
  97.2097642  93.6972539  26.5441258  96.6462507  93.6062476  25.7757546
  97.0950037  92.8772444  27.0243750 101.8330610  92.9971915  36.5130572
 101.8219250  92.6024713  35.6411076 101.9951249  92.2637987  37.1064344
  94.7562074  95.1923731  29.3825478  95.5483366  94.8514556  28.9671778
  94.9958724  95.3018706  30.3027632 102.7897201  97.3643507  21.8555723
 102.1385181  97.9497588  21.4689736 103.5841564  97.8949702  21.9150760
  96.7152828  94.4532644  22.2542857  97.4883704  93.9061631  22.1155733
  97.0678227  95.3176894  22.4657318  98.5537871  95.7809027  35.4609756
  98.2627737  96.6854657  35.3456423  99.1894855  95.8225554  36.1753826
  99.4794078  93.1585875  32.0511116 100.0757650  92.9341898  31.3368079
  99.5369049  92.4170621  32.6536564  99.0519106  90.6125310  19.8861307
  99.3044627  90.0906832  19.1244770  98.1143665  90.4491456  19.9887991
 104.0962389  89.6161089  27.6936050 104.8825478  89.1980512  27.3426467
 104.3601093  90.5207181  27.8617699 104.2672466  95.0533939  22.3924707
 103.6318299  95.1268566  23.1045612 103.9369873  95.6427538  21.7143786
 109.4970816  89.5536322  28.5969029 110.2295988  88.9835539  28.8306858
 108.7410172  89.1657922  29.0375534  98.7715395  92.5153416  22.0885682
  98.6551653  91.8398320  22.7566766  98.8817655  92.0285790  21.2717835
 101.1146936  91.9763563  25.7932371 100.7505143  91.4494184  26.5045293
 101.9714052  91.5862033  25.6198857 107.0196236  83.2657896  33.0563637
 106.6879561  84.1353307  32.8324852 106.4241850  82.9494180  33.7357668
 100.7552423  87.0053463  20.7893720 100.9226825  87.8733700  21.1564191
 100.5649592  87.1680745  19.8655009 103.5127756  95.4670442  32.4559550
 103.2128479  96.3695481  32.3475357 103.1678815  95.2002625  33.3080703
  96.9640237  91.9184239  28.4896254  96.0390734  91.7860453  28.6973946
  97.2124651  92.6978458  28.9866197 106.9124900  87.9852982  30.1356987
 106.0041777  87.9168391  29.8415748 106.8612495  88.4624927  30.9638813
 100.7341644  89.4611121  21.7740386 100.6141269  89.9068171  22.6125867
 100.0394232  89.8096438  21.2153925  94.3249048  91.5617512  29.3240044
  94.4541430  91.8151991  30.2379455  93.6446500  92.1545220  29.0044699
  98.4948536 102.2314762  25.4230518  98.4172565 103.1822588  25.5018998
  97.8910179 101.8860635  26.0805444 100.9865765  89.4042628  38.0791885
 100.2099099  89.9636548  38.0694749 101.6256328  89.8899411  38.6006755
 108.7786546  86.1869421  31.9134861 108.1360926  86.4801954  31.2674656
 108.2741475  86.0722341  32.7188058 106.4326710  89.9332594  22.6020721
 107.3444566  90.1659981  22.4268418 105.9236357  90.5169638  22.0395799
  99.2412138  92.2128081  37.6409852  99.9826822  92.7513125  37.3644675
  98.5349123  92.8394370  37.7981403 104.7167477  94.3557222  36.2382013
 105.1250833  93.9139632  35.4936645 103.9944739  93.7809849  36.4916206
 101.0698547  89.2929828  33.6115570 101.9159743  89.7169242  33.7550219
 101.0097185  88.6363453  34.3054133 105.0396292  94.9158412  29.9934302
 104.4105154  95.0804126  29.2910370 104.6521954  95.3300022  30.7645266
 108.9185524  95.8512850  27.3478666 108.2336562  96.2311752  26.7975699
 109.0029373  96.4608177  28.0810614 104.2197993  86.9534197  35.2696744
 103.9758925  87.7076257  34.7331019 104.4957923  87.3319544  36.1043991
 106.1736455  93.4972809  33.9474009 106.3853351  94.1404569  33.2708390
 106.1266204  92.6635126  33.4795939 103.7762684  86.1090630  30.8510581
 102.9147163  86.4071883  31.1427319 103.8025119  86.3261029  29.9191614
 100.5924254  94.6532820  27.2584387 101.0562599  94.9320523  26.4689010
 100.3281052  93.7516265  27.0757478  97.4848335  94.2004302  30.1964150
  98.0549692  94.6291570  29.5581635  98.0756447  93.9186887  30.8948336
  99.5293140  90.7755973  24.0673952 100.2317183  91.2277016  24.5347879
  99.1973768  90.1339792  24.6953845  93.2718474  89.0339525  29.3691086
  92.4817528  89.2897054  28.8931196  93.7629721  89.8487863  29.4743126
 107.2882283  96.3744765  32.1196367 108.1099727  95.9724952  31.8379048
 107.2844686  96.2712999  33.0712482  95.2233219  89.3984105  26.3274563
  94.4264383  89.5102799  26.8458058  94.9958811  89.7370757  25.4615453
 101.0538887  95.9228808  34.2757077 101.1183319  96.3849215  35.1115249
 100.3449811  95.2926173  34.4039387  91.5556177  89.2870016  31.8006077
  91.8064215  90.1717026  32.0663653  92.0915725  89.1074617  31.0281168
 115.3788276  92.7183513  28.4681338 114.6251985  92.1490911  28.3125343
 115.5135818  92.6846178  29.4151973 100.7686905  97.5896915  24.1436057
 100.6332579  98.4348451  24.5720905 101.3096717  97.7916193  23.3801991
  94.2216302  95.1072353  24.7163983  94.7340822  95.9015604  24.8669547
  94.8739015  94.4098644  24.6497584  96.0311187  98.2238110  26.7986736
  96.2077815  99.1456074  26.6107720  96.8268020  97.9096529  27.2281116
 102.3955381  98.2120482  38.2736400 101.9519235  97.4256860  37.9557304
 103.0572595  98.3999632  37.6080290  97.1542502  99.7416284  32.7997078
  97.7049927  99.6133347  32.0274072  96.3153978 100.0411173  32.4491971
 104.4936619  98.4923282  36.3017801 104.4755094  99.3132163  35.8098070
 105.4156539  98.3677357  36.5267942 100.9509673  96.0067411  37.1441309
 101.4838010  95.2455700  36.9140617 100.4223754  95.7141063  37.8865464
 104.1179368  81.1127477  32.6734951 103.7743638  82.0029119  32.5974062
 104.4858331  80.9229135  31.8104536  92.1865219  93.4361008  25.4923553
  93.0240441  93.8458016  25.2757261  92.3643486  92.4960450  25.4623747
 104.0829651  91.1036088  21.1807386 103.5676274  91.8740693  21.4195773
 103.8106959  90.4301225  21.8040447 101.6676762  85.9485789  26.2392624
 100.8118358  85.5592640  26.0598263 102.0803714  86.0277750  25.3792410
 103.1975908  83.4832132  30.6384184 102.6940704  83.4462268  29.8251989
 103.4906515  84.3924875  30.6980841  99.4418794  83.5670862  29.6450366
 100.3071791  83.3713671  29.2856255  99.5096303  83.3381214  30.5719723
 109.0563925  93.8568443  23.1160560 108.2793368  93.5179603  22.6715722
 109.7355406  93.8621066  22.4415525 103.8715954  88.9763180  23.0067167
 103.5666090  89.2909330  23.8577310 104.8246396  89.0544600  23.0494500
 102.3162386  95.1353404  24.6560121 101.7883747  94.4006163  24.3433359
 101.8149889  95.9128080  24.4100090 107.2955232  93.3302424  29.7727168
 106.6378906  94.0201686  29.8607296 108.0995631  93.7198856  30.1161154
  97.0481113  85.7973070  27.0166733  97.6224865  85.5748252  26.2839926
  97.6352096  85.8661765  27.7695334 106.1060691  91.6846797  27.8231109
 106.6192572  92.3176789  28.3252819 106.7561915  91.0847992  27.4574469
  97.3750701  87.8277531  21.0362618  96.5388013  88.1652218  21.3571893
  97.2355470  87.6926511  20.0989755  99.3503781  82.6714319  25.7441802
  98.6968194  82.3563336  25.1198417  99.3084255  82.0490059  26.4701625
 100.4614986  92.9533614  17.6595094  99.5542048  92.7222868  17.8586243
 100.9586018  92.1571233  17.8469076 103.3683065 101.6631121  20.5791780
 102.6944764 101.9662818  21.1876738 103.7548887 102.4660202  20.2297237
 102.5841522  89.1596253  30.0689450 101.6664083  89.3811200  29.9111138
 103.0001665  89.2342563  29.2101157 103.3676569  90.5587668  25.1992130
 104.1148388  91.0709065  24.8899252 103.6368159  90.2371721  26.0596524
 101.6403219  93.0546209  22.1819084 100.7314439  92.7705242  22.2791554
 101.6698303  93.4745287  21.3222391 106.8722487  96.6652798  25.9510252
 106.4184814  95.8243708  26.0075442 106.2416454  97.3014197  26.2885032
 105.8155406  87.5944784  27.1810919 105.0778163  87.0822171  27.5121162
 106.0682180  87.1545166  26.3694196 105.3155426  98.5029295  26.8860070
 105.6078400  99.0634352  26.1672436 105.8254047  98.7957856  27.6413229
 105.9167034  80.3721036  27.7752689 106.2225911  79.5118400  27.4878604
 106.6419639  80.9638657  27.5751683  92.2091390  90.7751723  26.1634287
  92.0115790  90.1821084  25.4385353  91.6538054  90.4703933  26.8810225
 100.1888114  90.6674830  28.2828880 100.2436723  89.7148666  28.2071356
  99.3779316  90.8234269  28.7670178 101.3379307  94.5954953  19.5207163
 100.8998737  93.8790812  19.0612800 102.0789748  94.8231067  18.9592254
  98.1280473  89.2851889  26.0419259  97.3148339  89.5846060  26.4484451
  98.6239468  88.8907578  26.7593741 100.2789051  99.2809646  27.9753523
 100.2365230  99.5070493  27.0462055 101.1951750  99.0473021  28.1239324
 103.7254685  89.7493714  34.8734152 104.0804073  89.9765187  35.7328618
 104.3726816  90.0812091  34.2511408 109.4552422  92.8712150  25.5783481
 109.3170321  93.0613746  24.6504671 109.0988641  93.6331532  26.0351533
  97.6194548  86.8570245  31.6580493  98.2593928  86.7159004  30.9603457
  96.7872079  86.5704758  31.2819095 109.4821802  94.9388677  30.5894753
 109.9158308  94.8463966  31.4377807 110.1953382  94.9146177  29.9514769
  98.3954852  96.1572675  27.7715486  99.1895451  95.6622995  27.5698061
  97.6846544  95.6290538  27.4083192 103.2149697  98.5390771  32.1227854
 103.2686719  99.1081707  32.8905569 102.3464478  98.7092656  31.7581891
  94.7037616  90.3015757  23.8475239  93.7735204  90.2400212  24.0645201
  94.7995088  89.7791710  23.0511880  94.6223165  86.8270570  26.4353480
  94.8829982  87.7415903  26.3262641  95.4440337  86.3595012  26.5850093
  96.0948090  88.2408327  33.6052305  96.7671143  88.0325689  32.9564954
  95.2677876  88.0430413  33.1657537 110.3437351  94.9812377  33.1227638
 110.5373241  95.8858188  33.3686913 110.2437969  94.5219796  33.9566223
 101.9973662  84.8670268  35.6217966 101.3501577  85.5660218  35.5282442
 102.7674677  85.3006412  35.9894214 105.4052460  95.1319120  38.6968519
 105.2537966  94.9029672  37.7798603 105.3957139  96.0889721  38.7099864
 102.1737796  92.7051033  33.6814785 103.1029856  92.8562192  33.5083753
 101.7528826  92.7935054  32.8263432 100.9726128  96.7301697  31.4513323
 100.8337214  96.3620482  32.3239261 100.1840724  97.2449337  31.2797281
 101.5674280 101.8310794  22.7938860 101.7426036 101.3598837  23.6084482
 100.8807068 102.4576560  23.0220120 102.5231343  96.1083300  28.8402161
 102.1881176  96.0684070  29.7359811 102.0235289  95.4428016  28.3672571
  96.4975587  91.5150930  34.3654742  96.3595385  90.7831169  34.9666281
  97.4080511  91.4259830  34.0838930 105.4590535  93.4539334  19.1139220
 104.8419706  92.7286162  19.0172273 104.9907023  94.2148695  18.7706295
  99.1257888  91.2270889  33.8538422  99.8357506  90.5864081  33.8125040
  99.0827196  91.4783784  34.7764602 107.1144667  98.1638243  36.7745001
 107.0557213  97.4797463  36.1075584 107.5164185  98.9057233  36.3225627
  96.1335365 104.9800156  29.5678720  96.3731964 105.6118681  30.2457738
  95.2904562 104.6288196  29.8544079  97.2489081  87.6724759  18.2360525
  96.3718547  87.5513559  17.8722771  97.7246834  86.8810837  17.9839413
 107.1162074  96.1277827  35.0058981 106.2288853  95.7903748  35.1285379
 107.6860625  95.3960858  35.2427746  93.5725943  87.3492115  32.7587056
  93.4884132  86.7417784  32.0237466  92.7508649  87.8401133  32.7596552
 100.6463227 100.7879279  31.9720224 100.5733399 101.5934250  32.4839528
 100.2040620 100.9871245  31.1468245 100.4353007 100.0251049  25.4823045
  99.6520529 100.5672729  25.5761270 101.1345752 100.5425029  25.8817286
 103.7449657  85.8345678  28.1257251 104.2418356  85.0815641  27.8058321
 102.9736638  85.8709995  27.5600460 111.5979414  91.5386044  29.7675542
 111.5869291  92.4210759  29.3969475 110.7296794  91.1857595  29.5730079
 103.1061911 100.6866113  34.1278382 103.8189883 101.3213578  34.0554284
 102.6151939 100.7829979  33.3118384 104.8279438  94.5917366  25.6995674
 103.8935716  94.7118828  25.5300378 105.0056106  93.6889832  25.4355684
 100.3284626  87.9763061  27.8528935  99.9582413  87.4234102  28.5409841
 100.8243718  87.3721195  27.3003935 108.2151989  90.4334685  26.2345708
 108.6812441  91.2662676  26.1606011 108.6659489  89.9679666  26.9390967
  98.1573824  98.4360556  34.9483953  98.8583284  99.0697039  35.1013347
  97.6868939  98.7775288  34.1879592 106.2828220  96.7778506  23.2331860
 106.5588064  96.6635101  24.1425734 105.4132719  96.3795991  23.1944033
 106.1868652  82.8015272  30.2736610 105.2731732  83.0319499  30.4418816
 106.6161753  82.8853716  31.1250642 105.9575110  90.9905164  32.7736504
 105.3046560  91.2381071  32.1188956 106.3355490  90.1769302  32.4398981
 102.9182284 101.0264857  26.8764674 103.1004679 100.2086513  27.3392426
 103.7415270 101.2432549  26.4389564 103.2524450  99.9533042  24.1379722
 103.7812216  99.4425497  23.5249884 103.5152669  99.6375572  25.0025255
 102.0062683  91.7324975  39.2602541 101.3303320  91.6319104  39.9304916
 102.8290317  91.5764189  39.7238538  93.7541542  97.9696911  31.8815056
  94.3394979  97.2240599  32.0142960  93.5566381  98.2800868  32.7651720
  96.6080198 101.0048159  26.8977498  95.9390573 101.4894286  26.4141538
  96.4693067 101.2517379  27.8120877  88.3459197  90.5402512  30.6019499
  88.3843297  90.0066102  31.3956617  87.8399490  90.0137717  29.9830476
 100.7485466 103.0391902  33.4960157 101.3003774 103.2023524  34.2609242
 101.0891660 103.6296340  32.8240181 105.5996340  97.8653160  39.3508811
 106.1436244  98.4783118  38.8563766 105.0183185  98.4232738  39.8675824
  91.9767775  89.2666614  23.6773430  92.2721216  88.3577292  23.6240484
  91.0755810  89.2454353  23.3554433 103.8853853 100.9873878  30.4823839
 103.7604993 100.1863618  29.9734784 104.5432945 101.4820071  29.9937809
  95.5062022  87.3422610  29.6600979  94.7848607  87.9558578  29.5208452
  96.2955277  87.8780375  29.5817625 105.9488762  98.7882898  32.1103389
 105.0019097  98.6688249  32.0381716 106.2971535  97.9005396  32.1929650
  93.7055616  86.9480711  23.8012756  93.3768322  86.0678090  23.6187861
  94.0594987  86.8928380  24.6889145 102.9535195  98.5835614  28.3107741
 102.8060158  97.6552322  28.4915311 103.7788689  98.6055705  27.8264816
  96.8197439  87.2353681  24.1688233  97.1593512  87.7639603  23.4466842
  97.2669560  87.5734087  24.9446800 106.5569317  99.4064173  29.3972614
 107.4815864  99.2007034  29.2597065 106.3884620  99.1580574  30.3061955
  99.5140880  85.6190732  33.6191301  99.1737701  84.8198545  34.0211981
  98.8079886  85.9192443  33.0468134 100.1657352  82.7040044  32.0718624
 100.9883421  82.2300523  31.9497515 100.4095416  83.4830528  32.5717311
  98.8065587  85.7328303  22.3681526  99.5273949  86.1109556  21.8645243
  98.1830891  86.4517180  22.4716504 102.9496709  86.4373452  23.3039858
 103.1660324  87.3198090  23.0028686 102.4690777  86.0459665  22.5745500
  97.6895931  89.3959165  29.8810603  97.5440512  89.7099468  30.7734884
  97.2121134  90.0144065  29.3281502  99.5492314  86.3861713  29.9291492
  99.5353882  85.4902806  29.5923790 100.2664742  86.3932377  30.5629779
 101.4018444  86.8199053  31.9744620 101.1436222  87.7416124  31.9728950
 100.8703485  86.4229488  32.6645084 106.3464633  99.9249840  24.7534705
 106.5201511  99.3596263  24.0008558 106.8393524 100.7250735  24.5714195
  98.9529210  85.2676093  25.1979063  99.0745121  84.3392739  25.3969950
  98.6631252  85.2814779  24.2857378 101.8220400  82.9531004  28.3345782
 101.8442097  83.0170337  27.3797762 102.2388459  82.1135512  28.5286289
 112.2004024  92.6886263  26.3725005 112.6435170  91.9393588  25.9744128
 111.3230535  92.6796400  25.9898737 107.3339806  99.2416605  21.8531604
 108.0290710  99.8623297  22.0718918 107.6762956  98.3911956  22.1283981
 109.2331229  96.6916310  23.3818934 109.7582553  97.0303583  22.6568254
 109.1453581  95.7563326  23.1982069 100.8951277 100.6050384  35.5108811
 101.2038404 100.3599531  36.3831511 101.6926759 100.8097022  35.0227681
 100.9171889 102.7588294  27.7414188 100.4776880 102.2664672  28.4347044
 101.6680006 102.2161261  27.5006263  93.3964228  98.9499834  27.7438816
  94.2222248  98.6503606  27.3637459  93.0458280  98.1807457  28.1928604
  98.3645762  98.3026303  29.8136489  97.7425771  97.6397008  29.5138717
  99.0350629  98.3287435  29.1310137  91.5972834  96.8686161  28.7027749
  90.7604742  96.4408335  28.5211750  91.5696479  97.0618604  29.6398540
 108.9225135  97.3249214  38.6870132 108.1320679  97.3073353  38.1474632
 108.6858489  97.8637508  39.4419169 109.0423010  94.1741680  36.0002861
 109.0921015  94.0091688  36.9418384 108.9336933  93.3068939  35.6100742
  97.9259269  96.8530226  23.2894950  98.0747389  97.5365690  22.6361622
  98.7325712  96.8335316  23.8044405 106.3326772  90.1572608  37.3162168
 107.2336635  90.0179073  37.0246165 106.4074747  90.3227063  38.2560345
 100.6669578  87.5339463  36.1615354  99.7972887  87.8273029  35.8897942
 100.9029058  88.1179908  36.8822618 110.5441207  96.5938622  36.2444882
 110.2526015  96.9568602  37.0808343 109.9313338  95.8805630  36.0658214
 111.7436889  94.1591502  28.7647453 112.5783780  94.5981306  28.9285013
 111.8796018  93.6830155  27.9455698 108.7928395  91.7171236  34.7124940
 109.2682517  91.9098883  33.9043792 107.8693960  91.7730422  34.4668324
  95.6811902  92.8795404  24.2956019  95.4357943  91.9757734  24.4936229
  95.8507816  92.8812554  23.3535497 103.3708611  83.7519080  33.6780774
 103.8890555  84.4880107  33.3527263 103.0163744  84.0583073  34.5127533
  94.9507549  88.6123761  21.7942180  94.2576794  88.6868116  21.1382216
  94.7059301  87.8484105  22.3163697 103.6221206  80.1719363  29.1981671
 103.9022959  79.5042552  29.8242097 104.4071813  80.3648458  28.6856335
 101.4254674  99.3478356  20.7606697 100.8528641  99.9668544  20.3077169
 101.9987468  99.8977718  21.2946619 107.4930064  88.5936997  32.9453246
 108.4447487  88.6935094  32.9665470 107.3233514  87.8015265  33.4551330
 105.5144443  85.6792580  33.1312647 104.9194376  85.9597592  32.4359136
 105.2294140  86.1686481  33.9029388 104.6451934  99.6315507  21.8915279
 105.5782607  99.5661068  22.0948155 104.5575147 100.4671773  21.4329812
 107.2739951  98.9481377  18.8519227 107.1953582  98.6141241  19.7454985
 108.0949617  99.4403145  18.8510699 109.9718142  91.8143116  32.0595546
 109.9394462  90.8759117  32.2455229 110.5818765  91.8927153  31.3261371
 101.8101473  90.6839169  18.1022750 102.7560577  90.5545377  18.1711168
 101.4315718  89.9453831  18.5792178 110.1212630  88.6054160  32.1053829
 109.6051679  87.8212616  31.9183758 111.0052579  88.2772876  32.2700348
 107.7823357  82.3495175  28.0649641 107.5848178  82.0410263  28.9492973
 108.3923063  83.0756814  28.1947571 115.7894692  92.8759123  31.2001582
 116.5198080  92.6144411  31.7609286 115.1801637  92.1387845  31.2403650
 113.8709989  91.0166986  31.7976034 113.1443152  90.8822951  31.1892525
 113.4557276  91.3243814  32.6032752 101.6940165  94.7356915  39.5623407
 102.6143175  94.9135514  39.7563453 101.6589748  93.7912961  39.4103106
  99.9944390  88.6089146  18.0377635  99.0875845  88.3122258  18.1140348
 100.2720371  88.3118964  17.1711921  90.9122330  89.9295509  28.4876681
  90.5925114  89.0760817  28.1951055  90.3655758  90.1444087  29.2434649
  94.6902238  92.6457950  32.2046188  94.9088247  93.5775058  32.2234222
  95.1028011  92.2865924  32.9900992 101.6106455  83.1526035  24.1921876
 100.8007184  82.8073120  24.5677122 102.2990872  82.8433579  24.7809488
 103.5397004  82.2304082  25.8146173 104.0928042  82.6499536  26.4736196
 103.7767090  81.3039830  25.8569129  98.7643174  85.4676081  18.1789614
  99.6262338  85.7930979  18.4385431  98.9493519  84.6807577  17.6662680
  90.7810590  93.5498420  30.4569803  90.0874062  93.1352373  29.9439757
  91.5283581  93.5918957  29.8603222 106.9175811  84.3404607  25.3224837
 106.3374480  84.9989411  24.9402890 106.6511744  83.5181952  24.9112255
 105.3679377  83.7409665  27.5246157 105.8679156  83.8526199  26.7160476
 106.0114985  83.4370718  28.1646966  99.4261373  91.6488295  40.4113998
  98.9428455  92.4488655  40.6177887  99.5122312  91.6596239  39.4581442
  92.6947333  93.4816674  28.3335818  92.6718021  93.5804362  27.3817701
  93.0047969  94.3281825  28.6552984  95.3534711  95.5392829  32.4482432
  96.3077964  95.5076772  32.3812364  95.1547234  95.0783453  33.2632658
  95.9434093  94.1093945  35.0153230  96.7626982  94.6038024  35.0388067
  96.2170900  93.1925913  34.9870797 105.7000689  86.5004698  24.3781185
 104.8126544  86.7854348  24.1601380 106.1154678  86.3398461  23.5308462
 109.0515225  86.5251219  28.0935525 109.8275615  87.0147671  28.3660141
 108.3263359  86.9509273  28.5507394 111.4887784  87.2378838  29.1509465
 112.0832274  86.9974574  28.4402773 111.5614367  86.5185968  29.7783002
  93.7084939 101.0812449  29.4652630  93.5739407 100.3212850  28.8990628
  93.2917002 101.8053349  28.9981419 104.8443902  96.2649372  18.4729205
 105.5479752  96.4699375  19.0886861 104.1206551  96.8326134  18.7378289
 105.6741713  92.0159234  24.5931476 105.6176914  92.4727785  23.7539108
 106.2270055  91.2549918  24.4154318 109.4846519  87.8048965  25.4181595
 109.2283453  87.4045601  26.2489803 108.8599387  88.5192759  25.2931734
 113.7958856  90.5445039  27.9252886 113.2358414  90.6138228  28.6984448
 113.1902360  90.3686023  27.2052383  96.8654065 101.9781766  29.6771073
  96.7486449 102.9227198  29.5749763  96.0446511 101.6755327  30.0656872
 106.7530600  96.7031902  20.5227665 107.5876204  96.2713100  20.3405140
 106.5914943  96.5313915  21.4504560 106.4076492  93.2064015  21.8884005
 106.3525296  93.0408286  20.9472449 105.7822547  93.9140048  22.0446194
 103.7222399  95.5112927  41.2137567 104.5913559  95.6853579  40.8524202
 103.2429151  96.3307344  41.0913297  99.7172617  82.7072124  21.4669323
  99.7051287  83.6513964  21.6237594 100.6096039  82.5242269  21.1728784
  97.8908579 102.6310028  32.8927001  98.7935826 102.6633638  33.2093496
  97.6645949 101.7010479  32.9073337  99.6462181 101.3841014  29.5537080
  98.6957812 101.3842876  29.4401452  99.9494667 100.6373749  29.0373114
 103.5324737  79.3014900  25.7215260 102.7657133  78.7473387  25.8671942
 103.9435442  79.3736769  26.5829412 115.3814875 107.2201553  30.6182842
 116.0193285 107.1008300  29.9146182 115.2635718 108.1682397  30.6770794
 112.1904581 107.1728981  30.5544367 111.8523093 107.0570045  29.6664902
 113.0594349 106.7720146  30.5345373 108.0491397 109.0264457  26.5441258
 107.4856262 108.9354394  25.7757546 107.9343792 108.2064362  27.0243750
 112.6724364 108.3263832  36.5130572 112.6613005 107.9316631  35.6411076
 112.8345004 107.5929905  37.1064344 105.5955829 110.5215649  29.3825478
 106.3877121 110.1806473  28.9671778 105.8352479 110.6310624  30.3027632
 109.3931625 111.1100944  35.4609756 109.1021491 112.0146575  35.3456423
 110.0288610 111.1517472  36.1753826 110.3187832 108.4877793  32.0511116
 110.9151404 108.2633815  31.3368079 110.3762804 107.7462538  32.6536564
 114.9356143 104.9453006  27.6936050 115.7219233 104.5272430  27.3426467
 115.1994848 105.8499099  27.8617699 120.3364570 104.8828240  28.5969029
 121.0689742 104.3127456  28.8306858 119.5803926 104.4949840  29.0375534
 111.9540690 107.3055481  25.7932371 111.5898897 106.7786102  26.5045293
 112.8107806 106.9153950  25.6198857 117.8589991  98.5949814  33.0563637
 117.5273316  99.4645225  32.8324852 117.2635604  98.2786098  33.7357668
 114.3521510 110.7962360  32.4559550 114.0522233 111.6987399  32.3475357
 114.0072570 110.5294543  33.3080703 107.8033992 107.2476157  28.4896254
 106.8784488 107.1152371  28.6973946 108.0518405 108.0270376  28.9866197
 117.7518654 103.3144900  30.1356987 116.8435531 103.2460308  29.8415748
 117.7006250 103.7916845  30.9638813 105.1642803 106.8909430  29.3240044
 105.2935184 107.1443909  30.2379455 104.4840254 107.4837138  29.0044699
 111.8259520 104.7334546  38.0791885 111.0492854 105.2928466  38.0694749
 112.4650083 105.2191329  38.6006755 119.6180301 101.5161338  31.9134861
 118.9754681 101.8093872  31.2674656 119.1135229 101.4014259  32.7188058
 110.0805892 107.5419999  37.6409852 110.8220577 108.0805043  37.3644675
 109.3742878 108.1686288  37.7981403 115.5561232 109.6849139  36.2382013
 115.9644588 109.2431550  35.4936645 114.8338493 109.1101767  36.4916206
 111.9092302 104.6221746  33.6115570 112.7553497 105.0461160  33.7550219
 111.8490940 103.9655370  34.3054133 115.8790046 110.2450330  29.9934302
 115.2498909 110.4096044  29.2910370 115.4915709 110.6591940  30.7645266
 115.0591747 102.2826115  35.2696744 114.8152679 103.0368175  34.7331019
 115.3351678 102.6611462  36.1043991 117.0130210 108.8264727  33.9474009
 117.2247105 109.4696487  33.2708390 116.9659958 107.9927043  33.4795939
 114.6156439 101.4382548  30.8510581 113.7540918 101.7363801  31.1427319
 114.6418874 101.6552946  29.9191614 111.4318008 109.9824738  27.2584387
 111.8956354 110.2612441  26.4689010 111.1674806 109.0808183  27.0757478
 108.3242089 109.5296220  30.1964150 108.8943446 109.9583488  29.5581635
 108.9150201 109.2478804  30.8948336 110.3686894 106.1047890  24.0673952
 111.0710938 106.5568934  24.5347879 110.0367523 105.4631709  24.6953845
 108.8167256 104.6959647  38.4425162 108.1865917 105.3775928  38.6760558
 108.7103344 104.5842729  37.4978300 104.1112228 104.3631443  29.3691086
 103.3211282 104.6188972  28.8931196 104.6023476 105.1779781  29.4743126
 118.1276038 111.7036682  32.1196367 118.9493482 111.3016870  31.8379048
 118.1238441 111.6004916  33.0712482 106.0626974 104.7276022  26.3274563
 105.2658137 104.8394717  26.8458058 105.8352566 105.0662675  25.4615453
 111.8932641 111.2520726  34.2757077 111.9577074 111.7141133  35.1115249
 111.1843565 110.6218091  34.4039387 102.3949931 104.6161934  31.8006077
 102.6457970 105.5008943  32.0663653 102.9309480 104.4366535  31.0281168
 108.0947999  98.9980413  40.8050413 107.7014944  98.4446611  41.4798057
 108.9114139  99.3090991  41.1956930 105.0610056 110.4364271  24.7163983
 105.5734577 111.2307521  24.8669547 105.7132769 109.7390562  24.6497584
 111.0115960 100.4138292  38.3970669 111.7525673 101.0145445  38.3175132
 111.2433882  99.6715930  37.8388712 106.1557298 105.5994659  36.6748899
 106.0410813 104.6979917  36.9755998 105.3001815 105.8458356  36.3233715
 113.2349135 113.5412400  38.2736400 112.7912990 112.7548778  37.9557304
 113.8966349 113.7291550  37.6080290 107.9936257 115.0708201  32.7997078
 108.5443682 114.9425265  32.0274072 107.1547732 115.3703090  32.4491971
 115.3330373 113.8215200  36.3017801 115.3148849 114.6424081  35.8098070
 116.2550294 113.6969275  36.5267942 111.7903428 111.3359329  37.1441309
 112.3231764 110.5747617  36.9140617 111.2617509 111.0432981  37.8865464
 114.9573123  96.4419395  32.6734951 114.6137392  97.3321037  32.5974062
 115.3252085  96.2521053  31.8104536 103.0258973 108.7652925  25.4923553
 103.8634195 109.1749934  25.2757261 103.2037241 107.8252368  25.4623747
 112.5070516 101.2777707  26.2392624 111.6512113 100.8884557  26.0598263
 112.9197468 101.3569668  25.3792410 114.0369663  98.8124050  30.6384184
 113.5334459  98.7754185  29.8251989 114.3300270  99.7216793  30.6980841
 110.2812549  98.8962780  29.6450366 111.1465546  98.7005589  29.2856255
 110.3490058  98.6673132  30.5719723 118.1348986 108.6594342  29.7727168
 117.4772661 109.3493603  29.8607296 118.9389386 109.0490774  30.1161154
 107.8874868 101.1264988  27.0166733 108.4618620 100.9040169  26.2839926
 108.4745850 101.1953682  27.7695334 116.9454445 107.0138715  27.8231109
 117.4586327 107.6468706  28.3252819 117.5955669 106.4139910  27.4574469
 110.1897536  98.0006237  25.7441802 109.5361948  97.6855254  25.1198417
 110.1478010  97.3781977  26.4701625 113.4235276 104.4888170  30.0689450
 112.5057837 104.7103117  29.9111138 113.8395420 104.5634481  29.2101157
 116.6549161 102.9236702  27.1810919 115.9171918 102.4114088  27.5121162
 116.9075934 102.4837084  26.3694196 116.7560788  95.7012954  27.7752689
 117.0619665  94.8410318  27.4878604 117.4813393  96.2930574  27.5751683
 103.0485144 106.1043641  26.1634287 102.8509544 105.5113001  25.4385353
 102.4931808 105.7995851  26.8810225 111.0281868 105.9966747  28.2828880
 111.0830478 105.0440584  28.2071356 110.2173070 106.1526186  28.7670178
 108.9674228 104.6143807  26.0419259 108.1542093 104.9137978  26.4484451
 109.4633222 104.2199496  26.7593741 114.5648440 105.0785631  34.8734152
 114.9197827 105.3057105  35.7328618 115.2120571 105.4104008  34.2511408
 108.4588303 102.1862162  31.6580493 109.0987682 102.0450922  30.9603457
 107.6265833 101.8996676  31.2819095 109.2348607 111.4864593  27.7715486
 110.0289205 110.9914913  27.5698061 108.5240299 110.9582456  27.4083192
 114.0543451 113.8682688  32.1227854 114.1080473 114.4373625  32.8905569
 113.1858232 114.0384573  31.7581891 105.5431370 105.6307675  23.8475239
 104.6128958 105.5692130  24.0645201 105.6388842 105.1083627  23.0511880
 105.4616919 102.1562487  26.4353480 105.7223736 103.0707821  26.3262641
 106.2834091 101.6886930  26.5850093 106.9341844 103.5700245  33.6052305
 107.6064898 103.3617607  32.9564954 106.1071631 103.3722331  33.1657537
 121.1831106 110.3104295  33.1227638 121.3766996 111.2150105  33.3686913
 121.0831724 109.8511714  33.9566223 112.8367416 100.1962186  35.6217966
 112.1895331 100.8952135  35.5282442 113.6068432 100.6298329  35.9894214
 116.2446214 110.4611038  38.6968519 116.0931721 110.2321589  37.7798603
 116.2350894 111.4181639  38.7099864 113.0131551 108.0342950  33.6814785
 113.9423611 108.1854110  33.5083753 112.5922581 108.1226971  32.8263432
 111.8119883 112.0593615  31.4513323 111.6730968 111.6912399  32.3239261
 111.0234479 112.5741254  31.2797281 113.3625098 111.4375218  28.8402161
 113.0274930 111.3975988  29.7359811 112.8629043 110.7719934  28.3672571
 107.3369342 106.8442848  34.3654742 107.1989140 106.1123086  34.9666281
 108.2474265 106.7551748  34.0838930 109.9651642 106.5562807  33.8538422
 110.6751261 105.9155999  33.8125040 109.9220951 106.8075702  34.7764602
 117.9538421 113.4930160  36.7745001 117.8950967 112.8089380  36.1075584
 118.3557939 114.2349150  36.3225627 108.6780576 103.5428025  35.6734061
 108.1417933 103.0918763  36.3255657 108.0897285 103.6773934  34.9304525
 117.9555828 111.4569744  35.0058981 117.0682607 111.1195666  35.1285379
 118.5254379 110.7252775  35.2427746  99.6084975 107.7893836  28.3302032
 100.2956015 107.4755566  27.7423047  99.4533104 108.6935201  28.0569283
 104.4119698 102.6784033  32.7587056 104.3277886 102.0709702  32.0237466
 103.5902404 103.1693051  32.7596552 111.4856982 116.1171197  31.9720224
 111.4127153 116.9226168  32.4839528 111.0434375 116.3163162  31.1468245
 114.5843411 101.1637596  28.1257251 115.0812111 100.4107558  27.8058321
 113.8130393 101.2001913  27.5600460 122.4373169 106.8677962  29.7675542
 122.4263045 107.7502677  29.3969475 121.5690548 106.5149512  29.5730079
 113.9455665 116.0158031  34.1278382 114.6583637 116.6505495  34.0554284
 113.4545694 116.1121897  33.3118384 111.1678380 103.3054979  27.8528935
 110.7976168 102.7526019  28.5409841 111.6637473 102.7013113  27.3003935
 108.9967579 113.7652474  34.9483953 109.6977038 114.3988957  35.1013347
 108.5262694 114.1067206  34.1879592 117.0262406  98.1307190  30.2736610
 116.1125486  98.3611416  30.4418816 117.4555508  98.2145634  31.1250642
 116.7968865 106.3197082  32.7736504 116.1440315 106.5672989  32.1188956
 117.1749245 105.5061220  32.4398981 112.8456438 107.0616893  39.2602541
 112.1697075 106.9611022  39.9304916 113.6684072 106.9056106  39.7238538
 104.5935297 113.2988829  31.8815056 105.1788734 112.5532517  32.0142960
 104.3960135 113.6092786  32.7651720  99.1852952 105.8694429  30.6019499
  99.2237051 105.3358020  31.3956617  98.6793244 105.3429635  29.9830476
 111.5879221 118.3683820  33.4960157 112.1397529 118.5315442  34.2609242
 111.9285414 118.9588258  32.8240181 106.5643714 100.7158970  34.0982041
 106.6285040 101.5773801  33.6859439 106.5010834 100.1032971  33.3654400
 106.0395986 102.7882102  37.7455076 106.6668025 102.4059180  38.3592600
 105.1823905 102.5696304  38.1110768 116.4390095 113.1945078  39.3508811
 116.9829999 113.8075036  38.8563766 115.8576940 113.7524656  39.8675824
 102.8161529 104.5958531  23.6773430 103.1114970 103.6869210  23.6240484
 101.9149565 104.5746271  23.3554433 106.3455776 102.6714528  29.6600979
 105.6242362 103.2850496  29.5208452 107.1349032 103.2072293  29.5817625
 116.7882516 114.1174816  32.1103389 115.8412852 113.9980167  32.0381716
 117.1365289 113.2297314  32.1929650 109.1482090 100.0068955  35.9341631
 109.6716491 100.2531251  36.6967940 108.9294423 100.8388989  35.5144768
 104.5449371 102.2772629  23.8012756 104.2162077 101.3970008  23.6187861
 104.8988741 102.2220298  24.6889145 107.6591194 102.5645599  24.1688233
 107.9987266 103.0931520  23.4466842 108.1063314 102.9026005  24.9446800
 110.3534635 100.9482650  33.6191301 110.0131455 100.1490463  34.0211981
 109.6473641 101.2484360  33.0468134 111.0051107  98.0331962  32.0718624
 111.8277176  97.5592440  31.9497515 111.2489170  98.8122446  32.5717311
 109.6459341 101.0620221  22.3681526 110.3667704 101.4401473  21.8645243
 109.0224645 101.7809097  22.4716504 113.7890464 101.7665369  23.3039858
 114.0054078 102.6490007  23.0028686 113.3084531 101.3751583  22.5745500
 108.5289685 104.7251083  29.8810603 108.3834266 105.0391386  30.7734884
 108.0514889 105.3435983  29.3281502 110.3886068 101.7153631  29.9291492
 110.3747637 100.8194724  29.5923790 111.1058496 101.7224294  30.5629779
 112.2412199 102.1490971  31.9744620 111.9829977 103.0708042  31.9728950
 111.7097239 101.7521405  32.6645084 103.0035347 107.2656427  32.8198264
 102.4588816 108.0416235  32.9518538 103.8814697 107.6127232  32.6617386
 109.7922964 100.5968011  25.1979063 109.9138875  99.6684657  25.3969950
 109.5025006 100.6106697  24.2857378 112.6614154  98.2822921  28.3345782
 112.6835851  98.3462255  27.3797762 113.0782213  97.4427430  28.5286289
 103.7901369 106.3926323  35.7128421 103.0483105 106.5408959  36.2993051
 103.4694114 106.6534589  34.8495170 111.7345032 115.9342302  35.5108811
 112.0432158 115.6891448  36.3831511 112.5320514 116.1388940  35.0227681
 104.2357983 114.2791752  27.7438816 105.0616003 113.9795524  27.3637459
 103.8852035 113.5099375  28.1928604 109.2039516 113.6318220  29.8136489
 108.5819525 112.9688925  29.5138717 109.8744383 113.6579352  29.1310137
 102.4366588 112.1978079  28.7027749 101.5998496 111.7700253  28.5211750
 102.4090233 112.3910522  29.6398540 109.2764044 102.1100008  39.4068995
 109.3252199 102.9862131  39.0246765 109.8186558 101.5677401  38.8340638
 119.7618889 112.6541132  38.6870132 118.9714433 112.6365270  38.1474632
 119.5252244 113.1929425  39.4419169 119.8816764 109.5033598  36.0002861
 119.9314769 109.3383605  36.9418384 119.7730688 108.6360857  35.6100742
 117.1720527 105.4864526  37.3162168 118.0730390 105.3470991  37.0246165
 117.2468501 105.6518981  38.2560345 111.5063332 102.8631381  36.1615354
 110.6366641 103.1564947  35.8897942 111.7422812 103.4471826  36.8822618
 121.3834961 111.9230539  36.2444882 121.0919769 112.2860520  37.0808343
 120.7707092 111.2097548  36.0658214 119.6322149 107.0463154  34.7124940
 120.1076271 107.2390800  33.9043792 118.7087715 107.1022340  34.4668324
 106.5205656 108.2087321  24.2956019 106.2751698 107.3049651  24.4936229
 106.6901571 108.2104472  23.3535497 114.2102366  99.0810998  33.6780774
 114.7284310  99.8172025  33.3527263 113.8557499  99.3874991  34.5127533
 105.7901304 103.9415679  21.7942180 105.0970549 104.0160034  21.1382216
 105.5453055 103.1776023  22.3163697 114.4614960  95.5011280  29.1981671
 114.7416714  94.8334469  29.8242097 115.2465567  95.6940376  28.6856335
 118.3323818 103.9228914  32.9453246 119.2841241 104.0227012  32.9665470
 118.1627269 103.1307183  33.4551330 116.3538198 101.0084497  33.1312647
 115.7588130 101.2889510  32.4359136 116.0687895 101.4978398  33.9029388
 120.8111896 107.1435034  32.0595546 120.7788216 106.2051035  32.2455229
 121.4212520 107.2219071  31.3261371 120.9606385 103.9346077  32.1053829
 120.4445433 103.1504534  31.9183758 121.8446333 103.6064794  32.2700348
 118.6217112  97.6787093  28.0649641 118.4241933  97.3702181  28.9492973
 119.2316817  98.4048732  28.1947571 126.6288446 108.2051041  31.2001582
 127.3591835 107.9436329  31.7609286 126.0195392 107.4679763  31.2403650
 124.7103743 106.3458903  31.7976034 123.9836907 106.2114868  31.1892525
 124.2951030 106.6535732  32.6032752 112.5333920 110.0648833  39.5623407
 113.4536929 110.2427432  39.7563453 112.4983503 109.1204878  39.4103106
 101.7516085 105.2587427  28.4876681 101.4318869 104.4052735  28.1951055
 101.2049513 105.4736005  29.2434649 105.5295992 107.9749868  32.2046188
 105.7482002 108.9066975  32.2234222 105.9421766 107.6157842  32.9900992
 112.4500210  98.4817953  24.1921876 111.6400938  98.1365038  24.5677122
 113.1384627  98.1725497  24.7809488 114.3790758  97.5596000  25.8146173
 114.9321797  97.9791453  26.4736196 114.6160845  96.6331748  25.8569129
 110.4023857 103.5483073  41.5948937 110.3020584 104.4977430  41.5261028
 110.1845400 103.2201312  40.7225007 101.6204345 108.8790338  30.4569803
 100.9267816 108.4644291  29.9439757 102.3677336 108.9210875  29.8603222
 117.7569565  99.6696525  25.3224837 117.1768234 100.3281329  24.9402890
 117.4905498  98.8473870  24.9112255 116.2073132  99.0701583  27.5246157
 116.7072910  99.1818117  26.7160476 116.8508740  98.7662635  28.1646966
 110.2655128 106.9780212  40.4113998 109.7822209 107.7780572  40.6177887
 110.3516067 106.9888157  39.4581442 103.5341087 108.8108592  28.3335818
 103.5111775 108.9096279  27.3817701 103.8441724 109.6573743  28.6552984
 106.1928465 110.8684747  32.4482432 107.1471719 110.8368689  32.3812364
 105.9940989 110.4075371  33.2632658 106.7827847 109.4385863  35.0153230
 107.6020736 109.9329942  35.0388067 107.0564655 108.5217831  34.9870797
 116.5394443 101.8296615  24.3781185 115.6520298 102.1146266  24.1601380
 116.9548432 101.6690379  23.5308462 119.8908979 101.8543136  28.0935525
 120.6669370 102.3439589  28.3660141 119.1657114 102.2801190  28.5507394
 122.3281538 102.5670756  29.1509465 122.9226029 102.3266491  28.4402773
 122.4008122 101.8477886  29.7783002 104.5478694 116.4104366  29.4652630
 104.4133162 115.6504767  28.8990628 104.1310756 117.1345266  28.9981419
 107.7047820 117.3073683  29.6771073 107.5880204 118.2519116  29.5749763
 106.8840266 117.0047245  30.0656872 102.0362761 103.7723997  35.7145427
 102.6821625 103.2622951  36.2032652 101.8279913 104.5092679  36.2888852
 114.5616154 110.8404844  41.2137567 115.4307313 111.0145497  40.8524202
 114.0822905 111.6599261  41.0913297 110.5566372  98.0364042  21.4669323
 110.5445042  98.9805881  21.6237594 111.4489794  97.8534187  21.1728784
 108.7302334 117.9601945  32.8927001 109.6329581 117.9925556  33.2093496
 108.5039704 117.0302396  32.9073337 114.3718491  94.6306818  25.7215260
 113.6050887  94.0765305  25.8671942 114.7829196  94.7028687  26.5829412
 106.3760252 100.9191614  39.8120441 107.2391714 100.5628419  40.0223766
 105.8025663 100.5805509  40.4995845 122.6653274 120.0626463  38.0791885
 121.8886608 120.6220383  38.0694749 123.3043837 120.5483246  38.6006755
 119.6561010 120.0251565  38.4425162 119.0259671 120.7067846  38.6760558
 119.5497098 119.9134646  37.4978300 118.9341753 114.3272331  40.8050413
 118.5408699 113.7738529  41.4798057 119.7507893 114.6382909  41.1956930
 121.8509714 115.7430210  38.3970669 122.5919428 116.3437363  38.3175132
 122.0827637 115.0007847  37.8388712 116.9951052 120.9286577  36.6748899
 116.8804567 120.0271834  36.9755998 116.1395570 121.1750274  36.3233715
 123.6761171 115.5254103  35.6217966 123.0289086 116.2244053  35.5282442
 124.4462186 115.9590247  35.9894214 119.5174331 118.8719943  35.6734061
 118.9811688 118.4210681  36.3255657 118.9291039 119.0065851  34.9304525
 115.2513452 118.0075950  32.7587056 115.1671641 117.4001620  32.0237466
 114.4296158 118.4984969  32.7596552 123.6850192 122.3908810  39.2602541
 123.0090829 122.2902940  39.9304916 124.5077826 122.2348024  39.7238538
 117.4037468 116.0450888  34.0982041 117.4678795 116.9065718  33.6859439
 117.3404589 115.4324889  33.3654400 116.8789741 118.1174020  37.7455076
 117.5061780 117.7351097  38.3592600 116.0217660 117.8988222  38.1110768
 119.9875844 115.3360872  35.9341631 120.5110246 115.5823169  36.6967940
 119.7688177 116.1680907  35.5144768 114.6295124 121.7218241  35.7128421
 113.8876860 121.8700876  36.2993051 114.3087868 121.9826507  34.8495170
 120.1157798 117.4391926  39.4068995 120.1645954 118.3154049  39.0246765
 120.6580312 116.8969319  38.8340638 122.3457087 118.1923298  36.1615354
 121.4760396 118.4856864  35.8897942 122.5816567 118.7763743  36.8822618
 121.2417612 118.8774991  41.5948937 121.1414339 119.8269348  41.5261028
 121.0239154 118.5493230  40.7225007 121.1048882 122.3072130  40.4113998
 120.6215964 123.1072490  40.6177887 121.1909821 122.3180075  39.4581442
 112.8756516 119.1015915  35.7145427 113.5215379 118.5914869  36.2032652
 112.6673667 119.8384596  36.2888852 117.2154007 116.2483532  39.8120441
 118.0785468 115.8920336  40.0223766 116.6419418 115.9097426  40.4995845
  59.0380364  13.9014934  24.9981706  58.5944218  13.1151312  24.6802611
  59.6997578  14.0894084  24.3325597  61.1361602  14.1817734  23.0263107
  61.1180078  15.0026615  22.5343377  62.0581522  14.0571809  23.2513249
  57.5934656  11.6961863  23.8686616  58.1262993  10.9350151  23.6385924
  57.0648738  11.4035515  24.6110770  66.9862335  10.6706829  19.8472945
  67.1798225  11.5752640  20.0932220  66.8862953  10.2114248  20.6811530
  62.0477443  10.8213572  25.4213826  61.8962950  10.5924124  24.5043909
  62.0382123  11.7784173  25.4345171  63.7569650  13.8532694  23.4990307
  63.6982196  13.1691915  22.8320891  64.1589168  14.5951685  23.0470933
  63.7587057  11.8172278  21.7304287  62.8713836  11.4798200  21.8530686
  64.3285608  11.0855310  21.9673053  59.7486894  16.3760565  20.8523689
  60.4614866  17.0108030  20.7799590  59.2576923  16.4724431  20.0363691
  58.6487667   7.4219427  25.9847847  57.9728304   7.3213556  26.6550222
  59.4715300   7.2658641  26.4483844  57.3910449  18.7286354  20.2205463
  57.9428757  18.8917976  20.9854548  57.7316643  19.3190792  19.5485488
  62.2421324  13.5547612  26.0754118  62.7861228  14.1677570  25.5809072
  61.6608169  14.1127190  26.5921131  57.5376261  16.2944836  22.2354118
  57.8463387  16.0493983  23.1076817  58.3351743  16.4991474  21.7472988
  65.5650118  13.0143666  25.4115439  64.7745662  12.9967805  24.8719938
  65.3283473  13.5531960  26.1664476  65.6847993   9.8636132  22.7248167
  65.7345998   9.6986140  23.6663690  65.5761917   8.9963391  22.3346048
  62.9751756   5.8467060  24.0407474  63.8761618   5.7073525  23.7491472
  63.0499730   6.0121515  24.9805652  67.1866190  12.2833074  22.9690189
  66.8950998  12.6463054  23.8053650  66.5738321  11.5700082  22.7903521
  58.3365148  10.4251367  26.2868713  59.2568158  10.6029966  26.4808760
  58.3014731   9.4807413  26.1348413  56.0686356   7.3382746  27.1359305
  55.5853438   8.1383107  27.3423194  56.1547295   7.3490691  26.1826749
  60.3647382  11.2007379  27.9382874  61.2338542  11.3748031  27.5769509
  59.8854134  12.0201795  27.8158603  72.0239858  22.9096005  17.3428149
  72.6618268  22.7902752  16.6391489  71.9060701  23.8576848  17.4016101
  68.8329564  22.8623433  17.2789673  68.4948076  22.7464497  16.3910208
  69.7019333  22.4614598  17.2590680  69.3149347  24.0158284  23.2375879
  69.3037988  23.6211083  22.3656383  69.4769987  23.2824357  23.8309650
  62.2380812  26.2110101  16.1070785  63.0302104  25.8700925  15.6917084
  62.4777462  26.3205076  17.0272938  70.2715939  28.3829877   8.5801029
  69.6203919  28.9683957   8.1935043  71.0660302  28.9136072   8.6396067
  66.0356609  26.7995396  22.1855063  65.7446475  27.7041027  22.0701729
  66.6713593  26.8411924  22.8999133  66.9612815  24.1772245  18.7756423
  67.5576388  23.9528267  18.0613386  67.0187787  23.4356990  19.3781870
  71.5781127  20.6347458  14.4181357  72.3644216  20.2166882  14.0671774
  71.8419831  21.5393551  14.5863005  76.9789554  20.5722692  15.3214335
  77.7114726  20.0021908  15.5552165  76.2228909  20.1844292  15.7620841
  68.5965673  22.9949933  12.5177678  68.2323881  22.4680554  13.2290599
  69.4532789  22.6048402  12.3444163  74.5014974  14.2844266  19.7808944
  74.1698299  15.1539677  19.5570159  73.9060587  13.9680550  20.4602974
  70.9946494  26.4856812  19.1804857  70.6947217  27.3881850  19.0720664
  70.6497553  26.2188995  20.0326010  64.4458975  22.9370609  15.2141561
  63.5209472  22.8046823  15.4219253  64.6943388  23.7164828  15.7111503
  74.3943637  19.0039352  16.8602294  73.4860515  18.9354760  16.5661055
  74.3431233  19.4811297  17.6884119  61.8067786  22.5803882  16.0485350
  61.9360167  22.8338361  16.9624762  61.1265237  23.1731590  15.7290005
  65.9767273  33.2501132  12.1475824  65.8991303  34.2008957  12.2264305
  65.3728917  32.9047005  12.8050751  68.4684503  20.4228997  24.8037191
  67.6917837  20.9822918  24.7940056  69.1075066  20.9085780  25.3252061
  76.2605284  17.2055790  18.6380168  75.6179664  17.4988323  17.9919962
  75.7560212  17.0908711  19.4433365  66.7230875  23.2314451  24.3655158
  67.4645560  23.7699495  24.0889982  66.0167861  23.8580740  24.5226710
  72.1986215  25.3743591  22.9627320  72.6069571  24.9326002  22.2181952
  71.4763477  24.7996219  23.2161513  68.5517285  20.3116198  20.3360877
  69.3978480  20.7355612  20.4795526  68.4915923  19.6549822  21.0299440
  72.5215030  25.9344782  16.7179609  71.8923892  26.0990496  16.0155676
  72.1340692  26.3486391  17.4890573  76.4004262  26.8699220  14.0723972
  75.7155300  27.2498121  13.5221006  76.4848111  27.4794546  14.8055920
  71.7016731  17.9720566  21.9942050  71.4577662  18.7262627  21.4576326
  71.9776661  18.3505914  22.8289297  73.6555193  24.5159179  20.6719316
  73.8672089  25.1590939  19.9953697  73.6084942  23.6821495  20.2041246
  71.2581422  17.1276999  17.5755888  70.3965901  17.4258253  17.8672626
  71.2843857  17.3447398  16.6436921  68.0742992  25.6719190  13.9829694
  68.5381337  25.9506893  13.1934316  67.8099790  24.7702635  13.8002784
  64.9667073  25.2190672  16.9209457  65.5368430  25.6477940  16.2826941
  65.5575185  24.9373256  17.6193643  65.4592239  20.3854099  25.1670468
  64.8290900  21.0670380  25.4005865  65.3528327  20.2737181  24.2223607
  74.7701021  27.3931134  18.8441673  75.5918465  26.9911321  18.5624355
  74.7663424  27.2899368  19.7957789  68.5357625  26.9415177  21.0002384
  68.6002057  27.4035585  21.8360556  67.8268549  26.3112542  21.1284694
  59.0374915  20.3056385  18.5251383  59.2882953  21.1903395  18.7908959
  59.5734463  20.1260987  17.7526475  82.8607014  23.7369883  15.1926645
  82.1070723  23.1677281  15.0370649  82.9954555  23.7032547  16.1397279
  68.2505642  28.6083285  10.8681364  68.1151317  29.4534821  11.2966212
  68.7915455  28.8102563  10.1047298  64.7372982  14.6874865  27.5295719
  64.3439928  14.1341063  28.2043364  65.5539122  14.9985443  27.9202237
  63.5129924  29.2424479  13.5232042  63.6896553  30.1642444  13.3353026
  64.3086758  28.9282898  13.9526422  67.6540943  16.1032744  25.1215976
  68.3950656  16.7039897  25.0420438  67.8858866  15.3610382  24.5634018
  62.7982281  21.2889111  23.3994206  62.6835796  20.3874368  23.7001304
  61.9426799  21.5352808  23.0479022  69.8774119  29.2306851  24.9981706
  69.4337973  28.4443230  24.6802611  70.5391332  29.4186002  24.3325597
  64.6361240  30.7602653  19.5242385  65.1868665  30.6319716  18.7519379
  63.7972716  31.0597542  19.1737277  71.9755357  29.5109651  23.0263107
  71.9573832  30.3318532  22.5343377  72.8975277  29.3863727  23.2513249
  68.4328411  27.0253781  23.8686616  68.9656748  26.2642069  23.6385924
  67.9042492  26.7327433  24.6110770  71.5998106  12.1313847  19.3980258
  71.2562375  13.0215489  19.3219368  71.9677069  11.9415504  18.5349843
  70.6794646  14.5018502  17.3629491  70.1759442  14.4648637  16.5497296
  70.9725253  15.4111245  17.4226147  76.5382663  24.8754813   9.8405866
  75.7612106  24.5365972   9.3961028  77.2174144  24.8807436   9.1660831
  69.7981124  26.1539773  11.3805428  69.2702485  25.4192533  11.0678665
  69.2968626  26.9314450  11.1345396  74.7773970  24.3488794  16.4972474
  74.1197644  25.0388055  16.5852603  75.5814369  24.7385226  16.8406460
  73.5879428  22.7033167  14.5476416  74.1011310  23.3363158  15.0498126
  74.2380652  22.1034362  14.1819776  70.8501803  32.6817491   7.3037087
  70.1763501  32.9849188   7.9122045  71.2367625  33.4846571   6.9542544
  70.0660259  20.1782622  16.7934756  69.1482821  20.3997569  16.6356444
  70.4820403  20.2528933  15.9346464  70.8495307  21.5774038  11.9237437
  71.5967126  22.0895435  11.6144559  71.1186897  21.2558091  12.7841830
  74.3541225  27.6839168  12.6755559  73.9003552  26.8430078  12.7320749
  73.7235191  28.3200566  13.0130339  73.2974144  18.6131154  13.9056226
  72.5596901  18.1008540  14.2366469  73.5500918  18.1731536  13.0939503
  72.7974164  29.5215665  13.6105377  73.0897138  30.0820722  12.8917742
  73.3072784  29.8144226  14.3658536  67.6706851  21.6861199  15.0074186
  67.7255461  20.7335036  14.9316663  66.8598053  21.8420638  15.4915485
  67.7607789  30.2996016  14.6998830  67.7183968  30.5256862  13.7707362
  68.6770488  30.0659390  14.8484631  71.2073423  20.7680083  21.5979459
  71.5622811  20.9951556  22.4573925  71.8545554  21.0998460  20.9756714
  76.9371160  23.8898519  12.3028788  76.7989058  24.0800115  11.3749977
  76.5807379  24.6517902  12.7596839  65.1013286  17.8756614  18.3825800
  65.7412665  17.7345373  17.6848763  64.2690817  17.5891128  18.0064402
  76.9640539  25.9575046  17.3140060  77.3977046  25.8650335  18.1623114
  77.6772120  25.9332547  16.6760076  65.8773590  27.1759045  14.4960793
  66.6714188  26.6809365  14.2943368  65.1665282  26.6476908  14.1328498
  70.6968434  29.5577140  18.8473160  70.7505457  30.1268077  19.6150876
  69.8283216  29.7279025  18.4827197  63.5766828  19.2594697  20.3297611
  64.2489881  19.0512059  19.6810260  62.7496614  19.0616783  19.8902844
  77.8256089  25.9998747  19.8472945  78.0191979  26.9044557  20.0932220
  77.7256707  25.5406166  20.6811530  69.4792400  15.8856637  22.3463272
  68.8320315  16.5846587  22.2527749  70.2493415  16.3192781  22.7139521
  72.8871198  26.1505490  25.4213826  72.7356704  25.9216041  24.5043909
  72.8775877  27.1076091  25.4345171  69.6556534  23.7237402  20.4060092
  70.5848594  23.8748562  20.2329059  69.2347564  23.8121423  19.5508739
  68.4544866  27.7488067  18.1758630  68.3155952  27.3806851  19.0484568
  67.6659462  28.2635706  18.0042587  69.0493018  32.8497163   9.5184166
  69.2244774  32.3785206  10.3329789  68.3625806  33.4762929   9.7465427
  70.0050081  27.1269669  15.5647467  69.6699914  27.0870439  16.4605117
  69.5054027  26.4614385  15.0917878  63.9794325  22.5337300  21.0900049
  63.8414123  21.8017538  21.6911588  64.8899248  22.4446200  20.8084236
  66.6076626  22.2457259  20.5783728  67.3176244  21.6050451  20.5370347
  66.5645934  22.4970154  21.5009909  74.5963404  29.1824612  23.4990307
  74.5375950  28.4983832  22.8320891  74.9982923  29.9243602  23.0470933
  65.3205560  19.2322477  22.3979368  64.7842917  18.7813215  23.0500964
  64.7322268  19.3668386  21.6549832  63.6154103  35.9986526  16.2924026
  63.8550701  36.6305050  16.9703045  62.7723300  35.6474566  16.5789386
  74.5980812  27.1464196  21.7304287  73.7107590  26.8090118  21.8530686
  75.1679363  26.4147227  21.9673053  61.0544681  18.3678484  19.4832362
  60.9702870  17.7604154  18.7482772  60.2327387  18.8587503  19.4841859
  68.1281965  31.8065648  18.6965530  68.0552136  32.6120620  19.2084835
  67.6859358  32.0057614  17.8713552  67.9171745  31.0437418  12.2068352
  67.1339267  31.5859099  12.3006576  68.6164490  31.5611398  12.6062593
  79.0798152  22.5572413  16.4920849  79.0688028  23.4397129  16.1214782
  78.2115532  22.2043964  16.2975386  70.5880649  31.7052482  20.8523689
  71.3008621  32.3399947  20.7799590  70.0970677  31.8016348  20.0363691
  72.3098175  25.6103735  12.4240981  71.3754454  25.7305198  12.2545685
  72.4874844  24.7076202  12.1600991  75.6970727  21.4521054  12.9591015
  76.1631179  22.2849046  12.8851317  76.1478227  20.9866036  13.6636273
  65.6392562  29.4546926  21.6729260  66.3402022  30.0883409  21.8258654
  65.1687677  29.7961657  20.9124899  73.7646958  27.7964876   9.9577167
  74.0406802  27.6821470  10.8671041  72.8951457  27.3982361   9.9189340
  73.6687390  13.8201641  16.9981916  72.7550469  14.0505868  17.1664123
  74.0980491  13.9040086  17.8495949  73.4393848  22.0091533  19.4981810
  72.7865298  22.2567441  18.8434263  73.8174228  21.1955672  19.1644287
  70.4001022  32.0451227  13.6009980  70.5823416  31.2272883  14.0637733
  71.2234008  32.2618919  13.1634870  70.7343187  30.9719412  10.8625029
  71.2630954  30.4611866  10.2495191  70.9971407  30.6561942  11.7270562
  69.4881421  22.7511344  25.9847847  68.8122058  22.6505474  26.6550222
  70.3109055  22.5950558  26.4483844  61.2360280  28.9883281  18.6060363
  61.8213717  28.2426969  18.7388267  61.0385119  29.2987238  19.4897026
  64.0898935  32.0234528  13.6222805  63.4209311  32.5080656  13.1386845
  63.9511805  32.2703749  14.5366183  68.2304204  34.0578272  20.2205463
  68.7822512  34.2209893  20.9854548  68.5710397  34.6482710  19.5485488
  63.2068697  16.4053422  20.8227348  63.2710024  17.2668253  20.4104746
  63.1435817  15.7927423  20.0899706  62.6820970  18.4776554  24.4700382
  63.3093008  18.0953632  25.0837907  61.8248889  18.2590756  24.8356075
  73.0815078  28.8839529  26.0754118  73.6254982  29.4969488  25.5809072
  72.5001923  29.4419108  26.5921131  71.3672591  32.0060247  17.2069145
  71.2423731  31.2049987  16.6980091  72.0251682  32.5006441  16.7183115
  73.4307500  29.8069268  18.8348696  72.4837835  29.6874619  18.7627022
  73.7790273  28.9191766  18.9174957  65.7907073  15.6963406  22.6586937
  66.3141475  15.9425703  23.4213247  65.5719406  16.5283441  22.2390075
  70.4353933  29.6021984  15.0353048  70.2878895  28.6738691  15.2160618
  71.2607426  29.6242074  14.5510123  74.0388055  30.4250542  16.1217921
  74.9634602  30.2193404  15.9842372  73.8703358  30.1766944  17.0307262
  66.9959618  16.6377102  20.3436608  66.6556438  15.8384915  20.7457288
  66.2898624  16.9378812  19.7713441  67.6476090  13.7226414  18.7963931
  68.4702159  13.2486892  18.6742821  67.8914153  14.5016898  19.2962617
  65.1714669  20.4145535  16.6055910  65.0259249  20.7285838  17.4980191
  64.6939872  21.0330435  16.0526808  67.0311051  17.4048083  16.6536799
  67.0172620  16.5089176  16.3169097  67.7483480  17.4118746  17.2875085
  68.8837182  17.8385423  18.6989927  68.6254960  18.7602493  18.6974257
  68.3522223  17.4415857  19.3890391  73.8283371  30.9436210  11.4780012
  74.0020248  30.3782632  10.7253864  74.3212262  31.7437105  11.2959502
  59.6460331  22.9550879  19.5443571  59.1013799  23.7310687  19.6763845
  60.5239681  23.3021683  19.3862692  79.6822762  23.7072633  13.0970312
  80.1253908  22.9579958  12.6989435  78.8049272  23.6982769  12.7144044
  74.8158543  30.2602974   8.5776910  75.5109448  30.8809667   8.7964225
  75.1581694  29.4098326   8.8529288  60.4326353  22.0820775  22.4373728
  59.6908089  22.2303411  23.0238358  60.1119097  22.3429041  21.5740477
  76.7149967  27.7102680  10.1064241  77.2401291  28.0489953   9.3813561
  76.6272319  26.7749695   9.9227376  68.3770015  31.6236754  22.2354118
  68.6857142  31.3785900  23.1076817  69.1745497  31.8283392  21.7472988
  68.3990627  33.7774663  14.4659494  67.9595618  33.2851042  15.1592351
  69.1498744  33.2347631  14.2251569  60.8782966  29.9686204  14.4684122
  61.7040986  29.6689976  14.0882766  60.5277018  29.1993826  14.9173911
  65.8464499  29.3212672  16.5381796  65.2244509  28.6583377  16.2384024
  66.5169366  29.3473804  15.8555444  59.0791571  27.8872530  15.4273056
  58.2423480  27.4594705  15.2457057  59.0515217  28.0804974  16.3643847
  65.9189027  17.7994460  26.1314302  65.9677182  18.6756583  25.7492071
  66.4611541  17.2571853  25.5585945  76.4043873  28.3435583  25.4115439
  75.6139416  28.3259722  24.8719938  76.1677227  28.8823877  26.1664476
  76.5241748  25.1928050  22.7248167  76.5739753  25.0278057  23.6663690
  76.4155671  24.3255309  22.3346048  73.8145510  21.1758978  24.0407474
  74.7155373  21.0365443  23.7491472  73.8893485  21.3413433  24.9805652
  68.1488315  18.5525833  22.8860661  67.2791625  18.8459399  22.6143249
  68.3847796  19.1366278  23.6067924  78.0259944  27.6124991  22.9690189
  77.7344753  27.9754972  23.8053650  77.4132076  26.8992000  22.7903521
  79.2255627  25.1777871  15.4892759  80.0602518  25.6167675  15.6530320
  79.3614756  24.7016524  14.6701005  76.2747133  22.7357606  21.4370247
  76.7501254  22.9285252  20.6289098  75.3512698  22.7916792  21.1913631
  70.8527349  14.7705450  20.4026081  71.3709293  15.5066477  20.0772569
  70.4982482  15.0769443  21.2372840  74.9748802  19.6123366  19.6698553
  75.9266225  19.7121464  19.6910777  74.8052252  18.8201635  20.1796637
  72.9963181  16.6978949  19.8557954  72.4013113  16.9783962  19.1604442
  72.7112878  17.1872850  20.6274695  72.1270672  30.6501876   8.6160586
  73.0601345  30.5847438   8.8193462  72.0393884  31.4858143   8.1575119
  74.7558688  29.9667746   5.5764534  74.6772320  29.6327610   6.4700292
  75.5768355  30.4589514   5.5756006  77.4536880  22.8329486  18.7840852
  77.4213200  21.8945487  18.9700536  78.0637503  22.9113523  18.0506677
  77.6031368  19.6240529  18.8299135  77.0870417  18.8398986  18.6429064
  78.4871317  19.2959246  18.9945655  75.2642095  13.3681545  14.7894948
  75.0666916  13.0596633  15.6738280  75.8741800  14.0943184  14.9192878
  83.2713429  23.8945493  17.9246889  84.0016818  23.6330781  18.4854592
  82.6620375  23.1574215  17.9648957  81.3528726  22.0353355  18.5221340
  80.6261890  21.9009320  17.9137832  80.9376013  22.3430184  19.3278058
  69.1758903  25.7543285  26.2868713  70.0961912  25.9321884  26.4808760
  69.1408486  24.8099330  26.1348413  62.1720975  23.6644320  18.9291494
  62.3906985  24.5961427  18.9479528  62.5846749  23.3052294  19.7146298
  67.0448841  19.2377525  28.3194243  66.9445568  20.1871882  28.2506334
  66.8270383  18.9095764  27.4470313  58.2629328  24.5684790  17.1815110
  57.5692799  24.1538743  16.6685064  59.0102319  24.6105327  16.5848528
  66.9080111  22.6674664  27.1359305  66.4247193  23.4675024  27.3423194
  66.9941050  22.6782609  26.1826749  62.8353448  26.5579199  19.1727739
  63.7896702  26.5263141  19.1057670  62.6365972  26.0969823  19.9877965
  63.4252830  25.1280315  21.7398536  64.2445719  25.6224394  21.7633374
  63.6989638  24.2112283  21.7116104  76.5333963  17.5437588  14.8180831
  77.3094353  18.0334041  15.0905448  75.8082097  17.9695642  15.2752701
  78.9706521  18.2565207  15.8754772  79.5651012  18.0160943  15.1648080
  79.0433105  17.5372338  16.5028308  61.1903677  32.0998818  16.1897937
  61.0558145  31.3399219  15.6235935  60.7735739  32.8239718  15.7226726
  73.1560450  23.0345603  11.3176782  73.0995652  23.4914155  10.4784415
  73.7088793  22.2736288  11.1399625  76.9665256  18.8235335  12.1426902
  76.7102191  18.4231971  12.9735109  76.3418124  19.5379129  12.0177041
  81.2777594  21.5631408  14.6498193  80.7177152  21.6324598  15.4229755
  80.6721098  21.3872393  13.9297689  64.3472803  32.9968135  16.4016379
  64.2305187  33.9413568  16.2995070  63.5265249  32.6941697  16.7902179
  74.2349338  27.7218271   7.2472972  75.0694941  27.2899470   7.0650447
  74.0733680  27.5500285   8.1749867  58.6787745  19.4618449  22.4390734
  59.3246608  18.9517403  22.9277959  58.4704896  20.1987130  23.0134159
  71.2041137  26.5299296  27.9382874  72.0732297  26.7039949  27.5769509
  70.7247888  27.3493713  27.8158603  65.3727317  33.6496397  19.6172308
  66.2754564  33.6820008  19.9338803  65.1464687  32.7196848  19.6318644
  67.1280919  32.4027384  16.2782386  66.1776550  32.4029245  16.1646759
  67.4313405  31.6560118  15.7618421  63.0185236  16.6086066  26.5365748
  63.8816697  16.2522871  26.7469072  62.4450646  16.2699961  27.2241152
  82.8633613  38.2387922  17.3428149  83.5012023  38.1194670  16.6391489
  82.7454456  39.1868766  17.4016101  79.6723319  38.1915350  17.2789673
  79.3341830  38.0756415  16.3910208  80.5413087  37.7906515  17.2590680
  75.5310135  40.0450827  13.2686564  74.9675000  39.9540764  12.5002852
  75.4162530  39.2250731  13.7489057  80.1543102  39.3450202  23.2375879
  80.1431743  38.9503000  22.3656383  80.3163741  38.6116275  23.8309650
  73.0774567  41.5402018  16.1070785  73.8695858  41.1992843  15.6917084
  73.3171217  41.6496993  17.0272938  81.1109693  43.7121794   8.5801029
  80.4597673  44.2975875   8.1935043  81.9054056  44.2427989   8.6396067
  75.0365320  40.8010932   8.9788164  75.8096196  40.2539919   8.8401039
  75.3890719  41.6655181   9.1902625  76.8750363  42.1287314  22.1855063
  76.5840229  43.0332945  22.0701729  77.5107347  42.1703841  22.8999133
  77.8006570  39.5064162  18.7756423  78.3970142  39.2820185  18.0613386
  77.8581541  38.7648908  19.3781870  77.3731598  36.9603598   6.6106614
  77.6257119  36.4385119   5.8490077  76.4356157  36.7969743   6.7133297
  82.4174881  35.9639376  14.4181357  83.2037970  35.5458799  14.0671774
  82.6813585  36.8685468  14.5863005  82.5884958  41.4012226   9.1170014
  81.9530791  41.4746853   9.8290918  82.2582365  41.9905825   8.4389093
  87.8183308  35.9014609  15.3214335  88.5508480  35.3313826  15.5552165
  87.0622664  35.5136210  15.7620841  77.0927887  38.8631704   8.8130989
  76.9764145  38.1876607   9.4812073  77.2030147  38.3764078   7.9963142
  79.4359428  38.3241851  12.5177678  79.0717635  37.7972472  13.2290599
  80.2926544  37.9340320  12.3444163  85.3408729  29.6136183  19.7808944
  85.0092053  30.4831594  19.5570159  84.7454342  29.2972467  20.4602974
  79.0764915  33.3531750   7.5139026  79.2439317  34.2211987   7.8809497
  78.8862084  33.5159032   6.5900316  81.8340248  41.8148729  19.1804857
  81.5340971  42.7173768  19.0720664  81.4891308  41.5480913  20.0326010
  75.2852730  38.2662526  15.2141561  74.3603226  38.1338740  15.4219253
  75.5337143  39.0456745  15.7111503  85.2337392  34.3331270  16.8602294
  84.3254269  34.2646678  16.5661055  85.1824988  34.8103214  17.6884119
  79.0554136  35.8089408   8.4985693  78.9353761  36.2546459   9.3371173
  78.3606724  36.1574726   7.9399231  72.6461541  37.9095800  16.0485350
  72.7753922  38.1630279  16.9624762  71.9658992  38.5023508  15.7290005
  76.8161028  48.5793050  12.1475824  76.7385058  49.5300875  12.2264305
  76.2122671  48.2338922  12.8050751  79.3078258  35.7520915  24.8037191
  78.5311592  36.3114835  24.7940056  79.9468821  36.2377698  25.3252061
  87.0999038  32.5347708  18.6380168  86.4573419  32.8280241  17.9919962
  86.5953967  32.4200628  19.4433365  84.7539202  36.2810881   9.3266027
  85.6657058  36.5138268   9.1513725  84.2448849  36.8647925   8.7641106
  77.5624630  38.5606368  24.3655158  78.3039314  39.0991412  24.0889982
  76.8561615  39.1872657  24.5226710  83.0379970  40.7035509  22.9627320
  83.4463326  40.2617919  22.2181952  82.3157231  40.1288136  23.2161513
  79.3911040  35.6408116  20.3360877  80.2372235  36.0647529  20.4795526
  79.3309677  34.9841740  21.0299440  83.3608784  41.2636700  16.7179609
  82.7317647  41.4282414  16.0155676  82.9734446  41.6778309  17.4890573
  87.2398016  42.1991137  14.0723972  86.5549054  42.5790039  13.5221006
  87.3241865  42.8086464  14.8055920  82.5410485  33.3012484  21.9942050
  82.2971417  34.0554545  21.4576326  82.8170416  33.6797832  22.8289297
  84.4948948  39.8451096  20.6719316  84.7065843  40.4882856  19.9953697
  84.4478696  39.0113413  20.2041246  82.0975177  32.4568917  17.5755888
  81.2359656  32.7550171  17.8672626  82.1237611  32.6739316  16.6436921
  78.9136746  41.0011108  13.9829694  79.3775092  41.2798811  13.1934316
  78.6493544  40.0994552  13.8002784  75.8060827  40.5482589  16.9209457
  76.3762184  40.9769858  16.2826941  76.3968939  40.2665174  17.6193643
  77.8505632  37.1234260  10.7919259  78.5529676  37.5755304  11.2593185
  77.5186261  36.4818079  11.4199152  76.2985994  35.7146017  25.1670468
  75.6684654  36.3962298  25.4005865  76.1922082  35.6029098  24.2223607
  71.5930966  35.3817813  16.0936392  70.8030020  35.6375341  15.6176503
  72.0842214  36.1966151  16.1988433  85.6094776  42.7223052  18.8441673
  86.4312219  42.3203239  18.5624355  85.6057179  42.6191286  19.7957789
  73.5445712  35.7462392  13.0519869  72.7476875  35.8581086  13.5703365
  73.3171304  36.0849044  12.1860760  79.3751379  42.2707095  21.0002384
  79.4395812  42.7327502  21.8360556  78.6662303  41.6404460  21.1284694
  69.8768669  35.6348303  18.5251383  70.1276708  36.5195313  18.7908959
  70.4128218  35.4552905  17.7526475  93.7000769  39.0661800  15.1926645
  92.9464477  38.4969198  15.0370649  93.8348310  39.0324465  16.1397279
  79.0899397  43.9375203  10.8681364  78.9545072  44.7826738  11.2966212
  79.6309209  44.1394480  10.1047298  75.5766736  30.0166783  27.5295719
  75.1833682  29.4632981  28.2043364  76.3932877  30.3277361  27.9202237
  72.5428794  41.4550641  11.4409289  73.0553315  42.2493891  11.5914854
  73.1951507  40.7576931  11.3742891  74.3523679  44.5716397  13.5232042
  74.5290307  45.4934362  13.3353026  75.1480512  44.2574816  13.9526422
  78.4934697  31.4324662  25.1215976  79.2344411  32.0331815  25.0420438
  78.7252620  30.6902299  24.5634018  73.6376035  36.6181029  23.3994206
  73.5229551  35.7166286  23.7001304  72.7820553  36.8644726  23.0479022
  80.7167873  44.5598769  24.9981706  80.2731727  43.7735148  24.6802611
  81.3785087  44.7477920  24.3325597  75.4754994  46.0894571  19.5242385
  76.0262419  45.9611634  18.7519379  74.6366470  46.3889460  19.1737277
  82.8149111  44.8401569  23.0263107  82.7967587  45.6610450  22.5343377
  83.7369031  44.7155644  23.2513249  79.2722165  42.3545699  23.8686616
  79.8050502  41.5933987  23.6385924  78.7436247  42.0619350  24.6110770
  82.4391860  27.4605765  19.3980258  82.0956130  28.3507406  19.3219368
  82.8070823  27.2707422  18.5349843  70.5077711  39.7839295  12.2168860
  71.3452933  40.1936303  12.0002567  70.6855979  38.8438737  12.1869054
  82.4042143  37.4514376   7.9052693  81.8888767  38.2218980   8.1441080
  82.1319452  36.7779512   8.5285754  79.9889254  32.2964076  12.9637931
  79.1330850  31.9070927  12.7843570  80.4016206  32.3756037  12.1037717
  81.5188401  29.8310420  17.3629491  81.0153196  29.7940555  16.5497296
  81.8119008  30.7403162  17.4226147  77.7631287  29.9149149  16.3695673
  78.6284283  29.7191958  16.0101562  77.8308796  29.6859501  17.2965029
  87.3776417  40.2046730   9.8405866  86.6005860  39.8657890   9.3961028
  88.0567898  40.2099353   9.1660831  82.1928446  35.3241468   9.7312474
  81.8878582  35.6387617  10.5822617  83.1458888  35.4022888   9.7739807
  80.6374878  41.4831691  11.3805428  80.1096240  40.7484451  11.0678665
  80.1362381  42.2606367  11.1345396  85.6167724  39.6780712  16.4972474
  84.9591399  40.3679973  16.5852603  86.4208123  40.0677143  16.8406460
  75.3693606  32.1451357  13.7412039  75.9437358  31.9226539  13.0085232
  75.9564588  32.2140052  14.4940641  84.4273183  38.0325084  14.5476416
  84.9405065  38.6655076  15.0498126  85.0774407  37.4326280  14.1819776
  75.6963193  34.1755818   7.7607925  74.8600505  34.5130505   8.0817199
  75.5567962  34.0404798   6.8235062  77.6716273  29.0192606  12.4687109
  77.0180686  28.7041623  11.8443724  77.6296748  28.3968347  13.1946932
  78.7827478  39.3011901   4.3840401  77.8754540  39.0701155   4.5831550
  79.2798510  38.5049521   4.5714382  81.6895557  48.0109409   7.3037087
  81.0157256  48.3141105   7.9122045  82.0761379  48.8138489   6.9542544
  80.9054014  35.5074540  16.7934756  79.9876575  35.7289487  16.6356444
  81.3214157  35.5820850  15.9346464  81.6889062  36.9065955  11.9237437
  82.4360881  37.4187353  11.6144559  81.9580651  36.5850008  12.7841830
  79.9615712  39.4024496   8.9064391  79.0526931  39.1183529   9.0036861
  79.9910796  39.8223575   8.0467698  85.1934979  43.0131086  12.6755559
  84.7397306  42.1721996  12.7320749  84.5628946  43.6492484  13.0130339
  84.1367899  33.9423072  13.9056226  83.3990656  33.4300458  14.2366469
  84.3894672  33.5023453  13.0939503  83.6367918  44.8507582  13.6105377
  83.9290893  45.4112639  12.8917742  84.1466539  45.1436143  14.3658536
  84.2379526  26.7199324  14.4997995  84.5438403  25.8596687  14.2123910
  84.9632131  27.3116944  14.2996989  70.5303882  37.1230010  12.8879593
  70.3328282  36.5299371  12.1630660  69.9750546  36.8182220  13.6055532
  78.5100606  37.0153117  15.0074186  78.5649216  36.0626953  14.9316663
  77.6991808  37.1712556  15.4915485  79.6591800  40.9433240   6.2452470
  79.2211229  40.2269099   5.7858107  80.4002240  41.1709355   5.6837561
  76.4492966  35.6330177  12.7664565  75.6360831  35.9324347  13.1729757
  76.9451960  35.2385865  13.4839047  78.6001544  45.6287933  14.6998830
  78.5577722  45.8548780  13.7707362  79.5164242  45.3951308  14.8484631
  82.0467177  36.0972001  21.5979459  82.4016565  36.3243474  22.4573925
  82.6939309  36.4290378  20.9756714  87.7764914  39.2190437  12.3028788
  87.6382813  39.4092033  11.3749977  87.4201133  39.9809820  12.7596839
  75.9407040  33.2048532  18.3825800  76.5806420  33.0637291  17.6848763
  75.1084571  32.9183045  18.0064402  87.8034294  41.2866964  17.3140060
  88.2370801  41.1942253  18.1623114  88.5165875  41.2624464  16.6760076
  76.7167344  42.5050962  14.4960793  77.5107943  42.0101283  14.2943368
  76.0059037  41.9768826  14.1328498  81.5362189  44.8869058  18.8473160
  81.5899211  45.4559994  19.6150876  80.6676970  45.0570943  18.4827197
  73.0250108  36.6494044  10.5720545  72.0947696  36.5878500  10.7890507
  73.1207580  36.1269997   9.7757187  72.9435657  33.1748857  13.1598787
  73.2042474  34.0894190  13.0507947  73.7652829  32.7073300  13.3095400
  74.4160582  34.5886614  20.3297611  75.0883636  34.3803976  19.6810260
  73.5890369  34.3908700  19.8902844  88.6649844  41.3290665  19.8472945
  88.8585734  42.2336475  20.0932220  88.5650462  40.8698084  20.6811530
  80.3186154  31.2148555  22.3463272  79.6714069  31.9138505  22.2527749
  81.0887170  31.6484699  22.7139521  83.7264952  41.4797407  25.4213826
  83.5750459  41.2507959  24.5043909  83.7169632  42.4368009  25.4345171
  80.4950289  39.0529320  20.4060092  81.4242349  39.2040480  20.2329059
  80.0741319  39.1413341  19.5508739  79.2938620  43.0779984  18.1758630
  79.1549706  42.7098769  19.0484568  78.5053217  43.5927624  18.0042587
  79.8886772  48.1789081   9.5184166  80.0638528  47.7077124  10.3329789
  79.2019560  48.8054847   9.7465427  80.8443836  42.4561587  15.5647467
  80.5093668  42.4162357  16.4605117  80.3447781  41.7906303  15.0917878
  74.8188079  37.8629217  21.0900049  74.6807877  37.1309456  21.6911588
  75.7293003  37.7738117  20.8084236  83.7803027  39.8017621   5.8384527
  83.1632198  39.0764450   5.7417580  83.3119516  40.5626982   5.4951601
  77.4470380  37.5749177  20.5783728  78.1569999  36.9342369  20.5370347
  77.4039688  37.8262071  21.5009909  85.4357159  44.5116530  23.4990307
  85.3769705  43.8275750  22.8320891  85.8376677  45.2535520  23.0470933
  76.1599314  34.5614394  22.3979368  75.6236671  34.1105133  23.0500964
  75.5716023  34.6960303  21.6549832  74.4547858  51.3278444  16.2924026
  74.6944456  51.9596968  16.9703045  73.6117054  50.9766484  16.5789386
  75.5701573  34.0203046   4.9605831  74.6931039  33.8991847   4.5968078
  76.0459326  33.2289124   4.7084720  85.4374566  42.4756114  21.7304287
  84.5501345  42.1382036  21.8530686  86.0073117  41.7439145  21.9673053
  67.0903713  38.8080206  15.0547339  67.7774753  38.4941936  14.4668354
  66.9351842  39.7121570  14.7814590  71.8938435  33.6970402  19.4832362
  71.8096624  33.0896072  18.7482772  71.0721142  34.1879420  19.4841859
  78.9675719  47.1357566  18.6965530  78.8945891  47.9412538  19.2084835
  78.5253113  47.3349532  17.8713552  78.7565499  46.3729336  12.2068352
  77.9733021  46.9151016  12.3006576  79.4558244  46.8903316  12.6062593
  82.0662149  32.1823966  14.8502557  82.5630849  31.4293928  14.5303628
  81.2949131  32.2188282  14.2845767  89.9191907  37.8864331  16.4920849
  89.9081783  38.7689047  16.1214782  89.0509286  37.5335882  16.2975386
  81.4274403  47.0344400  20.8523689  82.1402375  47.6691865  20.7799590
  80.9364432  47.1308266  20.0363691  83.1491930  40.9395653  12.4240981
  82.2148209  41.0597115  12.2545685  83.3268598  40.0368120  12.1600991
  78.6497118  34.3241349  14.5774242  78.2794905  33.7712389  15.2655147
  79.1456210  33.7199482  14.0249242  86.5364481  36.7812972  12.9591015
  87.0024933  37.6140964  12.8851317  86.9871982  36.3157954  13.6636273
  76.4786317  44.7838844  21.6729260  77.1795776  45.4175327  21.8258654
  76.0081432  45.1253575  20.9124899  84.6040712  43.1256793   9.9577167
  84.8800556  43.0113388  10.8671041  83.7345211  42.7274278   9.9189340
  84.5081144  29.1493559  16.9981916  83.5944224  29.3797786  17.1664123
  84.9374245  29.2332003  17.8495949  84.2787603  37.3383451  19.4981810
  83.6259053  37.5859359  18.8434263  84.6567982  36.5247589  19.1644287
  81.2394776  47.3743144  13.6009980  81.4217171  46.5564800  14.0637733
  82.0627762  47.5910837  13.1634870  81.5736942  46.3011329  10.8625029
  82.1024708  45.7903784  10.2495191  81.8365161  45.9853860  11.7270562
  80.3275176  38.0803262  25.9847847  79.6515813  37.9797391  26.6550222
  81.1502809  37.9242476  26.4483844  72.0754035  44.3175199  18.6060363
  72.6607471  43.5718887  18.7388267  71.8778873  44.6279155  19.4897026
  74.9292690  47.3526446  13.6222805  74.2603065  47.8372574  13.1386845
  74.7905560  47.5995667  14.5366183  66.6671689  36.8880799  17.3264806
  66.7055789  36.3544390  18.1201924  66.1611982  36.3616004  16.7075783
  79.0697958  49.3870190  20.2205463  79.6216266  49.5501811  20.9854548
  79.4104152  49.9774627  19.5485488  74.0462452  31.7345339  20.8227348
  74.1103778  32.5960170  20.4104746  73.9829572  31.1219341  20.0899706
  73.5214724  33.8068472  24.4700382  74.1486763  33.4245549  25.0837907
  72.6642643  33.5882674  24.8356075  83.9208833  44.2131447  26.0754118
  84.4648737  44.8261405  25.5809072  83.3395678  44.7711026  26.5921131
  70.2980267  35.6144901  10.4018737  70.5933708  34.7055579  10.3485791
  69.3968303  35.5932640  10.0799739  82.2066346  47.3352165  17.2069145
  82.0817485  46.5341905  16.6980091  82.8645437  47.8298358  16.7183115
  73.8274514  33.6900898  16.3846286  73.1061100  34.3036865  16.2453759
  74.6167770  34.2258662  16.3062932  84.2701254  45.1361185  18.8348696
  83.3231590  45.0166536  18.7627022  84.6184027  44.2483683  18.9174957
  76.6300827  31.0255324  22.6586937  77.1535229  31.2717621  23.4213247
  76.4113161  31.8575359  22.2390075  72.0268109  33.2958999  10.5258062
  71.6980815  32.4156378  10.3433168  72.3807479  33.2406667  11.4134451
  81.2747687  44.9313901  15.0353048  81.1272650  44.0030609  15.2160618
  82.1001181  44.9533992  14.5510123  75.1409932  33.5831968  10.8933540
  75.4806004  34.1117890  10.1712148  75.5882052  33.9212375  11.6692106
  84.8781809  45.7542460  16.1217921  85.8028357  45.5485321  15.9842372
  84.7097113  45.5058861  17.0307262  77.8353372  31.9669019  20.3436608
  77.4950193  31.1676832  20.7457288  77.1292379  32.2670730  19.7713441
  78.4869844  29.0518332  18.7963931  79.3095914  28.5778810  18.6742821
  78.7307908  29.8308815  19.2962617  77.1278079  32.0806590   9.0926833
  77.8486441  32.4587843   8.5890550  76.5043383  32.7995467   9.1961811
  81.2709202  32.7851739  10.0285165  81.4872816  33.6676377   9.7273993
  80.7903269  32.3937952   9.2990807  76.0108423  35.7437452  16.6055910
  75.8653004  36.0577755  17.4980191  75.5333627  36.3622353  16.0526808
  77.8704806  32.7340000  16.6536799  77.8566375  31.8381094  16.3169097
  78.5877234  32.7410664  17.2875085  79.7230937  33.1677340  18.6989927
  79.4648714  34.0894411  18.6974257  79.1915977  32.7707775  19.3890391
  84.6677125  46.2728128  11.4780012  84.8414003  45.7074550  10.7253864
  85.1606017  47.0729022  11.2959502  70.4854085  38.2842797  19.5443571
  69.9407553  39.0602605  19.6763845  71.3633435  38.6313601  19.3862692
  77.2741702  31.6154381  11.9224369  77.3957613  30.6871027  12.1215257
  76.9843744  31.6293067  11.0102685  80.1432892  29.3009291  15.0591089
  80.1654589  29.3648624  14.1043069  80.5600951  28.4613800  15.2531595
  90.5216517  39.0364551  13.0970312  90.9647663  38.2871876  12.6989435
  89.6443027  39.0274687  12.7144044  85.6552298  45.5894892   8.5776910
  86.3503203  46.2101585   8.7964225  85.9975448  44.7390243   8.8529288
  71.2720107  37.4112693  22.4373728  70.5301843  37.5595328  23.0238358
  70.9512851  37.6720959  21.5740477  87.5543721  43.0394598  10.1064241
  88.0795045  43.3781870   9.3813561  87.4666074  42.1041613   9.9227376
  79.2163770  46.9528671  22.2354118  79.5250896  46.7077818  23.1076817
  80.0139252  47.1575310  21.7472988  79.2384382  49.1066581  14.4659494
  78.7989372  48.6142960  15.1592351  79.9892499  48.5639548  14.2251569
  71.7176721  45.2978122  14.4684122  72.5434741  44.9981894  14.0882766
  71.3670773  44.5285744  14.9173911  76.6858254  44.6504590  16.5381796
  76.0638263  43.9875295  16.2384024  77.3563121  44.6765722  15.8555444
  69.9185326  43.2164448  15.4273056  69.0817234  42.7886622  15.2457057
  69.8908971  43.4096891  16.3643847  76.7582781  33.1286378  26.1314302
  76.8070937  34.0048501  25.7492071  77.3005296  32.5863771  25.5585945
  87.2437627  43.6727501  25.4115439  86.4533171  43.6551640  24.8719938
  87.0070982  44.2115795  26.1664476  87.3635502  40.5219968  22.7248167
  87.4133507  40.3569975  23.6663690  87.2549425  39.6547227  22.3346048
  76.2471761  43.2008513  10.0140256  76.3959881  43.8843978   9.3606929
  77.0538204  43.1813603  10.5289712  84.6539265  36.5050896  24.0407474
  85.5549127  36.3657360  23.7491472  84.7287239  36.6705350  24.9805652
  78.9882070  33.8817750  22.8860661  78.1185379  34.1751316  22.6143249
  79.2241550  34.4658195  23.6067924  88.8653699  42.9416909  22.9690189
  88.5738507  43.3046890  23.8053650  88.2525830  42.2283917  22.7903521
  90.0649381  40.5069789  15.4892759  90.8996273  40.9459593  15.6530320
  90.2008510  40.0308442  14.6701005  87.1140887  38.0649524  21.4370247
  87.5895009  38.2577170  20.6289098  86.1906453  38.1208710  21.1913631
  74.0024394  39.2273691  11.0201325  73.7570436  38.3236021  11.2181535
  74.1720308  39.2290841  10.0780803  81.6921104  30.0997367  20.4026081
  82.2103048  30.8358394  20.0772569  81.3376236  30.4061361  21.2372840
  73.2720041  34.9602048   8.5187487  72.5789286  35.0346403   7.8627523
  73.0271793  34.1962392   9.0409004  81.9433698  26.5197650  15.9226978
  82.2235452  25.8520839  16.5487404  82.7284305  26.7126745  15.4101641
  79.7467166  45.6956644   7.4852004  79.1741133  46.3146831   7.0322476
  80.3199960  46.2456005   8.0191926  85.8142556  34.9415284  19.6698553
  86.7659979  35.0413381  19.6910777  85.6446007  34.1493552  20.1796637
  83.8356936  32.0270867  19.8557954  83.2406868  32.3075880  19.1604442
  83.5506632  32.5164768  20.6274695  82.9664426  45.9793794   8.6160586
  83.8995099  45.9139355   8.8193462  82.8787639  46.8150061   8.1575119
  85.5952443  45.2959664   5.5764534  85.5166074  44.9619528   6.4700292
  86.4162110  45.7881432   5.5756006  88.2930634  38.1621403  18.7840852
  88.2606954  37.2237404  18.9700536  88.9031258  38.2405440  18.0506677
  80.1313965  37.0317456   4.8268056  81.0773070  36.9023665   4.8956474
  79.7528210  36.2932118   5.3037484  88.4425122  34.9532447  18.8299135
  87.9264171  34.1690904  18.6429064  89.3265071  34.6251164  18.9945655
  86.1035849  28.6973462  14.7894948  85.9060671  28.3888551  15.6738280
  86.7135555  29.4235101  14.9192878  94.1107184  39.2237410  17.9246889
  94.8410572  38.9622698  18.4854592  93.5014129  38.4866132  17.9648957
  92.1922481  37.3645273  18.5221340  91.4655645  37.2301238  17.9137832
  91.7769768  37.6722102  19.3278058  80.0152657  41.0835203  26.2868713
  80.9355667  41.2613802  26.4808760  79.9802240  40.1391248  26.1348413
  78.3156882  34.9567433   4.7622942  77.4088337  34.6600546   4.8385655
  78.5932863  34.6597251   3.8957228  69.2334822  36.2773796  15.2121988
  68.9137607  35.4239104  14.9196362  68.6868251  36.4922374  15.9679955
  73.0114730  38.9936237  18.9291494  73.2300740  39.9253345  18.9479528
  73.4240504  38.6344212  19.7146298  79.9318948  29.5004323  10.9167183
  79.1219676  29.1551408  11.2922429  80.6203365  29.1911866  11.5054794
  81.8609496  28.5782369  12.5391479  82.4140535  28.9977823  13.1981503
  82.0979582  27.6518117  12.5814435  77.8842595  34.5669443  28.3194243
  77.7839322  35.5163800  28.2506334  77.6664137  34.2387682  27.4470313
  77.0855667  31.8154368   4.9034921  77.9474831  32.1409266   5.1630738
  77.2706011  31.0285864   4.3907987  69.1023082  39.8976708  17.1815110
  68.4086554  39.4830661  16.6685064  69.8496073  39.9397244  16.5848528
  85.2388303  30.6882895  12.0470144  84.6586972  31.3467699  11.6648196
  84.9724236  29.8660239  11.6357561  83.6891869  30.0887952  14.2491464
  84.1891648  30.2004487  13.4405783  84.3327477  29.7849005  14.8892273
  77.7473865  37.9966582  27.1359305  77.2640947  38.7966942  27.3423194
  77.8334804  38.0074527  26.1826749  71.0159825  39.8294962  15.0581124
  70.9930513  39.9282649  14.1063008  71.3260461  40.6760112  15.3798291
  73.6747203  41.8871117  19.1727739  74.6290456  41.8555059  19.1057670
  73.4759726  41.4261740  19.9877965  74.2646585  40.4572233  21.7398536
  75.0839474  40.9516311  21.7633374  74.5383393  39.5404201  21.7116104
  84.0213181  32.8482985  11.1026492  83.1339036  33.1332636  10.8846687
  84.4367170  32.6876748  10.2553769  87.3727717  32.8729506  14.8180831
  88.1488107  33.3625958  15.0905448  86.6475851  33.2987560  15.2752701
  89.8100276  33.5857125  15.8754772  90.4044767  33.3452861  15.1648080
  89.8826860  32.8664256  16.5028308  72.0297432  47.4290736  16.1897937
  71.8951900  46.6691137  15.6235935  71.6129494  48.1531636  15.7226726
  83.1656395  42.6127660   5.1974512  83.8692245  42.8177662   5.8132168
  82.4419043  43.1804421   5.4623596  83.9954205  38.3637521  11.3176782
  83.9389406  38.8206072  10.4784415  84.5482547  37.6028205  11.1399625
  87.8059011  34.1527253  12.1426902  87.5495945  33.7523888  12.9735109
  87.1811879  34.8671047  12.0177041  92.1171349  36.8923326  14.6498193
  91.5570907  36.9616515  15.4229755  91.5114852  36.7164311  13.9297689
  75.1866557  48.3260053  16.4016379  75.0698942  49.2705486  16.2995070
  74.3659004  48.0233615  16.7902179  85.0743092  43.0510189   7.2472972
  85.9088696  42.6191387   7.0650447  84.9127435  42.8792202   8.1749867
  84.7288984  39.5542302   8.6129311  84.6737788  39.3886573   7.6717755
  84.1035039  40.2618335   8.7691501  69.5181499  34.7910366  22.4390734
  70.1640363  34.2809320  22.9277959  69.3098650  35.5279048  23.0134159
  82.0434891  41.8591214  27.9382874  82.9126051  42.0331866  27.5769509
  81.5641643  42.6785631  27.8158603  78.0385110  29.0550411   8.1914630
  78.0263779  29.9992251   8.3482901  78.9308532  28.8720556   7.8974091
  76.2121072  48.9788315  19.6172308  77.1148318  49.0111925  19.9338803
  75.9858442  48.0488766  19.6318644  77.9674674  47.7319301  16.2782386
  77.0170305  47.7321163  16.1646759  78.2707160  46.9852036  15.7618421
  81.8537229  25.6493188  12.4460567  81.0869625  25.0951674  12.5917249
  82.2647934  25.7215056  13.3074718  73.8578990  31.9377984  26.5365748
  74.7210452  31.5814788  26.7469072  73.2844401  31.5991878  27.2241152
  93.7027367  53.5679840  17.3428149  94.3405777  53.4486587  16.6391489
  93.5848210  54.5160684  17.4016101  90.5117073  53.5207268  17.2789673
  90.1735585  53.4048333  16.3910208  91.3806842  53.1198433  17.2590680
  86.3703889  55.3742744  13.2686564  85.8068754  55.2832681  12.5002852
  86.2556284  54.5542649  13.7489057  90.9936856  54.6742120  23.2375879
  90.9825497  54.2794918  22.3656383  91.1557496  53.9408192  23.8309650
  83.9168321  56.8693936  16.1070785  84.7089613  56.5284761  15.6917084
  84.1564971  56.9788911  17.0272938  91.9503448  59.0413712   8.5801029
  91.2991428  59.6267793   8.1935043  92.7447811  59.5719907   8.6396067
  85.8759075  56.1302849   8.9788164  86.6489951  55.5831836   8.8401039
  86.2284474  56.9947099   9.1902625  87.7144118  57.4579232  22.1855063
  87.4233983  58.3624862  22.0701729  88.3501102  57.4995759  22.8999133
  88.6400324  54.8356080  18.7756423  89.2363897  54.6112102  18.0613386
  88.6975296  54.0940826  19.3781870  88.2125353  52.2895515   6.6106614
  88.4650873  51.7677037   5.8490077  87.2749912  52.1261661   6.7133297
  93.2568636  51.2931294  14.4181357  94.0431725  50.8750717  14.0671774
  93.5207340  52.1977386  14.5863005  93.4278713  56.7304144   9.1170014
  92.7924546  56.8038771   9.8290918  93.0976119  57.3197743   8.4389093
  98.6577063  51.2306527  15.3214335  99.3902235  50.6605744  15.5552165
  97.9016418  50.8428127  15.7620841  87.9321642  54.1923621   8.8130989
  87.8157900  53.5168525   9.4812073  88.0423901  53.7055995   7.9963142
  90.2753182  53.6533768  12.5177678  89.9111390  53.1264389  13.2290599
  91.1320298  53.2632237  12.3444163  96.1802483  44.9428101  19.7808944
  95.8485808  45.8123512  19.5570159  95.5848096  44.6264385  20.4602974
  89.9158669  48.6823668   7.5139026  90.0833072  49.5503905   7.8809497
  89.7255838  48.8450950   6.5900316  92.6734003  57.1440647  19.1804857
  92.3734726  58.0465686  19.0720664  92.3285062  56.8772830  20.0326010
  86.1246484  53.5954444  15.2141561  85.1996981  53.4630658  15.4219253
  86.3730897  54.3748663  15.7111503  96.0731146  49.6623187  16.8602294
  95.1648024  49.5938596  16.5661055  96.0218742  50.1395132  17.6884119
  89.8947890  51.1381326   8.4985693  89.7747515  51.5838376   9.3371173
  89.2000479  51.4866643   7.9399231  83.4855295  53.2387717  16.0485350
  83.6147676  53.4922196  16.9624762  82.8052746  53.8315425  15.7290005
  87.6554782  63.9084967  12.1475824  87.5778812  64.8592792  12.2264305
  87.0516426  63.5630840  12.8050751  90.1472012  51.0812833  24.8037191
  89.3705346  51.6406753  24.7940056  90.7862575  51.5669616  25.3252061
  97.9392793  47.8639626  18.6380168  97.2967173  48.1572159  17.9919962
  97.4347721  47.7492546  19.4433365  95.5932956  51.6102799   9.3266027
  96.5050813  51.8430186   9.1513725  95.0842604  52.1939843   8.7641106
  88.4018384  53.8898286  24.3655158  89.1433069  54.4283330  24.0889982
  87.6955370  54.5164575  24.5226710  93.8773724  56.0327427  22.9627320
  94.2857080  55.5909837  22.2181952  93.1550986  55.4580054  23.2161513
  90.2304794  50.9700033  20.3360877  91.0765989  51.3939447  20.4795526
  90.1703432  50.3133658  21.0299440  94.2002539  56.5928617  16.7179609
  93.5711401  56.7574331  16.0155676  93.8128201  57.0070227  17.4890573
  98.0791771  57.5283055  14.0723972  97.3942809  57.9081956  13.5221006
  98.1635620  58.1378382  14.8055920  93.3804239  48.6304402  21.9942050
  93.1365171  49.3846462  21.4576326  93.6564170  49.0089749  22.8289297
  95.3342702  55.1743014  20.6719316  95.5459598  55.8174774  19.9953697
  95.2872451  54.3405331  20.2041246  92.9368931  47.7860835  17.5755888
  92.0753410  48.0842088  17.8672626  92.9631366  48.0031234  16.6436921
  89.7530501  56.3303025  13.9829694  90.2168846  56.6090728  13.1934316
  89.4887299  55.4286470  13.8002784  86.6454582  55.8774507  16.9209457
  87.2155939  56.3061775  16.2826941  87.2362694  55.5957092  17.6193643
  88.6899387  52.4526178  10.7919259  89.3923430  52.9047221  11.2593185
  88.3580015  51.8109997  11.4199152  87.1379748  51.0437934  25.1670468
  86.5078409  51.7254215  25.4005865  87.0315836  50.9321016  24.2223607
  82.4324721  50.7109730  16.0936392  81.6423775  50.9667259  15.6176503
  82.9235968  51.5258068  16.1988433  96.4488530  58.0514970  18.8441673
  97.2705974  57.6495157  18.5624355  96.4450933  57.9483204  19.7957789
  84.3839466  51.0754310  13.0519869  83.5870629  51.1873004  13.5703365
  84.1565058  51.4140962  12.1860760  90.2145134  57.5999013  21.0002384
  90.2789566  58.0619420  21.8360556  89.5056058  56.9696378  21.1284694
  80.7162424  50.9640221  18.5251383  80.9670462  51.8487231  18.7908959
  81.2521972  50.7844822  17.7526475 104.5394523  54.3953718  15.1926645
 103.7858232  53.8261116  15.0370649 104.6742064  54.3616383  16.1397279
  89.9293151  59.2667120  10.8681364  89.7938826  60.1118656  11.2966212
  90.4702964  59.4686398  10.1047298  86.4160491  45.3458700  27.5295719
  86.0227437  44.7924899  28.2043364  87.2326631  45.6569279  27.9202237
  83.3822549  56.7842558  11.4409289  83.8947069  57.5785809  11.5914854
  84.0345262  56.0868849  11.3742891  85.1917433  59.9008315  13.5232042
  85.3684062  60.8226279  13.3353026  85.9874267  59.5866734  13.9526422
  89.3328452  46.7616579  25.1215976  90.0738165  47.3623732  25.0420438
  89.5646375  46.0194217  24.5634018  84.4769790  51.9472947  23.3994206
  84.3623305  51.0458204  23.7001304  83.6214308  52.1936643  23.0479022
  91.5561628  59.8890687  24.9981706  91.1125482  59.1027065  24.6802611
  92.2178841  60.0769837  24.3325597  86.3148749  61.4186488  19.5242385
  86.8656174  61.2903552  18.7519379  85.4760225  61.7181377  19.1737277
  93.6542866  60.1693487  23.0263107  93.6361341  60.9902368  22.5343377
  94.5762786  60.0447562  23.2513249  90.1115920  57.6837616  23.8686616
  90.6444257  56.9225904  23.6385924  89.5830001  57.3911268  24.6110770
  93.2785615  42.7897682  19.3980258  92.9349884  43.6799324  19.3219368
  93.6464577  42.5999340  18.5349843  81.3471465  55.1131213  12.2168860
  82.1846687  55.5228221  12.0002567  81.5249733  54.1730655  12.1869054
  93.2435898  52.7806293   7.9052693  92.7282521  53.5510898   8.1441080
  92.9713206  52.1071429   8.5285754  90.8283009  47.6255994  12.9637931
  89.9724605  47.2362844  12.7843570  91.2409960  47.7047955  12.1037717
  92.3582155  45.1602337  17.3629491  91.8546951  45.1232473  16.5497296
  92.6512762  46.0695080  17.4226147  88.6025041  45.2441067  16.3695673
  89.4678038  45.0483876  16.0101562  88.6702550  45.0151419  17.2965029
  98.2170172  55.5338648   9.8405866  97.4399615  55.1949807   9.3961028
  98.8961653  55.5391271   9.1660831  93.0322201  50.6533385   9.7312474
  92.7272336  50.9679535  10.5822617  93.9852643  50.7314805   9.7739807
  91.4768633  56.8123609  11.3805428  90.9489994  56.0776368  11.0678665
  90.9756135  57.5898285  11.1345396  96.4561479  55.0072629  16.4972474
  95.7985153  55.6971891  16.5852603  97.2601878  55.3969061  16.8406460
  86.2087360  47.4743275  13.7412039  86.7831112  47.2518457  13.0085232
  86.7958343  47.5431970  14.4940641  95.2666937  53.3617002  14.5476416
  95.7798819  53.9946994  15.0498126  95.9168161  52.7618197  14.1819776
  86.5356947  49.5047736   7.7607925  85.6994260  49.8422423   8.0817199
  86.3961717  49.3696716   6.8235062  88.5110028  44.3484524  12.4687109
  87.8574440  44.0333541  11.8443724  88.4690502  43.7260264  13.1946932
  89.6221233  54.6303819   4.3840401  88.7148295  54.3993072   4.5831550
  90.1192265  53.8341438   4.5714382  92.5289312  63.3401326   7.3037087
  91.8551010  63.6433023   7.9122045  92.9155134  64.1430407   6.9542544
  91.7447768  50.8366457  16.7934756  90.8270330  51.0581404  16.6356444
  92.1607912  50.9112768  15.9346464  92.5282816  52.2357873  11.9237437
  93.2754635  52.7479270  11.6144559  92.7974406  51.9141926  12.7841830
  90.8009466  54.7316414   8.9064391  89.8920685  54.4475447   9.0036861
  90.8304550  55.1515492   8.0467698  96.0328734  58.3423003  12.6755559
  95.5791061  57.5013913  12.7320749  95.4022700  58.9784402  13.0130339
  94.9761653  49.2714989  13.9056226  94.2384410  48.7592376  14.2366469
  95.2288427  48.8315371  13.0939503  94.4761673  60.1799500  13.6105377
  94.7684647  60.7404557  12.8917742  94.9860293  60.4728061  14.3658536
  95.0773281  42.0491241  14.4997995  95.3832157  41.1888605  14.2123910
  95.8025885  42.6408862  14.2996989  81.3697637  52.4521928  12.8879593
  81.1722036  51.8591289  12.1630660  80.8144301  52.1474138  13.6055532
  89.3494360  52.3445034  15.0074186  89.4042970  51.3918871  14.9316663
  88.5385562  52.5004474  15.4915485  90.4985554  56.2725158   6.2452470
  90.0604984  55.5561016   5.7858107  91.2395995  56.5001272   5.6837561
  87.2886720  50.9622094  12.7664565  86.4754586  51.2616265  13.1729757
  87.7845714  50.5677783  13.4839047  89.4395298  60.9579851  14.6998830
  89.3971477  61.1840697  13.7707362  90.3557997  60.7243226  14.8484631
  92.8860932  51.4263919  21.5979459  93.2410320  51.6535392  22.4573925
  93.5333063  51.7582295  20.9756714  98.6158669  54.5482355  12.3028788
  98.4776567  54.7383951  11.3749977  98.2594888  55.3101737  12.7596839
  86.7800795  48.5340450  18.3825800  87.4200174  48.3929209  17.6848763
  85.9478326  48.2474963  18.0064402  98.6428048  56.6158882  17.3140060
  99.0764555  56.5234171  18.1623114  99.3559629  56.5916382  16.6760076
  87.5561099  57.8342880  14.4960793  88.3501697  57.3393200  14.2943368
  86.8452791  57.3060743  14.1328498  92.3755943  60.2160976  18.8473160
  92.4292966  60.7851912  19.6150876  91.5070725  60.3862861  18.4827197
  83.8643862  51.9785962  10.5720545  82.9341450  51.9170417  10.7890507
  83.9601334  51.4561915   9.7757187  83.7829411  48.5040775  13.1598787
  84.0436229  49.4186108  13.0507947  84.6046584  48.0365217  13.3095400
  85.2554337  49.9178532  20.3297611  85.9277390  49.7095894  19.6810260
  84.4284123  49.7200618  19.8902844  99.5043598  56.6582582  19.8472945
  99.6979488  57.5628393  20.0932220  99.4044216  56.1990001  20.6811530
  91.1579909  46.5440473  22.3463272  90.5107824  47.2430422  22.2527749
  91.9280924  46.9776617  22.7139521  94.5658707  56.8089325  25.4213826
  94.4144213  56.5799877  24.5043909  94.5563386  57.7659926  25.4345171
  91.3344043  54.3821238  20.4060092  92.2636103  54.5332397  20.2329059
  90.9135073  54.4705259  19.5508739  90.1332375  58.4071902  18.1758630
  89.9943461  58.0390687  19.0484568  89.3446971  58.9219542  18.0042587
  90.7280527  63.5080999   9.5184166  90.9032283  63.0369042  10.3329789
  90.0413315  64.1346765   9.7465427  91.6837590  57.7853505  15.5647467
  91.3487423  57.7454275  16.4605117  91.1841536  57.1198221  15.0917878
  85.6581834  53.1921135  21.0900049  85.5201632  52.4601374  21.6911588
  86.5686757  53.1030035  20.8084236  94.6196782  55.1309539   5.8384527
  94.0025952  54.4056367   5.7417580  94.1513270  55.8918899   5.4951601
  88.2864135  52.9041094  20.5783728  88.9963753  52.2634286  20.5370347
  88.2433443  53.1553989  21.5009909  96.2750913  59.8408448  23.4990307
  96.2163459  59.1567668  22.8320891  96.6770432  60.5827438  23.0470933
  86.9993069  49.8906312  22.3979368  86.4630426  49.4397051  23.0500964
  86.4109777  50.0252221  21.6549832  85.2941612  66.6570361  16.2924026
  85.5338210  67.2888886  16.9703045  84.4510809  66.3058401  16.5789386
  86.4095328  49.3494963   4.9605831  85.5324794  49.2283764   4.5968078
  86.8853081  48.5581042   4.7084720  96.2768321  57.8048031  21.7304287
  95.3895099  57.4673953  21.8530686  96.8466872  57.0731063  21.9673053
  77.9297468  54.1372123  15.0547339  78.6168508  53.8233853  14.4668354
  77.7745596  55.0413488  14.7814590  82.7332190  49.0262320  19.4832362
  82.6490379  48.4187989  18.7482772  81.9114896  49.5171338  19.4841859
  89.8069474  62.4649484  18.6965530  89.7339645  63.2704455  19.2084835
  89.3646867  62.6641450  17.8713552  89.5959254  61.7021254  12.2068352
  88.8126775  62.2442934  12.3006576  90.2951999  62.2195233  12.6062593
  92.9055904  47.5115883  14.8502557  93.4024603  46.7585846  14.5303628
  92.1342885  47.5480200  14.2845767 100.7585661  53.2156249  16.4920849
 100.7475537  54.0980964  16.1214782  99.8903041  52.8627800  16.2975386
  92.2668157  62.3636318  20.8523689  92.9796130  62.9983783  20.7799590
  91.7758186  62.4600184  20.0363691  93.9885684  56.2687571  12.4240981
  93.0541963  56.3889033  12.2545685  94.1662353  55.3660037  12.1600991
  89.4890872  49.6533266  14.5774242  89.1188660  49.1004307  15.2655147
  89.9849965  49.0491400  14.0249242  97.3758236  52.1104890  12.9591015
  97.8418688  52.9432881  12.8851317  97.8265736  51.6449871  13.6636273
  87.3180071  60.1130761  21.6729260  88.0189531  60.7467244  21.8258654
  86.8475186  60.4545493  20.9124899  95.4434467  58.4548711   9.9577167
  95.7194311  58.3405306  10.8671041  94.5738966  58.0566196   9.9189340
  95.3474899  44.4785477  16.9981916  94.4337978  44.7089704  17.1664123
  95.7768000  44.5623921  17.8495949  95.1181357  52.6675369  19.4981810
  94.4652807  52.9151276  18.8434263  95.4961737  51.8539507  19.1644287
  92.0788531  62.7035062  13.6009980  92.2610925  61.8856718  14.0637733
  92.9021517  62.9202754  13.1634870  92.4130696  61.6303247  10.8625029
  92.9418463  61.1195702  10.2495191  92.6758916  61.3145777  11.7270562
  91.1668930  53.4095180  25.9847847  90.4909567  53.3089309  26.6550222
  91.9896564  53.2534394  26.4483844  82.9147789  59.6467116  18.6060363
  83.5001226  58.9010804  18.7388267  82.7172628  59.9571073  19.4897026
  85.7686444  62.6818364  13.6222805  85.0996820  63.1664491  13.1386845
  85.6299314  62.9287584  14.5366183  77.5065444  52.2172717  17.3264806
  77.5449543  51.6836307  18.1201924  77.0005737  51.6907922  16.7075783
  89.9091713  64.7162107  20.2205463  90.4610021  64.8793729  20.9854548
  90.2497906  65.3066545  19.5485488  84.8856206  47.0637257  20.8227348
  84.9497533  47.9252088  20.4104746  84.8223326  46.4511259  20.0899706
  84.3608479  49.1360390  24.4700382  84.9880517  48.7537467  25.0837907
  83.5036398  48.9174592  24.8356075  94.7602587  59.5423365  26.0754118
  95.3042491  60.1553323  25.5809072  94.1789432  60.1002943  26.5921131
  81.1374021  50.9436819  10.4018737  81.4327462  50.0347497  10.3485791
  80.2362057  50.9224558  10.0799739  93.0460100  62.6644083  17.2069145
  92.9211240  61.8633823  16.6980091  93.7039191  63.1590276  16.7183115
  84.6668268  49.0192815  16.3846286  83.9454854  49.6328783  16.2453759
  85.4561524  49.5550580  16.3062932  95.1095009  60.4653103  18.8348696
  94.1625344  60.3458454  18.7627022  95.4577782  59.5775601  18.9174957
  87.4694582  46.3547242  22.6586937  87.9928984  46.6009538  23.4213247
  87.2506915  47.1867277  22.2390075  82.8661863  48.6250916  10.5258062
  82.5374569  47.7448295  10.3433168  83.2201234  48.5698585  11.4134451
  92.1141442  60.2605819  15.0353048  91.9666404  59.3322527  15.2160618
  92.9394935  60.2825910  14.5510123  85.9803686  48.9123886  10.8933540
  86.3199759  49.4409807  10.1712148  86.4275807  49.2504292  11.6692106
  95.7175564  61.0834378  16.1217921  96.6422111  60.8777239  15.9842372
  95.5490867  60.8350779  17.0307262  88.6747127  47.2960937  20.3436608
  88.3343947  46.4968750  20.7457288  87.9686133  47.5962648  19.7713441
  89.3263599  44.3810249  18.7963931  90.1489668  43.9070728  18.6742821
  89.5701662  45.1600733  19.2962617  87.9671833  47.4098508   9.0926833
  88.6880196  47.7879761   8.5890550  87.3437137  48.1287385   9.1961811
  92.1102956  48.1143657  10.0285165  92.3266571  48.9968295   9.7273993
  91.6297023  47.7229870   9.2990807  86.8502178  51.0729370  16.6055910
  86.7046758  51.3869673  17.4980191  86.3727381  51.6914270  16.0526808
  88.7098560  48.0631918  16.6536799  88.6960129  47.1673011  16.3169097
  89.4270989  48.0702582  17.2875085  90.5624691  48.4969258  18.6989927
  90.3042469  49.4186329  18.6974257  90.0309732  48.0999693  19.3890391
  95.5070880  61.6020045  11.4780012  95.6807757  61.0366468  10.7253864
  95.9999771  62.4020940  11.2959502  81.3247840  53.6134714  19.5443571
  80.7801308  54.3894522  19.6763845  82.2027190  53.9605519  19.3862692
  88.1135456  46.9446298  11.9224369  88.2351368  46.0162944  12.1215257
  87.8237499  46.9584984  11.0102685  90.9826647  44.6301209  15.0591089
  91.0048344  44.6940542  14.1043069  91.3994706  43.7905717  15.2531595
 101.3610271  54.3656468  13.0970312 101.8041417  53.6163793  12.6989435
 100.4836781  54.3566605  12.7144044  96.4946052  60.9186810   8.5776910
  97.1896957  61.5393502   8.7964225  96.8369203  60.0682161   8.8529288
  82.1113862  52.7404611  22.4373728  81.3695598  52.8887246  23.0238358
  81.7906606  53.0012876  21.5740477  98.3937476  58.3686515  10.1064241
  98.9188800  58.7073788   9.3813561  98.3059828  57.4333531   9.9227376
  90.0557524  62.2820589  22.2354118  90.3644651  62.0369736  23.1076817
  90.8533006  62.4867227  21.7472988  90.0778136  64.4358498  14.4659494
  89.6383127  63.9434877  15.1592351  90.8286253  63.8931466  14.2251569
  82.5570475  60.6270039  14.4684122  83.3828495  60.3273811  14.0882766
  82.2064527  59.8577662  14.9173911  87.5252008  59.9796508  16.5381796
  86.9032018  59.3167213  16.2384024  88.1956875  60.0057639  15.8555444
  80.7579080  58.5456366  15.4273056  79.9210989  58.1178540  15.2457057
  80.7302726  58.7388809  16.3643847  87.5976536  48.4578296  26.1314302
  87.6464691  49.3340418  25.7492071  88.1399050  47.9155689  25.5585945
  98.0831382  59.0019419  25.4115439  97.2926925  58.9843558  24.8719938
  97.8464736  59.5407713  26.1664476  98.2029257  55.8511885  22.7248167
  98.2527262  55.6861893  23.6663690  98.0943180  54.9839144  22.3346048
  87.0865515  58.5300431  10.0140256  87.2353636  59.2135895   9.3606929
  87.8931959  58.5105521  10.5289712  95.4933019  51.8342813  24.0407474
  96.3942882  51.6949278  23.7491472  95.5680994  51.9997268  24.9805652
  89.8275824  49.2109668  22.8860661  88.9579134  49.5043234  22.6143249
  90.0635305  49.7950113  23.6067924  99.7047453  58.2708827  22.9690189
  99.4132262  58.6338807  23.8053650  99.0919585  57.5575835  22.7903521
 100.9043136  55.8361707  15.4892759 101.7390027  56.2751511  15.6530320
 101.0402265  55.3600360  14.6701005  97.9534642  53.3941441  21.4370247
  98.4288763  53.5869088  20.6289098  97.0300207  53.4500627  21.1913631
  84.8418148  54.5565609  11.0201325  84.5964190  53.6527939  11.2181535
  85.0114063  54.5582759  10.0780803  92.5314858  45.4289285  20.4026081
  93.0496802  46.1650312  20.0772569  92.1769991  45.7353278  21.2372840
  84.1113796  50.2893966   8.5187487  83.4183041  50.3638321   7.8627523
  83.8665548  49.5254310   9.0409004  92.7827452  41.8489567  15.9226978
  93.0629206  41.1812757  16.5487404  93.5678059  42.0418663  15.4101641
  90.5860921  61.0248561   7.4852004  90.0134888  61.6438748   7.0322476
  91.1593715  61.5747923   8.0191926  96.6536311  50.2707201  19.6698553
  97.6053734  50.3705299  19.6910777  96.4839761  49.4785470  20.1796637
  94.6750690  47.3562785  19.8557954  94.0800622  47.6367797  19.1604442
  94.3900387  47.8456686  20.6274695  93.8058181  61.3085711   8.6160586
  94.7388854  61.2431273   8.8193462  93.7181393  62.1441978   8.1575119
  96.4346197  60.6251582   5.5764534  96.3559829  60.2911445   6.4700292
  97.2555864  61.1173350   5.5756006  99.1324388  53.4913321  18.7840852
  99.1000709  52.5529322  18.9700536  99.7425012  53.5697358  18.0506677
  90.9707719  52.3609374   4.8268056  91.9166824  52.2315582   4.8956474
  90.5921964  51.6224036   5.3037484  99.2818877  50.2824365  18.8299135
  98.7657926  49.4982821  18.6429064 100.1658826  49.9543081  18.9945655
  96.9429604  44.0265380  14.7894948  96.7454425  43.7180468  15.6738280
  97.5529309  44.7527019  14.9192878 104.9500938  54.5529328  17.9246889
 105.6804327  54.2914616  18.4854592 104.3407884  53.8158050  17.9648957
 103.0316235  52.6937191  18.5221340 102.3049399  52.5593156  17.9137832
 102.6163522  53.0014019  19.3278058  90.8546412  56.4127120  26.2868713
  91.7749421  56.5905719  26.4808760  90.8195995  55.4683166  26.1348413
  89.1550637  50.2859351   4.7622942  88.2482092  49.9892463   4.8385655
  89.4326618  49.9889169   3.8957228  80.0728577  51.6065714  15.2121988
  79.7531361  50.7531022  14.9196362  79.5262005  51.8214292  15.9679955
  83.8508484  54.3228155  18.9291494  84.0694494  55.2545263  18.9479528
  84.2634258  53.9636129  19.7146298  90.7712702  44.8296240  10.9167183
  89.9613431  44.4843325  11.2922429  91.4597119  44.5203784  11.5054794
  92.7003251  43.9074287  12.5391479  93.2534289  44.3269740  13.1981503
  92.9373337  42.9810035  12.5814435  88.7236350  49.8961361  28.3194243
  88.6233077  50.8455718  28.2506334  88.5057892  49.5679600  27.4470313
  87.9249421  47.1446286   4.9034921  88.7868585  47.4701184   5.1630738
  88.1099765  46.3577782   4.3907987  79.9416837  55.2268625  17.1815110
  79.2480308  54.8122578  16.6685064  80.6889828  55.2689162  16.5848528
  96.0782058  46.0174812  12.0470144  95.4980727  46.6759616  11.6648196
  95.8117990  45.1952157  11.6357561  94.5285624  45.4179870  14.2491464
  95.0285402  45.5296404  13.4405783  95.1721232  45.1140923  14.8892273
  88.5867620  53.3258500  27.1359305  88.1034702  54.1258860  27.3423194
  88.6728559  53.3366444  26.1826749  81.8553579  55.1586879  15.0581124
  81.8324268  55.2574566  14.1063008  82.1654216  56.0052030  15.3798291
  84.5140957  57.2163034  19.1727739  85.4684211  57.1846977  19.1057670
  84.3153481  56.7553658  19.9877965  85.1040339  55.7864150  21.7398536
  85.9233228  56.2808229  21.7633374  85.3777147  54.8696118  21.7116104
  94.8606936  48.1774903  11.1026492  93.9732791  48.4624553  10.8846687
  95.2760925  48.0168666  10.2553769  98.2121472  48.2021424  14.8180831
  98.9881862  48.6917876  15.0905448  97.4869606  48.6279478  15.2752701
 100.6494030  48.9149043  15.8754772 101.2438521  48.6744779  15.1648080
 100.7220614  48.1956173  16.5028308  82.8691186  62.7582654  16.1897937
  82.7345654  61.9983055  15.6235935  82.4523248  63.4823554  15.7226726
  94.0050149  57.9419577   5.1974512  94.7085999  58.1469580   5.8132168
  93.2812798  58.5096339   5.4623596  94.8347959  53.6929438  11.3176782
  94.7783161  54.1497990  10.4784415  95.3876302  52.9320123  11.1399625
  98.6452765  49.4819170  12.1426902  98.3889700  49.0815806  12.9735109
  98.0205633  50.1962964  12.0177041 102.9565103  52.2215244  14.6498193
 102.3964661  52.2908433  15.4229755 102.3508607  52.0456228  13.9297689
  86.0260312  63.6551971  16.4016379  85.9092696  64.5997403  16.2995070
  85.2052758  63.3525532  16.7902179  95.9136846  58.3802106   7.2472972
  96.7482450  57.9483305   7.0650447  95.7521189  58.2084120   8.1749867
  95.5682739  54.8834220   8.6129311  95.5131542  54.7178491   7.6717755
  94.9428794  55.5910253   8.7691501  80.3575254  50.1202284  22.4390734
  81.0034117  49.6101238  22.9277959  80.1492405  50.8570966  23.0134159
  92.8828646  57.1883132  27.9382874  93.7519805  57.3623784  27.5769509
  92.4035397  58.0077548  27.8158603  88.8778864  44.3842329   8.1914630
  88.8657534  45.3284169   8.3482901  89.7702286  44.2012474   7.8974091
  87.0514826  64.3080233  19.6172308  87.9542073  64.3403843  19.9338803
  86.8252196  63.3780684  19.6318644  88.8068428  63.0611219  16.2782386
  87.8564059  63.0613081  16.1646759  89.1100914  62.3143954  15.7618421
  92.6930984  40.9785105  12.4460567  91.9263379  40.4243592  12.5917249
  93.1041689  41.0506974  13.3074718  84.6972745  47.2669901  26.5365748
  85.5604206  46.9106706  26.7469072  84.1238155  46.9283796  27.2241152
 104.5421122  68.8971758  17.3428149 105.1799532  68.7778505  16.6391489
 104.4241964  69.8452602  17.4016101 101.3510828  68.8499186  17.2789673
 101.0129339  68.7340250  16.3910208 102.2200596  68.4490351  17.2590680
  97.2097644  70.7034662  13.2686564  96.6462509  70.6124599  12.5002852
  97.0950039  69.8834567  13.7489057 101.8330611  70.0034037  23.2375879
 101.8219252  69.6086836  22.3656383 101.9951250  69.2700110  23.8309650
  94.7562075  72.1985854  16.1070785  95.5483367  71.8576678  15.6917084
  94.9958726  72.3080829  17.0272938 102.7897202  74.3705630   8.5801029
 102.1385182  74.9559710   8.1935043 103.5841565  74.9011825   8.6396067
  96.7152829  71.4594767   8.9788164  97.4883705  70.9123754   8.8401039
  97.0678228  72.3239016   9.1902625  98.5537872  72.7871149  22.1855063
  98.2627738  73.6916780  22.0701729  99.1894856  72.8287677  22.8999133
  99.4794079  70.1647998  18.7756423 100.0757651  69.9404020  18.0613386
  99.5369050  69.4232743  19.3781870  99.0519107  67.6187433   6.6106614
  99.3044628  67.0968954   5.8490077  98.1143666  67.4553578   6.7133297
 104.0962390  66.6223211  14.4181357 104.8825479  66.2042635  14.0671774
 104.3601094  67.5269304  14.5863005 104.2672467  72.0596062   9.1170014
 103.6318300  72.1330688   9.8290918 103.9369874  72.6489661   8.4389093
 109.4970817  66.5598445  15.3214335 110.2295989  65.9897661  15.5552165
 108.7410173  66.1720045  15.7620841  98.7715396  69.5215539   8.8130989
  98.6551654  68.8460442   9.4812073  98.8817656  69.0347913   7.9963142
 101.1146937  68.9825686  12.5177678 100.7505144  68.4556307  13.2290599
 101.9714053  68.5924155  12.3444163 107.0196238  60.2720019  19.7808944
 106.6879562  61.1415430  19.5570159 106.4241851  59.9556303  20.4602974
 100.7552424  64.0115586   7.5139026 100.9226826  64.8795822   7.8809497
 100.5649593  64.1742867   6.5900316 103.5127757  72.4732565  19.1804857
 103.2128480  73.3757604  19.0720664 103.1678817  72.2064748  20.0326010
  96.9640239  68.9246362  15.2141561  96.0390735  68.7922576  15.4219253
  97.2124652  69.7040581  15.7111503 106.9124901  64.9915105  16.8602294
 106.0041778  64.9230513  16.5661055 106.8612497  65.4687050  17.6884119
 100.7341645  66.4673243   8.4985693 100.6141270  66.9130294   9.3371173
 100.0394233  66.8158561   7.9399231  94.3249050  68.5679635  16.0485350
  94.4541431  68.8214114  16.9624762  93.6446501  69.1607343  15.7290005
  98.4948537  79.2376885  12.1475824  98.4172567  80.1884710  12.2264305
  97.8910180  78.8922758  12.8050751 100.9865767  66.4104750  24.8037191
 100.2099101  66.9698671  24.7940056 101.6256330  66.8961533  25.3252061
 108.7786547  63.1931543  18.6380168 108.1360928  63.4864076  17.9919962
 108.2741476  63.0784464  19.4433365 106.4326711  66.9394716   9.3266027
 107.3444567  67.1722103   9.1513725 105.9236358  67.5231761   8.7641106
  99.2412139  69.2190204  24.3655158  99.9826823  69.7575248  24.0889982
  98.5349124  69.8456493  24.5226710 104.7167479  71.3619344  22.9627320
 105.1250835  70.9201755  22.2181952 103.9944740  70.7871972  23.2161513
 101.0698549  66.2991951  20.3360877 101.9159744  66.7231365  20.4795526
 101.0097186  65.6425575  21.0299440 105.0396293  71.9220535  16.7179609
 104.4105156  72.0866249  16.0155676 104.6521955  72.3362144  17.4890573
 108.9185525  72.8574973  14.0723972 108.2336563  73.2373874  13.5221006
 109.0029374  73.4670299  14.8055920 104.2197994  63.9596319  21.9942050
 103.9758926  64.7138380  21.4576326 104.4957924  64.3381667  22.8289297
 106.1736457  70.5034932  20.6719316 106.3853352  71.1466692  19.9953697
 106.1266205  69.6697248  20.2041246 103.7762686  63.1152752  17.5755888
 102.9147165  63.4134006  17.8672626 103.8025120  63.3323151  16.6436921
 100.5924255  71.6594943  13.9829694 101.0562601  71.9382646  13.1934316
 100.3281053  70.7578388  13.8002784  97.4848336  71.2066425  16.9209457
  98.0549693  71.6353693  16.2826941  98.0756448  70.9249009  17.6193643
  99.5293141  67.7818095  10.7919259 100.2317185  68.2339139  11.2593185
  99.1973770  67.1401914  11.4199152  97.9773503  66.3729852  25.1670468
  97.3472163  67.0546133  25.4005865  97.8709591  66.2612934  24.2223607
  93.2718475  66.0401648  16.0936392  92.4817529  66.2959177  15.6176503
  93.7629723  66.8549986  16.1988433 107.2882285  73.3806887  18.8441673
 108.1099728  72.9787074  18.5624355 107.2844688  73.2775121  19.7957789
  95.2233221  66.4046227  13.0519869  94.4264384  66.5164922  13.5703365
  94.9958813  66.7432880  12.1860760 101.0538888  72.9290931  21.0002384
 101.1183321  73.3911338  21.8360556 100.3449812  72.2988295  21.1284694
  91.5556178  66.2932138  18.5251383  91.8064217  67.1779148  18.7908959
  92.0915727  66.1136740  17.7526475 115.3788278  69.7245636  15.1926645
 114.6251986  69.1553034  15.0370649 115.5135819  69.6908300  16.1397279
 100.7686906  74.5959038  10.8681364 100.6332581  75.4410574  11.2966212
 101.3096718  74.7978316  10.1047298  97.2554245  60.6750618  27.5295719
  96.8621191  60.1216816  28.2043364  98.0720386  60.9861196  27.9202237
  94.2216303  72.1134476  11.4409289  94.7340824  72.9077726  11.5914854
  94.8739016  71.4160766  11.3742891  96.0311188  75.2300232  13.5232042
  96.2077816  76.1518197  13.3353026  96.8268021  74.9158652  13.9526422
 100.1722206  62.0908497  25.1215976 100.9131920  62.6915650  25.0420438
 100.4040129  61.3486135  24.5634018  95.3163544  67.2764864  23.3994206
  95.2017060  66.3750121  23.7001304  94.4608062  67.5228561  23.0479022
 102.3955382  75.2182605  24.9981706 101.9519236  74.4318983  24.6802611
 103.0572596  75.4061755  24.3325597  97.1542503  76.7478406  19.5242385
  97.7049928  76.6195469  18.7519379  96.3153979  77.0473295  19.1737277
 104.4936620  75.4985404  23.0263107 104.4755096  76.3194285  22.5343377
 105.4156540  75.3739480  23.2513249 100.9509674  73.0129534  23.8686616
 101.4838011  72.2517822  23.6385924 100.4223756  72.7203186  24.6110770
 104.1179369  58.1189600  19.3980258 103.7743639  59.0091242  19.3219368
 104.4858332  57.9291258  18.5349843  92.1865220  70.4423130  12.2168860
  93.0240442  70.8520139  12.0002567  92.3643488  69.5022573  12.1869054
 104.0829652  68.1098211   7.9052693 103.5676276  68.8802816   8.1441080
 103.8106961  67.4363347   8.5285754 101.6676763  62.9547912  12.9637931
 100.8118359  62.5654762  12.7843570 102.0803715  63.0339873  12.1037717
 103.1975910  60.4894255  17.3629491 102.6940705  60.4524390  16.5497296
 103.4906517  61.3986998  17.4226147  99.4418796  60.5732985  16.3695673
 100.3071792  60.3775793  16.0101562  99.5096305  60.3443337  17.2965029
 109.0563926  70.8630566   9.8405866 108.2793369  70.5241725   9.3961028
 109.7355407  70.8683189   9.1660831 103.8715955  65.9825303   9.7312474
 103.5666091  66.2971452  10.5822617 104.8246397  66.0606723   9.7739807
 102.3162387  72.1415526  11.3805428 101.7883749  71.4068286  11.0678665
 101.8149890  72.9190203  11.1345396 107.2955233  70.3364547  16.4972474
 106.6378908  71.0263808  16.5852603 108.0995632  70.7260979  16.8406460
  97.0481115  62.8035193  13.7412039  97.6224867  62.5810374  13.0085232
  97.6352097  62.8723887  14.4940641 106.1060692  68.6908920  14.5476416
 106.6192574  69.3238911  15.0498126 106.7561916  68.0910115  14.1819776
  97.3750702  64.8339654   7.7607925  96.5388014  65.1714340   8.0817199
  97.2355471  64.6988634   6.8235062  99.3503782  59.6776442  12.4687109
  98.6968195  59.3625459  11.8443724  99.3084257  59.0552182  13.1946932
 100.4614987  69.9595737   4.3840401  99.5542049  69.7284990   4.5831550
 100.9586019  69.1633356   4.5714382 103.3683066  78.6693244   7.3037087
 102.6944765  78.9724941   7.9122045 103.7548888  79.4722324   6.9542544
 102.5841523  66.1658375  16.7934756 101.6664084  66.3873322  16.6356444
 103.0001666  66.2404686  15.9346464 103.3676571  67.5649791  11.9237437
 104.1148389  68.0771188  11.6144559 103.6368160  67.2433844  12.7841830
 101.6403221  70.0608332   8.9064391 100.7314440  69.7767364   9.0036861
 101.6698305  70.4807410   8.0467698 106.8722488  73.6714921  12.6755559
 106.4184815  72.8305831  12.7320749 106.2416455  74.3076319  13.0130339
 105.8155408  64.6006907  13.9056226 105.0778165  64.0884293  14.2366469
 106.0682181  64.1607289  13.0939503 105.3155427  75.5091418  13.6105377
 105.6078402  76.0696475  12.8917742 105.8254048  75.8019979  14.3658536
 105.9167035  57.3783159  14.4997995 106.2225912  56.5180522  14.2123910
 106.6419640  57.9700779  14.2996989  92.2091391  67.7813846  12.8879593
  92.0115791  67.1883206  12.1630660  91.6538055  67.4766056  13.6055532
 100.1888115  67.6736952  15.0074186 100.2436725  66.7210789  14.9316663
  99.3779317  67.8296391  15.4915485 101.3379309  71.6017075   6.2452470
 100.8998738  70.8852934   5.7858107 102.0789749  71.8293190   5.6837561
  98.1280475  66.2914012  12.7664565  97.3148340  66.5908182  13.1729757
  98.6239469  65.8969701  13.4839047 100.2789053  76.2871769  14.6998830
 100.2365231  76.5132615  13.7707362 101.1951751  76.0535143  14.8484631
 103.7254686  66.7555836  21.5979459 104.0804074  66.9827309  22.4573925
 104.3726818  67.0874213  20.9756714 109.4552423  69.8774272  12.3028788
 109.3170322  70.0675868  11.3749977 109.0988642  70.6393655  12.7596839
  97.6194549  63.8632367  18.3825800  98.2593929  63.7221127  17.6848763
  96.7872080  63.5766881  18.0064402 109.4821803  71.9450799  17.3140060
 109.9158310  71.8526088  18.1623114 110.1953384  71.9208300  16.6760076
  98.3954853  73.1634798  14.4960793  99.1895452  72.6685118  14.2943368
  97.6846546  72.6352661  14.1328498 103.2149698  75.5452893  18.8473160
 103.2686720  76.1143830  19.6150876 102.3464479  75.7154778  18.4827197
  94.7037617  67.3077880  10.5720545  93.7735205  67.2462335  10.7890507
  94.7995089  66.7853832   9.7757187  94.6223166  63.8332692  13.1598787
  94.8829983  64.7478026  13.0507947  95.4440338  63.3657135  13.3095400
  96.0948091  65.2470450  20.3297611  96.7671145  65.0387812  19.6810260
  95.2677878  65.0492536  19.8902844 110.3437352  71.9874500  19.8472945
 110.5373243  72.8920310  20.0932220 110.2437971  71.5281919  20.6811530
 101.9973663  61.8732390  22.3463272 101.3501578  62.5722340  22.2527749
 102.7674679  62.3068534  22.7139521 105.4052461  72.1381243  25.4213826
 105.2537968  71.9091794  24.5043909 105.3957141  73.0951844  25.4345171
 102.1737798  69.7113155  20.4060092 103.1029858  69.8624315  20.2329059
 101.7528828  69.7997176  19.5508739 100.9726129  73.7363820  18.1758630
 100.8337215  73.3682604  19.0484568 100.1840726  74.2511459  18.0042587
 101.5674281  78.8372916   9.5184166 101.7426037  78.3660959  10.3329789
 100.8807069  79.4638682   9.7465427 102.5231344  73.1145423  15.5647467
 102.1881177  73.0746192  16.4605117 102.0235290  72.4490138  15.0917878
  96.4975588  68.5213053  21.0900049  96.3595386  67.7893291  21.6911588
  97.4080512  68.4321953  20.8084236 105.4590536  70.4601457   5.8384527
 104.8419707  69.7348285   5.7417580 104.9907025  71.2210817   5.4951601
  99.1257889  68.2333012  20.5783728  99.8357508  67.5926204  20.5370347
  99.0827197  68.4845907  21.5009909 107.1144668  75.1700365  23.4990307
 107.0557214  74.4859585  22.8320891 107.5164186  75.9119355  23.0470933
  97.8386823  65.2198230  22.3979368  97.3024180  64.7688968  23.0500964
  97.2503532  65.3544139  21.6549832  96.1335367  81.9862279  16.2924026
  96.3731965  82.6180803  16.9703045  95.2904563  81.6350319  16.5789386
  97.2489082  64.6786881   4.9605831  96.3718548  64.5575682   4.5968078
  97.7246835  63.8872959   4.7084720 107.1162075  73.1339949  21.7304287
 106.2288854  72.7965871  21.8530686 107.6860626  72.4022980  21.9673053
  88.7691222  69.4664041  15.0547339  89.4562262  69.1525771  14.4668354
  88.6139351  70.3705406  14.7814590  93.5725944  64.3554237  19.4832362
  93.4884133  63.7479907  18.7482772  92.7508651  64.8463256  19.4841859
 100.6463228  77.7941401  18.6965530 100.5733400  78.5996373  19.2084835
 100.2040622  77.9933367  17.8713552 100.4353008  77.0313172  12.2068352
  99.6520530  77.5734852  12.3006576 101.1345753  77.5487151  12.6062593
 103.7449658  62.8407801  14.8502557 104.2418358  62.0877763  14.5303628
 102.9736640  62.8772118  14.2845767 111.5979416  68.5448167  16.4920849
 111.5869292  69.4272882  16.1214782 110.7296795  68.1919717  16.2975386
 103.1061912  77.6928236  20.8523689 103.8189884  78.3275700  20.7799590
 102.6151941  77.7892102  20.0363691 104.8279439  71.5979488  12.4240981
 103.8935718  71.7180951  12.2545685 105.0056107  70.6951955  12.1600991
 100.3284627  64.9825184  14.5774242  99.9582414  64.4296224  15.2655147
 100.8243719  64.3783317  14.0249242 108.2151990  67.4396807  12.9591015
 108.6812442  68.2724799  12.8851317 108.6659491  66.9741789  13.6636273
  98.1573826  75.4422679  21.6729260  98.8583285  76.0759162  21.8258654
  97.6868941  75.7837411  20.9124899 106.2828221  73.7840629   9.9577167
 106.5588065  73.6697223  10.8671041 105.4132720  73.3858114   9.9189340
 106.1868653  59.8077394  16.9981916 105.2731733  60.0381621  17.1664123
 106.6161754  59.8915839  17.8495949 105.9575111  67.9967286  19.4981810
 105.3046562  68.2443194  18.8434263 106.3355491  67.1831425  19.1644287
 102.9182285  78.0326980  13.6009980 103.1004680  77.2148636  14.0637733
 103.7415271  78.2494672  13.1634870 103.2524451  76.9595165  10.8625029
 103.7812217  76.4487619  10.2495191 103.5152670  76.6437695  11.7270562
 102.0062685  68.7387097  25.9847847 101.3303322  68.6381227  26.6550222
 102.8290318  68.5826311  26.4483844  93.7541544  74.9759034  18.6060363
  94.3394980  74.2302722  18.7388267  93.5566382  75.2862991  19.4897026
  96.6080199  78.0110281  13.6222805  95.9390574  78.4956409  13.1386845
  96.4693068  78.2579502  14.5366183  88.3459198  67.5464634  17.3264806
  88.3843298  67.0128225  18.1201924  87.8399491  67.0199840  16.7075783
 100.7485467  80.0454025  20.2205463 101.3003775  80.2085646  20.9854548
 101.0891661  80.6358463  19.5485488  95.7249961  62.3929175  20.8227348
  95.7891287  63.2544006  20.4104746  95.6617081  61.7803176  20.0899706
  95.2002233  64.4652307  24.4700382  95.8274272  64.0829385  25.0837907
  94.3430152  64.2466509  24.8356075 105.5996342  74.8715282  26.0754118
 106.1436246  75.4845241  25.5809072 105.0183187  75.4294861  26.5921131
  91.9767776  66.2728736  10.4018737  92.2721217  65.3639415  10.3485791
  91.0755812  66.2516476  10.0799739 103.8853855  77.9936000  17.2069145
 103.7604994  77.1925740  16.6980091 104.5432946  78.4882194  16.7183115
  95.5062023  64.3484733  16.3846286  94.7848609  64.9620701  16.2453759
  96.2955279  64.8842498  16.3062932 105.9488763  75.7945021  18.8348696
 105.0019099  75.6750372  18.7627022 106.2971536  74.9067519  18.9174957
  98.3088336  61.6839159  22.6586937  98.8322738  61.9301456  23.4213247
  98.0900670  62.5159194  22.2390075  93.7055617  63.9542834  10.5258062
  93.3768324  63.0740213  10.3433168  94.0594988  63.8990503  11.4134451
 102.9535196  75.5897737  15.0353048 102.8060159  74.6614444  15.2160618
 103.7788690  75.6117827  14.5510123  96.8197441  64.2415804  10.8933540
  97.1593513  64.7701725  10.1712148  97.2669561  64.5796210  11.6692106
 106.5569318  76.4126295  16.1217921 107.4815866  76.2069157  15.9842372
 106.3884622  76.1642697  17.0307262  99.5140881  62.6252855  20.3436608
  99.1737702  61.8260668  20.7457288  98.8079888  62.9254565  19.7713441
 100.1657353  59.7102167  18.7963931 100.9883423  59.2362645  18.6742821
 100.4095417  60.4892651  19.2962617  98.8065588  62.7390425   9.0926833
  99.5273950  63.1171678   8.5890550  98.1830892  63.4579302   9.1961811
 102.9496711  63.4435574  10.0285165 103.1660325  64.3260212   9.7273993
 102.4690778  63.0521788   9.2990807  97.6895932  66.4021288  16.6055910
  97.5440513  66.7161591  17.4980191  97.2121136  67.0206188  16.0526808
  99.5492315  63.3923836  16.6536799  99.5353884  62.4964929  16.3169097
 100.2664743  63.3994499  17.2875085 101.4018446  63.8261176  18.6989927
 101.1436223  64.7478246  18.6974257 100.8703486  63.4291610  19.3890391
 106.3464634  76.9311963  11.4780012 106.5201512  76.3658385  10.7253864
 106.8393526  77.7312858  11.2959502  92.1641594  68.9426632  19.5443571
  91.6195062  69.7186440  19.6763845  93.0420944  69.2897437  19.3862692
  98.9529211  62.2738216  11.9224369  99.0745122  61.3454862  12.1215257
  98.6631253  62.2876902  11.0102685 101.8220401  59.9593126  15.0591089
 101.8442098  60.0232459  14.1043069 102.2388460  59.1197635  15.2531595
 112.2004026  69.6948386  13.0970312 112.6435172  68.9455711  12.6989435
 111.3230536  69.6858522  12.7144044 107.3339807  76.2478727   8.5776910
 108.0290712  76.8685420   8.7964225 107.6762957  75.3974079   8.8529288
  92.9507616  68.0696528  22.4373728  92.2089352  68.2179164  23.0238358
  92.6300360  68.3304794  21.5740477 109.2331230  73.6978433  10.1064241
 109.7582554  74.0365706   9.3813561 109.1453583  72.7625448   9.9227376
 100.8951279  77.6112507  22.2354118 101.2038405  77.3661653  23.1076817
 101.6926761  77.8159145  21.7472988 100.9171891  79.7650416  14.4659494
 100.4776881  79.2726795  15.1592351 101.6680008  79.2223384  14.2251569
  93.3964230  75.9561957  14.4684122  94.2222250  75.6565729  14.0882766
  93.0458282  75.1869579  14.9173911  98.3645763  75.3088425  16.5381796
  97.7425772  74.6459130  16.2384024  99.0350630  75.3349557  15.8555444
  91.5972835  73.8748283  15.4273056  90.7604743  73.4470458  15.2457057
  91.5696480  74.0680727  16.3643847  98.4370290  63.7870213  26.1314302
  98.4858446  64.6632336  25.7492071  98.9792805  63.2447606  25.5585945
 108.9225136  74.3311337  25.4115439 108.1320680  74.3135475  24.8719938
 108.6858491  74.8699630  26.1664476 109.0423011  71.1803803  22.7248167
 109.0921016  71.0153810  23.6663690 108.9336934  70.3131062  22.3346048
  97.9259270  73.8592349  10.0140256  98.0747390  74.5427813   9.3606929
  98.7325713  73.8397439  10.5289712 106.3326774  67.1634731  24.0407474
 107.2336636  67.0241196  23.7491472 106.4074748  67.3289186  24.9805652
 100.6669579  64.5401586  22.8860661  99.7972888  64.8335152  22.6143249
 100.9029059  65.1242031  23.6067924 110.5441208  73.6000744  22.9690189
 110.2526016  73.9630725  23.8053650 109.9313339  72.8867753  22.7903521
 111.7436890  71.1653624  15.4892759 112.5783782  71.6043428  15.6530320
 111.8796019  70.6892277  14.6701005 108.7928396  68.7233359  21.4370247
 109.2682518  68.9161005  20.6289098 107.8693962  68.7792545  21.1913631
  95.6811903  69.8857526  11.0201325  95.4357945  68.9819856  11.2181535
  95.8507817  69.8874677  10.0780803 103.3708613  60.7581203  20.4026081
 103.8890557  61.4942230  20.0772569 103.0163745  61.0645196  21.2372840
  94.9507550  65.6185884   8.5187487  94.2576795  65.6930239   7.8627523
  94.7059302  64.8546227   9.0409004 103.6221207  57.1781485  15.9226978
 103.9022961  56.5104674  16.5487404 104.4071814  57.3710581  15.4101641
 101.4254675  76.3540479   7.4852004 100.8528642  76.9730666   7.0322476
 101.9987469  76.9039841   8.0191926 107.4930065  65.5999119  19.6698553
 108.4447488  65.6997217  19.6910777 107.3233516  64.8077388  20.1796637
 105.5144445  62.6854702  19.8557954 104.9194377  62.9659715  19.1604442
 105.2294141  63.1748603  20.6274695 104.6451935  76.6377629   8.6160586
 105.5782608  76.5723191   8.8193462 104.5575148  77.4733896   8.1575119
 107.2739952  75.9543500   5.5764534 107.1953583  75.6203363   6.4700292
 108.0949619  76.4465267   5.5756006 109.9718143  68.8205239  18.7840852
 109.9394463  67.8821240  18.9700536 110.5818767  68.8989276  18.0506677
 101.8101474  67.6901292   4.8268056 102.7560579  67.5607500   4.8956474
 101.4315719  66.9515954   5.3037484 110.1212631  65.6116282  18.8299135
 109.6051680  64.8274739  18.6429064 111.0052580  65.2834999  18.9945655
 107.7823358  59.3557298  14.7894948 107.5848180  59.0472386  15.6738280
 108.3923064  60.0818937  14.9192878 115.7894693  69.8821246  17.9246889
 116.5198081  69.6206534  18.4854592 115.1801638  69.1449968  17.9648957
 113.8709990  68.0229108  18.5221340 113.1443154  67.8885073  17.9137832
 113.4557277  68.3305937  19.3278058 101.6940166  71.7419038  26.2868713
 102.6143176  71.9197637  26.4808760 101.6589749  70.7975083  26.1348413
  99.9944391  65.6151268   4.7622942  99.0875846  65.3184381   4.8385655
 100.2720372  65.3181086   3.8957228  90.9122331  66.9357632  15.2121988
  90.5925116  66.0822940  14.9196362  90.3655760  67.1506210  15.9679955
  94.6902239  69.6520073  18.9291494  94.9088249  70.5837180  18.9479528
  95.1028013  69.2928047  19.7146298 101.6106457  60.1588158  10.9167183
 100.8007185  59.8135243  11.2922429 102.2990874  59.8495702  11.5054794
 103.5397005  59.2366205  12.5391479 104.0928044  59.6561658  13.1981503
 103.7767091  58.3101953  12.5814435  99.5630104  65.2253278  28.3194243
  99.4626831  66.1747635  28.2506334  99.3451646  64.8971517  27.4470313
  98.7643176  62.4738203   4.9034921  99.6262340  62.7993102   5.1630738
  98.9493520  61.6869699   4.3907987  90.7810591  70.5560543  17.1815110
  90.0874063  70.1414496  16.6685064  91.5283582  70.5981080  16.5848528
 106.9175812  61.3466730  12.0470144 106.3374481  62.0051534  11.6648196
 106.6511745  60.5244074  11.6357561 105.3679378  60.7471788  14.2491464
 105.8679157  60.8588322  13.4405783 106.0114986  60.4432840  14.8892273
  99.4261374  68.6550417  27.1359305  98.9428456  69.4550777  27.3423194
  99.5122313  68.6658362  26.1826749  92.6947334  70.4878797  15.0581124
  92.6718022  70.5866484  14.1063008  93.0047970  71.3343948  15.3798291
  95.3534712  72.5454952  19.1727739  96.3077965  72.5138894  19.1057670
  95.1547235  72.0845576  19.9877965  95.9434094  71.1156068  21.7398536
  96.7626983  71.6100147  21.7633374  96.2170902  70.1988036  21.7116104
 105.7000690  63.5066820  11.1026492 104.8126545  63.7916471  10.8846687
 106.1154679  63.3460584  10.2553769 109.0515226  63.5313341  14.8180831
 109.8275616  64.0209794  15.0905448 108.3263360  63.9571395  15.2752701
 111.4887785  64.2440960  15.8754772 112.0832276  64.0036696  15.1648080
 111.5614369  63.5248091  16.5028308  93.7084941  78.0874571  16.1897937
  93.5739409  77.3274972  15.6235935  93.2917003  78.8115471  15.7226726
 104.8443904  73.2711495   5.1974512 105.5479754  73.4761497   5.8132168
 104.1206552  73.8388257   5.4623596 105.6741714  69.0221356  11.3176782
 105.6176915  69.4789908  10.4784415 106.2270056  68.2612041  11.1399625
 109.4846520  64.8111088  12.1426902 109.2283454  64.4107724  12.9735109
 108.8599388  65.5254882  12.0177041 113.7958858  67.5507161  14.6498193
 113.2358416  67.6200351  15.4229755 113.1902361  67.3748146  13.9297689
  96.8654066  78.9843888  16.4016379  96.7486451  79.9289321  16.2995070
  96.0446513  78.6817450  16.7902179 106.7530601  73.7094024   7.2472972
 107.5876205  73.2775223   7.0650447 106.5914944  73.5376038   8.1749867
 106.4076493  70.2126137   8.6129311 106.3525297  70.0470409   7.6717755
 105.7822548  70.9202170   8.7691501  91.1969008  65.4494202  22.4390734
  91.8427872  64.9393156  22.9277959  90.9886159  66.1862883  23.0134159
 103.7222400  72.5175049  27.9382874 104.5913560  72.6915702  27.5769509
 103.2429152  73.3369466  27.8158603  99.7172619  59.7134246   8.1914630
  99.7051288  60.6576086   8.3482901 100.6096040  59.5304392   7.8974091
  97.8908581  79.6372150  19.6172308  98.7935827  79.6695761  19.9338803
  97.6645951  78.7072601  19.6318644  99.6462183  78.3903137  16.2782386
  98.6957814  78.3904998  16.1646759  99.9494669  77.6435871  15.7618421
 103.5324738  56.3077023  12.4460567 102.7657134  55.7535510  12.5917249
 103.9435443  56.3798892  13.3074718  95.5366499  62.5961819  26.5365748
  96.3997961  62.2398624  26.7469072  94.9631910  62.2575714  27.2241152
 115.3814876  84.2263675  17.3428149 116.0193286  84.1070423  16.6391489
 115.2635719  85.1744519  17.4016101 112.1904582  84.1791103  17.2789673
 111.8523094  84.0632168  16.3910208 113.0594351  83.7782268  17.2590680
 108.0491398  86.0326580  13.2686564 107.4856263  85.9416517  12.5002852
 107.9343793  85.2126484  13.7489057 112.6724365  85.3325955  23.2375879
 112.6613006  84.9378753  22.3656383 112.8345005  84.5992028  23.8309650
 105.5955830  87.5277771  16.1070785 106.3877122  87.1868596  15.6917084
 105.8352480  87.6372746  17.0272938 109.3931626  88.1163067  22.1855063
 109.1021492  89.0208698  22.0701729 110.0288611  88.1579594  22.8999133
 110.3187833  85.4939915  18.7756423 110.9151406  85.2695938  18.0613386
 110.3762805  84.7524661  19.3781870 114.9356145  81.9515129  14.4181357
 115.7219234  81.5334552  14.0671774 115.1994849  82.8561221  14.5863005
 120.3364572  81.8890362  15.3214335 121.0689744  81.3189579  15.5552165
 119.5803927  81.5011963  15.7620841 111.9540691  84.3117604  12.5177678
 111.5898899  83.7848225  13.2290599 112.8107807  83.9216073  12.3444163
 117.8589992  75.6011936  19.7808944 117.5273317  76.4707347  19.5570159
 117.2635605  75.2848220  20.4602974 114.3521512  87.8024482  19.1804857
 114.0522235  88.7049521  19.0720664 114.0072571  87.5356666  20.0326010
 107.8033993  84.2538279  15.2141561 106.8784490  84.1214493  15.4219253
 108.0518406  85.0332498  15.7111503 117.7518655  80.3207023  16.8602294
 116.8435533  80.2522431  16.5661055 117.7006251  80.7978967  17.6884119
 105.1642804  83.8971553  16.0485350 105.2935185  84.1506032  16.9624762
 104.4840255  84.4899261  15.7290005 111.8259521  81.7396668  24.8037191
 111.0492855  82.2990588  24.7940056 112.4650084  82.2253451  25.3252061
 119.6180302  78.5223461  18.6380168 118.9754682  78.8155994  17.9919962
 119.1135230  78.4076381  19.4433365 110.0805893  84.5482122  24.3655158
 110.8220578  85.0867165  24.0889982 109.3742879  85.1748410  24.5226710
 115.5561233  86.6911262  22.9627320 115.9644589  86.2493672  22.2181952
 114.8338495  86.1163889  23.2161513 111.9092303  81.6283869  20.3360877
 112.7553498  82.0523282  20.4795526 111.8490941  80.9717493  21.0299440
 115.8790048  87.2512453  16.7179609 115.2498910  87.4158167  16.0155676
 115.4915710  87.6654062  17.4890573 115.0591748  79.2888237  21.9942050
 114.8152680  80.0430298  21.4576326 115.3351679  79.6673585  22.8289297
 117.0130211  85.8326849  20.6719316 117.2247106  86.4758609  19.9953697
 116.9659959  84.9989166  20.2041246 114.6156440  78.4444670  17.5755888
 113.7540919  78.7425924  17.8672626 114.6418875  78.6615069  16.6436921
 111.4318010  86.9886861  13.9829694 111.8956355  87.2674564  13.1934316
 111.1674808  86.0870305  13.8002784 108.3242091  86.5358342  16.9209457
 108.8943448  86.9645611  16.2826941 108.9150203  86.2540927  17.6193643
 110.3686896  83.1110013  10.7919259 111.0710939  83.5631057  11.2593185
 110.0367524  82.4693832  11.4199152 108.8167257  81.7021770  25.1670468
 108.1865918  82.3838051  25.4005865 108.7103345  81.5904851  24.2223607
 104.1112230  81.3693566  16.0936392 103.3211284  81.6251094  15.6176503
 104.6023477  82.1841904  16.1988433 118.1276039  88.7098805  18.8441673
 118.9493483  88.3078992  18.5624355 118.1238442  88.6067039  19.7957789
 106.0626975  81.7338145  13.0519869 105.2658138  81.8456839  13.5703365
 105.8352567  82.0724797  12.1860760 111.8932643  88.2582848  21.0002384
 111.9577075  88.7203255  21.8360556 111.1843567  87.6280213  21.1284694
 102.3949933  81.6224056  18.5251383 102.6457971  82.5071066  18.7908959
 102.9309481  81.4428658  17.7526475 108.0948000  76.0042536  27.5295719
 107.7014945  75.4508734  28.2043364 108.9114140  76.3153114  27.9202237
 105.0610058  87.4426394  11.4409289 105.5734578  88.2369644  11.5914854
 105.7132771  86.7452684  11.3742891 111.0115961  77.4200415  25.1215976
 111.7525674  78.0207568  25.0420438 111.2433884  76.6778052  24.5634018
 106.1557299  82.6056782  23.3994206 106.0410814  81.7042039  23.7001304
 105.3001817  82.8520479  23.0479022 113.2349137  90.5474522  24.9981706
 112.7912991  89.7610901  24.6802611 113.8966350  90.7353673  24.3325597
 107.9936258  92.0770324  19.5242385 108.5443683  91.9487387  18.7519379
 107.1547734  92.3765213  19.1737277 115.3330375  90.8277322  23.0263107
 115.3148850  91.6486203  22.5343377 116.2550295  90.7031397  23.2513249
 111.7903429  88.3421452  23.8686616 112.3231766  87.5809740  23.6385924
 111.2617510  88.0495103  24.6110770 114.9573124  73.4481518  19.3980258
 114.6137393  74.3383159  19.3219368 115.3252086  73.2583175  18.5349843
 103.0258974  85.7715048  12.2168860 103.8634196  86.1812056  12.0002567
 103.2037242  84.8314490  12.1869054 112.5070518  78.2839829  12.9637931
 111.6512114  77.8946680  12.7843570 112.9197469  78.3631790  12.1037717
 114.0369664  75.8186173  17.3629491 113.5334460  75.7816308  16.5497296
 114.3300271  76.7278915  17.4226147 110.2812550  75.9024902  16.3695673
 111.1465547  75.7067711  16.0101562 110.3490059  75.6735254  17.2965029
 118.1348988  85.6656465  16.4972474 117.4772662  86.3555726  16.5852603
 118.9389387  86.0552897  16.8406460 107.8874869  78.1327110  13.7412039
 108.4618621  77.9102292  13.0085232 108.4745852  78.2015805  14.4940641
 116.9454446  84.0200837  14.5476416 117.4586328  84.6530829  15.0498126
 117.5955670  83.4202033  14.1819776 110.1897537  75.0068359  12.4687109
 109.5361949  74.6917376  11.8443724 110.1478011  74.3844100  13.1946932
 113.4235277  81.4950293  16.7934756 112.5057839  81.7165240  16.6356444
 113.8395421  81.5696603  15.9346464 116.6549162  79.9298825  13.9056226
 115.9171919  79.4176211  14.2366469 116.9075936  79.4899206  13.0939503
 116.7560790  72.7075077  14.4997995 117.0619666  71.8472440  14.2123910
 117.4813394  73.2992697  14.2996989 103.0485146  83.1105763  12.8879593
 102.8509545  82.5175124  12.1630660 102.4931810  82.8057974  13.6055532
 111.0281869  83.0028870  15.0074186 111.0830479  82.0502706  14.9316663
 110.2173071  83.1588309  15.4915485 108.9674229  81.6205930  12.7664565
 108.1542095  81.9200100  13.1729757 109.4633223  81.2261618  13.4839047
 114.5648441  82.0847754  21.5979459 114.9197829  82.3119227  22.4573925
 115.2120572  82.4166131  20.9756714 108.4588304  79.1924285  18.3825800
 109.0987683  79.0513044  17.6848763 107.6265834  78.9058798  18.0064402
 109.2348608  88.4926715  14.4960793 110.0289206  87.9977036  14.2943368
 108.5240300  87.9644579  14.1328498 114.0543452  90.8744811  18.8473160
 114.1080475  91.4435747  19.6150876 113.1858234  91.0446696  18.4827197
 105.5431371  82.6369797  10.5720545 104.6128959  82.5754253  10.7890507
 105.6388843  82.1145750   9.7757187 105.4616920  79.1624610  13.1598787
 105.7223738  80.0769943  13.0507947 106.2834093  78.6949053  13.3095400
 106.9341846  80.5762367  20.3297611 107.6064899  80.3679729  19.6810260
 106.1071632  80.3784453  19.8902844 121.1831107  87.3166418  19.8472945
 121.3766997  88.2212228  20.0932220 121.0831725  86.8573837  20.6811530
 112.8367418  77.2024308  22.3463272 112.1895333  77.9014258  22.2527749
 113.6068433  77.6360452  22.7139521 116.2446216  87.4673160  25.4213826
 116.0931722  87.2383712  24.5043909 116.2350895  88.4243762  25.4345171
 113.0131552  85.0405073  20.4060092 113.9423612  85.1916233  20.2329059
 112.5922582  85.1289094  19.5508739 111.8119884  89.0655737  18.1758630
 111.6730970  88.6974522  19.0484568 111.0234480  89.5803377  18.0042587
 113.3625099  88.4437340  15.5647467 113.0274932  88.4038110  16.4605117
 112.8629045  87.7782056  15.0917878 107.3369343  83.8504970  21.0900049
 107.1989141  83.1185209  21.6911588 108.2474266  83.7613870  20.8084236
 109.9651644  83.5624930  20.5783728 110.6751262  82.9218122  20.5370347
 109.9220952  83.8137824  21.5009909 117.9538422  90.4992283  23.4990307
 117.8950968  89.8151503  22.8320891 118.3557941  91.2411273  23.0470933
 108.6780578  80.5490147  22.3979368 108.1417935  80.0980886  23.0500964
 108.0897286  80.6836056  21.6549832 117.9555830  88.4631867  21.7304287
 117.0682608  88.1257789  21.8530686 118.5254381  87.7314898  21.9673053
  99.6084977  84.7955959  15.0547339 100.2956017  84.4817689  14.4668354
  99.4533105  85.6997323  14.7814590 104.4119699  79.6846155  19.4832362
 104.3277888  79.0771825  18.7482772 103.5902405  80.1755173  19.4841859
 111.4856983  93.1233319  18.6965530 111.4127154  93.9288291  19.2084835
 111.0434376  93.3225285  17.8713552 114.5843413  78.1699719  14.8502557
 115.0812112  77.4169681  14.5303628 113.8130394  78.2064035  14.2845767
 122.4373170  83.8740084  16.4920849 122.4263046  84.7564800  16.1214782
 121.5690550  83.5211635  16.2975386 113.9455666  93.0220153  20.8523689
 114.6583639  93.6567618  20.7799590 113.4545695  93.1184019  20.0363691
 111.1678381  80.3117102  14.5774242 110.7976169  79.7588142  15.2655147
 111.6637474  79.7075235  14.0249242 108.9967580  90.7714597  21.6729260
 109.6977040  91.4051080  21.8258654 108.5262695  91.1129328  20.9124899
 117.0262407  75.1369312  16.9981916 116.1125487  75.3673539  17.1664123
 117.4555509  75.2207756  17.8495949 116.7968866  83.3259204  19.4981810
 116.1440316  83.5735112  18.8434263 117.1749246  82.5123342  19.1644287
 112.8456439  84.0679015  25.9847847 112.1697076  83.9673144  26.6550222
 113.6684073  83.9118229  26.4483844 104.5935298  90.3050952  18.6060363
 105.1788735  89.5594640  18.7388267 104.3960137  90.6154908  19.4897026
  99.1852953  82.8756552  17.3264806  99.2237052  82.3420143  18.1201924
  98.6793246  82.3491757  16.7075783 111.5879222  95.3745943  20.2205463
 112.1397530  95.5377564  20.9854548 111.9285415  95.9650380  19.5485488
 106.5643715  77.7221092  20.8227348 106.6285042  78.5835923  20.4104746
 106.5010835  77.1095094  20.0899706 106.0395988  79.7944225  24.4700382
 106.6668026  79.4121302  25.0837907 105.1823906  79.5758427  24.8356075
 116.4390096  90.2007200  26.0754118 116.9830000  90.8137158  25.5809072
 115.8576941  90.7586779  26.5921131 102.8161530  81.6020654  10.4018737
 103.1114971  80.6931332  10.3485791 101.9149566  81.5808394  10.0799739
 106.3455777  79.6776651  16.3846286 105.6242363  80.2912618  16.2453759
 107.1349033  80.2134415  16.3062932 116.7882518  91.1236938  18.8348696
 115.8412853  91.0042289  18.7627022 117.1365291  90.2359436  18.9174957
 109.1482091  77.0131077  22.6586937 109.6716493  77.2593374  23.4213247
 108.9294424  77.8451112  22.2390075 104.5449372  79.2834752  10.5258062
 104.2162078  78.4032131  10.3433168 104.8988743  79.2282420  11.4134451
 107.6591195  79.5707722  10.8933540 107.9987268  80.0993643  10.1712148
 108.1063316  79.9088128  11.6692106 110.3534636  77.9544772  20.3436608
 110.0131456  77.1552585  20.7457288 109.6473642  78.2546483  19.7713441
 111.0051108  75.0394085  18.7963931 111.8277177  74.5654563  18.6742821
 111.2489171  75.8184568  19.2962617 109.6459342  78.0682343   9.0926833
 110.3667705  78.4463596   8.5890550 109.0224646  78.7871220   9.1961811
 113.7890465  78.7727492  10.0285165 114.0054080  79.6552130   9.7273993
 113.3084532  78.3813705   9.2990807 108.5289687  81.7313205  16.6055910
 108.3834267  82.0453508  17.4980191 108.0514890  82.3498106  16.0526808
 110.3886069  78.7215753  16.6536799 110.3747638  77.8256847  16.3169097
 111.1058498  78.7286417  17.2875085 112.2412200  79.1553094  18.6989927
 111.9829978  80.0770164  18.6974257 111.7097241  78.7583528  19.3890391
 103.0035349  84.2718550  19.5443571 102.4588817  85.0478358  19.6763845
 103.8814699  84.6189354  19.3862692 109.7922965  77.6030134  11.9224369
 109.9138877  76.6746780  12.1215257 109.5025008  77.6168820  11.0102685
 112.6614156  75.2885044  15.0591089 112.6835853  75.3524377  14.1043069
 113.0782215  74.4489553  15.2531595 103.7901371  83.3988446  22.4373728
 103.0483107  83.5471081  23.0238358 103.4694115  83.6596712  21.5740477
 111.7345033  92.9404424  22.2354118 112.0432160  92.6953571  23.1076817
 112.5320515  93.1451063  21.7472988 104.2357984  91.2853875  14.4684122
 105.0616004  90.9857647  14.0882766 103.8852036  90.5161497  14.9173911
 109.2039517  90.6380343  16.5381796 108.5819527  89.9751048  16.2384024
 109.8744384  90.6641475  15.8555444 102.4366589  89.2040201  15.4273056
 101.5998498  88.7762376  15.2457057 102.4090235  89.3972644  16.3643847
 109.2764045  79.1162131  26.1314302 109.3252200  79.9924254  25.7492071
 109.8186559  78.5739524  25.5585945 119.7618891  89.6603254  25.4115439
 118.9714434  89.6427393  24.8719938 119.5252245  90.1991548  26.1664476
 119.8816766  86.5095721  22.7248167 119.9314771  86.3445728  23.6663690
 119.7730689  85.6422980  22.3346048 117.1720528  82.4926649  24.0407474
 118.0730391  82.3533113  23.7491472 117.2468503  82.6581103  24.9805652
 111.5063333  79.8693503  22.8860661 110.6366643  80.1627069  22.6143249
 111.7422814  80.4533948  23.6067924 121.3834962  88.9292662  22.9690189
 121.0919771  89.2922643  23.8053650 120.7707094  88.2159670  22.7903521
 119.6322151  84.0525277  21.4370247 120.1076272  84.2452923  20.6289098
 118.7087716  84.1084463  21.1913631 106.5205657  85.2149444  11.0201325
 106.2751699  84.3111774  11.2181535 106.6901572  85.2166594  10.0780803
 114.2102367  76.0873120  20.4026081 114.7284311  76.8234147  20.0772569
 113.8557500  76.3937114  21.2372840 105.7901305  80.9477801   8.5187487
 105.0970550  81.0222156   7.8627523 105.5453057  80.1838145   9.0409004
 114.4614961  72.5073403  15.9226978 114.7416715  71.8396592  16.5487404
 115.2465568  72.7002498  15.4101641 118.3323820  80.9291037  19.6698553
 119.2841243  81.0289134  19.6910777 118.1627270  80.1369305  20.1796637
 116.3538199  78.0146620  19.8557954 115.7588131  78.2951633  19.1604442
 116.0687896  78.5040521  20.6274695 120.8111897  84.1497156  18.7840852
 120.7788218  83.2113157  18.9700536 121.4212521  84.2281193  18.0506677
 120.9606386  80.9408200  18.8299135 120.4445435  80.1566657  18.6429064
 121.8446334  80.6126917  18.9945655 118.6217113  74.6849215  14.7894948
 118.4241934  74.3764304  15.6738280 119.2316818  75.4110854  14.9192878
 126.6288447  85.2113163  17.9246889 127.3591836  84.9498451  18.4854592
 126.0195393  84.4741885  17.9648957 124.7103744  83.3521026  18.5221340
 123.9836908  83.2176991  17.9137832 124.2951031  83.6597855  19.3278058
 112.5333921  87.0710956  26.2868713 113.4536930  87.2489555  26.4808760
 112.4983504  86.1267001  26.1348413 101.7516086  82.2649549  15.2121988
 101.4318870  81.4114857  14.9196362 101.2049514  82.4798127  15.9679955
 105.5295993  84.9811990  18.9291494 105.7482003  85.9129098  18.9479528
 105.9421767  84.6219965  19.7146298 112.4500211  75.4880076  10.9167183
 111.6400940  75.1427161  11.2922429 113.1384628  75.1787619  11.5054794
 114.3790759  74.5658122  12.5391479 114.9321798  74.9853576  13.1981503
 114.6160846  73.6393870  12.5814435 110.4023859  80.5545196  28.3194243
 110.3020586  81.5039553  28.2506334 110.1845401  80.2263435  27.4470313
 101.6204346  85.8852461  17.1815110 100.9267817  85.4706414  16.6685064
 102.3677337  85.9272997  16.5848528 117.7569567  76.6758648  12.0470144
 117.1768236  77.3343452  11.6648196 117.4905499  75.8535992  11.6357561
 116.2073133  76.0763705  14.2491464 116.7072911  76.1880240  13.4405783
 116.8508741  75.7724758  14.8892273 110.2655129  83.9842335  27.1359305
 109.7822210  84.7842695  27.3423194 110.3516068  83.9950280  26.1826749
 103.5341088  85.8170715  15.0581124 103.5111777  85.9158402  14.1063008
 103.8441725  86.6635865  15.3798291 106.1928466  87.8746870  19.1727739
 107.1471720  87.8430812  19.1057670 105.9940990  87.4137493  19.9877965
 106.7827848  86.4447986  21.7398536 107.6020737  86.9392064  21.7633374
 107.0564656  85.5279954  21.7116104 116.5394445  78.8358738  11.1026492
 115.6520300  79.1208389  10.8846687 116.9548434  78.6752501  10.2553769
 119.8908981  78.8605259  14.8180831 120.6669371  79.3501711  15.0905448
 119.1657115  79.2863313  15.2752701 122.3281539  79.5732878  15.8754772
 122.9226030  79.3328614  15.1648080 122.4008123  78.8540009  16.5028308
 104.5478695  93.4166489  16.1897937 104.4133163  92.6566890  15.6235935
 104.1310757  94.1407389  15.7226726 107.7047821  94.3135806  16.4016379
 107.5880205  95.2581239  16.2995070 106.8840267  94.0109368  16.7902179
 102.0362763  80.7786119  22.4390734 102.6821626  80.2685073  22.9277959
 101.8279914  81.5154801  23.0134159 114.5616155  87.8466967  27.9382874
 115.4307314  88.0207619  27.5769509 114.0822906  88.6661384  27.8158603
 110.5566373  75.0426164   8.1914630 110.5445043  75.9868004   8.3482901
 111.4489795  74.8596310   7.8974091 108.7302335  94.9664068  19.6172308
 109.6329582  94.9987678  19.9338803 108.5039705  94.0364519  19.6318644
 114.3718493  71.6368941  12.4460567 113.6050888  71.0827427  12.5917249
 114.7829198  71.7090810  13.3074718 106.3760254  77.9253737  26.5365748
 107.2391715  77.5690541  26.7469072 105.8025664  77.5867631  27.2241152
 122.6653276  97.0688586  24.8037191 121.8886610  97.6282506  24.7940056
 123.3043839  97.5545369  25.3252061 119.6561012  97.0313687  25.1670468
 119.0259672  97.7129968  25.4005865 119.5497100  96.9196769  24.2223607
 118.9341754  91.3334453  27.5295719 118.5408700  90.7800652  28.2043364
 119.7507895  91.6445032  27.9202237 121.8509715  92.7492332  25.1215976
 122.5919429  93.3499485  25.0420438 122.0827638  92.0069970  24.5634018
 116.9951053  97.9348700  23.3994206 116.8804569  97.0333957  23.7001304
 116.1395571  98.1812396  23.0479022 123.6761172  92.5316226  22.3463272
 123.0289087  93.2306175  22.2527749 124.4462188  92.9652370  22.7139521
 119.5174332  95.8782065  22.3979368 118.9811689  95.4272804  23.0500964
 118.9291041  96.0127974  21.6549832 115.2513453  95.0138073  19.4832362
 115.1671642  94.4063742  18.7482772 114.4296160  95.5047091  19.4841859
 123.6850193  99.3970933  25.9847847 123.0090831  99.2965062  26.6550222
 124.5077827  99.2410147  26.4483844 117.4037470  93.0513010  20.8227348
 117.4678796  93.9127841  20.4104746 117.3404590  92.4387012  20.0899706
 116.8789742  95.1236143  24.4700382 117.5061781  94.7413220  25.0837907
 116.0217661  94.9050345  24.8356075 119.9875845  92.3422995  22.6586937
 120.5110247  92.5885291  23.4213247 119.7688179  93.1743030  22.2390075
 114.6295125  98.7280364  22.4373728 113.8876861  98.8762999  23.0238358
 114.3087869  98.9888629  21.5740477 120.1157799  94.4454049  26.1314302
 120.1645955  95.3216171  25.7492071 120.6580314  93.9031442  25.5585945
 122.3457088  95.1985421  22.8860661 121.4760397  95.4918987  22.6143249
 122.5816568  95.7825866  23.6067924 121.2417613  95.8837114  28.3194243
 121.1414340  96.8331471  28.2506334 121.0239155  95.5555353  27.4470313
 121.1048883  99.3134253  27.1359305 120.6215965 100.1134613  27.3423194
 121.1909822  99.3242197  26.1826749 112.8756517  96.1078037  22.4390734
 113.5215381  95.5976991  22.9277959 112.6673668  96.8446719  23.0134159
 117.2154008  93.2545654  26.5365748 118.0785470  92.8982459  26.7469072
 116.6419419  92.9159549  27.2241152  80.7167874  21.5660892  11.7227013
  80.2731729  20.7797270  11.4047917  81.3785088  21.7540042  11.0570904
  82.8149113  21.8463692   9.7508414  82.7967588  22.6672573   9.2588683
  83.7369033  21.7217767   9.9758555  79.2722167  19.3607821  10.5931922
  79.8050503  18.5996109  10.3631230  78.7436248  19.0681473  11.3356077
  88.6649845  18.3352787   6.5718252  88.8585735  19.2398598   6.8177527
  88.5650463  17.8760206   7.4056837  83.7264953  18.4859530  12.1459132
  83.5750460  18.2570082  11.2289216  83.7169633  19.4430131  12.1590477
  85.4357160  21.5178652  10.2235614  85.3769706  20.8337873   9.5566197
  85.8376678  22.2597642   9.7716240  85.4374567  19.4818236   8.4549594
  84.5501346  19.1444158   8.5775993  86.0073118  18.7501268   8.6918359
  81.4274404  24.0406523   7.5768996  82.1402376  24.6753988   7.5044897
  80.9364433  24.1370389   6.7608997  80.3275177  15.0865385  12.7093154
  79.6515814  14.9859514  13.3795529  81.1502811  14.9304598  13.1729151
  79.0697960  26.3932312   6.9450770  79.6216268  26.5563934   7.7099855
  79.4104153  26.9836750   6.2730795  83.9208834  21.2193570  12.7999424
  84.4648738  21.8323528  12.3054379  83.3395679  21.7773148  13.3166437
  79.2163771  23.9590794   8.9599424  79.5250897  23.7139941   9.8322124
  80.0139253  24.1637432   8.4718295  87.2437628  20.6789624  12.1360746
  86.4533172  20.6613763  11.5965245  87.0070983  21.2177917  12.8909782
  87.3635503  17.5282090   9.4493474  87.4133508  17.3632098  10.3908997
  87.2549427  16.6609349   9.0591355  84.6539266  13.5113018  10.7652781
  85.5549129  13.3719483  10.4736779  84.7287240  13.6767473  11.7050958
  88.8653700  19.9479032   9.6935496  88.5738509  20.3109012  10.5298957
  88.2525832  19.2346040   9.5148828  80.0152659  18.0897325  13.0114020
  80.9355668  18.2675924  13.2054066  79.9802242  17.1453371  12.8593719
  77.7473867  15.0028704  13.8604612  77.2640948  15.8029065  14.0668501
  77.8334806  15.0136649  12.9072056  82.0434893  18.8653337  14.6628181
  82.9126052  19.0393989  14.3014816  81.5641644  19.6847753  14.5403910
  93.7027368  30.5741962   4.0673455  94.3405778  30.4548710   3.3636795
  93.5848211  31.5222806   4.1261408  90.5117075  30.5269391   4.0034980
  90.1735586  30.4110455   3.1155515  91.3806843  30.1260556   3.9835986
  90.9936858  31.6804242   9.9621186  90.9825498  31.2857041   9.0901689
  91.1557497  30.9470315  10.5554957  83.9168322  33.8756059   2.8316092
  84.7089614  33.5346883   2.4162391  84.1564972  33.9851034   3.7518245
  91.9503449  36.0475835  -4.6953664  91.2991429  36.6329915  -5.0819650
  92.7447812  36.5782030  -4.6358627  87.7144119  34.4641354   8.9100370
  87.4233985  35.3686985   8.7947036  88.3501103  34.5057882   9.6244439
  88.6400326  31.8418203   5.5001729  89.2363898  31.6174225   4.7858692
  88.6975297  31.1002948   6.1027177  90.2753184  30.6595891  -0.7577016
  89.9111391  30.1326512  -0.0464094  91.1320300  30.2694360  -0.9310530
  96.1802484  21.9490224   6.5054251  95.8485809  22.8185635   6.2815466
  95.5848098  21.6326508   7.1848281  92.6734004  34.1502770   5.9050163
  92.3734727  35.0527808   5.7965971  92.3285063  33.8834953   6.7571316
  86.1246485  30.6016566   1.9386868  85.1996982  30.4692781   2.1464560
  86.3730899  31.3810786   2.4356810  96.0731148  26.6685310   3.5847601
  95.1648025  26.6000718   3.2906362  96.0218743  27.1457255   4.4129426
  83.4855296  30.2449840   2.7730657  83.6147678  30.4984319   3.6870069
  82.8052748  30.8377548   2.4535312  87.6554784  40.9147090  -1.1278869
  87.5778813  41.8654915  -1.0490388  87.0516427  40.5692962  -0.4703943
  90.1472013  28.0874955  11.5282498  89.3705347  28.6468876  11.5185363
  90.7862576  28.5731738  12.0497368  88.4018386  30.8960409  11.0900465
  89.1433070  31.4345453  10.8135289  87.6955371  31.5226698  11.2472017
  93.8773725  33.0389549   9.6872626  94.2857081  32.5971960   8.9427259
  93.1550987  32.4642177   9.9406819  90.2304795  27.9762156   7.0606183
  91.0765991  28.4001570   7.2040832  90.1703433  27.3195780   7.7544746
  94.2002540  33.5990740   3.4424915  93.5711402  33.7636454   2.7400983
  93.8128202  34.0132349   4.2135879  98.0791772  34.5345178   0.7969279
  97.3942810  34.9144079   0.2466312  98.1635621  35.1440504   1.5301227
  93.3804241  25.6366524   8.7187357  93.1365173  26.3908585   8.1821633
  93.6564171  26.0151872   9.5534604  95.3342704  32.1805137   7.3964623
  95.5459599  32.8236897   6.7199004  95.2872452  31.3467453   6.9286553
  92.9368932  24.7922957   4.3001195  92.0753412  25.0904211   4.5917932
  92.9631367  25.0093356   3.3682227  89.7530502  33.3365148   0.7075000
  90.2168847  33.6152851  -0.0820377  89.4887300  32.4348593   0.5248091
  86.6454583  32.8836629   3.6454764  87.2155940  33.3123898   3.0072248
  87.2362695  32.6019214   4.3438949  87.1379749  28.0500057  11.8915775
  86.5078410  28.7316338  12.1251172  87.0315837  27.9383139  10.9468913
  96.4488531  35.0577092   5.5686980  97.2705975  34.6557279   5.2869662
  96.4450934  34.9545326   6.5203096  90.2145135  34.6061135   7.7247690
  90.2789567  35.0681543   8.5605862  89.5056059  33.9758500   7.8530000
  80.7162425  27.9702343   5.2496690  80.9670463  28.8549353   5.5154266
  81.2521973  27.7906945   4.4771782  89.9293153  36.2729243  -2.4073329
  89.7938827  37.1180779  -1.9788481  90.4702965  36.4748521  -3.1707395
  86.4160492  22.3520823  14.2541026  86.0227438  21.7987021  14.9288670
  87.2326633  22.6631401  14.6447543  85.1917435  36.9070437   0.2477349
  85.3684063  37.8288402   0.0598333  85.9874268  36.5928856   0.6771729
  89.3328453  23.7678702  11.8461283  90.0738167  24.3685855  11.7665745
  89.5646376  23.0256340  11.2879325  84.4769791  28.9535069  10.1239512
  84.3623306  28.0520326  10.4246611  83.6214309  29.1998766   9.7724329
  91.5561629  36.8952809  11.7227013  91.1125483  36.1089188  11.4047917
  92.2178843  37.0831960  11.0570904  86.3148750  38.4248611   6.2487691
  86.8656175  38.2965674   5.4764685  85.4760226  38.7243500   5.8982584
  93.6542867  37.1755609   9.7508414  93.6361342  37.9964490   9.2588683
  94.5762787  37.0509685   9.9758555  90.1115921  34.6899739  10.5931922
  90.6444258  33.9288027  10.3631230  89.5830002  34.3973391  11.3356077
  92.3582157  22.1664460   4.0874797  91.8546952  22.1294595   3.2742603
  92.6512763  23.0757203   4.1471454  91.4768634  33.8185731  -1.8949266
  90.9489995  33.0838491  -2.2076028  90.9756137  34.5960408  -2.1409297
  96.4561480  32.0134752   3.2217781  95.7985154  32.7034013   3.3097909
  97.2601879  32.4031184   3.5651767  92.5289313  40.3463449  -5.9717606
  91.8551012  40.6495146  -5.3632649  92.9155135  41.1492529  -6.3212149
  91.7447770  27.8428580   3.5180063  90.8270331  28.0643527   3.3601751
  92.1607913  27.9174891   2.6591770  96.0328735  35.3485126  -0.5999135
  95.5791062  34.5076036  -0.5433944  95.4022702  35.9846524  -0.2624355
  94.4761674  37.1861623   0.3350683  94.7684649  37.7466680  -0.3836951
  94.9860295  37.4790184   1.0903842  89.3494362  29.3507157   1.7319493
  89.4042971  28.3980993   1.6561970  88.5385564  29.5066596   2.2160791
  89.4395299  37.9641974   1.4244136  89.3971478  38.1902820   0.4952669
  90.3557998  37.7305348   1.5729938  92.8860933  28.4326041   8.3224766
  93.2410321  28.6597514   9.1819231  93.5333064  28.7644418   7.7002021
  86.7800796  25.5402572   5.1071107  87.4200176  25.3991331   4.4094070
  85.9478327  25.2537086   4.7309709  98.6428050  33.6221004   4.0385366
  99.0764556  33.5296293   4.8868420  99.3559630  33.5978505   3.4005382
  87.5561100  34.8405003   1.2206099  88.3501699  34.3455323   1.0188674
  86.8452793  34.3122866   0.8573805  92.3755945  37.2223098   5.5718467
  92.4292967  37.7914035   6.3396183  91.5070726  37.3924983   5.2072504
  85.2554338  26.9240654   7.0542918  85.9277391  26.7158017   6.4055567
  84.4284124  26.7262740   6.6148150  99.5043599  33.6644705   6.5718252
  99.6979489  34.5690515   6.8177527  99.4044217  33.2052124   7.4056837
  91.1579910  23.5502595   9.0708579  90.5107825  24.2492545   8.9773055
  91.9280925  23.9838739   9.4384827  94.5658708  33.8151448  12.1459132
  94.4144214  33.5861999  11.2289216  94.5563387  34.7722049  12.1590477
  91.3344044  31.3883360   7.1305399  92.2636104  31.5394520   6.9574366
  90.9135074  31.4767381   6.2754045  90.1332376  35.4134025   4.9003936
  89.9943462  35.0452809   5.7729874  89.3446972  35.9281664   4.7287894
  90.7280528  40.5143121  -3.7570527  90.9032284  40.0431164  -2.9424904
  90.0413316  41.1408887  -3.5289266  91.6837591  34.7915627   2.2892774
  91.3487424  34.7516397   3.1850424  91.1841537  34.1260343   1.8163184
  85.6581835  30.1983257   7.8145355  85.5201633  29.4663496   8.4156894
  86.5686759  30.1092158   7.5329543  88.2864136  29.9103217   7.3029035
  88.9963754  29.2696409   7.2615653  88.2433444  30.1616112   8.2255216
  96.2750915  36.8470570  10.2235614  96.2163461  36.1629790   9.5566197
  96.6770433  37.5889560   9.7716240  86.9993070  26.8968435   9.1224674
  86.4630427  26.4459173   9.7746271  86.4109778  27.0314343   8.3795139
  85.2941613  43.6632484   3.0169333  85.5338212  44.2951008   3.6948352
  84.4510810  43.3120524   3.3034692  96.2768322  34.8110154   8.4549594
  95.3895101  34.4736076   8.5775993  96.8466873  34.0793185   8.6918359
  82.7332191  26.0324442   6.2077669  82.6490380  25.4250112   5.4728079
  81.9114898  26.5233461   6.2087165  89.8069475  39.4711606   5.4210837
  89.7339647  40.2766578   5.9330142  89.3646868  39.6703572   4.5958858
  89.5959255  38.7083376  -1.0686341  88.8126777  39.2505057  -0.9748117
  90.2952000  39.2257356  -0.6692100  92.2668159  39.3698440   7.5768996
  92.9796131  40.0045905   7.5044897  91.7758187  39.4662306   6.7608997
  93.9885686  33.2749693  -0.8513713  93.0541964  33.3951156  -1.0209008
  94.1662354  32.3722160  -1.1153703  87.3180072  37.1192884   8.3974566
  88.0189532  37.7529367   8.5503961  86.8475187  37.4607615   7.6370206
  95.1181358  29.6737491   6.2227117  94.4652808  29.9213399   5.5679570
  95.4961738  28.8601630   5.8889594  92.0788532  39.7097185   0.3255287
  92.2610927  38.8918840   0.7883039  92.9021518  39.9264877  -0.1119823
  92.4130698  38.6365370  -2.4129664  92.9418464  38.1257824  -3.0259502
  92.6758917  38.3207900  -1.5484131  91.1668931  30.4157302  12.7093154
  90.4909568  30.3151432  13.3795529  91.9896565  30.2596516  13.1729151
  82.9147790  36.6529239   5.3305669  83.5001227  35.9072927   5.4633573
  82.7172629  36.9633196   6.2142333  85.7686446  39.6880486   0.3468112
  85.0996821  40.1726614  -0.1367848  85.6299315  39.9349707   1.2611490
  89.9091714  41.7224230   6.9450770  90.4610022  41.8855851   7.7099855
  90.2497908  42.3128668   6.2730795  84.8856207  24.0699380   7.5472655
  84.9497534  24.9314211   7.1350052  84.8223328  23.4573381   6.8145013
  84.3608480  26.1422512  11.1945689  84.9880519  25.7599590  11.8083213
  83.5036399  25.9236714  11.5601381  94.7602588  36.5485487  12.7999424
  95.3042492  37.1615446  12.3054379  94.1789433  37.1065066  13.3166437
  93.0460101  39.6706205   3.9314452  92.9211241  38.8695945   3.4225398
  93.7039193  40.1652399   3.4428422  95.1095010  37.4715225   5.5594002
  94.1625345  37.3520577   5.4872329  95.4577783  36.5837724   5.6420264
  87.4694583  23.3609364   9.3832244  87.9928985  23.6071661  10.1458553
  87.2506916  24.1929399   8.9635381  92.1141443  37.2667942   1.7598354
  91.9666406  36.3384649   1.9405924  92.9394937  37.2888032   1.2755430
  95.7175565  38.0896500   2.8463227  96.6422112  37.8839362   2.7087678
  95.5490868  37.8412902   3.7552569  88.6747128  24.3023060   7.0681915
  88.3343949  23.5030873   7.4702594  87.9686135  24.6024770   6.4958748
  89.3263600  21.3872372   5.5209238  90.1489669  20.9132850   5.3988128
  89.5701664  22.1662856   6.0207924  86.8502179  28.0791493   3.3301216
  86.7046760  28.3931796   4.2225498  86.3727382  28.6976393   2.7772115
  88.7098562  25.0694041   3.3782106  88.6960130  24.1735134   3.0414404
  89.4270990  25.0764704   4.0120392  90.5624692  25.5031381   5.4235233
  90.3042470  26.4248451   5.4219564  90.0309733  25.1061815   6.1135697
  95.5070881  38.6082168  -1.7974681  95.6807759  38.0428590  -2.5500829
  95.9999772  39.4083063  -1.9795191  81.3247841  30.6196837   6.2688877
  80.7801309  31.3956645   6.4009152  82.2027191  30.9667641   6.1107999
  82.1113863  29.7466733   9.1619034  81.3695599  29.8949369   9.7483665
  81.7906607  30.0074999   8.2985784  90.0557525  39.2882711   8.9599424
  90.3644652  39.0431858   9.8322124  90.8533008  39.4929350   8.4718295
  90.0778138  41.4420621   1.1904801  89.6383128  40.9497000   1.8837658
  90.8286254  40.8993589   0.9496876  82.5570477  37.6332162   1.1929429
  83.3828496  37.3335934   0.8128072  82.2064529  36.8639784   1.6419218
  87.5252010  36.9858630   3.2627102  86.9032019  36.3229335   2.9629330
  88.1956877  37.0119762   2.5800750  80.7579082  35.5518488   2.1518362
  79.9210990  35.1240663   1.9702364  80.7302727  35.7450932   3.0889154
  87.5976537  25.4640418  12.8559609  87.6464693  26.3402541  12.4737378
  88.1399051  24.9217811  12.2831252  98.0831383  36.0081541  12.1360746
  97.2926927  35.9905680  11.5965245  97.8464737  36.5469835  12.8909782
  98.2029258  32.8574008   9.4493474  98.2527263  32.6924015  10.3908997
  98.0943181  31.9901267   9.0591355  95.4933020  28.8404936  10.7652781
  96.3942883  28.7011401  10.4736779  95.5680995  29.0059391  11.7050958
  89.8275826  26.2171791   9.6105967  88.9579135  26.5105357   9.3388556
  90.0635306  26.8012236  10.3313231  99.7047455  35.2770949   9.6935496
  99.4132263  35.6400930  10.5298957  99.0919586  34.5637958   9.5148828
  97.9534643  30.4003564   8.1615554  98.4288765  30.5931210   7.3534405
  97.0300208  30.4562750   7.9158937  92.5314859  22.4351408   7.1271388
  93.0496803  23.1712434   6.8017876  92.1769992  22.7415401   7.9618147
  96.6536312  27.2769324   6.3943859  97.6053735  27.3767422   6.4156083
  96.4839762  26.4847593   6.9041944  94.6750691  24.3624907   6.5803260
  94.0800624  24.6429920   5.8849749  94.3900388  24.8518808   7.3520001
  99.1324390  30.4975444   5.5086159  99.1000710  29.5591444   5.6945843
  99.7425013  30.5759480   4.7751984  90.8546413  33.4189243  13.0114020
  91.7749423  33.5967842  13.2054066  90.8195996  32.4745288  12.8593719
  83.8508486  31.3290278   5.6536801  84.0694495  32.2607385   5.6724835
  84.2634260  30.9698252   6.4391605  88.7236351  26.9023483  15.0439550
  88.6233078  27.8517840  14.9751641  88.5057893  26.5741722  14.1715620
  79.9416838  32.2330748   3.9060416  79.2480310  31.8184701   3.3930371
  80.6889829  32.2751285   3.3093835  88.5867621  30.3320622  13.8604612
  88.1034703  31.1320982  14.0668501  88.6728560  30.3428567  12.9072056
  84.5140959  34.2225157   5.8973045  85.4684212  34.1909099   5.8302977
  84.3153482  33.7615781   6.7123271  85.1040341  32.7926273   8.4643843
  85.9233230  33.2870352   8.4878680  85.3777148  31.8758241   8.4361411
  82.8691187  39.7644776   2.9143243  82.7345655  39.0045177   2.3481241
  82.4523250  40.4885676   2.4472032  86.0260313  40.6614093   3.1261686
  85.9092697  41.6059526   3.0240376  85.2052759  40.3587655   3.5147485
  80.3575255  27.1264407   9.1636040  81.0034119  26.6163361   9.6523265
  80.1492406  27.8633088   9.7379465  92.8828647  34.1945254  14.6628181
  93.7519807  34.3685906  14.3014816  92.4035399  35.0139671  14.5403910
  87.0514827  41.3142355   6.3417614  87.9542074  41.3465965   6.6584109
  86.8252197  40.3842806   6.3563950  88.8068429  40.0673342   3.0027693
  87.8564060  40.0675203   2.8892065  89.1100916  39.3206076   2.4863728
  84.6972746  24.2732024  13.2611054  85.5604207  23.9168829  13.4714379
  84.1238157  23.9345919  13.9486459 104.5421123  45.9033880   4.0673455
 105.1799533  45.7840628   3.3636795 104.4241966  46.8514724   4.1261408
 101.3510829  45.8561308   4.0034980 101.0129341  45.7402373   3.1155515
 102.2200597  45.4552473   3.9835986  97.2097645  47.7096785  -0.0068129
  96.6462510  47.6186722  -0.7751841  97.0950040  46.8896689   0.4734364
 101.8330612  47.0096160   9.9621186 101.8219253  46.6148958   9.0901689
 101.9951252  46.2762233  10.5554957  94.7562077  49.2047976   2.8316092
  95.5483369  48.8638801   2.4162391  94.9958727  49.3142951   3.7518245
 102.7897204  51.3767752  -4.6953664 102.1385183  51.9621833  -5.0819650
 103.5841566  51.9073947  -4.6358627  96.7152831  48.4656890  -4.2966530
  97.4883707  47.9185877  -4.4353654  97.0678230  49.3301139  -4.0852068
  98.5537873  49.7933272   8.9100370  98.2627739  50.6978903   8.7947036
  99.1894858  49.8349799   9.6244439  99.4794080  47.1710120   5.5001729
 100.0757652  46.9466143   4.7858692  99.5369052  46.4294866   6.1027177
  98.7715397  46.5277662  -4.4623705  98.6551655  45.8522565  -3.7942620
  98.8817657  46.0410036  -5.2791552 101.1146938  45.9887809  -0.7577016
 100.7505145  45.4618430  -0.0464094 101.9714054  45.5986278  -0.9310530
 107.0196239  37.2782141   6.5054251 106.6879564  38.1477552   6.2815466
 106.4241852  36.9618425   7.1848281 103.5127758  49.4794687   5.9050163
 103.2128481  50.3819726   5.7965971 103.1678818  49.2126871   6.7571316
  96.9640240  45.9308484   1.9386868  96.0390736  45.7984698   2.1464560
  97.2124653  46.7102703   2.4356810 106.9124902  41.9977227   3.5847601
 106.0041779  41.9292636   3.2906362 106.8612498  42.4749172   4.4129426
  94.3249051  45.5741758   2.7730657  94.4541432  45.8276237   3.6870069
  93.6446502  46.1669466   2.4535312  98.4948538  56.2439008  -1.1278869
  98.4172568  57.1946833  -1.0490388  97.8910182  55.8984880  -0.4703943
 100.9865768  43.4166873  11.5282498 100.2099102  43.9760793  11.5185363
 101.6256331  43.9023656  12.0497368  99.2412140  46.2252326  11.0900465
  99.9826825  46.7637370  10.8135289  98.5349126  46.8518615  11.2472017
 104.7167480  48.3681467   9.6872626 105.1250836  47.9263877   8.9427259
 103.9944741  47.7934094   9.9406819 101.0698550  43.3054074   7.0606183
 101.9159745  43.7293487   7.2040832 101.0097188  42.6487698   7.7544746
 105.0396295  48.9282658   3.4424915 104.4105157  49.0928372   2.7400983
 104.6521957  49.3424267   4.2135879 108.9185526  49.8637095   0.7969279
 108.2336565  50.2435997   0.2466312 109.0029376  50.4732422   1.5301227
 104.2197995  40.9658442   8.7187357 103.9758927  41.7200503   8.1821633
 104.4957926  41.3443790   9.5534604 106.1736458  47.5097054   7.3964623
 106.3853353  48.1528814   6.7199004 106.1266206  46.6759371   6.9286553
 103.7762687  40.1214875   4.3001195 102.9147166  40.4196129   4.5917932
 103.8025122  40.3385274   3.3682227 100.5924256  48.6657066   0.7075000
 101.0562602  48.9444769  -0.0820377 100.3281054  47.7640510   0.5248091
  97.4848337  48.2128547   3.6454764  98.0549695  48.6415816   3.0072248
  98.0756449  47.9311132   4.3438949  99.5293142  44.7880218  -2.4835434
 100.2317186  45.2401262  -2.0161508  99.1973771  44.1464037  -1.8555541
  97.9773504  43.3791975  11.8915775  97.3472165  44.0608255  12.1251172
  97.8709592  43.2675056  10.9468913  93.2718476  43.0463771   2.8181699
  92.4817530  43.3021299   2.3421810  93.7629724  43.8612108   2.9233740
 107.2882286  50.3869010   5.5686980 108.1099730  49.9849197   5.2869662
 107.2844689  50.2837244   6.5203096  95.2233222  43.4108350  -0.2234824
  94.4264385  43.5227044   0.2948671  94.9958814  43.7495002  -1.0893934
 101.0538889  49.9353053   7.7247690 101.1183322  50.3973460   8.5605862
 100.3449813  49.3050418   7.8530000  91.5556179  43.2994261   5.2496690
  91.8064218  44.1841271   5.5154266  92.0915728  43.1198863   4.4771782
 100.7686907  51.6021161  -2.4073329 100.6332582  52.4472696  -1.9788481
 101.3096720  51.8040438  -3.1707395  97.2554247  37.6812740  14.2541026
  96.8621192  37.1278939  14.9288670  98.0720387  37.9923319  14.6447543
  94.2216304  49.1196599  -1.8345404  94.7340825  49.9139849  -1.6839839
  94.8739017  48.4222889  -1.9011803  96.0311189  52.2362355   0.2477349
  96.2077817  53.1580320   0.0598333  96.8268023  51.9220774   0.6771729
 100.1722208  39.0970620  11.8461283 100.9131921  39.6977773  11.7665745
 100.4040131  38.3548257  11.2879325  95.3163546  44.2826987  10.1239512
  95.2017061  43.3812244  10.4246611  94.4608063  44.5290684   9.7724329
 102.3955383  52.2244727  11.7227013 101.9519238  51.4381106  11.4047917
 103.0572597  52.4123878  11.0570904  97.1542505  53.7540529   6.2487691
  97.7049930  53.6257592   5.4764685  96.3153981  54.0535418   5.8982584
 104.4936622  52.5047527   9.7508414 104.4755097  53.3256408   9.2588683
 105.4156542  52.3801602   9.9758555 100.9509676  50.0191657  10.5931922
 101.4838012  49.2579945  10.3631230 100.4223757  49.7265308  11.3356077
  92.1865221  47.4485253  -1.0585834  93.0240443  47.8582261  -1.2752126
  92.3643489  46.5084695  -1.0885640 103.1975911  37.4956378   4.0874797
 102.6940707  37.4586513   3.2742603 103.4906518  38.4049120   4.1471454
  99.4418797  37.5795107   3.0940979 100.3071794  37.3837916   2.7346869
  99.5096306  37.3505459   4.0210336 102.3162388  49.1477649  -1.8949266
 101.7883750  48.4130409  -2.2076028 101.8149891  49.9252325  -2.1409297
 107.2955234  47.3426669   3.2217781 106.6378909  48.0325931   3.3097909
 108.0995634  47.7323101   3.5651767  97.0481116  39.8097315   0.4657346
  97.6224868  39.5872497  -0.2669461  97.6352098  39.8786010   1.2185947
 103.3683067  55.6755366  -5.9717606 102.6944766  55.9787063  -5.3632649
 103.7548889  56.4784447  -6.3212149 102.5841524  43.1720498   3.5180063
 101.6664085  43.3935445   3.3601751 103.0001668  43.2466808   2.6591770
 106.8722489  50.6777044  -0.5999135 106.4184817  49.8367954  -0.5433944
 106.2416456  51.3138442  -0.2624355 105.3155429  52.5153540   0.3350683
 105.6078403  53.0758597  -0.3836951 105.8254049  52.8082101   1.0903842
  92.2091392  44.7875968  -0.3875100  92.0115792  44.1945329  -1.1124034
  91.6538056  44.4828178   0.3300839 100.1888116  44.6799075   1.7319493
 100.2436726  43.7272911   1.6561970  99.3779318  44.8358514   2.2160791
  98.1280476  43.2976134  -0.5090128  97.3148341  43.5970305  -0.1024936
  98.6239470  42.9031823   0.2084354 100.2789054  53.2933891   1.4244136
 100.2365233  53.5194738   0.4952669 101.1951753  53.0597266   1.5729938
 103.7254688  43.7617959   8.3224766 104.0804075  43.9889432   9.1819231
 104.3726819  44.0936336   7.7002021  97.6194551  40.8694490   5.1071107
  98.2593930  40.7283249   4.4094070  96.7872081  40.5829003   4.7309709
 109.4821804  48.9512922   4.0385366 109.9158311  48.8588211   4.8868420
 110.1953385  48.9270422   3.4005382  98.3954855  50.1696920   1.2206099
  99.1895453  49.6747241   1.0188674  97.6846547  49.6414784   0.8573805
 103.2149699  52.5515016   5.5718467 103.2686721  53.1205952   6.3396183
 102.3464480  52.7216901   5.2072504  94.7037618  44.3140002  -2.7034148
  93.7735206  44.2524458  -2.4864186  94.7995090  43.7915955  -3.4997507
  94.6223167  40.8394815  -0.1155906  94.8829984  41.7540148  -0.2246746
  95.4440339  40.3719258   0.0340706  96.0948092  42.2532572   7.0542918
  96.7671146  42.0449934   6.4055567  95.2677879  42.0554658   6.6148150
 110.3437354  48.9936622   6.5718252 110.5373244  49.8982433   6.8177527
 110.2437972  48.5344042   7.4056837 101.9973664  38.8794513   9.0708579
 101.3501580  39.5784463   8.9773055 102.7674680  39.3130657   9.4384827
 105.4052462  49.1443365  12.1459132 105.2537969  48.9153917  11.2289216
 105.3957142  50.1013967  12.1590477 102.1737799  46.7175278   7.1305399
 103.1029859  46.8686438   6.9574366 101.7528829  46.8059299   6.2754045
 100.9726131  50.7425942   4.9003936 100.8337216  50.3744727   5.7729874
 100.1840727  51.2573582   4.7287894 101.5674283  55.8435039  -3.7570527
 101.7426038  55.3723082  -2.9424904 100.8807071  56.4700805  -3.5289266
 102.5231346  50.1207545   2.2892774 102.1881178  50.0808315   3.1850424
 102.0235291  49.4552261   1.8163184  96.4975590  45.5275175   7.8145355
  96.3595388  44.7955414   8.4156894  97.4080513  45.4384075   7.5329543
  99.1257890  45.2395134   7.3029035  99.8357509  44.5988327   7.2615653
  99.0827199  45.4908029   8.2255216 107.1144669  52.1762488  10.2235614
 107.0557215  51.4921708   9.5566197 107.5164187  52.9181478   9.7716240
  97.8386824  42.2260352   9.1224674  97.3024181  41.7751091   9.7746271
  97.2503533  42.3606261   8.3795139  96.1335368  58.9924402   3.0169333
  96.3731966  59.6242926   3.6948352  95.2904564  58.6412442   3.3034692
 107.1162076  50.1402072   8.4549594 106.2288855  49.8027994   8.5775993
 107.6860627  49.4085103   8.6918359  88.7691223  46.4726163   1.7792645
  89.4562263  46.1587894   1.1913660  88.6139352  47.3767528   1.5059897
  93.5725946  41.3616360   6.2077669  93.4884134  40.7542030   5.4728079
  92.7508652  41.8525378   6.2087165 100.6463230  54.8003524   5.4210837
 100.5733401  55.6058496   5.9330142 100.2040623  54.9995490   4.5958858
 100.4353009  54.0375294  -1.0686341  99.6520531  54.5796974  -0.9748117
 101.1345755  54.5549274  -0.6692100 103.1061913  54.6990358   7.5768996
 103.8189885  55.3337823   7.5044897 102.6151942  54.7954224   6.7608997
 104.8279440  48.6041611  -0.8513713 103.8935719  48.7243073  -1.0209008
 105.0056109  47.7014078  -1.1153703 100.3284628  41.9887307   1.3019549
  99.9582416  41.4358347   1.9900454 100.8243721  41.3845440   0.7494549
  98.1573827  52.4484802   8.3974566  98.8583286  53.0821285   8.5503961
  97.6868942  52.7899533   7.6370206 105.9575113  45.0029409   6.2227117
 105.3046563  45.2505316   5.5679570 106.3355493  44.1893547   5.8889594
 102.9182287  55.0389102   0.3255287 103.1004681  54.2210758   0.7883039
 103.7415273  55.2556794  -0.1119823 103.2524452  53.9657287  -2.4129664
 103.7812219  53.4549742  -3.0259502 103.5152672  53.6499818  -1.5484131
 102.0062686  45.7449220  12.7093154 101.3303323  45.6443349  13.3795529
 102.8290320  45.5888434  13.1729151  93.7541545  51.9821157   5.3305669
  94.3394982  51.2364845   5.4633573  93.5566383  52.2925113   6.2142333
  96.6080200  55.0172404   0.3468112  95.9390575  55.5018532  -0.1367848
  96.4693070  55.2641624   1.2611490  88.3459200  44.5526757   4.0510112
  88.3843299  44.0190348   4.8447230  87.8399492  44.0261962   3.4321089
 100.7485469  57.0516148   6.9450770 101.3003777  57.2147769   7.7099855
 101.0891662  57.6420585   6.2730795  95.7249962  39.3991297   7.5472655
  95.7891288  40.2606128   7.1350052  95.6617082  38.7865299   6.8145013
  95.2002234  41.4714430  11.1945689  95.8274273  41.0891507  11.8083213
  94.3430153  41.2528632  11.5601381 105.5996343  51.8777405  12.7999424
 106.1436247  52.4907363  12.3054379 105.0183188  52.4356983  13.3166437
  91.9767777  43.2790859  -2.8735956  92.2721218  42.3701537  -2.9268903
  91.0755813  43.2578598  -3.1954954 103.8853856  54.9998123   3.9314452
 103.7604995  54.1987863   3.4225398 104.5432947  55.4944316   3.4428422
  95.5062024  41.3546856   3.1091592  94.7848610  41.9682823   2.9699066
  96.2955280  41.8904620   3.0308238 105.9488764  52.8007143   5.5594002
 105.0019100  52.6812494   5.4872329 106.2971537  51.9129641   5.6420264
  98.3088338  38.6901282   9.3832244  98.8322739  38.9363579  10.1458553
  98.0900671  39.5221317   8.9635381  93.7055619  40.9604957  -2.7496631
  93.3768325  40.0802336  -2.9321525  94.0594989  40.9052625  -1.8620242
 102.9535198  52.5959859   1.7598354 102.8060160  51.6676567   1.9405924
 103.7788691  52.6179950   1.2755430  96.8197442  41.2477926  -2.3821153
  97.1593514  41.7763848  -3.1042545  97.2669562  41.5858333  -1.6062587
 106.5569319  53.4188418   2.8463227 107.4815867  53.2131279   2.7087678
 106.3884623  53.1704819   3.7552569  99.5140883  39.6314977   7.0681915
  99.1737703  38.8322790   7.4702594  98.8079889  39.9316688   6.4958748
 100.1657355  36.7164290   5.5209238 100.9883424  36.2424768   5.3988128
 100.4095418  37.4954773   6.0207924  97.6895933  43.4083410   3.3301216
  97.5440514  43.7223713   4.2225498  97.2121137  44.0268311   2.7772115
  99.5492316  40.3985958   3.3782106  99.5353885  39.5027052   3.0414404
 100.2664744  40.4056622   4.0120392 101.4018447  40.8323298   5.4235233
 101.1436225  41.7540369   5.4219564 100.8703487  40.4353733   6.1135697
 106.3464636  53.9374086  -1.7974681 106.5201513  53.3720508  -2.5500829
 106.8393527  54.7374980  -1.9795191  92.1641595  45.9488755   6.2688877
  91.6195064  46.7248563   6.4009152  93.0420945  46.2959559   6.1107999
  92.9507617  45.0758651   9.1619034  92.2089353  45.2241286   9.7483665
  92.6300362  45.3366917   8.2985784 100.8951280  54.6174629   8.9599424
 101.2038406  54.3723776   9.8322124 101.6926762  54.8221268   8.4718295
 100.9171892  56.7712539   1.1904801 100.4776882  56.2788917   1.8837658
 101.6680009  56.2285506   0.9496876  93.3964231  52.9624080   1.1929429
  94.2222251  52.6627851   0.8128072  93.0458283  52.1931702   1.6419218
  98.3645764  52.3150548   3.2627102  97.7425773  51.6521253   2.9629330
  99.0350631  52.3411680   2.5800750  91.5972836  50.8810406   2.1518362
  90.7604744  50.4532580   1.9702364  91.5696481  51.0742849   3.0889154
  98.4370292  40.7932336  12.8559609  98.4858447  41.6694459  12.4737378
  98.9792806  40.2509729  12.2831252 108.9225137  51.3373459  12.1360746
 108.1320681  51.3197598  11.5965245 108.6858492  51.8761753  12.8909782
 109.0423012  48.1865925   9.4493474 109.0921017  48.0215933  10.3908997
 108.9336936  47.3193185   9.0591355  97.9259271  50.8654471  -3.2614437
  98.0747391  51.5489936  -3.9147764  98.7325715  50.8459561  -2.7464981
 106.3326775  44.1696854  10.7652781 107.2336638  44.0303318  10.4736779
 106.4074749  44.3351308  11.7050958 100.6669580  41.5463708   9.6105967
  99.7972890  41.8397274   9.3388556 100.9029060  42.1304153  10.3313231
 110.5441209  50.6062867   9.6935496 110.2526018  50.9692848  10.5298957
 109.9313340  49.8929875   9.5148828 108.7928397  45.7295482   8.1615554
 109.2682519  45.9223128   7.3534405 107.8693963  45.7854667   7.9158937
  95.6811904  46.8919649  -2.2553368  95.4357946  45.9881979  -2.0573158
  95.8507819  46.8936799  -3.1973890 103.3708614  37.7643325   7.1271388
 103.8890558  38.5004352   6.8017876 103.0163747  38.0707318   7.9618147
  94.9507552  42.6248006  -4.7567207  94.2576797  42.6992361  -5.4127171
  94.7059303  41.8608350  -4.2345690 101.4254677  53.3602602  -5.7902690
 100.8528644  53.9792789  -6.2432218 101.9987470  53.9101963  -5.2562768
 107.4930066  42.6061242   6.3943859 108.4447489  42.7059339   6.4156083
 107.3233517  41.8139510   6.9041944 105.5144446  39.6916825   6.5803260
 104.9194378  39.9721838   5.8849749 105.2294143  40.1810726   7.3520001
 109.9718144  45.8267361   5.5086159 109.9394464  44.8883362   5.6945843
 110.5818768  45.9051398   4.7751984 101.6940168  48.7481161  13.0114020
 102.6143177  48.9259760  13.2054066 101.6589751  47.8037206  12.8593719
  90.9122333  43.9419754   1.9367295  90.5925117  43.0885062   1.6441669
  90.3655761  44.1568332   2.6925262  94.6902240  46.6582195   5.6536801
  94.9088250  47.5899303   5.6724835  95.1028014  46.2990170   6.4391605
  99.5630105  42.2315401  15.0439550  99.4626832  43.1809758  14.9751641
  99.3451648  41.9033640  14.1715620  90.7810593  47.5622666   3.9060416
  90.0874064  47.1476618   3.3930371  91.5283584  47.6043202   3.3093835
  99.4261376  45.6612540  13.8604612  98.9428457  46.4612900  14.0668501
  99.5122315  45.6720485  12.9072056  92.6947335  47.4940919   1.7826431
  92.6718023  47.5928607   0.8308314  93.0047972  48.3406070   2.1043597
  95.3534713  49.5517074   5.8973045  96.3077967  49.5201017   5.8302977
  95.1547237  49.0907698   6.7123271  95.9434095  48.1218191   8.4643843
  96.7626984  48.6162269   8.4878680  96.2170903  47.2050159   8.4361411
  93.7084942  55.0936694   2.9143243  93.5739410  54.3337095   2.3481241
  93.2917004  55.8177594   2.4472032  96.8654068  55.9906011   3.1261686
  96.7486452  56.9351443   3.0240376  96.0446514  55.6879573   3.5147485
  91.1969009  42.4556324   9.1636040  91.8427873  41.9455278   9.6523265
  90.9886161  43.1925006   9.7379465 103.7222402  49.5237172  14.6628181
 104.5913561  49.6977824  14.3014816 103.2429153  50.3431589  14.5403910
  97.8908582  56.6434273   6.3417614  98.7935829  56.6757883   6.6584109
  97.6645952  55.7134724   6.3563950  99.6462184  55.3965259   3.0027693
  98.6957815  55.3967121   2.8892065  99.9494670  54.6497994   2.4863728
  95.5366500  39.6023941  13.2611054  96.3997962  39.2460746  13.4714379
  94.9631911  39.2637836  13.9486459 115.3814877  61.2325798   4.0673455
 116.0193287  61.1132545   3.3636795 115.2635720  62.1806642   4.1261408
 112.1904584  61.1853226   4.0034980 111.8523095  61.0694291   3.1155515
 113.0594352  60.7844391   3.9835986 108.0491399  63.0388702  -0.0068129
 107.4856264  62.9478639  -0.7751841 107.9343794  62.2188607   0.4734364
 112.6724367  62.3388078   9.9621186 112.6613007  61.9440876   9.0901689
 112.8345006  61.6054150  10.5554957 105.5955831  64.5339894   2.8316092
 106.3877123  64.1930719   2.4162391 105.8352481  64.6434869   3.7518245
 109.3931628  65.1225189   8.9100370 109.1021494  66.0270820   8.7947036
 110.0288612  65.1641717   9.6244439 110.3187835  62.5002038   5.5001729
 110.9151407  62.2758060   4.7858692 110.3762806  61.7586783   6.1027177
 111.9540693  61.3179726  -0.7577016 111.5898900  60.7910347  -0.0464094
 112.8107809  60.9278195  -0.9310530 117.8589993  52.6074059   6.5054251
 117.5273318  53.4769470   6.2815466 117.2635607  52.2910343   7.1848281
 114.3521513  64.8086605   5.9050163 114.0522236  65.7111644   5.7965971
 114.0072572  64.5418788   6.7571316 107.8033994  61.2600402   1.9386868
 106.8784491  61.1276616   2.1464560 108.0518408  62.0394621   2.4356810
 117.7518657  57.3269145   3.5847601 116.8435534  57.2584554   3.2906362
 117.7006252  57.8041090   4.4129426 105.1642805  60.9033675   2.7730657
 105.2935187  61.1568154   3.6870069 104.4840257  61.4961383   2.4535312
 111.8259522  58.7458791  11.5282498 111.0492856  59.3052711  11.5185363
 112.4650085  59.2315574  12.0497368 110.0805895  61.5544244  11.0900465
 110.8220579  62.0929288  10.8135289 109.3742880  62.1810533  11.2472017
 115.5561234  63.6973385   9.6872626 115.9644590  63.2555795   8.9427259
 114.8338496  63.1226012   9.9406819 111.9092304  58.6345991   7.0606183
 112.7553500  59.0585405   7.2040832 111.8490942  57.9779616   7.7544746
 115.8790049  64.2574575   3.4424915 115.2498911  64.4220289   2.7400983
 115.4915711  64.6716185   4.2135879 115.0591750  56.2950360   8.7187357
 114.8152682  57.0492420   8.1821633 115.3351680  56.6735707   9.5534604
 117.0130212  62.8388972   7.3964623 117.2247108  63.4820732   6.7199004
 116.9659961  62.0051289   6.9286553 114.6156441  55.4506793   4.3001195
 113.7540920  55.7488046   4.5917932 114.6418876  55.6677192   3.3682227
 111.4318011  63.9948983   0.7075000 111.8956356  64.2736686  -0.0820377
 111.1674809  63.0932428   0.5248091 108.3242092  63.5420465   3.6454764
 108.8943449  63.9707733   3.0072248 108.9150204  63.2603050   4.3438949
 110.3686897  60.1172136  -2.4835434 111.0710940  60.5693179  -2.0161508
 110.0367525  59.4755955  -1.8555541 108.8167258  58.7083892  11.8915775
 108.1865919  59.3900173  12.1251172 108.7103346  58.5966974  10.9468913
 104.1112231  58.3755688   2.8181699 103.3211285  58.6313217   2.3421810
 104.6023478  59.1904026   2.9233740 118.1276040  65.7160927   5.5686980
 118.9493484  65.3141115   5.2869662 118.1238443  65.6129162   6.5203096
 106.0626976  58.7400268  -0.2234824 105.2658140  58.8518962   0.2948671
 105.8352568  59.0786920  -1.0893934 111.8932644  65.2644971   7.7247690
 111.9577076  65.7265378   8.5605862 111.1843568  64.6342336   7.8530000
 102.3949934  58.6286179   5.2496690 102.6457972  59.5133189   5.5154266
 102.9309482  58.4490780   4.4771782 108.0948001  53.0104658  14.2541026
 107.7014947  52.4570857  14.9288670 108.9114142  53.3215237  14.6447543
 105.0610059  64.4488516  -1.8345404 105.5734580  65.2431767  -1.6839839
 105.7132772  63.7514807  -1.9011803 111.0115962  54.4262537  11.8461283
 111.7525676  55.0269690  11.7665745 111.2433885  53.6840175  11.2879325
 106.1557300  59.6118904  10.1239512 106.0410815  58.7104162  10.4246611
 105.3001818  59.8582601   9.7724329 113.2349138  67.5536645  11.7227013
 112.7912992  66.7673023  11.4047917 113.8966352  67.7415795  11.0570904
 107.9936259  69.0832446   6.2487691 108.5443684  68.9549510   5.4764685
 107.1547735  69.3827335   5.8982584 115.3330376  67.8339445   9.7508414
 115.3148851  68.6548326   9.2588683 116.2550296  67.7093520   9.9758555
 111.7903430  65.3483574  10.5931922 112.3231767  64.5871862  10.3631230
 111.2617511  65.0557226  11.3356077 103.0258976  62.7777171  -1.0585834
 103.8634198  63.1874179  -1.2752126 103.2037243  61.8376613  -1.0885640
 114.0369666  52.8248295   4.0874797 113.5334461  52.7878430   3.2742603
 114.3300272  53.7341038   4.1471454 110.2812551  52.9087025   3.0940979
 111.1465548  52.7129834   2.7346869 110.3490060  52.6797377   4.0210336
 118.1348989  62.6718587   3.2217781 117.4772663  63.3617849   3.3097909
 118.9389388  63.0615019   3.5651767 107.8874870  55.1389233   0.4657346
 108.4618622  54.9164414  -0.2669461 108.4745853  55.2077927   1.2185947
 113.4235279  58.5012415   3.5180063 112.5057840  58.7227362   3.3601751
 113.8395422  58.5758726   2.6591770 103.0485147  60.1167886  -0.3875100
 102.8509547  59.5237247  -1.1124034 102.4931811  59.8120096   0.3300839
 111.0281871  60.0090992   1.7319493 111.0830480  59.0564829   1.6561970
 110.2173073  60.1650432   2.2160791 108.9674230  58.6268052  -0.5090128
 108.1542096  58.9262223  -0.1024936 109.4633225  58.2323741   0.2084354
 114.5648442  59.0909877   8.3224766 114.9197830  59.3181350   9.1819231
 115.2120573  59.4228253   7.7002021 108.4588305  56.1986408   5.1071107
 109.0987685  56.0575167   4.4094070 107.6265836  55.9120921   4.7309709
 109.2348609  65.4988838   1.2206099 110.0289208  65.0039158   1.0188674
 108.5240301  64.9706701   0.8573805 114.0543454  67.8806934   5.5718467
 114.1080476  68.4497870   6.3396183 113.1858235  68.0508819   5.2072504
 105.5431373  59.6431920  -2.7034148 104.6128961  59.5816375  -2.4864186
 105.6388845  59.1207873  -3.4997507 105.4616922  56.1686733  -0.1155906
 105.7223739  57.0832066  -0.2246746 106.2834094  55.7011175   0.0340706
 106.9341847  57.5824490   7.0542918 107.6064900  57.3741852   6.4055567
 106.1071633  57.3846576   6.6148150 121.1831108  64.3228540   6.5718252
 121.3766998  65.2274351   6.8177527 121.0831726  63.8635959   7.4056837
 112.8367419  54.2086431   9.0708579 112.1895334  54.9076380   8.9773055
 113.6068434  54.6422575   9.4384827 116.2446217  64.4735283  12.1459132
 116.0931723  64.2445835  11.2289216 116.2350896  65.4305884  12.1590477
 113.0131553  62.0467196   7.1305399 113.9423613  62.1978355   6.9574366
 112.5922583  62.1351216   6.2754045 111.8119885  66.0717860   4.9003936
 111.6730971  65.7036644   5.7729874 111.0234481  66.5865500   4.7287894
 113.3625100  65.4499463   2.2892774 113.0274933  65.4100233   3.1850424
 112.8629046  64.7844179   1.8163184 107.3369344  60.8567093   7.8145355
 107.1989142  60.1247332   8.4156894 108.2474268  60.7675993   7.5329543
 109.9651645  60.5687052   7.3029035 110.6751263  59.9280244   7.2615653
 109.9220953  60.8199947   8.2255216 117.9538424  67.5054405  10.2235614
 117.8950970  66.8213626   9.5566197 118.3557942  68.2473395   9.7716240
 108.6780579  57.5552270   9.1224674 108.1417936  57.1043008   9.7746271
 108.0897287  57.6898179   8.3795139 117.9555831  65.4693989   8.4549594
 117.0682610  65.1319911   8.5775993 118.5254382  64.7377021   8.6918359
  99.6084978  61.8018081   1.7792645 100.2956018  61.4879811   1.1913660
  99.4533107  62.7059446   1.5059897 104.4119700  56.6908278   6.2077669
 104.3277889  56.0833947   5.4728079 103.5902406  57.1817296   6.2087165
 111.4856984  70.1295442   5.4210837 111.4127156  70.9350413   5.9330142
 111.0434377  70.3287408   4.5958858 113.9455668  70.0282276   7.5768996
 114.6583640  70.6629741   7.5044897 113.4545696  70.1246142   6.7608997
 111.1678383  57.3179224   1.3019549 110.7976170  56.7650265   1.9900454
 111.6637475  56.7137358   0.7494549 108.9967581  67.7776719   8.3974566
 109.6977041  68.4113202   8.5503961 108.5262696  68.1191451   7.6370206
 116.7968867  60.3321327   6.2227117 116.1440317  60.5797234   5.5679570
 117.1749247  59.5185465   5.8889594 112.8456440  61.0741138  12.7093154
 112.1697077  60.9735267  13.3795529 113.6684074  60.9180352  13.1729151
 104.5935299  67.3113074   5.3305669 105.1788736  66.5656762   5.4633573
 104.3960138  67.6217031   6.2142333  99.1852954  59.8818675   4.0510112
  99.2237054  59.3482265   4.8447230  98.6793247  59.3553880   3.4321089
 111.5879223  72.3808065   6.9450770 112.1397531  72.5439687   7.7099855
 111.9285417  72.9712503   6.2730795 106.5643716  54.7283215   7.5472655
 106.6285043  55.5898046   7.1350052 106.5010837  54.1157217   6.8145013
 106.0395989  56.8006348  11.1945689 106.6668028  56.4183425  11.8083213
 105.1823908  56.5820549  11.5601381 116.4390097  67.2069323  12.7999424
 116.9830001  67.8199281  12.3054379 115.8576942  67.7648901  13.3166437
 102.8161532  58.6082777  -2.8735956 103.1114973  57.6993455  -2.9268903
 101.9149567  58.5870516  -3.1954954 106.3455779  56.6838773   3.1091592
 105.6242364  57.2974741   2.9699066 107.1349034  57.2196538   3.0308238
 116.7882519  68.1299061   5.5594002 115.8412854  68.0104412   5.4872329
 117.1365292  67.2421559   5.6420264 109.1482092  54.0193200   9.3832244
 109.6716494  54.2655496  10.1458553 108.9294425  54.8513235   8.9635381
 104.5449373  56.2896874  -2.7496631 104.2162079  55.4094253  -2.9321525
 104.8988744  56.2344543  -1.8620242 107.6591196  56.5769844  -2.3821153
 107.9987269  57.1055765  -3.1042545 108.1063317  56.9150250  -1.6062587
 110.3534637  54.9606895   7.0681915 110.0131458  54.1614708   7.4702594
 109.6473643  55.2608606   6.4958748 111.0051109  52.0456207   5.5209238
 111.8277178  51.5716685   5.3988128 111.2489173  52.8246691   6.0207924
 108.5289688  58.7375328   3.3301216 108.3834269  59.0515631   4.2225498
 108.0514891  59.3560228   2.7772115 110.3886071  55.7277876   3.3782106
 110.3747639  54.8318969   3.0414404 111.1058499  55.7348540   4.0120392
 112.2412201  56.1615216   5.4235233 111.9829979  57.0832287   5.4219564
 111.7097242  55.7645651   6.1135697 103.0035350  61.2780672   6.2688877
 102.4588818  62.0540480   6.4009152 103.8814700  61.6251477   6.1107999
 103.7901372  60.4050569   9.1619034 103.0483108  60.5533204   9.7483665
 103.4694116  60.6658834   8.2985784 111.7345034  69.9466547   8.9599424
 112.0432161  69.7015694   9.8322124 112.5320516  70.1513185   8.4718295
 104.2357985  68.2915997   1.1929429 105.0616005  67.9919769   0.8128072
 103.8852037  67.5223620   1.6419218 109.2039519  67.6442466   3.2627102
 108.5819528  66.9813171   2.9629330 109.8744386  67.6703597   2.5800750
 102.4366591  66.2102324   2.1518362 101.5998499  65.7824498   1.9702364
 102.4090236  66.4034767   3.0889154 109.2764046  56.1224254  12.8559609
 109.3252202  56.9986376  12.4737378 109.8186560  55.5801647  12.2831252
 119.7618892  66.6665377  12.1360746 118.9714436  66.6489516  11.5965245
 119.5252246  67.2053670  12.8909782 119.8816767  63.5157843   9.4493474
 119.9314772  63.3507851  10.3908997 119.7730690  62.6485102   9.0591355
 117.1720529  59.4988771  10.7652781 118.0730392  59.3595236  10.4736779
 117.2468504  59.6643226  11.7050958 111.5063335  56.8755626   9.6105967
 110.6366644  57.1689192   9.3388556 111.7422815  57.4596071  10.3313231
 121.3834964  65.9354785   9.6935496 121.0919772  66.2984765  10.5298957
 120.7707095  65.2221793   9.5148828 119.6322152  61.0587399   8.1615554
 120.1076274  61.2515046   7.3534405 118.7087717  61.1146585   7.9158937
 106.5205659  62.2211566  -2.2553368 106.2751700  61.3173896  -2.0573158
 106.6901573  62.2228717  -3.1973890 114.2102368  53.0935243   7.1271388
 114.7284312  53.8296270   6.8017876 113.8557501  53.3999236   7.9618147
 105.7901306  57.9539924  -4.7567207 105.0970551  58.0284279  -5.4127171
 105.5453058  57.1900268  -4.2345690 118.3323821  57.9353159   6.3943859
 119.2841244  58.0351257   6.4156083 118.1627271  57.1431428   6.9041944
 116.3538200  55.0208743   6.5803260 115.7588133  55.3013755   5.8849749
 116.0687897  55.5102644   7.3520001 120.8111899  61.1559279   5.5086159
 120.7788219  60.2175280   5.6945843 121.4212522  61.2343316   4.7751984
 112.5333922  64.0773078  13.0114020 113.4536932  64.2551677  13.2054066
 112.4983505  63.1329124  12.8593719 101.7516087  59.2711672   1.9367295
 101.4318871  58.4176980   1.6441669 101.2049515  59.4860250   2.6925262
 105.5295995  61.9874113   5.6536801 105.7482004  62.9191221   5.6724835
 105.9421768  61.6282087   6.4391605 110.4023860  57.5607319  15.0439550
 110.3020587  58.5101676  14.9751641 110.1845402  57.2325558  14.1715620
 101.6204347  62.8914583   3.9060416 100.9267819  62.4768536   3.3930371
 102.3677338  62.9335120   3.3093835 110.2655130  60.9904457  13.8604612
 109.7822212  61.7904818  14.0668501 110.3516069  61.0012402  12.9072056
 103.5341090  62.8232837   1.7826431 103.5111778  62.9220524   0.8308314
 103.8441726  63.6697988   2.1043597 106.1928468  64.8808992   5.8973045
 107.1471721  64.8492934   5.8302977 105.9940991  64.4199616   6.7123271
 106.7827850  63.4510108   8.4643843 107.6020739  63.9454187   8.4878680
 107.0564657  62.5342076   8.4361411 104.5478696  70.4228612   2.9143243
 104.4133164  69.6629013   2.3481241 104.1310759  71.1469512   2.4472032
 107.7047822  71.3197929   3.1261686 107.5880206  72.2643361   3.0240376
 106.8840268  71.0171490   3.5147485 102.0362764  57.7848242   9.1636040
 102.6821628  57.2747196   9.6523265 101.8279915  58.5216924   9.7379465
 114.5616156  64.8529090  14.6628181 115.4307316  65.0269742  14.3014816
 114.0822908  65.6723506  14.5403910 108.7302336  71.9726191   6.3417614
 109.6329583  72.0049801   6.6584109 108.5039706  71.0426642   6.3563950
 106.3760255  54.9315859  13.2611054 107.2391716  54.5752664  13.4714379
 105.8025666  54.5929754  13.9486459 122.6653277  74.0750708  11.5282498
 121.8886611  74.6344629  11.5185363 123.3043840  74.5607491  12.0497368
 119.6561013  74.0375810  11.8915775 119.0259674  74.7192091  12.1251172
 119.5497101  73.9258892  10.9468913 118.9341756  68.3396576  14.2541026
 118.5408701  67.7862774  14.9288670 119.7507896  68.6507154  14.6447543
 121.8509717  69.7554455  11.8461283 122.5919430  70.3561608  11.7665745
 122.0827639  69.0132093  11.2879325 116.9951055  74.9410822  10.1239512
 116.8804570  74.0396079  10.4246611 116.1395572  75.1874519   9.7724329
 123.6761173  69.5378348   9.0708579 123.0289088  70.2368298   8.9773055
 124.4462189  69.9714492   9.4384827 119.5174333  72.8844188   9.1224674
 118.9811690  72.4334926   9.7746271 118.9291042  73.0190097   8.3795139
 115.2513455  72.0200195   6.2077669 115.1671643  71.4125865   5.4728079
 114.4296161  72.5109214   6.2087165 123.6850195  76.4033055  12.7093154
 123.0090832  76.3027185  13.3795529 124.5077829  76.2472269  13.1729151
 117.4037471  70.0575133   7.5472655 117.4678797  70.9189964   7.1350052
 117.3404591  69.4449134   6.8145013 116.8789743  72.1298265  11.1945689
 117.5061782  71.7475343  11.8083213 116.0217662  71.9112467  11.5601381
 119.9875847  69.3485117   9.3832244 120.5110248  69.5947414  10.1458553
 119.7688180  70.1805152   8.9635381 114.6295126  75.7342486   9.1619034
 113.8876862  75.8825122   9.7483665 114.3087871  75.9950752   8.2985784
 120.1157801  71.4516171  12.8559609 120.1645956  72.3278294  12.4737378
 120.6580315  70.9093564  12.2831252 122.3457089  72.2047544   9.6105967
 121.4760398  72.4981110   9.3388556 122.5816569  72.7887989  10.3313231
 121.2417614  72.8899236  15.0439550 121.1414341  73.8393593  14.9751641
 121.0239157  72.5617475  14.1715620 121.1048885  76.3196375  13.8604612
 120.6215966  77.1196735  14.0668501 121.1909824  76.3304320  12.9072056
 112.8756518  73.1140160   9.1636040 113.5215382  72.6039114   9.6523265
 112.6673670  73.8508841   9.7379465 117.2154009  70.2607777  13.2611054
 118.0785471  69.9044582  13.4714379 116.6419420  69.9221672  13.9486459
   6.9850725 100.3829476  94.8454802   6.2314434  99.8136874  94.6898806
   7.1198267 100.3492141  95.7925437   1.0614871 100.5358113  91.9556945
   0.9232769 100.7259709  91.0278134   0.7051090 101.2977496  92.4124996
   1.0884250 102.6034640  96.9668217   1.5220757 102.5109929  97.8151271
   1.8015831 102.5792140  96.3288233   1.9499800 102.6458341  99.5001102
   2.1435690 103.5504151  99.7460377   1.8500418 102.1865760 100.3339687
   3.2041863  99.2032007  96.1449006   3.1931739 100.0856723  95.7742939
   2.3359243  98.8503558  95.9503543   3.8066473 100.3532227  92.7498469
   4.2497619  99.6039552  92.3517592   2.9292983 100.3442363  92.3672201
   0.8393678 104.3562274  89.7592398   1.3645002 104.6949546  89.0341718
   0.7516030 103.4209289  89.5755533   0.6485459 101.8387644 102.3776325
   0.6983464 101.6737651 103.3191847   0.5399382 100.9714903 101.9874205
   2.1503656 104.2584585 102.6218346   1.8588464 104.6214566 103.4581807
   1.5375787 103.5451593 102.4431678   3.3499338 101.8237465  95.1420916
   4.1846229 102.2627269  95.3058477   3.4858467 101.3476118  94.3229162
   1.5780591  99.4789080  98.4369009   1.5456911  98.5405080  98.6228693
   2.1881214  99.5573116  97.7034834   1.7275079  96.2700123  98.4827293
   1.2114128  95.4858580  98.2957221   2.6115028  95.9418840  98.6473812
   7.3957140 100.5405086  97.5775046   8.1260529 100.2790374  98.1382749
   6.7864086  99.8033808  97.6177114   5.4772438  98.6812949  98.1749497
   4.7505601  98.5468914  97.5665989   5.0619724  98.9889778  98.9806215
   3.0950232  94.9024801  95.5282929   3.6894723  94.6620537  94.8176237
   3.1676816  94.1831932  96.1556465   1.0908967  95.4694929  91.7955059
   0.8345902  95.0691564  92.6263266   0.4661835  96.1838723  91.6705198
   5.4021305  98.2091002  94.3026350   4.8420863  98.2784191  95.0757912
   4.7964809  98.0331987  93.5825846   6.9877324 114.8847516  96.9956306
   7.6255734 114.7654263  96.2919646   6.8698167 115.8328360  97.0544258
   3.7967030 114.8374944  96.9317831   3.4585541 114.7216009  96.0438365
   4.6656798 114.4366109  96.9118837   1.9250281 116.1523756  98.4284580
   2.5213853 115.9279778  97.7141543   1.9825252 115.4108502  99.0310028
   1.4975309 113.6063191  86.2634771   1.7500830 113.0844713  85.5018234
   0.5599868 113.4429337  86.3661454   6.5418592 112.6098970  94.0709514
   7.3281681 112.1918393  93.7199931   6.8057296 113.5145062  94.2391162
   6.7128669 118.0471820  88.7698171   6.0774502 118.1206447  89.4819075
   6.3826076 118.6365419  88.0917250  11.9427019 112.5474203  94.9742492
  12.6752191 111.9773420  95.2080322  11.1866375 112.1595803  95.4148998
   1.2171598 115.5091297  88.4659146   1.1007856 114.8336201  89.1340230
   1.3273858 115.0223671  87.6491299   3.5603139 114.9701444  92.1705835
   3.1961346 114.4432065  92.8818756   4.4170255 114.5799914  91.9972320
   9.4652440 106.2595777  99.4337101   9.1335764 107.1291188  99.2098316
   8.8698053 105.9432061 100.1131131   3.2008626 109.9991344  87.1667183
   3.3683028 110.8671581  87.5337654   3.0105795 110.1618626  86.2428473
   5.9583959 118.4608323  98.8333014   5.6584682 119.3633362  98.7248821
   5.6135019 118.1940506  99.6854167   9.3581103 110.9790863  96.5130451
   8.4497980 110.9106272  96.2189212   9.3068699 111.4562808  97.3412277
   3.1797847 112.4549002  88.1513850   3.0597472 112.9006052  88.9899331
   2.4850435 112.8034319  87.5927388  11.2242749 109.1807302  98.2908325
  10.5817130 109.4739835  97.6448120  10.7197678 109.0660222  99.0961522
   8.8782913 112.9270475  88.9794184   9.7900769 113.1597862  88.8041882
   8.3692560 113.5107519  88.4169263   3.5154751 112.2867709  99.9889034
   4.3615946 112.7107123 100.1323683   3.4553388 111.6301334 100.6827597
   7.4852495 117.9096293  96.3707766   6.8561358 118.0742007  95.6683834
   7.0978157 118.3237903  97.1418730  11.3641727 118.8450731  93.7252129
  10.6792765 119.2249632  93.1749163  11.4485577 119.4546058  94.4584077
   6.6654196 109.9472078 101.6470207   6.4215128 110.7014138 101.1104483
   6.9414127 110.3257425 102.4817455   8.6192659 116.4910690 100.3247473
   8.8309554 117.1342450  99.6481854   8.5722407 115.6573007  99.8569403
   6.2218888 109.1028511  97.2284045   5.3603367 109.4009764  97.5200783
   6.2481322 109.3198910  96.2965078   3.0380457 117.6470701  93.6357851
   3.5018803 117.9258404  92.8462473   2.7737255 116.7454146  93.4530942
   1.9749343 113.7693854  90.4447416   2.6773387 114.2214897  90.9121342
   1.6429972 113.1277673  91.0727309   9.7338487 119.3682646  98.4969830
  10.5555930 118.9662833  98.2152512   9.7300890 119.2650880  99.4485946
  17.8244480 115.7121394  94.8454802  17.0708188 115.1428792  94.6898806
  17.9592021 115.6784059  95.7925437   6.5635571 104.1065358  99.0508415
   6.2199841 104.9967000  98.9747525   6.9314534 103.9167016  98.1878000
   6.5285854 114.0973969  87.5580850   6.0132478 114.8678574  87.7969237
   6.2563163 113.4239106  88.1813911   4.1132965 108.9423670  92.6166088
   3.2574562 108.5530521  92.4371727   4.5259917 109.0215631  91.7565874
   5.6432112 106.4770013  97.0157648   5.1396907 106.4400149  96.2025453
   5.9362719 107.3862756  97.0754305   1.8874998 106.5608743  96.0223830
   2.7527994 106.3651552  95.6629719   1.9552507 106.3319095  96.9493186
  11.5020128 116.8506324  89.4934023  10.7249571 116.5117483  89.0489185
  12.1811609 116.8558947  88.8188988   6.3172157 111.9701061  89.3840631
   6.0122293 112.2847211  90.2350774   7.2702599 112.0482481  89.4267964
   9.7411435 116.3240305  96.1500631   9.0835110 117.0139567  96.2380760
  10.5451834 116.7136737  96.4934618   8.5516894 114.6784678  94.2004573
   9.0648776 115.3114670  94.7026283   9.2018118 114.0785873  93.8347933
   1.7959984 105.6652200  92.1215266   1.1424397 105.3501217  91.4971881
   1.7540459 105.0427940  92.8475089   2.9071189 115.9471495  84.0368558
   1.9998251 115.7160748  84.2359707   3.4042221 115.1509114  84.2242540
   5.0297725 112.1534133  96.4462914   4.1120286 112.3749080  96.2884602
   5.4457868 112.2280444  95.5874621   5.8132773 113.5525549  91.5765594
   6.5604592 114.0646946  91.2672716   6.0824362 113.2309602  92.4369987
   4.0859423 116.0484090  88.5592548   3.1770642 115.7643123  88.6565018
   4.1154507 116.4683168  87.6995855   9.3178690 119.6590679  92.3283716
   8.8641017 118.8181589  92.3848906   8.6872657 120.2952078  92.6658496
   8.2611610 110.5882665  93.5584383   7.5234367 110.0760052  93.8894626
   8.5138383 110.1483047  92.7467660   8.3623237 103.3658917  94.1526152
   8.6682114 102.5056281  93.8652067   9.0875842 103.9576538  93.9525146
   2.6344317 113.6612710  94.6602343   2.6892927 112.7086547  94.5844820
   1.8235519 113.8172150  95.1443642   3.7835511 117.5892834  85.8980627
   3.3454941 116.8728692  85.4386264   4.5245951 117.8168948  85.3365718
   6.1710888 112.7431595 101.2507616   6.5260276 112.9703068 102.1102082
   6.8183020 113.0749972 100.6284871  11.9008625 115.8650031  91.9556945
  11.7626524 116.0551627  91.0278134  11.5444844 116.6269413  92.4124996
  11.9278005 117.9326558  96.9668217  12.3614512 117.8401847  97.8151271
  12.6409586 117.9084058  96.3288233  12.7893555 117.9750258  99.5001102
  12.9829445 118.8796069  99.7460377  12.6894173 117.5157677 100.3339687
   4.4429865 107.8608149 101.9991429   3.7957780 108.5598099 101.9055906
   5.2130881 108.2944293 102.3667678   4.6194000 115.6988914 100.0588249
   5.5486060 115.8500073  99.8857216   4.1985030 115.7872935  99.2036896
   7.9046738 116.4477215  85.4912684   7.2875909 115.7224043  85.3945737
   7.4363227 117.2086575  85.1479758   9.5618277 119.1215708 101.3832444
   8.6745056 118.7841629 101.5058843  10.1316828 118.3898739 101.6201210
   6.1905860 108.8283559  94.5030714   6.6874560 108.0753522  94.1831785
   5.4192842 108.8647876  93.9373924  14.0435618 114.5323925  96.1449006
  14.0325494 115.4148640  95.7742939  13.1752997 114.1795476  95.9503543
   7.2735641 117.5855247  92.0769138   6.3391920 117.7056709  91.9073842
   7.4512309 116.6827713  91.8129148   2.7740829 110.9700942  94.2302399
   2.4038617 110.4171983  94.9183305   3.2699921 110.3659076  93.6777399
  10.6608192 113.4272566  92.6119172  11.1268644 114.2600557  92.5379475
  11.1115693 112.9617547  93.3164430   8.7284423 119.7716387  89.6105324
   9.0044267 119.6572982  90.5199198   7.8588922 119.3733872  89.5717497
   8.6324855 105.7953153  96.6510073   7.7187935 106.0257380  96.8192280
   9.0617956 105.8791597  97.5024106   8.4031314 113.9843045  99.1509967
   7.7502764 114.2318952  98.4962420   8.7811693 113.1707183  98.8172445
   0.7544538 107.6714918 102.3115095   1.2778940 107.9177214 103.0741404
   0.5356872 108.5034953 101.8918232   1.9597084 108.6128613  99.9964765
   1.6193904 107.8136426 100.3985445   1.2536090 108.9130324  99.4241598
   2.6113555 105.6977925  98.4492088   3.4339625 105.2238404  98.3270978
   2.8551619 106.4768409  98.9490774   1.2521790 108.7266184  88.7454990
   1.9730152 109.1047437  88.2418707   0.6287094 109.4455061  88.8489968
   5.3952913 109.4311333  89.6813322   5.6116527 110.3135971  89.3802150
   4.9146980 109.0397546  88.9518964   1.9948517 109.3799594  96.3064956
   1.9810086 108.4840687  95.9697254   2.7120945 109.3870258  96.9403242
   3.8474648 109.8136934  98.3518084   3.5892426 110.7354005  98.3502414
   3.3159688 109.4167369  99.0418548   1.3985413 108.2613974  91.5752526
   1.5201324 107.3330620  91.7743414   1.1087455 108.2752660  90.6630842
   4.2676603 105.9468885  94.7119246   4.2898300 106.0108218  93.7571226
   4.6844662 105.1073393  94.9059752  14.6460228 115.6824144  92.7498469
  15.0891374 114.9331469  92.3517592  13.7686738 115.6734281  92.3672201
  11.6787432 119.6854191  89.7592398  12.2038756 120.0241464  89.0341718
  11.5909785 118.7501207  89.5755533  11.4879213 117.1679561 102.3776325
  11.5377218 117.0029569 103.3191847  11.3793137 116.3006820 101.9874205
   8.7782976 113.1510489 103.6935631   9.6792838 113.0116954 103.4019629
   8.8530950 113.3164944 104.6333809  12.9897410 119.5876503 102.6218346
  12.6982218 119.9506483 103.4581807  12.3769541 118.8743511 102.4431678
  14.1893092 117.1529383  95.1420916  15.0239984 117.5919187  95.3058477
  14.3252221 116.6768036  94.3229162  11.2384598 114.7109117 101.0898404
  11.7138720 114.9036764 100.2817256  10.3150164 114.7668303 100.8441788
   5.8164815 106.7456961 100.0554238   6.3346759 107.4817988  99.7300727
   5.4619948 107.0520954 100.8900997   6.0677409 103.1657244  95.5755135
   6.3479163 102.4980433  96.2015561   6.8528016 103.3586339  95.0629798
   9.9386267 111.5874877  99.3226710  10.8903690 111.6872975  99.3438934
   9.7689718 110.7953146  99.8324794   7.9600647 108.6730461  99.5086111
   7.3650579 108.9535473  98.8132599   7.6750343 109.1624362 100.2802852
  12.4174345 114.8080997  98.4369009  12.3850665 113.8696998  98.6228693
  13.0274969 114.8865034  97.7034834   4.2557676 113.6777050  84.4796213
   5.2016781 113.5483258  84.5484631   3.8771921 112.9391712  84.9565642
  12.5668834 111.5992041  98.4827293  12.0507882 110.8150497  98.2957221
  13.4508782 111.2710757  98.6473812  10.2279560 105.3433056  94.4423105
  10.0304382 105.0348144  95.3266437  10.8379266 106.0694695  94.5721035
  18.2350895 115.8697004  97.5775046  18.9654283 115.6082292  98.1382749
  17.6257840 115.1325726  97.6177114  16.3166192 114.0104867  98.1749497
  15.5899356 113.8760832  97.5665989  15.9013479 114.3181695  98.9806215
   2.4400593 111.6027027  84.4151099   1.5332048 111.3060139  84.4913812
   2.7176574 111.3056845  83.5485385   4.0562659 106.1463916  90.5695340
   3.2463387 105.8011001  90.9450586   4.7447076 105.8371460  91.1582952
   5.9853207 105.2241963  92.1919637   6.5384246 105.6437416  92.8509660
   6.2223293 104.2977711  92.2342593   1.2099378 108.4613962  84.5563078
   2.0718542 108.7868860  84.8158895   1.3949722 107.6745458  84.0436144
   9.3632014 107.3342488  91.6998301   8.7830683 107.9927292  91.3176353
   9.0967947 106.5119833  91.2885718   7.8135581 106.7347546  93.9019621
   8.3135359 106.8464080  93.0933940   8.4571188 106.4308599  94.5420430
   8.1456892 109.4942579  90.7554649   7.2582747 109.7792229  90.5374844
   8.5610881 109.3336342  89.9081926  11.4971428 109.5189100  94.4708988
  12.2731818 110.0085552  94.7433605  10.7719562 109.9447154  94.9280858
  13.9343987 110.2316719  95.5282929  14.5288478 109.9912455  94.8176237
  14.0070571 109.5123849  96.1556465   8.1197916 115.0097115  90.9704939
   8.0633117 115.4665666  90.1312572   8.6726258 114.2487799  90.7927782
  11.9302722 110.7986846  91.7955059  11.6739656 110.3983482  92.6263266
  11.3055590 111.5130640  91.6705198  16.2415060 113.5382920  94.3026350
  15.6814618 113.6076109  95.0757912  15.6358563 113.3623904  93.5825846
   9.1986803 119.6969782  86.9001129  10.0332407 119.2650981  86.7178604
   9.0371146 119.5251796  87.8278024   8.8532695 116.2001896  88.2657468
   8.7981499 116.0346167  87.3245913   8.2278750 116.9077929  88.4219658
   2.1628821 105.7010005  87.8442787   2.1507491 106.6451845  88.0011058
   3.0552243 105.5180150  87.5502248   5.9780940 102.2952781  92.0988724
   5.2113336 101.7411268  92.2445406   6.3891645 102.3674650  92.9602875
  20.3046194 121.5887695  99.4337101  19.9729519 122.4583106  99.2098316
  19.7091807 121.2723979 100.1131131  22.0636504 124.5099219  98.2908325
  21.4210884 124.8031752  97.6448120  21.5591432 124.3952140  99.0961522
  17.4029326 119.4357276  99.0508415  17.0593595 120.3258918  98.9747525
  17.7708289 119.2458934  98.1878000  16.4825866 121.8061931  97.0157648
  15.9790662 121.7692066  96.2025453  16.7756473 122.7154674  97.0754305
  12.7268752 121.8900661  96.0223830  13.5921749 121.6943469  95.6629719
  12.7946261 121.6611013  96.9493186  12.6353739 120.9944118  92.1215266
  11.9818151 120.6793135  91.4971881  12.5934213 120.3719858  92.8475089
  19.2016992 118.6950835  94.1526152  19.5075868 117.8348199  93.8652067
  19.9269596 119.2868455  93.9525146  19.4718610 121.1245071  96.6510073
  18.5581689 121.3549297  96.8192280  19.9011711 121.2083515  97.5024106
  13.4507310 121.0269843  98.4492088  14.2733379 120.5530321  98.3270978
  13.6945373 121.8060327  98.9490774  15.1070358 121.2760802  94.7119246
  15.1292055 121.3400135  93.7571226  15.5238417 120.4365311  94.9059752
  16.6558569 122.0748879 100.0554238  17.1740513 122.8109906  99.7300727
  16.3013702 122.3812872 100.8900997  16.9071163 118.4949161  95.5755135
  17.1872917 117.8272350  96.2015561  17.6921770 118.6878257  95.0629798
  21.0673315 120.6724974  94.4423105  20.8698136 120.3640062  95.3266437
  21.6773021 121.3986613  94.5721035  14.8956413 121.4755834  90.5695340
  14.0857142 121.1302919  90.9450586  15.5840830 121.1663378  91.1582952
  16.8246962 120.5533881  92.1919637  17.3778000 120.9729334  92.8509660
  17.0617048 119.6269629  92.2342593  20.2025769 122.6634406  91.6998301
  19.6224438 123.3219210  91.3176353  19.9361701 121.8411750  91.2885718
  18.6529335 122.0639464  93.9019621  19.1529113 122.1755998  93.0933940
  19.2964943 121.7600516  94.5420430  24.7737741 125.5608636  95.5282929
  25.3682232 125.3204372  94.8176237  24.8464325 124.8415767  96.1556465
  13.0022575 121.0301922  87.8442787  12.9901245 121.9743762  88.0011058
  13.8945997 120.8472068  87.5502248  16.8174695 117.6244699  92.0988724
  16.0507090 117.0703186  92.2445406  17.2285400 117.6966568  92.9602875
   6.9850727  77.3891599  81.5700108   6.2314435  76.8198997  81.4144113
   7.1198268  77.3554263  82.5170743   1.0614872  77.5420236  78.6802252
   0.9232771  77.7321832  77.7523441   0.7051091  78.3039618  79.1370303
   1.0884252  79.6096763  83.6913523   1.5220758  79.5172052  84.5396577
   1.8015832  79.5854263  83.0533539   1.9499801  79.6520463  86.2246409
   2.1435691  80.5566274  86.4705684   1.8500419  79.1927882  87.0584994
   3.2041864  76.2094130  82.8694313   3.1931741  77.0918845  82.4988246
   2.3359244  75.8565681  82.6748850   3.8066474  77.3594349  79.4743775
   4.2497620  76.6101674  79.0762899   2.9292985  77.3504486  79.0917507
   0.8393679  81.3624396  76.4837705   1.3645003  81.7011669  75.7587025
   0.7516031  80.4271411  76.3000839   0.6485460  78.8449766  89.1021631
   0.6983465  78.6799774  90.0437154   0.5399383  77.9777025  88.7119512
   2.1503657  81.2646708  89.3463653   1.8588465  81.6276688  90.1827114
   1.5375788  80.5513716  89.1676985   3.3499339  78.8299587  81.8666223
   4.1846230  79.2689392  82.0303783   3.4858468  78.3538241  81.0474469
   1.5780592  76.4851202  85.1614316   1.5456912  75.5467203  85.3474000
   2.1881215  76.5635239  84.4280141   1.7275080  73.2762246  85.2072599
   1.2114129  72.4920702  85.0202528   2.6115029  72.9480962  85.3719119
   7.3957142  77.5467209  84.3020353   8.1260530  77.2852497  84.8628056
   6.7864087  76.8095931  84.3422421   5.4772439  75.6875072  84.8994804
   4.7505602  75.5531036  84.2911296   5.0619726  75.9951900  85.7051522
   3.0950234  71.9086924  82.2528236   3.6894724  71.6682660  81.5421544
   3.1676817  71.1894054  82.8801772   1.0908969  72.4757051  78.5200365
   0.8345903  72.0753687  79.3508573   0.4661837  73.1900845  78.3950505
   5.4021306  75.2153125  81.0271657   4.8420864  75.2846314  81.8003219
   4.7964810  75.0394109  80.3071153   6.9877325  91.8909639  83.7201613
   7.6255735  91.7716386  83.0164953   6.8698168  92.8390482  83.7789565
   3.7967031  91.8437067  83.6563137   3.4585543  91.7278131  82.7683672
   4.6656799  91.4428232  83.6364143   4.2786814  92.9971918  89.6149343
   4.2675455  92.6024717  88.7429846   4.4407454  92.2637991  90.2083114
   5.2353406  97.3643511  74.9574493   4.5841385  97.9497591  74.5708507
   6.0297768  97.8949706  75.0169531   0.9994075  95.7809030  88.5628527
   0.7083941  96.6854661  88.4475193   1.6351060  95.8225558  89.2772596
   1.9250282  93.1585879  85.1529886   2.5213854  92.9341901  84.4386849
   1.9825254  92.4170624  85.7555334   1.4975311  90.6125314  72.9880077
   1.7500831  90.0906835  72.2263540   0.5599870  90.4491459  73.0906761
   6.5418593  89.6161092  80.7954821   7.3281683  89.1980516  80.4445238
   6.8057298  90.5207185  80.9636469   6.7128671  95.0533943  75.4943477
   6.0774504  95.1268569  76.2064382   6.3826077  95.6427542  74.8162557
  11.9427021  89.5536326  81.6987799  12.6752192  88.9835542  81.9325629
  11.1866376  89.1657926  82.1394305   1.2171599  92.5153420  75.1904452
   1.1007857  91.8398323  75.8585537   1.3273859  92.0285794  74.3736605
   3.5603140  91.9763567  78.8951142   3.1961347  91.4494188  79.6064063
   4.4170256  91.5862036  78.7217627   9.4652441  83.2657900  86.1582408
   9.1335766  84.1353311  85.9343623   8.8698054  82.9494184  86.8376438
   3.2008627  87.0053467  73.8912490   3.3683030  87.8733703  74.2582961
   3.0105796  87.1680748  72.9673779   5.9583960  95.4670446  85.5578320
   5.6584683  96.3695484  85.4494128   5.6135020  95.2002629  86.4099473
   9.3581104  87.9852986  83.2375758   8.4497982  87.9168394  82.9434519
   9.3068700  88.4624931  84.0657583   3.1797848  89.4611124  74.8759157
   3.0597473  89.9068175  75.7144637   2.4850436  89.8096442  74.3172695
   3.4321970  89.4042631  91.1810655   2.6555304  89.9636552  91.1713520
   4.0712533  89.8899414  91.7025525  11.2242751  86.1869424  85.0153632
  10.5817131  86.4801957  84.3693426  10.7197679  86.0722345  85.8206828
   8.8782914  89.9332597  75.7039491   9.7900770  90.1659984  75.5287188
   8.3692561  90.5169642  75.1414570   1.6868342  92.2128085  90.7428622
   2.4283027  92.7513129  90.4663446   0.9805328  92.8394374  90.9000174
   7.1623682  94.3557225  89.3400783   7.5707038  93.9139636  88.5955416
   6.4400943  93.7809853  89.5934976   3.5154752  89.2929832  86.7134340
   4.3615947  89.7169246  86.8568989   3.4553390  88.6363456  87.4072904
   7.4852497  94.9158416  83.0953072   6.8561359  95.0804130  82.3929140
   7.0978159  95.3300025  83.8664036  11.3641728  95.8512854  80.4497436
  10.6792767  96.2311755  79.8994469  11.4485578  96.4608180  81.1829384
   6.6654197  86.9534200  88.3715514   6.4215129  87.7076261  87.8349790
   6.9414128  87.3319548  89.2062761   8.6192660  93.4972813  87.0492780
   8.8309555  94.1404573  86.3727161   8.5722408  92.6635129  86.5814710
   6.2218889  86.1090633  83.9529352   5.3603368  86.4071887  84.2446089
   6.2481324  86.3261032  83.0210384   3.0380458  94.6532824  80.3603157
   3.5018804  94.9320527  79.5707780   2.7737257  93.7516269  80.1776248
   1.9749344  90.7755976  77.1692723   2.6773388  91.2277020  77.6366649
   1.6429973  90.1339795  77.7972616   9.7338488  96.3744768  85.2215137
  10.5555932  95.9724955  84.9397819   9.7300891  96.2713002  86.1731253
   3.4995091  95.9228811  87.3775848   3.5639524  96.3849219  88.2134019
   2.7906015  95.2926176  87.5058157  17.8244481  92.7183517  81.5700108
  17.0708189  92.1490915  81.4144113  17.9592022  92.6846181  82.5170743
   3.2143109  97.5896919  77.2454828   3.0788784  98.4348455  77.6739676
   3.7552922  97.7916197  76.4820762   2.6178410  85.0846378  91.4989440
   3.3588123  85.6853531  91.4193902   2.8496333  84.3424016  90.9407482
   4.8411585  98.2120485  91.3755170   4.3975440  97.4256864  91.0576074
   5.5028799  98.3999636  90.7099061   6.9392824  98.4923285  89.4036571
   6.9211299  99.3132166  88.9116840   7.8612744  98.3677361  89.6286712
   3.3965878  96.0067415  90.2460080   3.9294215  95.2455703  90.0159388
   2.8679959  95.7141067  90.9884234   6.5635573  81.1127481  85.7753721
   6.2199842  82.0029123  85.6992832   6.9314535  80.9229138  84.9123306
   6.5285855  91.1036092  74.2826156   6.0132479  91.8740697  74.5214544
   6.2563164  90.4301228  74.9059218   4.1132966  85.9485793  79.3411395
   3.2574563  85.5592643  79.1617033   4.5259918  86.0277754  78.4811180
   5.6432113  83.4832136  83.7402955   5.1396909  83.4462271  82.9270760
   5.9362720  84.3924879  83.7999611   1.8874999  83.5670866  82.7469136
   2.7527996  83.3713674  82.3875026   1.9552508  83.3381217  83.6738493
  11.5020130  93.8568447  76.2179330  10.7249572  93.5179606  75.7734492
  12.1811611  93.8621070  75.5434295   6.3172159  88.9763184  76.1085938
   6.0122294  89.2909333  76.9596081   7.2702601  89.0544604  76.1513271
   4.7618590  95.1353407  77.7578892   4.2339952  94.4006167  77.4452129
   4.2606093  95.9128084  77.5118860   9.7411436  93.3302428  82.8745938
   9.0835111  94.0201689  82.9626066  10.5451836  93.7198860  83.2179924
   8.5516895  91.6846801  80.9249880   9.0648777  92.3176792  81.4271589
   9.2018119  91.0847996  80.5593240   1.7959986  82.6714323  78.8460573
   1.1424398  82.3563340  78.2217187   1.7540460  82.0490063  79.5720395
   2.9071191  92.9533618  70.7613865   1.9998252  92.7222871  70.9605014
   3.4042223  92.1571237  70.9487846   5.8139269 101.6631125  73.6810551
   5.1400968 101.9662822  74.2895509   6.2005091 102.4660205  73.3316008
   5.0297726  89.1596256  83.1708220   4.1120287  89.3811203  83.0129908
   5.4457870  89.2342567  82.3119927   5.8132774  90.5587672  78.3010900
   6.5604593  91.0709069  77.9918022   6.0824363  90.2371724  79.1615294
   4.0859424  93.0546212  75.2837855   3.1770643  92.7705245  75.3810324
   4.1154508  93.4745291  74.4241162   9.3178691  96.6652802  79.0529022
   8.8641019  95.8243712  79.1094213   8.6872658  97.3014200  79.3903802
   8.2611611  87.5944788  80.2829690   7.5234368  87.0822174  80.6139932
   8.5138385  87.1545170  79.4712967   7.7611631  98.5029299  79.9878840
   8.0534605  99.0634356  79.2691206   8.2710251  98.7957860  80.7431999
   8.3623238  80.3721040  80.8771459   8.6682115  79.5118403  80.5897374
   9.0875843  80.9638660  80.6770453   2.6344318  90.6674833  81.3847650
   2.6892928  89.7148669  81.3090127   1.8235520  90.8234272  81.8688948
   3.7835512  94.5954956  72.6225933   3.3454942  93.8790815  72.1631571
   4.5245953  94.8231071  72.0611025   2.7245256  99.2809650  81.0772294
   2.6821435  99.5070496  80.1480826   3.6407955  99.0473024  81.2258095
   6.1710890  89.7493717  87.9752923   6.5260277  89.9765190  88.8347389
   6.8183021  90.0812094  87.3530178  11.9008627  92.8712153  78.6802252
  11.7626525  93.0613749  77.7523441  11.5444845  93.6331536  79.1370303
  11.9278006  94.9388680  83.6913523  12.3614513  94.8463969  84.5396577
  12.6409587  94.9146181  83.0533539   5.6605901  98.5390774  85.2246624
   5.7142923  99.1081711  85.9924340   4.7920682  98.7092659  84.8600661
  12.7893556  94.9812381  86.2246409  12.9829446  95.8858191  86.4705684
  12.6894174  94.5219800  87.0584994   4.4429867  84.8670271  88.7236736
   3.7957782  85.5660221  88.6301212   5.2130882  85.3006415  89.0912984
   7.8508664  95.1319124  91.7987289   7.6994171  94.9029675  90.8817373
   7.8413344  96.0889725  91.8118634   4.6194001  92.7051036  86.7833556
   5.5486061  92.8562196  86.6102523   4.1985031  92.7935057  85.9282202
   3.4182333  96.7301701  84.5532093   3.2793418  96.3620485  85.4258032
   2.6296929  97.2449340  84.3816051   4.0130485 101.8310797  75.8957630
   4.1882240 101.3598840  76.7103253   3.3263273 102.4576563  76.1238891
   4.9687548  96.1083303  81.9420931   4.6337380  96.0684073  82.8378581
   4.4691493  95.4428019  81.4691341   7.9046739  93.4539338  72.2157991
   7.2875910  92.7286166  72.1191044   7.4363228  94.2148698  71.8725065
   1.5714092  91.2270893  86.9557192   2.2813711  90.5864085  86.9143810
   1.5283401  91.4783788  87.8783373   9.5600871  98.1638246  89.8763771
   9.5013417  97.4797466  89.2094354   9.9620389  98.9057236  89.4244397
   9.5618278  96.1277830  88.1077751   8.6745057  95.7903752  88.2304150
  10.1316829  95.3960861  88.3446516   3.0919432 100.7879282  85.0738994
   3.0189603 101.5934254  85.5858299   2.6496825 100.9871248  84.2487015
   2.8809211 100.0251052  78.5841816   2.0976733 100.5672733  78.6780040
   3.5801957 100.5425032  78.9836057   6.1905862  85.8345682  81.2276021
   6.6874561  85.0815644  80.9077091   5.4192843  85.8709999  80.6619230
  14.0435619  91.5386047  82.8694313  14.0325495  92.4210763  82.4988246
  13.1752998  91.1857598  82.6748850   5.5518115 100.6866116  87.2297153
   6.2646087 101.3213581  87.1573054   5.0608144 100.7829982  86.4137155
   7.2735642  94.5917369  78.8014444   6.3391921  94.7118832  78.6319149
   7.4512311  93.6889836  78.5374454   2.7740830  87.9763065  80.9547706
   2.4038618  87.4234105  81.6428611   3.2699923  87.3721198  80.4022706
  10.6608194  90.4334688  79.3364479  11.1268646  91.2662680  79.2624781
  11.1115694  89.9679670  80.0409737   8.7284425  96.7778510  76.3350631
   9.0044269  96.6635104  77.2444505   7.8588923  96.3795995  76.2962804
   8.6324856  82.8015275  83.3755380   7.7187936  83.0319502  83.5437587
   9.0617958  82.8853719  84.2269412   8.4031315  90.9905167  85.8755274
   7.7502765  91.2381075  85.2207727   8.7811695  90.1769306  85.5417751
   5.3638489 101.0264861  79.9783444   5.5460883 100.2086516  80.4411197
   6.1871475 101.2432553  79.5408334   5.6980654  99.9533046  77.2398493
   6.2268421  99.4425500  76.6268655   5.9608874  99.6375576  78.1044026
   4.4518888  91.7324978  92.3621311   3.7759525  91.6319108  93.0323686
   5.2746522  91.5764192  92.8257308   3.1941671 103.0391906  86.5978927
   3.7459979 103.2023527  87.3628012   3.5347864 103.6296344  85.9258952
   8.0452545  97.8653163  92.4527581   8.5892449  98.4783122  91.9582536
   7.4639390  98.4232742  92.9694594   6.3310058 100.9873881  83.5842609
   6.2061197 100.1863621  83.0753555   6.9889149 101.4820075  83.0956579
   8.3944966  98.7882902  85.2122159   7.4475302  98.6688253  85.1400486
   8.7427739  97.9005400  85.2948421   0.7544540  84.6777040  89.0360401
   1.2778942  84.9239337  89.7986710   0.5356873  85.5097075  88.6163538
   5.3991400  98.5835618  81.4126511   5.2516362  97.6552325  81.5934082
   6.2244893  98.6055708  80.9283587   9.0025521  99.4064176  82.4991384
   9.9272069  99.2007038  82.3615835   8.8340825  99.1580578  83.4080726
   1.9597085  85.6190736  86.7210072   1.6193905  84.8198549  87.1230752
   1.2536091  85.9192446  86.1486905   2.6113557  82.7040048  85.1737395
   3.4339626  82.2300526  85.0516285   2.8551620  83.4830532  85.6736081
   1.2521791  85.7328306  75.4700296   1.9730154  86.1109559  74.9664013
   0.6287095  86.4517183  75.5735274   5.3952914  86.4373455  76.4058629
   5.6116528  87.3198093  76.1047457   4.9146981  86.0459669  75.6764271
   1.9948518  86.3861717  83.0310263   1.9810087  85.4902810  82.6942561
   2.7120946  86.3932380  83.6648549   3.8474649  86.8199057  85.0763390
   3.5892427  87.7416127  85.0747721   3.3159689  86.4229491  85.7663854
   8.7920838  99.9249844  77.8553476   8.9657715  99.3596266  77.1027328
   9.2849729 100.7250739  77.6732966   1.3985414  85.2676097  78.2997833
   1.5201325  84.3392743  78.4988721   1.1087457  85.2814783  77.3876148
   4.2676605  82.9531007  81.4364553   4.2898301  83.0170340  80.4816532
   4.6844664  82.1135516  81.6305059  14.6460229  92.6886267  79.4743775
  15.0891375  91.9393592  79.0762899  13.7686739  92.6796403  79.0917507
   9.7796010  99.2416608  74.9550374  10.4746915  99.8623301  75.1737689
  10.1219160  98.3911960  75.2302752  11.6787433  96.6916314  76.4837705
  12.2038757  97.0303587  75.7587025  11.5909786  95.7563329  76.3000839
   3.3407482 100.6050387  88.6127581   3.6494608 100.3599534  89.4850281
   4.1382964 100.8097026  88.1246452   3.3628094 102.7588297  80.8432958
   2.9233084 102.2664676  81.5365815   4.1136211 102.2161265  80.6025033
   0.8826494  86.7808094  92.5087766   0.9314649  87.6570217  92.1265535
   1.4249008  86.2385487  91.9359409  11.3681339  97.3249217  91.7888903
  10.5776883  97.3073356  91.2493402  11.1314694  97.8637511  92.5437939
  11.4879214  94.1741684  89.1021631  11.5377219  94.0091691  90.0437154
  11.3793138  93.3068943  88.7119512   8.7782977  90.1572612  90.4180938
   9.6792840  90.0179077  90.1264936   8.8530951  90.3227067  91.3579115
   3.1125782  87.5339467  89.2634124   2.2429092  87.8273033  88.9916713
   3.3485263  88.1179912  89.9841388  12.9897411  96.5938625  89.3463653
  12.6982220  96.9568606  90.1827114  12.3769543  95.8805634  89.1676985
  14.1893094  94.1591505  81.8666223  15.0239985  94.5981309  82.0303783
  14.3252222  93.6830158  81.0474469  11.2384600  91.7171240  87.8143711
  11.7138721  91.9098886  87.0062562  10.3150165  91.7730426  87.5687094
   5.8164816  83.7519084  86.7799545   6.3346760  84.4880110  86.4546033
   5.4619949  84.0583077  87.6146304   6.0677410  80.1719366  82.3000441
   6.3479164  79.5042555  82.9260868   6.8528017  80.3648462  81.7875105
   3.8710879  99.3478360  73.8625468   3.2984846  99.9668547  73.4095939
   4.4443672  99.8977722  74.3965389   9.9386268  88.5937000  86.0472016
  10.8903691  88.6935098  86.0684240   9.7689719  87.8015269  86.5570101
   7.9600648  85.6792583  86.2331417   7.3650580  85.9597596  85.5377906
   7.6750345  86.1686484  87.0048158   7.0908138  99.6315510  74.9934050
   8.0238812  99.5661072  75.1966925   7.0031351 100.4671777  74.5348582
   9.7196155  98.9481380  71.9537997   9.6409787  98.6141244  72.8473755
  10.5405822  99.4403148  71.9529470  12.4174346  91.8143120  85.1614316
  12.3850666  90.8759121  85.3474000  13.0274970  91.8927156  84.4280141
   4.2557677  90.6839173  71.2041520   5.2016782  90.5545381  71.2729938
   3.8771922  89.9453835  71.6810948  12.5668835  88.6054163  85.2072599
  12.0507883  87.8212620  85.0202528  13.4508783  88.2772880  85.3719119
  10.2279562  82.3495179  81.1668412  10.0304383  82.0410267  82.0511744
  10.8379267  83.0756818  81.2966342  18.2350896  92.8759127  84.3020353
  18.9654285  92.6144415  84.8628056  17.6257842  92.1387849  84.3422421
  16.3166193  91.0166989  84.8994804  15.5899357  90.8822954  84.2911296
  15.9013480  91.3243818  85.7051522   4.1396370  94.7356919  92.6642177
   5.0599379  94.9135518  92.8582224   4.1045953  93.7912964  92.5121876
   2.4400594  88.6089149  71.1396405   1.5332050  88.3122262  71.2159119
   2.7176575  88.3118967  70.2730692   4.0562660  83.1526039  77.2940647
   3.2463388  82.8073124  77.6695893   4.7447077  82.8433583  77.8828258
   5.9853208  82.2304086  78.9164943   6.5384247  82.6499539  79.5754966
   6.2223295  81.3039834  78.9587899   2.0086308  88.2191159  94.6967707
   1.9083034  89.1685516  94.6279798   1.7907850  87.8909398  93.8243777
   1.2099379  85.4676084  71.2808384   2.0718543  85.7930983  71.5404202
   1.3949723  84.6807580  70.7681450   9.3632015  84.3404611  78.4243607
   8.7830684  84.9989415  78.0421660   9.0967948  83.5181955  78.0131025
   7.8135582  83.7409669  80.6264928   8.3135360  83.8526203  79.8179247
   8.4571190  83.4370721  81.2665736   1.8717578  91.6488298  93.5132769
   1.3884659  92.4488658  93.7196658   1.9578517  91.6596243  92.5600213
   8.1456893  86.5004701  77.4799956   7.2582748  86.7854352  77.2620150
   8.5610882  86.3398465  76.6327233  11.4971430  86.5251222  81.1954295
  12.2731820  87.0147675  81.4678912  10.7719564  86.9509276  81.6526164
  13.9343988  87.2378841  82.2528236  14.5288479  86.9974577  81.5421544
  14.0070572  86.5185972  82.8801772   7.2900107  96.2649376  71.5747976
   7.9935957  96.4699378  72.1905631   6.5662756  96.8326138  71.8397059
   8.1197917  92.0159237  77.6950246   8.0633119  92.4727789  76.8557878
   8.6726260  91.2549922  77.5173089  11.9302723  87.8048969  78.5200365
  11.6739657  87.4045605  79.3508573  11.3055591  88.5192763  78.3950505
  16.2415061  90.5445042  81.0271657  15.6814619  90.6138232  81.8003219
  15.6358564  90.3686027  80.3071153   9.1986804  96.7031905  73.6246436
  10.0332408  96.2713104  73.4423911   9.0371147  96.5313919  74.5523330
   8.8532696  93.2064018  74.9902775   8.7981500  93.0408290  74.0491219
   8.2278752  93.9140051  75.1464965   6.1678604  95.5112930  94.3156338
   7.0369763  95.6853583  93.9542973   5.6885355  96.3307347  94.1932067
   2.1628822  82.7072127  74.5688093   2.1507492  83.6513967  74.7256364
   3.0552244  82.5242273  74.2747555   2.0918386 101.3841018  82.6555850
   1.1414017 101.3842879  82.5420222   2.3950872 100.6373752  82.1391885
   5.9780941  79.3014904  78.8234030   5.2113337  78.7473391  78.9690713
   6.3891646  79.3736773  79.6848182  17.8271079 107.2201556  83.7201613
  18.4649489 107.1008304  83.0164953  17.7091922 108.1682400  83.7789565
  14.6360786 107.1728984  83.6563137  14.2979297 107.0570049  82.7683672
  15.5050554 106.7720149  83.6364143  10.4947601 109.0264461  79.6460028
   9.9312466 108.9354398  78.8776316  10.3799996 108.2064365  80.1262521
  15.1180569 108.3263836  89.6149343  15.1069209 107.9316634  88.7429846
  15.2801208 107.5929909  90.2083114   8.0412033 110.5215652  82.4844249
   8.8333325 110.1806477  82.0690548   8.2808683 110.6310627  83.4046402
  16.0747160 112.6935428  74.9574493  15.4235140 113.2789509  74.5708507
  16.8691523 113.2241623  75.0169531  10.0002787 109.7824566  75.3561627
  10.7733663 109.2353553  75.2174503  10.3528186 110.6468815  75.5676089
  11.8387830 111.1100948  88.5628527  11.5477696 112.0146579  88.4475193
  12.4744814 111.1517475  89.2772596  12.7644037 108.4877796  85.1529886
  13.3607609 108.2633819  84.4386849  12.8219008 107.7462542  85.7555334
  12.3369065 105.9417232  72.9880077  12.5894586 105.4198753  72.2263540
  11.3993624 105.7783377  73.0906761  17.3812348 104.9453010  80.7954821
  18.1675437 104.5272433  80.4445238  17.6451052 105.8499102  80.9636469
  17.5522425 110.3825860  75.4943477  16.9168258 110.4560487  76.2064382
  17.2219832 110.9719459  74.8162557  22.7820775 104.8828243  81.6987799
  23.5145947 104.3127460  81.9325629  22.0260131 104.4949844  82.1394305
  12.0565354 107.8445338  75.1904452  11.9401612 107.1690241  75.8585537
  12.1667614 107.3577712  74.3736605  14.3996895 107.3055485  78.8951142
  14.0355102 106.7786106  79.6064063  15.2564011 106.9153954  78.7217627
  20.3046195  98.5949817  86.1582408  19.9729520  99.4645228  85.9343623
  19.7091809  98.2786101  86.8376438  14.0402382 102.3345384  73.8912490
  14.2076784 103.2025621  74.2582961  13.8499551 102.4972666  72.9673779
  16.7977715 110.7962363  85.5578320  16.4978438 111.6987402  85.4494128
  16.4528774 110.5294547  86.4099473  10.2490196 107.2476160  81.5915025
   9.3240693 107.1152374  81.7992717  10.4974610 108.0270379  82.0884967
  20.1974859 103.3144904  83.2375758  19.2891736 103.2460312  82.9434519
  20.1462454 103.7916848  84.0657583  14.0191603 104.7903042  74.8759157
  13.8991228 105.2360093  75.7144637  13.3244191 105.1388360  74.3172695
   7.6099007 106.8909434  82.4258814   7.7391389 107.1443913  83.3398226
   6.9296459 107.4837142  82.1063469  11.7798495 117.5606684  78.5249288
  11.7022524 118.5114509  78.6037769  11.1760138 117.2152556  79.1824214
  14.2715724 104.7334549  91.1810655  13.4949059 105.2928469  91.1713520
  14.9106288 105.2191332  91.7025525  22.0636505 101.5161342  85.0153632
  21.4210885 101.8093875  84.3693426  21.5591434 101.4014262  85.8206828
  19.7176669 105.2624515  75.7039491  20.6294525 105.4951902  75.5287188
  19.2086316 105.8461559  75.1414570  12.5262097 107.5420002  90.7428622
  13.2676781 108.0805046  90.4663446  11.8199082 108.1686291  90.9000174
  18.0017436 109.6849143  89.3400783  18.4100792 109.2431553  88.5955416
  17.2794698 109.1101770  89.5934976  14.3548506 104.6221750  86.7134340
  15.2009702 105.0461163  86.8568989  14.2947144 103.9655374  87.4072904
  18.3246251 110.2450334  83.0953072  17.6955113 110.4096048  82.3929140
  17.9371913 110.6591943  83.8664036  22.2035483 111.1804771  80.4497436
  21.5186521 111.5603673  79.8994469  22.2879332 111.7900098  81.1829384
  17.5047952 102.2826118  88.3715514  17.2608884 103.0368179  87.8349790
  17.7807882 102.6611466  89.2062761  19.4586415 108.8264730  87.0492780
  19.6703310 109.4696490  86.3727161  19.4116163 107.9927047  86.5814710
  17.0612644 101.4382551  83.9529352  16.1997123 101.7363805  84.2446089
  17.0875078 101.6552950  83.0210384  13.8774213 109.9824742  80.3603157
  14.3412558 110.2612445  79.5707780  13.6131011 109.0808186  80.1776248
  10.7698294 109.5296223  83.2982921  11.3399651 109.9583492  82.6600405
  11.3606406 109.2478808  83.9967106  12.8143099 106.1047894  77.1692723
  13.5167142 106.5568938  77.6366649  12.4823727 105.4631713  77.7972616
  11.2623461 104.6959651  91.5443932  10.6322121 105.3775932  91.7779329
  11.1559548 104.5842732  90.5997070   6.5568433 104.3631447  82.4709856
   5.7667487 104.6188975  81.9949967   7.0479680 105.1779785  82.5761897
  20.5732242 111.7036686  85.2215137  21.3949686 111.3016873  84.9397819
  20.5694645 111.6004920  86.1731253   8.5083178 104.7276026  79.4293333
   7.7114342 104.8394720  79.9476829   8.2808771 105.0662678  78.5634223
  14.3388846 111.2520729  87.3775848  14.4033278 111.7141136  88.2134019
  13.6299770 110.6218094  87.5058157   4.8406136 104.6161937  84.9024847
   5.0914174 105.5008947  85.1682423   5.3765684 104.4366539  84.1299939
  28.6638236 108.0475434  81.5700108  27.9101944 107.4782832  81.4144113
  28.7985777 108.0138099  82.5170743  14.0536864 112.9188837  77.2454828
  13.9182538 113.7640372  77.6739676  14.5946676 113.1208114  76.4820762
  10.5404203  98.9980416  93.9069183  10.1471149  98.4446615  94.5816827
  11.3570344  99.3090995  94.2975701   7.5066261 110.4364275  77.8182753
   8.0190782 111.2307525  77.9688318   8.1588974 109.7390565  77.7516354
   9.3161146 113.5530031  79.9005506   9.4927774 114.4747996  79.7126490
  10.1117979 113.2388450  80.3299886  13.4572164 100.4138296  91.4989440
  14.1981878 101.0145449  91.4193902  13.6890087  99.6715933  90.9407482
   8.6013502 105.5994663  89.7767669   8.4867017 104.6979920  90.0774768
   7.7458020 105.8458360  89.4252486  15.6805340 113.5412403  91.3755170
  15.2369194 112.7548782  91.0576074  16.3422554 113.7291554  90.7099061
  10.4392461 115.0708205  85.9015848  10.9899886 114.9425268  85.1292842
   9.6003937 115.3703094  85.5510741  17.7786578 113.8215203  89.4036571
  17.7605053 114.6424084  88.9116840  18.7006498 113.6969278  89.6286712
  14.2359632 111.3359333  90.2460080  14.7687969 110.5747621  90.0159388
  13.7073713 111.0432984  90.9884234  17.4029327  96.4419399  85.7753721
  17.0593597  97.3321040  85.6992832  17.7708290  96.2521056  84.9123306
   5.4715178 108.7652929  78.5942323   6.3090400 109.1749937  78.3776031
   5.6493445 107.8252371  78.5642517  17.3679610 106.4328010  74.2826156
  16.8526233 107.2032614  74.5214544  17.0956918 105.7593146  74.9059218
  14.9526721 101.2777710  79.3411395  14.0968317 100.8884561  79.1617033
  15.3653673 101.3569671  78.4811180  16.4825868  98.8124054  83.7402955
  15.9790663  98.7754189  82.9270760  16.7756474  99.7216796  83.7999611
  12.7268753  98.8962783  82.7469136  13.5921750  98.7005592  82.3875026
  12.7946262  98.6673135  83.6738493  22.3413884 109.1860364  76.2179330
  21.5643327 108.8471524  75.7734492  23.0205365 109.1912987  75.5434295
  17.1565913 104.3055102  76.1085938  16.8516049 104.6201251  76.9596081
  18.1096355 104.3836522  76.1513271  15.6012345 110.4645325  77.7578892
  15.0733706 109.7298085  77.4452129  15.0999848 111.2420001  77.5118860
  20.5805191 108.6594346  82.8745938  19.9228865 109.3493607  82.9626066
  21.3845590 109.0490777  83.2179924  10.3331073 101.1264991  80.1185503
  10.9074824 100.9040173  79.3858696  10.9202055 101.1953686  80.8714104
  19.3910650 107.0138718  80.9249880  19.9042531 107.6468710  81.4271589
  20.0411874 106.4139914  80.5593240  10.6600660 103.1569452  74.1381388
   9.8237972 103.4944139  74.4590663  10.5205429 103.0218432  73.2008525
  12.6353740  98.0006240  78.8460573  11.9818153  97.6855257  78.2217187
  12.5934214  97.3781981  79.5720395  13.7464945 108.2825535  70.7613865
  12.8392007 108.0514789  70.9605014  14.2435977 107.4863155  70.9487846
  16.6533024 116.9923042  73.6810551  15.9794723 117.2954739  74.2895509
  17.0398846 117.7952123  73.3316008  15.8691481 104.4888174  83.1708220
  14.9514042 104.7103121  83.0129908  16.2851624 104.5634484  82.3119927
  16.6526528 105.8879589  78.3010900  17.3998347 106.4000987  77.9918022
  16.9218118 105.5663642  79.1615294  14.9253179 108.3838130  75.2837855
  14.0164398 108.0997163  75.3810324  14.9548262 108.8037209  74.4241162
  20.1572446 111.9944720  79.0529022  19.7034773 111.1535630  79.1094213
  19.5266413 112.6306118  79.3903802  19.1005365 102.9236706  80.2829690
  18.3628122 102.4114092  80.6139932  19.3532139 102.4837087  79.4712967
  18.6005385 113.8321216  79.9878840  18.8928360 114.3926273  79.2691206
  19.1104006 114.1249777  80.7431999  19.2016993  95.7012958  80.8771459
  19.5075870  94.8410321  80.5897374  19.9269598  96.2930578  80.6770453
   5.4941349 106.1043644  79.2653057   5.2965749 105.5113005  78.5404123
   4.9388013 105.7995854  79.9828996  13.4738073 105.9966751  81.3847650
  13.5286682 105.0440587  81.3090127  12.6629275 106.1526190  81.8688948
  14.6229266 109.9246874  72.6225933  14.1848696 109.2082733  72.1631571
  15.3639707 110.1522989  72.0611025  11.4130432 104.6143811  79.1438029
  10.5998298 104.9137981  79.5503221  11.9089427 104.2199499  79.8612511
  13.5639010 114.6101567  81.0772294  13.5215189 114.8362414  80.1480826
  14.4801709 114.3764942  81.2258095  17.0104644 105.0785635  87.9752923
  17.3654032 105.3057108  88.8347389  17.6576775 105.4104012  87.3530178
  22.7402381 108.2004071  78.6802252  22.6020280 108.3905667  77.7523441
  22.3838600 108.9623454  79.1370303  10.9044507 102.1862166  84.7599264
  11.5443887 102.0450925  84.0622227  10.0722038 101.8996679  84.3837866
  22.7671761 110.2680598  83.6913523  23.2008267 110.1755887  84.5396577
  23.4803341 110.2438098  83.0533539  11.6804811 111.4864596  80.8734256
  12.4745410 110.9914917  80.6716831  10.9696504 110.9582460  80.5101962
  16.4999656 113.8682692  85.2246624  16.5536678 114.4373628  85.9924340
  15.6314437 114.0384577  84.8600661   7.9887575 105.6307678  76.9494009
   7.0585163 105.5692134  77.1663971   8.0845047 105.1083631  76.1530650
   7.9073124 102.1562491  79.5372251   8.1679941 103.0707824  79.4281411
   8.7290296 101.6886934  79.6868863   9.3798049 103.5700248  86.7071075
  10.0521102 103.3617610  86.0583724   8.5527836 103.3722334  86.2676307
  23.6287310 110.3104299  86.2246409  23.8223200 111.2150109  86.4705684
  23.5287928 109.8511718  87.0584994  15.2823621 100.1962189  88.7236736
  14.6351536 100.8952139  88.6301212  16.0524636 100.6298333  89.0912984
  18.6902419 110.4611041  91.7987289  18.5387925 110.2321593  90.8817373
  18.6807098 111.4181643  91.8118634  15.4587755 108.0342954  86.7833556
  16.3879815 108.1854114  86.6102523  15.0378785 108.1226975  85.9282202
  14.2576087 112.0593618  84.5532093  14.1187173 111.6912403  85.4258032
  13.4690683 112.5741258  84.3816051  14.8524239 117.1602715  75.8957630
  15.0275995 116.6890758  76.7103253  14.1657027 117.7868481  76.1238891
  15.8081302 111.4375221  81.9420931  15.4731135 111.3975991  82.8378581
  15.3085248 110.7719937  81.4691341   9.7825546 106.8442851  87.4673512
   9.6445344 106.1123090  88.0685051  10.6930470 106.7551751  87.1857700
  18.7440494 108.7831255  72.2157991  18.1269665 108.0578084  72.1191044
  18.2756982 109.5440616  71.8725065  12.4107847 106.5562811  86.9557192
  13.1207465 105.9156003  86.9143810  12.3677155 106.8075705  87.8783373
  20.3994626 113.4930164  89.8763771  20.3407172 112.8089384  89.2094354
  20.8014144 114.2349154  89.4244397  11.1236781 103.5428028  88.7752831
  10.5874138 103.0918767  89.4274428  10.5353489 103.6773937  88.0323296
  10.5339040 103.0016680  71.3379295   9.6568506 102.8805481  70.9741542
  11.0096793 102.2102758  71.0858184  20.4012033 111.4569748  88.1077751
  19.5138812 111.1195670  88.2304150  20.9710584 110.7252779  88.3446516
   2.0541180 107.7893840  81.4320802   2.7412220 107.4755570  80.8441818
   1.8989309 108.6935204  81.1588054   6.8575902 102.6784036  85.8605826
   6.7734091 102.0709706  85.1256236   6.0358609 103.1693054  85.8615322
  13.9313186 116.1171200  85.0738994  13.8583358 116.9226172  85.5858299
  13.4890579 116.3163166  84.2487015  13.7202966 115.3542970  78.5841816
  12.9370488 115.8964650  78.6780040  14.4195711 115.8716950  78.9836057
  17.0299616 101.1637600  81.2276021  17.5268316 100.4107562  80.9077091
  16.2586597 101.2001916  80.6619230  24.8829373 106.8677965  82.8694313
  24.8719250 107.7502681  82.4988246  24.0146753 106.5149516  82.6748850
  16.3911870 116.0158034  87.2297153  17.1039842 116.6505499  87.1573054
  15.9001898 116.1121900  86.4137155  18.1129397 109.9209287  78.8014444
  17.1785675 110.0410749  78.6319149  18.2906065 109.0181754  78.5374454
  13.6134585 103.3054983  80.9547706  13.2432372 102.7526023  81.6428611
  14.1093677 102.7013116  80.4022706  21.5001948 105.7626606  79.3364479
  21.9662400 106.5954598  79.2624781  21.9509449 105.2971588  80.0409737
  11.4423783 113.7652478  88.0502724  12.1433243 114.3988961  88.2032118
  10.9718898 114.1067209  87.2898363  19.5678179 112.1070427  76.3350631
  19.8438023 111.9927022  77.2444505  18.6982678 111.7087912  76.2962804
  19.4718611  98.1307193  83.3755380  18.5581691  98.3611420  83.5437587
  19.9011712  98.2145637  84.2269412  19.2425069 106.3197085  85.8755274
  18.5896520 106.5672993  85.2207727  19.6205449 105.5061223  85.5417751
  16.2032243 116.3556778  79.9783444  16.3854638 115.5378434  80.4411197
  17.0265229 116.5724470  79.5408334  16.5374409 115.2824963  77.2398493
  17.0662175 114.7717418  76.6268655  16.8002628 114.9667494  78.1044026
  15.2912642 107.0616896  92.3621311  14.6153279 106.9611025  93.0323686
  16.1140276 106.9056110  92.8257308   7.0391501 113.2988833  84.9833826
   7.6244938 112.5532521  85.1161730   6.8416340 113.6092789  85.8670490
   9.8930157 116.3340080  79.9996269   9.2240532 116.8186208  79.5160309
   9.7543026 116.5809301  80.9139647   1.6309156 105.8694433  83.7038269
   1.6693256 105.3358024  84.4975388   1.1249449 105.3429638  83.0849247
  14.0335425 118.3683824  86.5978927  14.5853733 118.5315445  87.3628012
  14.3741619 118.9588261  85.9258952   9.0099918 100.7158973  87.2000812
   9.0741245 101.5773804  86.7878209   8.9467039 100.1032975  86.4673170
   8.4852191 102.7882106  90.8473846   9.1124230 102.4059183  91.4611370
   7.6280110 102.5696308  91.2129538  18.8846300 113.1945081  92.4527581
  19.4286203 113.8075039  91.9582536  18.3033144 113.7524659  92.9694594
   5.2617734 104.5958535  76.7792201   5.5571175 103.6869213  76.7259254
   4.3605769 104.5746274  76.4573203  17.1703812 116.3165799  83.5842609
  17.0454952 115.5155539  83.0753555  17.8282904 116.8111992  83.0956579
   8.7911981 102.6714532  82.7619749   8.0698566 103.2850499  82.6227223
   9.5805236 103.2072296  82.6836395  19.2338721 114.1174819  85.2122159
  18.2869056 113.9980170  85.1400486  19.5821494 113.2297317  85.2948421
  11.5938294 100.0068958  89.0360401  12.1172696 100.2531255  89.7986710
  11.3750627 100.8388993  88.6163538   6.9905575 102.2772633  76.9031526
   6.6618281 101.3970012  76.7206632   7.3444946 102.2220301  77.7907915
  16.2385154 113.9127535  81.4126511  16.0910117 112.9844243  81.5934082
  17.0638648 113.9347626  80.9283587  10.1047398 102.5645602  77.2707004
  10.4443471 103.0931524  76.5485612  10.5519519 102.9026009  78.0465570
  19.8419276 114.7356094  82.4991384  20.7665823 114.5298955  82.3615835
  19.6734579 114.4872495  83.4080726  12.7990839 100.9482653  86.7210072
  12.4587660 100.1490466  87.1230752  12.0929846 101.2484364  86.1486905
  13.4507311  98.0331966  85.1737395  14.2733380  97.5592444  85.0516285
  13.6945375  98.8122449  85.6736081  12.0915546 101.0620224  75.4700296
  12.8123908 101.4401477  74.9664013  11.4680850 101.7809101  75.5735274
  16.2346668 101.7665373  76.4058629  16.4510283 102.6490011  76.1047457
  15.7540736 101.3751586  75.6764271  10.9745890 104.7251086  82.9829373
  10.8290471 105.0391389  83.8753655  10.4971093 105.3435987  82.4300272
  12.8342273 101.7153634  83.0310263  12.8203841 100.8194728  82.6942561
  13.5514701 101.7224298  83.6648549  14.6868403 102.1490974  85.0763390
  14.4286181 103.0708045  85.0747721  14.1553444 101.7521409  85.7663854
  19.6314592 115.2541762  77.8553476  19.8051470 114.6888184  77.1027328
  20.1243483 116.0542656  77.6732966   5.4491552 107.2656431  85.9217034
   4.9045020 108.0416239  86.0537309   6.3270902 107.6127235  85.7636156
  12.2379169 100.5968015  78.2997833  12.3595080  99.6684661  78.4988721
  11.9481211 100.6106701  77.3876148  15.1070359  98.2822925  81.4364553
  15.1292056  98.3462258  80.4816532  15.5238418  97.4427434  81.6305059
  25.4853983 108.0178185  79.4743775  25.9285129 107.2685510  79.0762899
  24.6080494 108.0088321  79.0917507  20.6189765 114.5708526  74.9550374
  21.3140669 115.1915219  75.1737689  20.9612915 113.7203877  75.2302752
   6.2357574 106.3926327  88.8147191   5.4939310 106.5408962  89.4011822
   5.9150318 106.6534593  87.9513941  22.5181188 112.0208232  76.4837705
  23.0432512 112.3595504  75.7587025  22.4303540 111.0855247  76.3000839
  14.1801237 115.9342305  88.6127581  14.4888363 115.6891452  89.4850281
  14.9776719 116.1388944  88.1246452  14.2021849 118.0880215  80.8432958
  13.7626839 117.5956593  81.5365815  14.9529966 117.5453182  80.6025033
   6.6814188 114.2791756  80.8457586   7.5072207 113.9795528  80.4656230
   6.3308240 113.5099378  81.2947375  11.6495721 113.6318224  82.9155260
  11.0275730 112.9688929  82.6157487  12.3200588 113.6579356  82.2328907
   4.8822793 112.1978082  81.8046520   4.0454701 111.7700256  81.6230521
   4.8546438 112.3910525  82.7417311  11.7220248 102.1100012  92.5087766
  11.7708404 102.9862135  92.1265535  12.2642762 101.5677405  91.9359409
  22.2075094 112.6541135  91.7888903  21.4170638 112.6365274  91.2493402
  21.9708448 113.1929429  92.5437939  22.3272969 109.5033602  89.1021631
  22.3770974 109.3383609  90.0437154  22.2186892 108.6360861  88.7119512
  11.2109228 112.1822147  76.3913720  11.3597348 112.8657612  75.7380393
  12.0175671 112.1627237  76.9063176  19.6176731 105.4864530  90.4180938
  20.5186594 105.3470994  90.1264936  19.6924706 105.6518984  91.3579115
  13.9519537 102.8631384  89.2634124  13.0822846 103.1564950  88.9916713
  14.1879017 103.4471829  89.9841388  23.8291166 111.9230543  89.3463653
  23.5375974 112.2860524  90.1827114  23.2163297 111.2097551  89.1676985
  25.0286848 109.4883423  81.8666223  25.8633739 109.9273227  82.0303783
  25.1645977 109.0122076  81.0474469  22.0778354 107.0463158  87.8143711
  22.5532476 107.2390804  87.0062562  21.1543919 107.1022344  87.5687094
   8.9661861 108.2087325  77.3974789   8.7207903 107.3049655  77.5954999
   9.1357775 108.2104475  76.4554267  16.6558570  99.0811001  86.7799545
  17.1740514  99.8172028  86.4546033  16.3013703  99.3874995  87.6146304
   8.2357508 103.9415682  74.8960951   7.5426753 104.0160037  74.2400986
   7.9909260 103.1776026  75.4182467  16.9071165  95.5011284  82.3000441
  17.1872918  94.8334473  82.9260868  17.6921772  95.6940379  81.7875105
  14.7104633 114.6770278  73.8625468  14.1378600 115.2960465  73.4095939
  15.2837427 115.2269639  74.3965389  20.7780023 103.9228918  86.0472016
  21.7297446 104.0227015  86.0684240  20.6083473 103.1307186  86.5570101
  18.7994402 101.0084501  86.2331417  18.2044335 101.2889514  85.5377906
  18.5144099 101.4978402  87.0048158  17.9301893 114.9607428  74.9934050
  18.8632566 114.8952989  75.1966925  17.8425106 115.7963695  74.5348582
  20.5589910 114.2773298  71.9537997  20.4803541 113.9433162  72.8473755
  21.3799576 114.7695066  71.9529470  23.2568101 107.1435037  85.1614316
  23.2244421 106.2051038  85.3474000  23.8668724 107.2219074  84.4280141
  15.0951432 106.0131090  71.2041520  16.0410536 105.8837299  71.2729938
  14.7165677 105.2745752  71.6810948  23.4062589 103.9346081  85.2072599
  22.8901638 103.1504538  85.0202528  24.2902538 103.6064798  85.3719119
  21.0673316  97.6787096  81.1668412  20.8698137  97.3702185  82.0511744
  21.6773022  98.4048735  81.2966342  29.0744651 108.2051044  84.3020353
  29.8048039 107.9436332  84.8628056  28.4651596 107.4679766  84.3422421
  27.1559948 106.3458907  84.8994804  26.4293111 106.2114872  84.2911296
  26.7407235 106.6535735  85.7051522  14.9790124 110.0648837  92.6642177
  15.8993134 110.2427436  92.8582224  14.9439707 109.1204882  92.5121876
  13.2794349 103.9381067  71.1396405  12.3725804 103.6414180  71.2159119
  13.5570330 103.6410885  70.2730692   4.1972289 105.2587430  81.5895452
   3.8775074 104.4052738  81.2969826   3.6505717 105.4736008  82.3453419
   7.9752197 107.9749871  85.3064958   8.1938206 108.9066979  85.3252992
   8.3877971 107.6157846  86.0919762  14.8956415  98.4817957  77.2940647
  14.0857143  98.1365042  77.6695893  15.5840831  98.1725500  77.8828258
  16.8246963  97.5596003  78.9164943  17.3778001  97.9791457  79.5754966
  17.0617049  96.6331751  78.9587899  12.8480062 103.5483077  94.6967707
  12.7476789 104.4977434  94.6279798  12.6301604 103.2201316  93.8243777
  12.0493133 100.7968002  71.2808384  12.9112297 101.1222900  71.5404202
  12.2343478 100.0099498  70.7681450   4.0660549 108.8790342  83.5588573
   3.3724021 108.4644295  83.0458528   4.8133540 108.9210878  82.9621992
  20.2025770  99.6696528  78.4243607  19.6224439 100.3281333  78.0421660
  19.9361703  98.8473873  78.0131025  18.6529336  99.0701586  80.6264928
  19.1529115  99.1818121  79.8179247  19.2964944  98.7662639  81.2665736
  12.7111332 106.9780216  93.5132769  12.2278414 107.7780576  93.7196658
  12.7972271 106.9888161  92.5600213   5.9797292 108.8108595  81.4354588
   5.9567980 108.9096283  80.4836471   6.2897928 109.6573746  81.7571754
   8.6384670 110.8684751  85.5501203   9.5927923 110.8368693  85.4831134
   8.4397193 110.4075374  86.3651428   9.2284052 109.4385867  88.1172000
  10.0476941 109.9329945  88.1406838   9.5020859 108.5217835  88.0889568
  18.9850648 101.8296619  77.4799956  18.0976503 102.1146270  77.2620150
  19.4004637 101.6690382  76.6327233  22.3365184 101.8543140  81.1954295
  23.1125574 102.3439592  81.4678912  21.6113318 102.2801194  81.6526164
  24.7737743 102.5670759  82.2528236  25.3682233 102.3266495  81.5421544
  24.8464326 101.8477890  82.8801772   6.9934898 116.4104370  82.5671400
   6.8589366 115.6504771  82.0009398   6.5766961 117.1345270  82.1000189
  18.1293861 111.5941294  71.5747976  18.8329711 111.7991296  72.1905631
  17.4056510 112.1618055  71.8397059  18.9591672 107.3451155  77.6950246
  18.9026873 107.8019706  76.8557878  19.5120014 106.5841839  77.5173089
  22.7696478 103.1340887  78.5200365  22.5133412 102.7337522  79.3508573
  22.1449346 103.8484681  78.3950505  27.0808815 105.8736960  81.0271657
  26.5208373 105.9430149  81.8003219  26.4752319 105.6977945  80.3071153
  10.1504024 117.3073687  82.7789843  10.0336408 118.2519120  82.6768533
   9.3296471 117.0047249  83.1675642  20.0380559 112.0323823  73.6246436
  20.8726163 111.6005021  73.4423911  19.8764902 111.8605836  74.5523330
  19.6926451 108.5355936  74.9902775  19.6375255 108.3700207  74.0491219
  19.0672506 109.2431969  75.1464965   4.4818966 103.7724000  88.8164197
   5.1277830 103.2622954  89.3051422   4.2736117 104.5092682  89.3907623
  17.0072358 110.8404848  94.3156338  17.8763518 111.0145500  93.9542973
  16.5279110 111.6599265  94.1932067  13.0022576  98.0364045  74.5688093
  12.9901246  98.9805885  74.7256364  13.8945998  97.8534190  74.2747555
  11.1758538 117.9601949  85.9945771  12.0785785 117.9925559  86.3112266
  10.9495908 117.0302400  86.0092107  12.9312140 116.7132935  82.6555850
  11.9807771 116.7134797  82.5420222  13.2344627 115.9665670  82.1391885
  16.8174696  94.6306822  78.8234030  16.0507092  94.0765308  78.9690713
  17.2285401  94.7028690  79.6848182   8.8216457 100.9191618  92.9139212
   9.6847919 100.5628422  93.1242536   8.2481868 100.5805512  93.6014616
  28.6664834 122.5493474  83.7201613  29.3043244 122.4300221  83.0164953
  28.5485677 123.4974318  83.7789565  25.4754540 122.5020902  83.6563137
  25.1373052 122.3861967  82.7683672  26.3444308 122.1012067  83.6364143
  21.3341356 124.3556378  79.6460028  20.7706221 124.2646315  78.8776316
  21.2193751 123.5356283  80.1262521  25.9574323 123.6555754  89.6149343
  25.9462964 123.2608552  88.7429846  26.1194963 122.9221826  90.2083114
  23.6037791 123.8169714  85.1529886  24.2001363 123.5925736  84.4386849
  23.6612763 123.0754459  85.7555334  23.1762820 121.2709149  72.9880077
  23.4288340 120.7490671  72.2263540  22.2387379 121.1075295  73.0906761
  28.2206102 120.2744928  80.7954821  29.0069192 119.8564351  80.4445238
  28.4844807 121.1791020  80.9636469  28.3916180 125.7117778  75.4943477
  27.7562013 125.7852405  76.2064382  28.0613586 126.3011377  74.8162557
  33.6214529 120.2120161  81.6987799  34.3539701 119.6419378  81.9325629
  32.8653885 119.8241761  82.1394305  22.8959108 123.1737255  75.1904452
  22.7795366 122.4982159  75.8585537  23.0061368 122.6869629  74.3736605
  25.2390649 122.6347402  78.8951142  24.8748856 122.1078023  79.6064063
  26.0957765 122.2445871  78.7217627  31.1439950 113.9241735  86.1582408
  30.8123275 114.7937146  85.9343623  30.5485563 113.6078019  86.8376438
  24.8796136 117.6637302  73.8912490  25.0470539 118.5317539  74.2582961
  24.6893305 117.8264584  72.9673779  27.6371469 126.1254281  85.5578320
  27.3372192 127.0279320  85.4494128  27.2922529 125.8586464  86.4099473
  21.0883951 122.5768078  81.5915025  20.1634447 122.4444292  81.7992717
  21.3368364 123.3562297  82.0884967  31.0368613 118.6436821  83.2375758
  30.1285490 118.5752230  82.9434519  30.9856209 119.1208766  84.0657583
  24.8585357 120.1194960  74.8759157  24.7384982 120.5652010  75.7144637
  24.1637945 120.4680277  74.3172695  18.4492762 122.2201351  82.4258814
  18.5785143 122.4735830  83.3398226  17.7690213 122.8129059  82.1063469
  25.1109479 120.0626467  91.1810655  24.3342813 120.6220387  91.1713520
  25.7500042 120.5483250  91.7025525  32.9030260 116.8453260  85.0153632
  32.2604640 117.1385793  84.3693426  32.3985188 116.7306180  85.8206828
  30.5570423 120.5916433  75.7039491  31.4688279 120.8243820  75.5287188
  30.0480070 121.1753477  75.1414570  23.3655851 122.8711920  90.7428622
  24.1070536 123.4096964  90.4663446  22.6592837 123.4978209  90.9000174
  28.8411191 125.0141061  89.3400783  29.2494547 124.5723471  88.5955416
  28.1188452 124.4393688  89.5934976  25.1942261 119.9513667  86.7134340
  26.0403456 120.3753081  86.8568989  25.1340899 119.2947292  87.4072904
  29.1640006 125.5742251  83.0953072  28.5348868 125.7387965  82.3929140
  28.7765668 125.9883861  83.8664036  33.0429237 126.5096689  80.4497436
  32.3580276 126.8895590  79.8994469  33.1273087 127.1192016  81.1829384
  28.3441706 117.6118036  88.3715514  28.1002638 118.3660096  87.8349790
  28.6201637 117.9903383  89.2062761  30.2980169 124.1556648  87.0492780
  30.5097064 124.7988408  86.3727161  30.2509917 123.3218965  86.5814710
  27.9006398 116.7674469  83.9529352  27.0390877 117.0655722  84.2446089
  27.9268833 116.9844868  83.0210384  24.7167967 125.3116659  80.3603157
  25.1806313 125.5904362  79.5707780  24.4524766 124.4100104  80.1776248
  23.6536853 121.4339812  77.1692723  24.3560897 121.8860855  77.6366649
  23.3217482 120.7923631  77.7972616  22.1017215 120.0251568  91.5443932
  21.4715876 120.7067849  91.7779329  21.9953303 119.9134650  90.5997070
  17.3962187 119.6923364  82.4709856  16.6061241 119.9480893  81.9949967
  17.8873435 120.5071702  82.5761897  31.4125997 127.0328604  85.2215137
  32.2343441 126.6308791  84.9397819  31.4088400 126.9296838  86.1731253
  19.3476933 120.0567944  79.4293333  18.5508096 120.1686638  79.9476829
  19.1202525 120.3954596  78.5634223  15.6799890 119.9453855  84.9024847
  15.9307929 120.8300865  85.1682423  16.2159439 119.7658456  84.1299939
  39.5031990 123.3767352  81.5700108  38.7495698 122.8074750  81.4144113
  39.6379531 123.3430017  82.5170743  21.3797958 114.3272334  93.9069183
  20.9864903 113.7738533  94.5816827  22.1964098 114.6382913  94.2975701
  24.2965919 115.7430213  91.4989440  25.0375632 116.3437366  91.4193902
  24.5283842 115.0007851  90.9407482  19.4407257 120.9286581  89.7767669
  19.3260772 120.0271838  90.0774768  18.5851774 121.1750277  89.4252486
  28.2423082 111.7711316  85.7753721  27.8987351 112.6612958  85.6992832
  28.6102044 111.5812974  84.9123306  28.2073364 121.7619927  74.2826156
  27.6919988 122.5324532  74.5214544  27.9350673 121.0885063  74.9059218
  25.7920475 116.6069628  79.3411395  24.9362072 116.2176478  79.1617033
  26.2047427 116.6861589  78.4811180  27.3219622 114.1415971  83.7402955
  26.8184418 114.1046107  82.9270760  27.6150229 115.0508714  83.7999611
  23.5662508 114.2254701  82.7469136  24.4315505 114.0297510  82.3875026
  23.6340017 113.9965053  83.6738493  33.1807639 124.5152282  76.2179330
  32.4037081 124.1763441  75.7734492  33.8599119 124.5204905  75.5434295
  27.9959668 119.6347019  76.1085938  27.6909803 119.9493169  76.9596081
  28.9490110 119.7128439  76.1513271  31.4198945 123.9886263  82.8745938
  30.7622620 124.6785525  82.9626066  32.2239345 124.3782695  83.2179924
  21.1724827 116.4556909  80.1185503  21.7468579 116.2332090  79.3858696
  21.7595809 116.5245604  80.8714104  30.2304404 122.3430636  80.9249880
  30.7436286 122.9760628  81.4271589  30.8805628 121.7431831  80.5593240
  21.4994414 118.4861370  74.1381388  20.6631726 118.8236057  74.4590663
  21.3599184 118.3510350  73.2008525  23.4747495 113.3298158  78.8460573
  22.8211907 113.0147175  78.2217187  23.4327969 112.7073898  79.5720395
  24.5858700 123.6117453  70.7613865  23.6785761 123.3806706  70.9605014
  25.0829732 122.8155072  70.9487846  26.7085235 119.8180091  83.1708220
  25.7907796 120.0395038  83.0129908  27.1245379 119.8926402  82.3119927
  27.4920283 121.2171507  78.3010900  28.2392102 121.7292904  77.9918022
  27.7611872 120.8955560  79.1615294  25.7646933 123.7130048  75.2837855
  24.8558152 123.4289081  75.3810324  25.7942017 124.1329126  74.4241162
  30.9966200 127.3236637  79.0529022  30.5428528 126.4827547  79.1094213
  30.3660167 127.9598036  79.3903802  29.9399120 118.2528623  80.2829690
  29.2021877 117.7406010  80.6139932  30.1925894 117.8129005  79.4712967
  30.0410747 111.0304875  80.8771459  30.3469624 110.1702239  80.5897374
  30.7663352 111.6222496  80.6770453  16.3335103 121.4335562  79.2653057
  16.1359503 120.8404923  78.5404123  15.7781767 121.1287772  79.9828996
  24.3131827 121.3258668  81.3847650  24.3680437 120.3732505  81.3090127
  23.5023029 121.4818108  81.8688948  25.4623021 125.2538792  72.6225933
  25.0242451 124.5374650  72.1631571  26.2033462 125.4814906  72.0611025
  22.2524187 119.9435728  79.1438029  21.4392053 120.2429899  79.5503221
  22.7483181 119.5491417  79.8612511  27.8498399 120.4077553  87.9752923
  28.2047786 120.6349026  88.8347389  28.4970530 120.7395929  87.3530178
  33.5796136 123.5295989  78.6802252  33.4414034 123.7197585  77.7523441
  33.2232354 124.2915371  79.1370303  21.7438262 117.5154084  84.7599264
  22.3837641 117.3742843  84.0622227  20.9115792 117.2288597  84.3837866
  33.6065515 125.5972516  83.6913523  34.0402022 125.5047805  84.5396577
  34.3197096 125.5730016  83.0533539  18.8281329 120.9599596  76.9494009
  17.8978917 120.8984051  77.1663971  18.9238801 120.4375549  76.1530650
  18.7466878 117.4854409  79.5372251  19.0073695 118.3999742  79.4281411
  19.5684050 117.0178851  79.6868863  20.2191803 118.8992166  86.7071075
  20.8914857 118.6909528  86.0583724  19.3921590 118.7014252  86.2676307
  34.4681065 125.6396216  86.2246409  34.6616955 126.5442027  86.4705684
  34.3681683 125.1803635  87.0584994  26.1217375 115.5254107  88.7236736
  25.4745291 116.2244056  88.6301212  26.8918391 115.9590251  89.0912984
  29.5296173 125.7902959  91.7987289  29.3781680 125.5613511  90.8817373
  29.5200853 126.7473560  91.8118634  26.2981510 123.3634872  86.7833556
  27.2273570 123.5146031  86.6102523  25.8772540 123.4518892  85.9282202
  20.6219301 122.1734769  87.4673512  20.4839099 121.4415008  88.0685051
  21.5324224 122.0843669  87.1857700  29.5834248 124.1123173  72.2157991
  28.9663419 123.3870001  72.1191044  29.1150737 124.8732533  71.8725065
  23.2501601 121.8854728  86.9557192  23.9601220 121.2447920  86.9143810
  23.2070910 122.1367623  87.8783373  21.9630535 118.8719946  88.7752831
  21.4267892 118.4210685  89.4274428  21.3747244 119.0065855  88.0323296
  21.3732794 118.3308597  71.3379295  20.4962261 118.2097398  70.9741542
  21.8490547 117.5394676  71.0858184  31.2405787 126.7861665  88.1077751
  30.3532566 126.4487587  88.2304150  31.8104338 126.0544697  88.3446516
  17.6969657 118.0075954  85.8605826  17.6127845 117.4001623  85.1256236
  16.8752363 118.4984972  85.8615322  27.8693370 116.4929517  81.2276021
  28.3662070 115.7399480  80.9077091  27.0980352 116.5293834  80.6619230
  35.7223128 122.1969883  82.8694313  35.7113004 123.0794598  82.4988246
  34.8540507 121.8441434  82.6748850  28.9523151 125.2501205  78.8014444
  28.0179430 125.3702667  78.6319149  29.1299820 124.3473671  78.5374454
  24.4528339 118.6346900  80.9547706  24.0826127 118.0817941  81.6428611
  24.9487432 118.0305034  80.4022706  32.3395703 121.0918524  79.3364479
  32.8056155 121.9246515  79.2624781  32.7903203 120.6263505  80.0409737
  30.4071934 127.4362345  76.3350631  30.6831778 127.3218940  77.2444505
  29.5376432 127.0379830  76.2962804  30.3112365 113.4599111  83.3755380
  29.3975445 113.6903338  83.5437587  30.7405467 113.5437555  84.2269412
  30.0818824 121.6489003  85.8755274  29.4290274 121.8964910  85.2207727
  30.4599204 120.8353141  85.5417751  26.1306397 122.3908814  92.3621311
  25.4547034 122.2902943  93.0323686  26.9534031 122.2348028  92.8257308
  12.4702911 121.1986351  83.7038269  12.5087010 120.6649941  84.4975388
  11.9643203 120.6721556  83.0849247  19.8493673 116.0450891  87.2000812
  19.9134999 116.9065722  86.7878209  19.7860793 115.4324893  86.4673170
  19.3245945 118.1174024  90.8473846  19.9517984 117.7351101  91.4611370
  18.4673864 117.8988226  91.2129538  16.1011488 119.9250453  76.7792201
  16.3964929 119.0161131  76.7259254  15.1999524 119.9038192  76.4573203
  19.6305735 118.0006449  82.7619749  18.9092321 118.6142417  82.6227223
  20.4198991 118.5364214  82.6836395  22.4332049 115.3360876  89.0360401
  22.9566451 115.5823172  89.7986710  22.2144382 116.1680911  88.6163538
  17.8299330 117.6064550  76.9031526  17.5012036 116.7261929  76.7206632
  18.1838700 117.5512219  77.7907915  20.9441153 117.8937520  77.2707004
  21.2837225 118.4223441  76.5485612  21.3913273 118.2317926  78.0465570
  23.6384594 116.2774571  86.7210072  23.2981414 115.4782384  87.1230752
  22.9323600 116.5776282  86.1486905  24.2901066 113.3623883  85.1737395
  25.1127135 112.8884362  85.0516285  24.5339129 114.1414367  85.6736081
  22.9309300 116.3912142  75.4700296  23.6517663 116.7693395  74.9664013
  22.3074604 117.1101019  75.5735274  27.0740423 117.0957291  76.4058629
  27.2904037 117.9781929  76.1047457  26.5934490 116.7043504  75.6764271
  21.8139644 120.0543004  82.9829373  21.6684225 120.3683307  83.8753655
  21.3364848 120.6727904  82.4300272  23.6736027 117.0445552  83.0310263
  23.6597596 116.1486645  82.6942561  24.3908455 117.0516216  83.6648549
  25.5262158 117.4782892  85.0763390  25.2679936 118.3999963  85.0747721
  24.9947198 117.0813327  85.7663854  23.0772923 115.9259932  78.2997833
  23.1988834 114.9976578  78.4988721  22.7874966 115.9398618  77.3876148
  25.9464114 113.6114843  81.4364553  25.9685810 113.6754176  80.4816532
  26.3632173 112.7719351  81.6305059  36.3247738 123.3470102  79.4743775
  36.7678884 122.5977427  79.0762899  35.4474248 123.3380239  79.0917507
  17.0751328 121.7218245  88.8147191  16.3333064 121.8700880  89.4011822
  16.7544073 121.9826510  87.9513941  33.3574942 127.3500149  76.4837705
  33.8826266 127.6887422  75.7587025  33.2697295 126.4147165  76.3000839
  22.5614003 117.4391930  92.5087766  22.6102158 118.3154052  92.1265535
  23.1036517 116.8969323  91.9359409  33.0468848 127.9833053  91.7888903
  32.2564392 127.9657192  91.2493402  32.8102203 128.5221347  92.5437939
  33.1666723 124.8325519  89.1021631  33.2164728 124.6675527  90.0437154
  33.0580647 123.9652778  88.7119512  30.4570486 120.8156447  90.4180938
  31.3580349 120.6762912  90.1264936  30.5318460 120.9810902  91.3579115
  24.7913291 118.1923302  89.2634124  23.9216601 118.4856868  88.9916713
  25.0272771 118.7763747  89.9841388  34.6684920 127.2522461  89.3463653
  34.3769729 127.6152441  90.1827114  34.0557052 126.5389469  89.1676985
  35.8680603 124.8175341  81.8666223  36.7027494 125.2565145  82.0303783
  36.0039731 124.3413994  81.0474469  32.9172108 122.3755075  87.8143711
  33.3926230 122.5682722  87.0062562  31.9937674 122.4314261  87.5687094
  19.8055615 123.5379243  77.3974789  19.5601657 122.6341573  77.5954999
  19.9751530 123.5396393  76.4554267  27.4952325 114.4102919  86.7799545
  28.0134269 115.1463946  86.4546033  27.1407458 114.7166912  87.6146304
  19.0751263 119.2707600  74.8960951  18.3820508 119.3451955  74.2400986
  18.8303015 118.5067944  75.4182467  27.7464919 110.8303201  82.3000441
  28.0266673 110.1626391  82.9260868  28.5315526 111.0232297  81.7875105
  31.6173777 119.2520835  86.0472016  32.5691200 119.3518933  86.0684240
  31.4477228 118.4599104  86.5570101  29.6388157 116.3376419  86.2331417
  29.0438089 116.6181431  85.5377906  29.3537854 116.8270320  87.0048158
  34.0961855 122.4726955  85.1614316  34.0638175 121.5342956  85.3474000
  34.7062479 122.5510992  84.4280141  25.9345186 121.3423008  71.2041520
  26.8804291 121.2129216  71.2729938  25.5559431 120.6037670  71.6810948
  34.2456344 119.2637999  85.2072599  33.7295392 118.4796455  85.0202528
  35.1296292 118.9356715  85.3719119  31.9067071 113.0079014  81.1668412
  31.7091892 112.6994102  82.0511744  32.5166776 113.7340653  81.2966342
  39.9138405 123.5342962  84.3020353  40.6441794 123.2728250  84.8628056
  39.3045351 122.7971684  84.3422421  37.9953702 121.6750825  84.8994804
  37.2686866 121.5406789  84.2911296  37.5800989 121.9827653  85.7051522
  25.8183879 125.3940754  92.6642177  26.7386888 125.5719353  92.8582224
  25.7833462 124.4496800  92.5121876  24.1188103 119.2672984  71.1396405
  23.2119559 118.9706097  71.2159119  24.3964084 118.9702803  70.2730692
  15.0366044 120.5879348  81.5895452  14.7168828 119.7344656  81.2969826
  14.4899472 120.8027926  82.3453419  25.7350169 113.8109874  77.2940647
  24.9250897 113.4656959  77.6695893  26.4234586 113.5017418  77.8828258
  27.6640717 112.8887921  78.9164943  28.2171756 113.3083374  79.5754966
  27.9010804 111.9623669  78.9587899  23.6873817 118.8774995  94.6967707
  23.5870543 119.8269352  94.6279798  23.4695359 118.5493234  93.8243777
  22.8886888 116.1259920  71.2808384  23.7506052 116.4514818  71.5404202
  23.0737232 115.3391416  70.7681450  31.0419524 114.9988446  78.4243607
  30.4618193 115.6573250  78.0421660  30.7755457 114.1765791  78.0131025
  29.4923091 114.3993504  80.6264928  29.9922869 114.5110038  79.8179247
  30.1358699 114.0954557  81.2665736  23.5505087 122.3072133  93.5132769
  23.0672168 123.1072494  93.7196658  23.6366026 122.3180078  92.5600213
  29.8244402 117.1588537  77.4799956  28.9370257 117.4438187  77.2620150
  30.2398391 116.9982300  76.6327233  33.1758939 117.1835058  81.1954295
  33.9519329 117.6731510  81.4678912  32.4507073 117.6093112  81.6526164
  35.6131497 117.8962677  82.2528236  36.2075988 117.6558413  81.5421544
  35.6858081 117.1769807  82.8801772  29.7985426 122.6743072  77.6950246
  29.7420628 123.1311624  76.8557878  30.3513769 121.9133757  77.5173089
  33.6090232 118.4632804  78.5200365  33.3527166 118.0629440  79.3508573
  32.9843100 119.1776598  78.3950505  37.9202570 121.2028878  81.0271657
  37.3602128 121.2722067  81.8003219  37.3146073 121.0269862  80.3071153
  30.8774313 127.3615740  73.6246436  31.7119917 126.9296939  73.4423911
  30.7158656 127.1897754  74.5523330  30.5320205 123.8647854  74.9902775
  30.4769009 123.6992125  74.0491219  29.9066261 124.5723887  75.1464965
  15.3212720 119.1015918  88.8164197  15.9671584 118.5914872  89.3051422
  15.1129872 119.8384600  89.3907623  27.8466113 126.1696766  94.3156338
  28.7157272 126.3437418  93.9542973  27.3672864 126.9891182  94.1932067
  23.8416331 113.3655963  74.5688093  23.8295001 114.3097803  74.7256364
  24.7339753 113.1826108  74.2747555  27.6568450 109.9598739  78.8234030
  26.8900846 109.4057226  78.9690713  28.0679155 110.0320608  79.6848182
  19.6610211 116.2483535  92.9139212  20.5241673 115.8920340  93.1242536
  19.0875622 115.9097430  93.6014616  41.9833704 129.2533653  86.1582408
  41.6517029 130.1229064  85.9343623  41.3879318 128.9369937  86.8376438
  43.7424014 132.1745177  85.0153632  43.0998394 132.4677710  84.3693426
  43.2378943 132.0598098  85.8206828  39.0816836 127.1003234  85.7753721
  38.7381106 127.9904876  85.6992832  39.4495799 126.9104892  84.9123306
  38.1613377 129.4707889  83.7402955  37.6578172 129.4338024  82.9270760
  38.4543983 130.3800632  83.7999611  34.4056262 129.5546619  82.7469136
  35.2709259 129.3589427  82.3875026  34.4733771 129.3256971  83.6738493
  34.3141249 128.6590076  78.8460573  33.6605662 128.3439093  78.2217187
  34.2721723 128.0365816  79.5720395  40.8804502 126.3596793  80.8771459
  41.1863379 125.4994156  80.5897374  41.6057107 126.9514413  80.6770453
  41.1506120 128.7891028  83.3755380  40.2369200 129.0195255  83.5437587
  41.5799221 128.8729473  84.2269412  35.1294820 128.6915801  85.1737395
  35.9520889 128.2176279  85.0516285  35.3732884 129.4706285  85.6736081
  36.7857868 128.9406760  81.4364553  36.8079565 129.0046093  80.4816532
  37.2025927 128.1011269  81.6305059  38.3346079 129.7394837  86.7799545
  38.8528023 130.4755864  86.4546033  37.9801212 130.0458830  87.6146304
  38.5858674 126.1595119  82.3000441  38.8660427 125.4918308  82.9260868
  39.3709281 126.3524215  81.7875105  42.7460825 128.3370932  81.1668412
  42.5485646 128.0286020  82.0511744  43.3560531 129.0632571  81.2966342
  36.5743923 129.1401792  77.2940647  35.7644652 128.7948877  77.6695893
  37.2628340 128.8309336  77.8828258  38.5034472 128.2179839  78.9164943
  39.0565510 128.6375292  79.5754966  38.7404558 127.2915587  78.9587899
  41.8813279 130.3280364  78.4243607  41.3011948 130.9865168  78.0421660
  41.6149212 129.5057708  78.0131025  40.3316845 129.7285422  80.6264928
  40.8316624 129.8401956  79.8179247  40.9752453 129.4246474  81.2665736
  46.4525252 133.2254594  82.2528236  47.0469742 132.9850330  81.5421544
  46.5251835 132.5061725  82.8801772  34.6810085 128.6947880  74.5688093
  34.6688755 129.6389720  74.7256364  35.5733507 128.5118026  74.2747555
  38.4962205 125.2890657  78.8234030  37.7294601 124.7349144  78.9690713
  38.9072910 125.3612526  79.6848182   6.9850728  54.3953722  68.2945415
   6.2314436  53.8261120  68.1389420   7.1198269  54.3616386  69.2416050
   1.0614873  54.5482358  65.4047558   0.9232772  54.7383954  64.4768748
   0.7051092  55.3101741  65.8615610   1.0884253  56.6158885  70.4158830
   1.5220760  56.5234174  71.2641884   1.8015834  56.5916386  69.7778846
   1.9499803  56.6582586  72.9491715   2.1435693  57.5628396  73.1950990
   1.8500421  56.1990005  73.7830300   3.2041866  53.2156252  69.5939619
   3.1931742  54.0980968  69.2233552   2.3359245  52.8627803  69.3994156
   3.8066476  54.3656472  66.1989082   4.2497622  53.6163797  65.8008205
   2.9292986  54.3566608  65.8162814   0.8393680  58.3686519  63.2083011
   1.3645004  58.7073792  62.4832331   0.7516033  57.4333534  63.0246146
   0.6485461  55.8511889  75.8266938   0.6983466  55.6861896  76.7682461
   0.5399385  54.9839148  75.4364819   2.1503658  58.2708830  76.0708959
   1.8588466  58.6338811  76.9072420   1.5375789  57.5575839  75.8922291
   3.3499340  55.8361710  68.5911530   4.1846232  56.2751514  68.7549090
   3.4858469  55.3600363  67.7719775   1.5780593  53.4913325  71.8859623
   1.5456913  52.5529325  72.0719306   2.1881217  53.5697361  71.1525448
   1.7275082  50.2824368  71.9317906   1.2114130  49.4982825  71.7447835
   2.6115030  49.9543085  72.0964425   7.3957143  54.5529332  71.0265659
   8.1260531  54.2914620  71.5873363   6.7864088  53.8158053  71.0667727
   5.4772440  52.6937194  71.6240111   4.7505604  52.5593159  71.0156602
   5.0619727  53.0014023  72.4296829   3.0950235  48.9149046  68.9773542
   3.6894726  48.6744782  68.2666850   3.1676819  48.1956177  69.6047079
   1.0908970  49.4819174  65.2445672   0.8345904  49.0815810  66.0753880
   0.4661838  50.1962968  65.1195811   5.4021308  52.2215247  67.7516963
   4.8420866  52.2908436  68.5248525   4.7964811  52.0456232  67.0316460
   6.9877326  68.8971761  70.4446919   7.6255736  68.7778508  69.7410259
   6.8698169  69.8452605  70.5034871   3.7967032  68.8499189  70.3808444
   3.4585544  68.7340254  69.4928979   4.6656801  68.4490354  70.3609450
   4.2786815  70.0034041  76.3394649   4.2675456  69.6086839  75.4675153
   4.4407455  69.2700114  76.9328421   5.2353407  74.3705633  61.6819800
   4.5841387  74.9559714  61.2953813   6.0297770  74.9011828  61.7414837
   0.9994077  72.7871153  75.2873833   0.7083943  73.6916784  75.1720500
   1.6351061  72.8287680  76.0017903   1.9250283  70.1648001  71.8775193
   2.5213856  69.9404024  71.1632156   1.9825255  69.4232747  72.4800641
   1.4975312  67.6187437  59.7125384   1.7500832  67.0968958  58.9508847
   0.5599871  67.4553582  59.8152068   6.5418595  66.6223215  67.5200127
   7.3281684  66.2042638  67.1690544   6.8057299  67.5269307  67.6881776
   6.7128672  72.0596065  62.2188784   6.0774505  72.1330692  62.9309689
   6.3826078  72.6489664  61.5407863  11.9427022  66.5598448  68.4233106
  12.6752194  65.9897665  68.6570935  11.1866377  66.1720049  68.8639611
   1.2171601  69.5215543  61.9149759   1.1007859  68.8460446  62.5830843
   1.3273860  69.0347916  61.0981912   3.5603141  68.9825690  65.6196448
   3.1961349  68.4556311  66.3309370   4.4170257  68.5924159  65.4462934
   9.4652442  60.2720022  72.8827714   9.1335767  61.1415433  72.6588929
   8.8698056  59.9556306  73.5621745   3.2008628  64.0115589  60.6157797
   3.3683031  64.8795826  60.9828268   3.0105798  64.1742871  59.6919086
   5.9583962  72.4732568  72.2823627   5.6584685  73.3757607  72.1739434
   5.6135021  72.2064751  73.1344780   9.3581105  64.9915108  69.9621064
   8.4497983  64.9230517  69.6679825   9.3068701  65.4687053  70.7902890
   3.1797849  66.4673247  61.6004463   3.0597475  66.9130298  62.4389944
   2.4850438  66.8158565  61.0418002   3.4321971  66.4104754  77.9055962
   2.6555305  66.9698674  77.8958826   4.0712534  66.8961537  78.4270832
  11.2242752  63.1931547  71.7398938  10.5817132  63.4864080  71.0938733
  10.7197680  63.0784467  72.5452135   8.8782916  66.9394720  62.4284798
   9.7900772  67.1722107  62.2532495   8.3692563  67.5231764  61.8659876
   1.6868344  69.2190207  77.4673929   2.4283028  69.7575251  77.1908752
   0.9805329  69.8456496  77.6245480   7.1623683  71.3619348  76.0646090
   7.5707039  70.9201758  75.3200722   6.4400945  70.7871975  76.3180283
   3.5154753  66.2991955  73.4379647   4.3615948  66.7231368  73.5814296
   3.4553391  65.6425579  74.1318210   7.4852498  71.9220538  69.8198379
   6.8561360  72.0866253  69.1174447   7.0978160  72.3362148  70.5909343
  11.3641730  72.8574976  67.1742743  10.6792768  73.2373878  66.6239776
  11.4485579  73.4670303  67.9074691   6.6654199  63.9596323  75.0960821
   6.4215130  64.7138384  74.5595096   6.9414129  64.3381671  75.9308068
   8.6192661  70.5034935  73.7738086   8.8309557  71.1466695  73.0972467
   8.5722410  69.6697252  73.3060016   6.2218890  63.1152756  70.6774658
   5.3603369  63.4134010  70.9691396   6.2481325  63.3323155  69.7455691
   3.0380460  71.6594947  67.0848464   3.5018805  71.9382650  66.2953087
   2.7737258  70.7578391  66.9021555   1.9749346  67.7818099  63.8938029
   2.6773389  68.2339143  64.3611956   1.6429974  67.1401918  64.5217922
   9.7338489  73.3806891  71.9460444  10.5555933  72.9787078  71.6643125
   9.7300892  73.2775125  72.8976559   3.4995093  72.9290934  74.1021154
   3.5639525  73.3911341  74.9379326   2.7906017  72.2988299  74.2303464
  17.8244482  69.7245639  68.2945415  17.0708191  69.1553037  68.1389420
  17.9592024  69.6908304  69.2416050   3.2143110  74.5959042  63.9700134
   3.0788785  75.4410577  64.3984982   3.7552923  74.7978319  63.2066068
   2.6178411  62.0908500  78.2234746   3.3588124  62.6915654  78.1439209
   2.8496334  61.3486138  77.6652789   4.8411587  75.2182608  78.1000477
   4.3975441  74.4318987  77.7821381   5.5028800  75.4061759  77.4344367
   6.9392825  75.4985408  76.1281878   6.9211300  76.3194289  75.6362147
   7.8612745  75.3739483  76.3532019   3.3965879  73.0129537  76.9705386
   3.9294216  72.2517826  76.7404694   2.8679960  72.7203189  77.7129541
   6.5635574  58.1189603  72.4999028   6.2199843  59.0091245  72.4238139
   6.9314537  57.9291261  71.6368613   6.5285857  68.1098215  61.0071463
   6.0132480  68.8802819  61.2459850   6.2563165  67.4363351  61.6304524
   4.1132968  62.9547915  66.0656701   3.2574564  62.5654766  65.8862340
   4.5259919  63.0339876  65.2056487   5.6432114  60.4894259  70.4648261
   5.1396910  60.4524394  69.6516066   5.9362721  61.3987001  70.5244918
   1.8875000  60.5732988  69.4714443   2.7527997  60.3775797  69.1120332
   1.9552509  60.3443340  70.3983800  11.5020131  70.8630569  62.9424637
  10.7249574  70.5241729  62.4979799  12.1811612  70.8683192  62.2679602
   6.3172160  65.9825307  62.8331244   6.0122295  66.2971456  63.6841387
   7.2702602  66.0606727  62.8758577   4.7618592  72.1415530  64.4824198
   4.2339953  71.4068290  64.1697436   4.2606094  72.9190206  64.2364167
   9.7411438  70.3364550  69.5991245   9.0835112  71.0263812  69.6871373
  10.5451837  70.7260982  69.9425231   8.5516896  68.6908923  67.6495186
   9.0648778  69.3238915  68.1516896   9.2018120  68.0910119  67.2838546
   1.7959987  59.6776445  65.5705879   1.1424399  59.3625462  64.9462494
   1.7540461  59.0552186  66.2965702   2.9071192  69.9595740  57.4859171
   1.9998254  69.7284994  57.6850320   3.4042224  69.1633359  57.6733153
   5.8139271  78.6693247  60.4055857   5.1400969  78.9724944  61.0140815
   6.2005093  79.4722328  60.0561314   5.0297727  66.1658379  69.8953527
   4.1120289  66.3873326  69.7375215   5.4457871  66.2404689  69.0365234
   5.8132775  67.5649794  65.0256207   6.5604594  68.0771192  64.7163329
   6.0824365  67.2433847  65.8860601   4.0859425  70.0608335  62.0083161
   3.1770645  69.7767368  62.1055631   4.1154509  70.4807414  61.1486468
   9.3178693  73.6714925  65.7774329   8.8641020  72.8305834  65.8339519
   8.6872659  74.3076323  66.1149109   8.2611612  64.6006911  67.0074996
   7.5234369  64.0884297  67.3385239   8.5138386  64.1607292  66.1958273
   7.7611632  75.5091421  66.7124147   8.0534606  76.0696478  65.9936513
   8.2710253  75.8019982  67.4677306   8.3623240  57.3783163  67.6016766
   8.6682116  56.5180526  67.3142681   9.0875844  57.9700783  67.4015760
   2.6344319  67.6736956  68.1092957   2.6892929  66.7210792  68.0335433
   1.8235521  67.8296395  68.5934255   3.7835513  71.6017079  59.3471240
   3.3454943  70.8852938  58.8876877   4.5245954  71.8293194  58.7856331
   2.7245257  76.2871772  67.8017600   2.6821436  76.5132619  66.8726132
   3.6407956  76.0535147  67.9503401   6.1710891  66.7555840  74.6998229
   6.5260279  66.9827313  75.5592695   6.8183022  67.0874217  74.0775485
  11.9008628  69.8774276  65.4047558  11.7626526  70.0675872  64.4768748
  11.5444847  70.6393659  65.8615610  11.9278007  71.9450803  70.4158830
  12.3614514  71.8526092  71.2641884  12.6409588  71.9208303  69.7778846
   5.6605902  75.5452897  71.9491931   5.7142925  76.1143833  72.7169646
   4.7920684  75.7154782  71.5845968  12.7893557  71.9874503  72.9491715
  12.9829447  72.8920314  73.1950990  12.6894175  71.5281923  73.7830300
   4.4429868  61.8732394  75.4482043   3.7957783  62.5722344  75.3546519
   5.2130883  62.3068538  75.8158291   7.8508666  72.1381246  78.5232596
   7.6994172  71.9091798  77.6062680   7.8413345  73.0951848  78.5363941
   4.6194002  69.7113159  73.5078862   5.5486062  69.8624319  73.3347830
   4.1985032  69.7997180  72.6527509   3.4182334  73.7363823  71.2777400
   3.2793420  73.3682608  72.1503338   2.6296930  74.2511463  71.1061358
   4.0130486  78.8372920  62.6202937   4.1882242  78.3660963  63.4348559
   3.3263274  79.4638686  62.8484197   4.9687549  73.1145426  68.6666238
   4.6337382  73.0746196  69.5623888   4.4691495  72.4490142  68.1936648
   7.9046741  70.4601460  58.9403297   7.2875911  69.7348289  58.8436350
   7.4363229  71.2210821  58.5970372   1.5714094  68.2333015  73.6802499
   2.2813712  67.5926208  73.6389117   1.5283402  68.4845910  74.6028679
   9.5600872  75.1700369  76.6009078   9.5013419  74.4859589  75.9339661
   9.9620391  75.9119359  76.1489704   9.5618280  73.1339953  74.8323058
   8.6745058  72.7965874  74.9549456  10.1316831  72.4022984  75.0691823
   3.0919433  77.7941405  71.7984301   3.0189605  78.5996377  72.3103605
   2.6496826  77.9933371  70.9732322   2.8809213  77.0313175  65.3087122
   2.0976735  77.5734855  65.4025347   3.5801958  77.5487155  65.7081363
   6.1905863  62.8407805  67.9521328   6.6874562  62.0877767  67.6322398
   5.4192844  62.8772121  67.3864537  14.0435620  68.5448170  69.5939619
  14.0325496  69.4272885  69.2233552  13.1753000  68.1919721  69.3994156
   5.5518117  77.6928239  73.9542459   6.2646089  78.3275704  73.8818361
   5.0608145  77.7892105  73.1382461   7.2735643  71.5979492  65.5259751
   6.3391922  71.7180954  65.3564455   7.4512312  70.6951959  65.2619761
   2.7740832  64.9825188  67.6793012   2.4038619  64.4296228  68.3673918
   3.2699924  64.3783321  67.1268012  10.6608195  67.4396811  66.0609785
  11.1268647  68.2724803  65.9870088  11.1115695  66.9741793  66.7655044
   8.7284426  73.7840632  63.0595937   9.0044270  73.6697227  63.9689811
   7.8588925  73.3858117  63.0208110   8.6324858  59.8077398  70.1000687
   7.7187937  60.0381625  70.2682893   9.0617959  59.8915842  70.9514719
   8.4031316  67.9967290  72.6000581   7.7502766  68.2443197  71.9453033
   8.7811696  67.1831428  72.2663058   5.3638490  78.0326983  66.7028751
   5.5460884  77.2148639  67.1656503   6.1871476  78.2494675  66.2653641
   5.6980655  76.9595168  63.9643799   6.2268422  76.4487623  63.3513961
   5.9608875  76.6437699  64.8289332   4.4518889  68.7387101  79.0866618
   3.7759526  68.6381230  79.7568993   5.2746523  68.5826315  79.5502615
   3.1941672  80.0454028  73.3224234   3.7459980  80.2085650  74.0873319
   3.5347865  80.6358466  72.6504258   8.0452546  74.8715286  79.1772888
   8.5892450  75.4845244  78.6827843   7.4639391  75.4294864  79.6939901
   6.3310059  77.9936004  70.3087916   6.2061199  77.1925744  69.7998861
   6.9889150  78.4882197  69.8201886   8.3944968  75.7945024  71.9367466
   7.4475303  75.6750375  71.8645793   8.7427741  74.9067522  72.0193727
   0.7544541  61.6839163  75.7605708   1.2778943  61.9301460  76.5232017
   0.5356874  62.5159198  75.3408845   5.3991401  75.5897740  68.1371818
   5.2516363  74.6614448  68.3179388   6.2244894  75.6117831  67.6528893
   9.0025523  76.4126299  69.2236691   9.9272070  76.2069160  69.0861142
   8.8340826  76.1642700  70.1326032   1.9597086  62.6252858  73.4455378
   1.6193906  61.8260671  73.8476058   1.2536092  62.9254569  72.8732211
   2.6113558  59.7102171  71.8982701   3.4339627  59.2362649  71.7761592
   2.8551621  60.4892654  72.3981388   1.2521792  62.7390429  62.1945603
   1.9730155  63.1171682  61.6909320   0.6287096  63.4579306  62.2980581
   5.3952915  63.4435578  63.1303935   5.6116530  64.3260216  62.8292764
   4.9146982  63.0521791  62.4009577   1.9948519  63.3923839  69.7555569
   1.9810088  62.4964932  69.4187867   2.7120948  63.3994503  70.3893856
   3.8474650  63.8261179  71.8008697   3.5892428  64.7478250  71.7993027
   3.3159691  63.4291614  72.4909161   8.7920839  76.9311966  64.5798782
   8.9657716  76.3658389  63.8272635   9.2849730  77.7312861  64.3978272
   1.3985415  62.2738219  65.0243140   1.5201327  61.3454866  65.2234027
   1.1087458  62.2876905  64.1121455   4.2676606  59.9593130  68.1609859
   4.2898303  60.0232463  67.2061839   4.6844665  59.1197639  68.3550366
  14.6460230  69.6948389  66.1989082  15.0891376  68.9455715  65.8008205
  13.7686740  69.6858526  65.8162814   9.7796011  76.2478731  61.6795681
  10.4746916  76.8685424  61.8982995  10.1219162  75.3974082  61.9548058
  11.6787435  73.6978436  63.2083011  12.2038759  74.0365709  62.4832331
  11.5909787  72.7625452  63.0246146   3.3407483  77.6112510  75.3372888
   3.6494610  77.3661657  76.2095588   4.1382965  77.8159149  74.8491758
   3.3628095  79.7650420  67.5678265   2.9233086  79.2726798  68.2611121
   4.1136212  79.2223387  67.3270340   0.8826495  63.7870217  79.2333072
   0.9314650  64.6632340  78.8510842   1.4249009  63.2447610  78.6604715
  11.3681341  74.3311340  78.5134209  10.5776884  74.3135479  77.9738709
  11.1314695  74.8699634  79.2683246  11.4879216  71.1803806  75.8266938
  11.5377221  71.0153814  76.7682461  11.3793139  70.3131065  75.4364819
   8.7782978  67.1634734  77.1426245   9.6792841  67.0241199  76.8510242
   8.8530953  67.3289189  78.0824422   3.1125783  64.5401589  75.9879431
   2.2429093  64.8335155  75.7162019   3.3485264  65.1242034  76.7086695
  12.9897413  73.6000748  76.0708959  12.6982221  73.9630729  76.9072420
  12.3769544  72.8867756  75.8922291  14.1893095  71.1653628  68.5911530
  15.0239986  71.6043432  68.7549090  14.3252224  70.6892281  67.7719775
  11.2384601  68.7233363  74.5389017  11.7138722  68.9161009  73.7307869
  10.3150166  68.7792548  74.2932401   5.8164817  60.7581206  73.5044851
   6.3346761  61.4942233  73.1791340   5.4619950  61.0645199  74.3391610
   6.0677411  57.1781489  69.0245748   6.3479165  56.5104678  69.6506174
   6.8528018  57.3710584  68.5120412   3.8710880  76.3540483  60.5870774
   3.2984847  76.9730670  60.1341246   4.4443674  76.9039844  61.1210696
   9.9386270  65.5999123  72.7717323  10.8903693  65.6997220  72.7929547
   9.7689720  64.8077391  73.2815407   7.9600649  62.6854706  72.9576724
   7.3650581  62.9659719  72.2623213   7.6750346  63.1748607  73.7293465
   7.0908140  76.6377633  61.7179356   8.0238813  76.5723194  61.9212232
   7.0031353  77.4733900  61.2593889   9.7196156  75.9543503  58.6783304
   9.6409788  75.6203367  59.5719062  10.5405823  76.4465271  58.6774776
  12.4174348  68.8205242  71.8859623  12.3850668  67.8821243  72.0719306
  13.0274971  68.8989279  71.1525448   4.2557678  67.6901295  57.9286827
   5.2016783  67.5607503  57.9975245   3.8771923  66.9515957  58.4056255
  12.5668836  65.6116286  71.9317906  12.0507885  64.8274742  71.7447835
  13.4508785  65.2835002  72.0964425  10.2279563  59.3557301  67.8913718
  10.0304384  59.0472390  68.7757050  10.8379269  60.0818940  68.0211648
  18.2350897  69.8821249  71.0265659  18.9654286  69.6206537  71.5873363
  17.6257843  69.1449971  71.0667727  16.3166195  68.0229112  71.6240111
  15.5899358  67.8885077  71.0156602  15.9013481  68.3305940  72.4296829
   4.1396371  71.7419041  79.3887484   5.0599380  71.9197640  79.5827530
   4.1045954  70.7975087  79.2367183   2.4400596  65.6151272  57.8641712
   1.5332051  65.3184384  57.9404426   2.7176577  65.3181090  56.9975998
   4.0562661  60.1588161  64.0185953   3.2463390  59.8135246  64.3941199
   4.7447078  59.8495705  64.6073565   5.9853210  59.2366208  65.6410250
   6.5384248  59.6561662  66.3000273   6.2223296  58.3101956  65.6833206
   2.0086309  65.2253282  81.4213014   1.9083036  66.1747639  81.3525105
   1.7907851  64.8971521  80.5489084   1.2099380  62.4738207  58.0053691
   2.0718544  62.7993105  58.2649508   1.3949724  61.6869703  57.4926757
   9.3632017  61.3466733  65.1488914   8.7830686  62.0051537  64.7666967
   9.0967949  60.5244078  64.7376332   7.8135583  60.7471791  67.3510234
   8.3135361  60.8588326  66.5424553   8.4571191  60.4432844  67.9911043
   1.8717579  68.6550421  80.2378075   1.3884661  69.4550781  80.4441964
   1.9578518  68.6658366  79.2845519   8.1456895  63.5066824  64.2045262
   7.2582750  63.7916474  63.9865457   8.5610884  63.3460587  63.3572539
  11.4971431  63.5313345  67.9199602  12.2731821  64.0209797  68.1924218
  10.7719565  63.9571399  68.3771471  13.9343989  64.2440964  68.9773542
  14.5288480  64.0036700  68.2666850  14.0070573  63.5248095  69.6047079
   7.2900108  73.2711498  58.2993282   7.9935958  73.4761501  58.9150938
   6.5662757  73.8388260  58.5642366   8.1197918  69.0221360  64.4195553
   8.0633120  69.4789911  63.5803185   8.6726261  68.2612044  64.2418395
  11.9302724  64.8111092  65.2445672  11.6739659  64.4107727  66.0753880
  11.3055592  65.5254886  65.1195811  16.2415062  67.5507165  67.7516963
  15.6814620  67.6200354  68.5248525  15.6358566  67.3748149  67.0316460
   9.1986806  73.7094028  60.3491742  10.0332409  73.2775226  60.1669217
   9.0371148  73.5376041  61.2768637   8.8532698  70.2126141  61.7148082
   8.7981502  70.0470412  60.7736526   8.2278753  70.9202174  61.8710271
   6.1678605  72.5175053  81.0401644   7.0369765  72.6915705  80.6788279
   5.6885356  73.3369470  80.9177374   2.1628823  59.7134250  61.2933400
   2.1507493  60.6576090  61.4501671   3.0552245  59.5304395  60.9992861
   2.0918387  78.3903140  69.3801157   1.1414018  78.3905002  69.2665529
   2.3950873  77.6435875  68.8637191   5.9780943  56.3077027  65.5479337
   5.2113338  55.7535513  65.6936019   6.3891648  56.3798895  66.4093489
  17.8271081  84.2263679  70.4446919  18.4649491  84.1070426  69.7410259
  17.7091924  85.1744523  70.5034871  14.6360787  84.1791107  70.3808444
  14.2979298  84.0632172  69.4928979  15.5050555  83.7782272  70.3609450
  10.4947603  86.0326583  66.3705335   9.9312468  85.9416520  65.6021623
  10.3799998  85.2126488  66.8507827  15.1180570  85.3325959  76.3394649
  15.1069211  84.9378757  75.4675153  15.2801209  84.5992031  76.9328421
   8.0412035  87.5277775  69.2089555   8.8333326  87.1868600  68.7935855
   8.2808685  87.6372750  70.1291709  16.0747161  89.6997551  61.6819800
  15.4235141  90.2851631  61.2953813  16.8691524  90.2303746  61.7414837
  10.0002788  86.7886688  62.0806934  10.7733664  86.2415675  61.9419810
  10.3528187  87.6530937  62.2921395  11.8387831  88.1163070  75.2873833
  11.5477697  89.0208701  75.1720500  12.4744815  88.1579598  76.0017903
  12.7644038  85.4939919  71.8775193  13.3607610  85.2695941  71.1632156
  12.8219009  84.7524664  72.4800641  12.3369066  82.9479354  59.7125384
  12.5894587  82.4260876  58.9508847  11.3993625  82.7845500  59.8152068
  17.3812349  81.9515133  67.5200127  18.1675438  81.5334556  67.1690544
  17.6451053  82.8561225  67.6881776  17.5522426  87.3887983  62.2188784
  16.9168259  87.4622609  62.9309689  17.2219833  87.9781582  61.5407863
  22.7820776  81.8890366  68.4233106  23.5145948  81.3189583  68.6570935
  22.0260132  81.5011966  68.8639611  12.0565355  84.8507460  61.9149759
  11.9401613  84.1752364  62.5830843  12.1667615  84.3639834  61.0981912
  14.3996896  84.3117607  65.6196448  14.0355103  83.7848228  66.3309370
  15.2564012  83.9216076  65.4462934  20.3046197  75.6011940  72.8827714
  19.9729521  76.4707351  72.6588929  19.7091810  75.2848224  73.5621745
  14.0402383  79.3407507  60.6157797  14.2076785  80.2087743  60.9828268
  13.8499552  79.5034789  59.6919086  16.7977716  87.8024486  72.2823627
  16.4978439  88.7049525  72.1739434  16.4528776  87.5356669  73.1344780
  10.2490198  84.2538283  68.3160331   9.3240694  84.1214497  68.5238023
  10.4974611  85.0332502  68.8130274  20.1974860  80.3207026  69.9621064
  19.2891737  80.2522435  69.6679825  20.1462456  80.7978971  70.7902890
  14.0191604  81.7965165  61.6004463  13.8991229  82.2422215  62.4389944
  13.3244192  82.1450482  61.0418002   7.6099009  83.8971556  69.1504121
   7.7391390  84.1506035  70.0643532   6.9296460  84.4899264  68.8308776
  11.7798496  94.5668806  65.2494595  11.7022526  95.5176631  65.3283075
  11.1760140  94.2214679  65.9069521  14.2715726  81.7396672  77.9055962
  13.4949060  82.2990592  77.8958826  14.9106289  82.2253455  78.4270832
  22.0636506  78.5223465  71.7398938  21.4210887  78.8155998  71.0938733
  21.5591435  78.4076385  72.5452135  19.7176670  82.2686638  62.4284798
  20.6294526  82.5014024  62.2532495  19.2086317  82.8523682  61.8659876
  12.5262098  84.5482125  77.4673929  13.2676782  85.0867169  77.1908752
  11.8199083  85.1748414  77.6245480  18.0017438  86.6911266  76.0646090
  18.4100794  86.2493676  75.3200722  17.2794699  86.1163893  76.3180283
  14.3548508  81.6283872  73.4379647  15.2009703  82.0523286  73.5814296
  14.2947145  80.9717497  74.1318210  18.3246252  87.2512456  69.8198379
  17.6955115  87.4158170  69.1174447  17.9371914  87.6654066  70.5909343
  22.2035484  88.1866894  67.1742743  21.5186522  88.5665795  66.6239776
  22.2879334  88.7962221  67.9074691  17.5047953  79.2888241  75.0960821
  17.2608885  80.0430301  74.5595096  17.7807884  79.6673588  75.9308068
  19.4586416  85.8326853  73.7738086  19.6703311  86.4758613  73.0972467
  19.4116164  84.9989170  73.3060016  17.0612645  78.4444674  70.6774658
  16.1997124  78.7425927  70.9691396  17.0875079  78.6615073  69.7455691
  13.8774214  86.9886864  67.0848464  14.3412560  87.2674567  66.2953087
  13.6131012  86.0870309  66.9021555  10.7698295  86.5358346  70.0228227
  11.3399652  86.9645614  69.3845712  11.3606407  86.2540930  70.7212413
  12.8143100  83.1110017  63.8938029  13.5167144  83.5631060  64.3611956
  12.4823729  82.4693835  64.5217922  11.2623462  81.7021773  78.2689239
  10.6322122  82.3838054  78.5024635  11.1559550  81.5904855  77.3242377
   6.5568434  81.3693569  69.1955163   5.7667488  81.6251098  68.7195273
   7.0479682  82.1841907  69.3007203  20.5732244  88.7098808  71.9460444
  21.3949687  88.3078996  71.6643125  20.5694647  88.6067043  72.8976559
   8.5083180  81.7338149  66.1538640   7.7114343  81.8456843  66.6722135
   8.2808772  82.0724801  65.2879530  14.3388847  88.2582852  74.1021154
  14.4033280  88.7203259  74.9379326  13.6299771  87.6280217  74.2303464
   4.8406137  81.6224060  71.6270154   5.0914176  82.5071070  71.8927730
   5.3765686  81.4428661  70.8545245  28.6638237  85.0537557  68.2945415
  27.9101945  84.4844955  68.1389420  28.7985778  85.0200221  69.2416050
  14.0536865  89.9250959  63.9700134  13.9182540  90.7702495  64.3984982
  14.5946677  90.1270237  63.2066068  10.5404204  76.0042539  80.6314490
  10.1471150  75.4508738  81.3062134  11.3570345  76.3153118  81.0221007
   7.5066262  87.4426397  64.5428060   8.0190783  88.2369648  64.6933624
   8.1588975  86.7452688  64.4761661   9.3161147  90.5592154  66.6250813
   9.4927775  91.4810118  66.4371797  10.1117980  90.2450573  67.0545193
  13.4572165  77.4200418  78.2234746  14.1981879  78.0207571  78.1439209
  13.6890088  76.6778056  77.6652789   8.6013503  82.6056785  76.5012976
   8.4867019  81.7042043  76.8020075   7.7458021  82.8520482  76.1497792
  15.6805341  90.5474526  78.1000477  15.2369195  89.7610904  77.7821381
  16.3422555  90.7353676  77.4344367  10.4392462  92.0770327  72.6261155
  10.9899888  91.9487391  71.8538149   9.6003938  92.3765216  72.2756048
  17.7786579  90.8277326  76.1281878  17.7605055  91.6486207  75.6362147
  18.7006499  90.7031401  76.3532019  14.2359633  88.3421455  76.9705386
  14.7687970  87.5809743  76.7404694  13.7073715  88.0495107  77.7129541
  17.4029328  73.4481521  72.4999028  17.0593598  74.3383163  72.4238139
  17.7708291  73.2583179  71.6368613   5.4715179  85.7715052  65.3187630
   6.3090401  86.1812060  65.1021338   5.6493447  84.8314494  65.2887824
  17.3679611  83.4390132  61.0071463  16.8526235  84.2094737  61.2459850
  17.0956920  82.7655268  61.6304524  14.9526722  78.2839833  66.0656701
  14.0968319  77.8946683  65.8862340  15.3653674  78.3631794  65.2056487
  16.4825869  75.8186176  70.4648261  15.9790664  75.7816311  69.6516066
  16.7756476  76.7278919  70.5244918  12.7268755  75.9024906  69.4714443
  13.5921751  75.7067715  69.1120332  12.7946264  75.6735258  70.3983800
  22.3413885  86.1922487  62.9424637  21.5643328  85.8533646  62.4979799
  23.0205366  86.1975110  62.2679602  17.1565914  81.3117224  62.8331244
  16.8516050  81.6263373  63.6841387  18.1096356  81.3898644  62.8758577
  15.6012346  87.4707448  64.4824198  15.0733708  86.7360207  64.1697436
  15.0999849  88.2482124  64.2364167  20.5805192  85.6656468  69.5991245
  19.9228867  86.3555730  69.6871373  21.3845591  86.0552900  69.9425231
  10.3331074  78.1327114  66.8430810  10.9074826  77.9102295  66.1104003
  10.9202056  78.2015808  67.5959411  19.3910651  84.0200841  67.6495186
  19.9042533  84.6530833  68.1516896  20.0411875  83.4202036  67.2838546
  10.6600661  80.1631575  60.8626695   9.8237973  80.5006261  61.1835970
  10.5205431  80.0280555  59.9253832  12.6353741  75.0068363  65.5705879
  11.9818154  74.6917380  64.9462494  12.5934216  74.3844103  66.2965702
  13.7464946  85.2887658  57.4859171  12.8392008  85.0576911  57.6850320
  14.2435978  84.4925277  57.6733153  16.6533025  93.9985165  60.4055857
  15.9794724  94.3016862  61.0140815  17.0398847  94.8014245  60.0561314
  15.8691482  81.4950296  69.8953527  14.9514043  81.7165243  69.7375215
  16.2851625  81.5696607  69.0365234  16.6526530  82.8941712  65.0256207
  17.3998349  83.4063109  64.7163329  16.9218119  82.5725765  65.8860601
  14.9253180  85.3900253  62.0083161  14.0164399  85.1059286  62.1055631
  14.9548264  85.8099331  61.1486468  20.1572447  89.0006842  65.7774329
  19.7034774  88.1597752  65.8339519  19.5266414  89.6368241  66.1149109
  19.1005367  79.9298828  67.0074996  18.3628124  79.4176215  67.3385239
  19.3532140  79.4899210  66.1958273  18.6005386  90.8383339  66.7124147
  18.8928361  91.3988396  65.9936513  19.1104007  91.1311900  67.4677306
  19.2016994  72.7075080  67.6016766  19.5075871  71.8472444  67.3142681
  19.9269599  73.2992700  67.4015760   5.4941350  83.1105767  65.9898364
   5.2965750  82.5175128  65.2649430   4.9388014  82.8057977  66.7074302
  13.4738074  83.0028873  68.1092957  13.5286684  82.0502710  68.0335433
  12.6629276  83.1588312  68.5934255  14.6229268  86.9308996  59.3471240
  14.1848698  86.2144855  58.8876877  15.3639708  87.1585111  58.7856331
  11.4130434  81.6205933  65.8683336  10.5998299  81.9200104  66.2748528
  11.9089428  81.2261622  66.5857818  13.5639012  91.6163690  67.8017600
  13.5215190  91.8424536  66.8726132  14.4801710  91.3827065  67.9503401
  17.0104645  82.0847758  74.6998229  17.3654033  82.3119231  75.5592695
  17.6576777  82.4166134  74.0775485  22.7402382  85.2066193  65.4047558
  22.6020281  85.3967789  64.4768748  22.3838601  85.9685576  65.8615610
  10.9044508  79.1924289  71.4844571  11.5443888  79.0513048  70.7867534
  10.0722039  78.9058802  71.1083172  22.7671762  87.2742720  70.4158830
  23.2008269  87.1818010  71.2641884  23.4803343  87.2500221  69.7778846
  11.6804812  88.4926719  67.5979563  12.4745411  87.9977039  67.3962138
  10.9696505  87.9644582  67.2347269  16.4999657  90.8744815  71.9491931
  16.5536679  91.4435751  72.7169646  15.6314438  91.0446700  71.5845968
   7.9887576  82.6369801  63.6739316   7.0585164  82.5754256  63.8909278
   8.0845048  82.1145754  62.8775957   7.9073125  79.1624614  66.2617557
   8.1679942  80.0769947  66.1526718   8.7290297  78.6949056  66.4114170
   9.3798050  80.5762371  73.4316382  10.0521104  80.3679733  72.7829031
   8.5527837  80.3784457  72.9921614  23.6287312  87.3166421  72.9491715
  23.8223202  88.2212232  73.1950990  23.5287930  86.8573840  73.7830300
  15.2823622  77.2024312  75.4482043  14.6351537  77.9014261  75.3546519
  16.0524638  77.6360456  75.8158291  18.6902420  87.4673164  78.5232596
  18.5387927  87.2383716  77.6062680  18.6807100  88.4243765  78.5363941
  15.4587757  85.0405077  73.5078862  16.3879817  85.1916236  73.3347830
  15.0378787  85.1289097  72.6527509  14.2576088  89.0655741  71.2777400
  14.1187174  88.6974525  72.1503338  13.4690685  89.5803380  71.1061358
  14.8524240  94.1664838  62.6202937  15.0275996  93.6952881  63.4348559
  14.1657028  94.7930604  62.8484197  15.8081304  88.4437344  68.6666238
  15.4731136  88.4038114  69.5623888  15.3085249  87.7782060  68.1936648
   9.7825548  83.8504974  74.1918819   9.6445345  83.1185213  74.7930358
  10.6930471  83.7613874  73.9103007  18.7440495  85.7893378  58.9403297
  18.1269666  85.0640206  58.8436350  18.2756984  86.5502738  58.5970372
  12.4107848  83.5624933  73.6802499  13.1207467  82.9218125  73.6389117
  12.3677156  83.8137828  74.6028679  20.3994627  90.4992286  76.6009078
  20.3407173  89.8151507  75.9339661  20.8014145  91.2411276  76.1489704
  11.1236782  80.5490151  75.4998138  10.5874139  80.0980889  76.1519734
  10.5353491  80.6836060  74.7568602   9.4185326  97.3154200  69.3942797
   9.6581924  97.9472724  70.0721815   8.5754522  96.9642240  69.6808156
  10.5339041  80.0078802  58.0624602   9.6568507  79.8867603  57.6986848
  11.0096794  79.2164881  57.8103490  20.4012034  88.4631870  74.8323058
  19.5138813  88.1257792  74.9549456  20.9710585  87.7314902  75.0691823
   2.0541181  84.7955962  68.1566109   2.7412221  84.4817692  67.5687124
   1.8989310  85.6997327  67.8833360   6.8575903  79.6846159  72.5851133
   6.7734092  79.0771828  71.8501543   6.0358610  80.1755177  72.5860629
  13.9313188  93.1233323  71.7984301  13.8583359  93.9288294  72.3103605
  13.4890581  93.3225289  70.9732322  13.7202967  92.3605093  65.3087122
  12.9370489  92.9026773  65.4025347  14.4195712  92.8779072  65.7081363
  17.0299617  78.1699722  67.9521328  17.5268317  77.4169685  67.6322398
  16.2586599  78.2064039  67.3864537  24.8829375  83.8740088  69.5939619
  24.8719251  84.7564803  69.2233552  24.0146754  83.5211639  69.3994156
  16.3911871  93.0220157  73.9542459  17.1039843  93.6567622  73.8818361
  15.9001900  93.1184023  73.1382461  18.1129398  86.9271409  65.5259751
  17.1785677  87.0472872  65.3564455  18.2906066  86.0243876  65.2619761
  13.6134586  80.3117105  67.6793012  13.2432374  79.7588146  68.3673918
  14.1093678  79.7075239  67.1268012  21.5001949  82.7688729  66.0609785
  21.9662401  83.6016720  65.9870088  21.9509450  82.3033710  66.7655044
  11.4423785  90.7714600  74.7748030  12.1433244  91.4051083  74.9277424
  10.9718900  91.1129332  74.0143669  19.5678180  89.1132550  63.0595937
  19.8438024  88.9989145  63.9689811  18.6982679  88.7150035  63.0208110
  19.4718612  75.1369316  70.1000687  18.5581692  75.3673543  70.2682893
  19.9011714  75.2207760  70.9514719  19.2425071  83.3259208  72.6000581
  18.5896521  83.5735115  71.9453033  19.6205450  82.5123346  72.2663058
  16.2032244  93.3618901  66.7028751  16.3854639  92.5440557  67.1656503
  17.0265230  93.5786593  66.2653641  16.5374410  92.2887086  63.9643799
  17.0662176  91.7779541  63.3513961  16.8002629  91.9729616  64.8289332
  15.2912644  84.0679019  79.0866618  14.6153281  83.9673148  79.7568993
  16.1140277  83.9118232  79.5502615   7.0391503  90.3050955  71.7079133
   7.6244939  89.5594643  71.8407037   6.8416341  90.6154912  72.5915797
   9.8930158  93.3402203  66.7241575   9.2240533  93.8248330  66.2405615
   9.7543028  93.5871423  67.6384954   1.6309157  82.8756555  70.4283576
   1.6693257  82.3420146  71.2220694   1.1249450  82.3491761  69.8094553
  14.0335426  95.3745946  73.3224234  14.5853734  95.5377568  74.0873319
  14.3741620  95.9650384  72.6504258   9.0099920  77.7221096  73.9246118
   9.0741246  78.5835927  73.5123516   8.9467040  77.1095098  73.1918477
   8.4852192  79.7944229  77.5719153   9.1124231  79.4121306  78.1856677
   7.6280111  79.5758430  77.9374845  18.8846301  90.2007204  79.1772888
  19.4286205  90.8137162  78.6827843  18.3033146  90.7586782  79.6939901
   5.2617735  81.6020658  63.5037507   5.5571176  80.6931336  63.4504561
   4.3605771  81.5808397  63.1818510  17.1703814  93.3227922  70.3087916
  17.0454953  92.5217662  69.7998861  17.8282905  93.8174115  69.8201886
   8.7911982  79.6776654  69.4865056   8.0698568  80.2912622  69.3472529
   9.5805238  80.2134419  69.4081702  19.2338722  91.1236942  71.9367466
  18.2869058  91.0042293  71.8645793  19.5821495  90.2359440  72.0193727
  11.5938295  77.0131081  75.7605708  12.1172697  77.2593377  76.5232017
  11.3750629  77.8451116  75.3408845   6.9905577  79.2834755  63.6276833
   6.6618283  78.4032134  63.4451938   7.3444947  79.2282424  64.5153222
  16.2385155  90.9189658  68.1371818  16.0910118  89.9906365  68.3179388
  17.0638649  90.9409749  67.6528893  10.1047400  79.5707725  63.9952310
  10.4443472  80.0993646  63.2730919  10.5519520  79.9088131  64.7710877
  19.8419277  91.7418217  69.2236691  20.7665825  91.5361078  69.0861142
  19.6734581  91.4934618  70.1326032  12.7990841  77.9544776  73.4455378
  12.4587661  77.1552589  73.8476058  12.0929847  78.2546487  72.8732211
  13.4507312  75.0394088  71.8982701  14.2733382  74.5654566  71.7761592
  13.6945376  75.8184572  72.3981388  12.0915547  78.0682347  62.1945603
  12.8123909  78.4463599  61.6909320  11.4680851  78.7871223  62.2980581
  16.2346670  78.7727496  63.1303935  16.4510284  79.6552134  62.8292764
  15.7540737  78.3813709  62.4009577  10.9745891  81.7313209  69.7074680
  10.8290472  82.0453512  70.5998961  10.4971095  82.3498109  69.1545579
  12.8342274  78.7215757  69.7555569  12.8203843  77.8256850  69.4187867
  13.5514702  78.7286421  70.3893856  14.6868405  79.1553097  71.8008697
  14.4286183  80.0770168  71.7993027  14.1553445  78.7583532  72.4909161
  19.6314593  92.2603884  64.5798782  19.8051471  91.6950307  63.8272635
  20.1243485  93.0604779  64.3978272   5.4491553  84.2718553  72.6462341
   4.9045021  85.0478361  72.7782615   6.3270903  84.6189358  72.4881463
  12.2379170  77.6030137  65.0243140  12.3595081  76.6746783  65.2234027
  11.9481212  77.6168823  64.1121455  15.1070360  75.2885048  68.1609859
  15.1292057  75.3524381  67.2061839  15.5238419  74.4489556  68.3550366
  25.4853985  85.0240307  66.1989082  25.9285131  84.2747632  65.8008205
  24.6080495  85.0150443  65.8162814  20.6189766  91.5770649  61.6795681
  21.3140671  92.1977341  61.8982995  20.9612916  90.7266000  61.9548058
   6.2357575  83.3988450  75.5392498   5.4939311  83.5471085  76.1257128
   5.9150319  83.6596715  74.6759247  22.5181189  89.0270354  63.2083011
  23.0432513  89.3657627  62.4832331  22.4303542  88.0917369  63.0246146
  14.1801238  92.9404428  75.3372888  14.4888364  92.6953575  76.2095588
  14.9776720  93.1451066  74.8491758  14.2021850  95.0942337  67.5678265
  13.7626840  94.6018716  68.2611121  14.9529967  94.5515305  67.3270340
   6.6814189  91.2853878  67.5702893   7.5072209  90.9857650  67.1901536
   6.3308241  90.5161501  68.0192681  11.6495722  90.6380346  69.6400566
  11.0275731  89.9751052  69.3402794  12.3200589  90.6641478  68.9574214
   4.8822794  89.2040205  68.5291826   4.0454702  88.7762379  68.3475827
   4.8546439  89.3972648  69.4662617  11.7220249  79.1162135  79.2333072
  11.7708405  79.9924257  78.8510842  12.2642764  78.5739528  78.6604715
  22.2075095  89.6603258  78.5134209  21.4170639  89.6427397  77.9738709
  21.9708450  90.1991551  79.2683246  22.3272970  86.5095724  75.8266938
  22.3770975  86.3445732  76.7682461  22.2186894  85.6422983  75.4364819
  11.2109229  89.1884270  63.1159027  11.3597349  89.8719734  62.4625700
  12.0175672  89.1689360  63.6308482  19.6176733  82.4926652  77.1426245
  20.5186595  82.3533117  76.8510242  19.6924707  82.6581107  78.0824422
  13.9519538  79.8693507  75.9879431  13.0822847  80.1627073  75.7162019
  14.1879018  80.4533952  76.7086695  23.8291167  88.9292666  76.0708959
  23.5375975  89.2922646  76.9072420  23.2163298  88.2159674  75.8922291
  25.0286849  86.4945545  68.5911530  25.8633741  86.9335349  68.7549090
  25.1645978  86.0184199  67.7719775  22.0778355  84.0525280  74.5389017
  22.5532477  84.2452927  73.7307869  21.1543921  84.1084466  74.2932401
   8.9661862  85.2149447  64.1220096   8.7207904  84.3111777  64.3200306
   9.1357776  85.2166598  63.1799574  16.6558572  76.0873124  73.5044851
  17.1740516  76.8234151  73.1791340  16.3013705  76.3937117  74.3391610
   8.2357509  80.9477805  61.6206257   7.5426754  81.0222160  60.9646293
   7.9909261  80.1838149  62.1427774  16.9071166  72.5073406  69.0245748
  17.1872920  71.8396595  69.6506174  17.6921773  72.7002502  68.5120412
  14.7104634  91.6832400  60.5870774  14.1378601  92.3022587  60.1341246
  15.2837428  92.2331762  61.1210696  20.7780024  80.9291040  72.7717323
  21.7297447  81.0289138  72.7929547  20.6083475  80.1369309  73.2815407
  18.7994404  78.0146624  72.9576724  18.2044336  78.2951636  72.2623213
  18.5144100  78.5040525  73.7293465  17.9301894  91.9669550  61.7179356
  18.8632567  91.9015112  61.9212232  17.8425107  92.8025817  61.2593889
  20.5589911  91.2835421  58.6783304  20.4803542  90.9495284  59.5719062
  21.3799578  91.7757189  58.6774776  23.2568102  84.1497160  71.8859623
  23.2244422  83.2113161  72.0719306  23.8668726  84.2281197  71.1525448
  15.0951433  83.0193213  57.9286827  16.0410538  82.8899421  57.9975245
  14.7165678  82.2807875  58.4056255  23.4062591  80.9408203  71.9317906
  22.8901639  80.1566660  71.7447835  24.2902539  80.6126920  72.0964425
  21.0673317  74.6849219  67.8913718  20.8698139  74.3764307  68.7757050
  21.6773023  75.4110858  68.0211648  29.0744652  85.2113167  71.0265659
  29.8048040  84.9498455  71.5873363  28.4651597  84.4741889  71.0667727
  27.1559949  83.3521029  71.6240111  26.4293113  83.2176994  71.0156602
  26.7407236  83.6597858  72.4296829  14.9790125  87.0710959  79.3887484
  15.8993135  87.2489558  79.5827530  14.9439708  86.1267005  79.2367183
  13.2794350  80.9443189  57.8641712  12.3725805  80.6476302  57.9404426
  13.5570331  80.6473007  56.9975998   4.1972290  82.2649553  68.3140758
   3.8775075  81.4114861  68.0215132   3.6505719  82.4798131  69.0698726
   7.9752198  84.9811994  72.0310265   8.1938208  85.9129102  72.0498299
   8.3877972  84.6219968  72.8165069  14.8956416  75.4880079  64.0185953
  14.0857144  75.1427164  64.3941199  15.5840833  75.1787623  64.6073565
  16.8246964  74.5658126  65.6410250  17.3778003  74.9853579  66.3000273
  17.0617050  73.6393874  65.6833206  12.8480063  80.5545200  81.4213014
  12.7476790  81.5039557  81.3525105  12.6301605  80.2263438  80.5489084
  12.0493135  77.8030125  58.0053691  12.9112299  78.1285023  58.2649508
  12.2343479  77.0161621  57.4926757   4.0660550  85.8852464  70.2833880
   3.3724022  85.4706417  69.7703834   4.8133541  85.9273001  69.6867299
  20.2025771  76.6758651  65.1488914  19.6224440  77.3343455  64.7666967
  19.9361704  75.8535996  64.7376332  18.6529338  76.0763709  67.3510234
  19.1529116  76.1880243  66.5424553  19.2964945  75.7724762  67.9911043
  12.7111333  83.9842338  80.2378075  12.2278415  84.7842699  80.4441964
  12.7972272  83.9950283  79.2845519   5.9797293  85.8170718  68.1599895
   5.9567981  85.9158405  67.2081778   6.2897929  86.6635869  68.4817061
   8.6384671  87.8746873  72.2746509   9.5927924  87.8430815  72.2076441
   8.4397194  87.4137497  73.0896735   9.2284053  86.4447989  74.8417307
  10.0476942  86.9392068  74.8652144   9.5020861  85.5279957  74.8134874
  18.9850649  78.8358741  64.2045262  18.0976504  79.1208392  63.9865457
  19.4004638  78.6752505  63.3572539  22.3365185  78.8605262  67.9199602
  23.1125575  79.3501715  68.1924218  21.6113319  79.2863317  68.3771471
  24.7737744  79.5732882  68.9773542  25.3682235  79.3328618  68.2666850
  24.8464328  78.8540012  69.6047079   6.9934900  93.4166493  69.2916707
   6.8589368  92.6566893  68.7254705   6.5766962  94.1407392  68.8245496
  18.1293863  88.6003416  58.2993282  18.8329713  88.8053419  58.9150938
  17.4056511  89.1680178  58.5642366  18.9591673  84.3513277  64.4195553
  18.9026874  84.8081829  63.5803185  19.5120015  83.5903962  64.2418395
  22.7696479  80.1403009  65.2445672  22.5133413  79.7399645  66.0753880
  22.1449347  80.8546803  65.1195811  27.0808817  82.8799083  67.7516963
  26.5208375  82.9492272  68.5248525  26.4752320  82.7040067  67.0316460
  10.1504025  94.3135810  69.5035150  10.0336410  95.2581242  69.4013840
   9.3296472  94.0109371  69.8920949  20.0380560  89.0385945  60.3491742
  20.8726164  88.6067144  60.1669217  19.8764903  88.8667959  61.2768637
  19.6926452  85.5418059  61.7148082  19.6375256  85.3762330  60.7736526
  19.0672507  86.2494092  61.8710271   4.4818967  80.7786123  75.5409504
   5.1277831  80.2685077  76.0296729   4.2736118  81.5154805  76.1152929
  17.0072359  87.8466971  81.0401644  17.8763519  88.0207623  80.6788279
  16.5279111  88.6661387  80.9177374  13.0022578  75.0426168  61.2933400
  12.9901248  75.9868008  61.4501671  13.8946000  74.8596313  60.9992861
  11.1758540  94.9664072  72.7191078  12.0785786  94.9987682  73.0357573
  10.9495910  94.0364522  72.7337414  12.9312142  93.7195058  69.3801157
  11.9807773  93.7196920  69.2665529  13.2344628  92.9727793  68.8637191
  16.8174697  71.6368944  65.5479337  16.0507093  71.0827431  65.6936019
  17.2285402  71.7090813  66.4093489   8.8216458  77.9253740  79.6384518
   9.6847920  77.5690545  79.8487843   8.2481869  77.5867635  80.3259922
  28.6664835  99.5555596  70.4446919  29.3043245  99.4362344  69.7410259
  28.5485678 100.5036440  70.5034871  25.4754541  99.5083025  70.3808444
  25.1373053  99.3924089  69.4928979  26.3444310  99.1074190  70.3609450
  21.3341357 101.3618501  66.3705335  20.7706222 101.2708438  65.6021623
  21.2193752 100.5418405  66.8507827  25.9574324 100.6617876  76.3394649
  25.9462965 100.2670675  75.4675153  26.1194964  99.9283949  76.9328421
  18.8805789 102.8569693  69.2089555  19.6727081 102.5160517  68.7935855
  19.1202439 102.9664668  70.1291709  26.9140916 105.0289469  61.6819800
  26.2628896 105.6143549  61.2953813  27.7085279 105.5595664  61.7414837
  20.8396543 102.1178606  62.0806934  21.6127419 101.5707593  61.9419810
  21.1921942 102.9822855  62.2921395  22.6781586 103.4454988  75.2873833
  22.3871452 104.3500619  75.1720500  23.3138570 103.4871516  76.0017903
  23.6037792 100.8231837  71.8775193  24.2001365 100.5987859  71.1632156
  23.6612764 100.0816582  72.4800641  23.1762821  98.2771272  59.7125384
  23.4288341  97.7552793  58.9508847  22.2387380  98.1137417  59.8152068
  28.2206104  97.2807050  67.5200127  29.0069193  96.8626473  67.1690544
  28.4844808  98.1853142  67.6881776  28.3916181 102.7179901  62.2188784
  27.7562014 102.7914527  62.9309689  28.0613587 103.3073499  61.5407863
  33.6214531  97.2182284  68.4233106  34.3539703  96.6481500  68.6570935
  32.8653886  96.8303884  68.8639611  22.8959110 100.1799378  61.9149759
  22.7795368  99.5044281  62.5830843  23.0061369  99.6931752  61.0981912
  25.2390650  99.6409525  65.6196448  24.8748858  99.1140146  66.3309370
  26.0957766  99.2507994  65.4462934  31.1439951  90.9303858  72.8827714
  30.8123276  91.7999269  72.6588929  30.5485564  90.6140142  73.5621745
  24.8796137  94.6699425  60.6157797  25.0470540  95.5379661  60.9828268
  24.6893307  94.8326706  59.6919086  27.6371471 103.1316404  72.2823627
  27.3372194 104.0341442  72.1739434  27.2922530 102.8648587  73.1344780
  21.0883952  99.5830200  68.3160331  20.1634449  99.4506415  68.5238023
  21.3368365 100.3624420  68.8130274  31.0368614  95.6498944  69.9621064
  30.1285492  95.5814352  69.6679825  30.9856210  96.1270889  70.7902890
  24.8585358  97.1257082  61.6004463  24.7384984  97.5714133  62.4389944
  24.1637947  97.4742400  61.0418002  18.4492763  99.2263474  69.1504121
  18.5785144  99.4797953  70.0643532  17.7690214  99.8191182  68.8308776
  22.6192250 109.8960724  65.2494595  22.5416280 110.8468549  65.3283075
  22.0153894 109.5506596  65.9069521  25.1109480  97.0688589  77.9055962
  24.3342814  97.6282510  77.8958826  25.7500043  97.5545372  78.4270832
  32.9030261  93.8515382  71.7398938  32.2604641  94.1447915  71.0938733
  32.3985189  93.7368303  72.5452135  30.5570424  97.5978555  62.4284798
  31.4688281  97.8305942  62.2532495  30.0480072  98.1815600  61.8659876
  23.3655853  99.8774043  77.4673929  24.1070537 100.4159087  77.1908752
  22.6592838 100.5040331  77.6245480  28.8411192 102.0203183  76.0646090
  29.2494548 101.5785594  75.3200722  28.1188454 101.4455811  76.3180283
  25.1942262  96.9575790  73.4379647  26.0403457  97.3815204  73.5814296
  25.1340900  96.3009414  74.1318210  29.1640007 102.5804374  69.8198379
  28.5348869 102.7450088  69.1174447  28.7765669 102.9945983  70.5909343
  33.0429239 103.5158812  67.1742743  32.3580277 103.8957713  66.6239776
  33.1273088 104.1254138  67.9074691  28.3441708  94.6180158  75.0960821
  28.1002639  95.3722219  74.5595096  28.6201638  94.9965506  75.9308068
  30.2980170 101.1618771  73.7738086  30.5097066 101.8050531  73.0972467
  30.2509919 100.3281087  73.3060016  27.9006399  93.7736591  70.6774658
  27.0390878  94.0717845  70.9691396  27.9268834  93.9906990  69.7455691
  24.7167969 102.3178782  67.0848464  25.1806314 102.5966485  66.2953087
  24.4524767 101.4162226  66.9021555  21.6092050 101.8650263  70.0228227
  22.1793407 102.2937532  69.3845712  22.2000162 101.5832848  70.7212413
  23.6536855  98.4401934  63.8938029  24.3560898  98.8922978  64.3611956
  23.3217483  97.7985753  64.5217922  22.1017216  97.0313691  78.2689239
  21.4715877  97.7129972  78.5024635  21.9953304  96.9196773  77.3242377
  17.3962189  96.6985487  69.1955163  16.6061243  96.9543015  68.7195273
  17.8873436  97.5133825  69.3007203  31.4125998 104.0390726  71.9460444
  32.2343442 103.6370913  71.6643125  31.4088401 103.9358960  72.8976559
  19.3476934  97.0630066  66.1538640  18.5508097  97.1748760  66.6722135
  19.1202526  97.4016718  65.2879530  25.1782602 103.5874769  74.1021154
  25.2427034 104.0495177  74.9379326  24.4693526 102.9572134  74.2303464
  15.6799892  96.9515977  71.6270154  15.9307930  97.8362987  71.8927730
  16.2159440  96.7720579  70.8545245  39.5031991 100.3829475  68.2945415
  38.7495700  99.8136873  68.1389420  39.6379533 100.3492139  69.2416050
  24.8930619 105.2542877  63.9700134  24.7576294 106.0994413  64.3984982
  25.4340432 105.4562155  63.2066068  21.3797959  91.3334457  80.6314490
  20.9864905  90.7800655  81.3062134  22.1964099  91.6445035  81.0221007
  18.3460017 102.7718315  64.5428060  18.8584537 103.5661565  64.6933624
  18.9982730 102.0744605  64.4761661  20.1554901 105.8884071  66.6250813
  20.3321530 106.8102036  66.4371797  20.9511735 105.5742490  67.0545193
  24.2965920  92.7492336  78.2234746  25.0375633  93.3499489  78.1439209
  24.5283843  92.0069974  77.6652789  19.4407258  97.9348703  76.5012976
  19.3260773  97.0333960  76.8020075  18.5851776  98.1812400  76.1497792
  26.5199096 105.8766443  78.1000477  26.0762950 105.0902822  77.7821381
  27.1816309 106.0645594  77.4344367  21.2786217 107.4062245  72.6261155
  21.8293642 107.2779308  71.8538149  20.4397693 107.7057134  72.2756048
  28.6180334 106.1569243  76.1281878  28.5998809 106.9778124  75.6362147
  29.5400254 106.0323319  76.3532019  25.0753388 103.6713373  76.9705386
  25.6081725 102.9101661  76.7404694  24.5467469 103.3787025  77.7129541
  28.2423083  88.7773439  72.4999028  27.8987352  89.6675080  72.4238139
  28.6102046  88.5875096  71.6368613  16.3108934 101.1006969  65.3187630
  17.1484156 101.5103978  65.1021338  16.4887201 100.1606411  65.2887824
  28.2073366  98.7682050  61.0071463  27.6919989  99.5386655  61.2459850
  27.9350674  98.0947186  61.6304524  25.7920477  93.6131751  66.0656701
  24.9362073  93.2238601  65.8862340  26.2047428  93.6923711  65.2056487
  27.3219623  91.1478094  70.4648261  26.8184419  91.1108229  69.6516066
  27.6150230  92.0570837  70.5244918  23.5662509  91.2316824  69.4714443
  24.4315506  91.0359632  69.1120332  23.6340018  91.0027175  70.3983800
  33.1807640 101.5214405  62.9424637  32.4037083 101.1825564  62.4979799
  33.8599121 101.5267028  62.2679602  27.9959669  96.6409142  62.8331244
  27.6909804  96.9555291  63.6841387  28.9490111  96.7190562  62.8758577
  26.4406101 102.7999365  64.4824198  25.9127462 102.0652125  64.1697436
  25.9393603 103.5774042  64.2364167  31.4198947 100.9948386  69.5991245
  30.7622621 101.6847647  69.6871373  32.2239346 101.3844818  69.9425231
  21.1724828  93.4619032  66.8430810  21.7468580  93.2394213  66.1104003
  21.7595811  93.5307726  67.5959411  30.2304405  99.3492758  67.6495186
  30.7436287  99.9822750  68.1516896  30.8805629  98.7493954  67.2838546
  21.4994415  95.4923493  60.8626695  20.6631728  95.8298179  61.1835970
  21.3599185  95.3572472  59.9253832  23.4747496  90.3360280  65.5705879
  22.8211908  90.0209298  64.9462494  23.4327970  89.7136021  66.2965702
  24.5858701 100.6179576  57.4859171  23.6785763 100.3868829  57.6850320
  25.0829733  99.8217195  57.6733153  27.4926780 109.3277083  60.4055857
  26.8188478 109.6308780  61.0140815  27.8792602 110.1306163  60.0561314
  26.7085236  96.8242214  69.8953527  25.7907798  97.0457161  69.7375215
  27.1245380  96.8988525  69.0365234  27.4920284  98.2233630  65.0256207
  28.2392103  98.7355027  64.7163329  27.7611874  97.9017682  65.8860601
  25.7646934 100.7192170  62.0083161  24.8558154 100.4351203  62.1055631
  25.7942018 101.1391249  61.1486468  30.9966202 104.3298760  65.7774329
  30.5428529 103.4889670  65.8339519  30.3660168 104.9660158  66.1149109
  29.9399121  95.2590746  67.0074996  29.2021878  94.7468132  67.3385239
  30.1925895  94.8191128  66.1958273  29.4399141 106.1675257  66.7124147
  29.7322115 106.7280314  65.9936513  29.9497761 106.4603818  67.4677306
  30.0410749  88.0366998  67.6016766  30.3469625  87.1764361  67.3142681
  30.7663353  88.6284618  67.4015760  16.3335105  98.4397685  65.9898364
  16.1359504  97.8467045  65.2649430  15.7781769  98.1349895  66.7074302
  24.3131828  98.3320791  68.1092957  24.3680438  97.3794627  68.0335433
  23.5023030  98.4880230  68.5934255  25.4623022 102.2600914  59.3471240
  25.0242452 101.5436773  58.8876877  26.2033463 102.4877029  58.7856331
  22.2524188  96.9497851  65.8683336  21.4392054  97.2492021  66.2748528
  22.7483182  96.5553540  66.5857818  24.4032766 106.9455608  67.8017600
  24.3608945 107.1716454  66.8726132  25.3195465 106.7118982  67.9503401
  27.8498400  97.4139675  74.6998229  28.2047788  97.6411148  75.5592695
  28.4970531  97.7458052  74.0775485  33.5796137 100.5358111  65.4047558
  33.4414035 100.7259707  64.4768748  33.2232356 101.2977494  65.8615610
  21.7438263  94.5216206  71.4844571  22.3837642  94.3804965  70.7867534
  20.9115794  94.2350720  71.1083172  33.6065516 102.6034638  70.4158830
  34.0402023 102.5109927  71.2641884  34.3197097 102.5792139  69.7778846
  22.5198567 103.8218637  67.5979563  23.3139165 103.3268957  67.3962138
  21.8090259 103.2936500  67.2347269  27.3393411 106.2036732  71.9491931
  27.3930434 106.7727669  72.7169646  26.4708193 106.3738617  71.5845968
  18.8281330  97.9661718  63.6739316  17.8978918  97.9046174  63.8909278
  18.9238802  97.4437671  62.8775957  18.7466879  94.4916531  66.2617557
  19.0073697  95.4061865  66.1526718  19.5684052  94.0240974  66.4114170
  20.2191805  95.9054288  73.4316382  20.8914858  95.6971651  72.7829031
  19.3921591  95.7076374  72.9921614  34.4681066 102.6458339  72.9491715
  34.6616956 103.5504149  73.1950990  34.3681684 102.1865758  73.7830300
  26.1217377  92.5316229  75.4482043  25.4745292  93.2306179  75.3546519
  26.8918392  92.9652373  75.8158291  29.5296175 102.7965082  78.5232596
  29.3781681 102.5675633  77.6062680  29.5200854 103.7535683  78.5363941
  26.2981511 100.3696994  73.5078862  27.2273571 100.5208154  73.3347830
  25.8772541 100.4581015  72.6527509  25.0969843 104.3947659  71.2777400
  24.9580929 104.0266443  72.1503338  24.3084439 104.9095298  71.1061358
  25.6917995 109.4956755  62.6202937  25.8669751 109.0244798  63.4348559
  25.0050783 110.1222521  62.8484197  26.6475058 103.7729261  68.6666238
  26.3124891 103.7330031  69.5623888  26.1479004 103.1073977  68.1936648
  20.6219302  99.1796891  74.1918819  20.4839100  98.4477130  74.7930358
  21.5324225  99.0905792  73.9103007  29.5834250 101.1185296  58.9403297
  28.9663420 100.3932124  58.8436350  29.1150738 101.8794656  58.5970372
  23.2501603  98.8916851  73.6802499  23.9601221  98.2510043  73.6389117
  23.2070911  99.1429746  74.6028679  31.2388381 105.8284204  76.6009078
  31.1800927 105.1443424  75.9339661  31.6407900 106.5703194  76.1489704
  21.9630537  95.8782069  75.4998138  21.4267894  95.4272807  76.1519734
  21.3747245  96.0127977  74.7568602  20.2579080 112.6446118  69.3942797
  20.4975678 113.2764642  70.0721815  19.4148277 112.2934158  69.6808156
  21.3732796  95.3370720  58.0624602  20.4962262  95.2159521  57.6986848
  21.8490549  94.5456798  57.8103490  31.2405789 103.7923788  74.8323058
  30.3532567 103.4549710  74.9549456  31.8104340 103.0606819  75.0691823
  12.8934936 100.1247880  68.1566109  13.5805976  99.8109610  67.5687124
  12.7383064 101.0289244  67.8833360  17.6969658  95.0138076  72.5851133
  17.6127847  94.4063746  71.8501543  16.8752364  95.5047095  72.5860629
  24.7706942 108.4525240  71.7984301  24.6977113 109.2580212  72.3103605
  24.3284335 108.6517206  70.9732322  24.5596722 107.6897010  65.3087122
  23.7764244 108.2318691  65.4025347  25.2589467 108.2070990  65.7081363
  27.8693372  93.4991640  67.9521328  28.3662071  92.7461602  67.6322398
  27.0980353  93.5355957  67.3864537  35.7223129  99.2032005  69.5939619
  35.7113005 100.0856721  69.2233552  34.8540509  98.8503556  69.3994156
  27.2305626 108.3512074  73.9542459  27.9433598 108.9859539  73.8818361
  26.7395654 108.4475940  73.1382461  28.9523152 102.2563327  65.5259751
  28.0179431 102.3764790  65.3564455  29.1299821 101.3535794  65.2619761
  24.4528340  95.6409023  67.6793012  24.0826128  95.0880063  68.3673918
  24.9487433  95.0367156  67.1268012  32.3395704  98.0980646  66.0609785
  32.8056156  98.9308638  65.9870088  32.7903204  97.6325628  66.7655044
  22.2817539 106.1006518  74.7748030  22.9826999 106.7343001  74.9277424
  21.8112654 106.4421249  74.0143669  30.4071935 104.4424468  63.0595937
  30.6831779 104.3281062  63.9689811  29.5376434 104.0441953  63.0208110
  30.3112367  90.4661233  70.1000687  29.3975446  90.6965460  70.2682893
  30.7405468  90.5499677  70.9514719  30.0818825  98.6551125  72.6000581
  29.4290275  98.9027033  71.9453033  30.4599205  97.8415264  72.2663058
  27.0425999 108.6910819  66.7028751  27.2248393 107.8732474  67.1656503
  27.8658985 108.9078511  66.2653641  27.3768164 107.6179004  63.9643799
  27.9055931 107.1071458  63.3513961  27.6396384 107.3021534  64.8289332
  26.1306398  99.3970936  79.0866618  25.4547035  99.2965066  79.7568993
  26.9534032  99.2410150  79.5502615  17.8785257 105.6342873  71.7079133
  18.4638694 104.8886561  71.8407037  17.6810096 105.9446830  72.5915797
  20.7323912 108.6694120  66.7241575  20.0634288 109.1540248  66.2405615
  20.5936782 108.9163341  67.6384954  12.4702912  98.2048473  70.4283576
  12.5087011  97.6712064  71.2220694  11.9643205  97.6783679  69.8094553
  24.8729181 110.7037864  73.3224234  25.4247489 110.8669485  74.0873319
  25.2135374 111.2942302  72.6504258  19.8493674  93.0513014  73.9246118
  19.9135001  93.9127845  73.5123516  19.7860794  92.4387015  73.1918477
  19.3245947  95.1236146  77.5719153  19.9517985  94.7413224  78.1856677
  18.4673866  94.9050348  77.9374845  29.7240055 105.5299121  79.1772888
  30.2679959 106.1429080  78.6827843  29.1426900 106.0878700  79.6939901
  16.1011489  96.9312575  63.5037507  16.3964931  96.0223254  63.4504561
  15.1999525  96.9100315  63.1818510  28.0097568 108.6519839  70.3087916
  27.8848708 107.8509579  69.7998861  28.6676659 109.1466033  69.8201886
  19.6305736  95.0068572  69.4865056  18.9092322  95.6204540  69.3472529
  20.4198992  95.5426337  69.4081702  30.0732477 106.4528859  71.9367466
  29.1262812 106.3334211  71.8645793  30.4215250 105.5651358  72.0193727
  22.4332050  92.3422998  75.7605708  22.9566452  92.5885295  76.5232017
  22.2144383  93.1743033  75.3408845  17.8299331  94.6126673  63.6276833
  17.5012037  93.7324052  63.4451938  18.1838702  94.5574342  64.5153222
  27.0778910 106.2481576  68.1371818  26.9303872 105.3198283  68.3179388
  27.9032403 106.2701666  67.6528893  20.9441154  94.8999643  63.9952310
  21.2837227  95.4285564  63.2730919  21.3913275  95.2380049  64.7710877
  30.6813032 107.0710134  69.2236691  31.6059579 106.8652996  69.0861142
  30.5128335 106.8226536  70.1326032  23.6384595  93.2836693  73.4455378
  23.2981415  92.4844507  73.8476058  22.9323601  93.5838404  72.8732211
  24.2901067  90.3686006  71.8982701  25.1127136  89.8946484  71.7761592
  24.5339130  91.1476490  72.3981388  22.9309301  93.3974264  62.1945603
  23.6517664  93.7755517  61.6909320  22.3074605  94.1163141  62.2980581
  27.0740424  94.1019413  63.1303935  27.2904039  94.9844051  62.8292764
  26.5934491  93.7105627  62.4009577  21.8139646  97.0605127  69.7074680
  21.6684226  97.3745430  70.5998961  21.3364849  97.6790027  69.1545579
  23.6736028  94.0507675  69.7555569  23.6597597  93.1548768  69.4187867
  24.3908457  94.0578338  70.3893856  25.5262159  94.4845015  71.8008697
  25.2679937  95.4062085  71.7993027  24.9947200  94.0875449  72.4909161
  30.4708348 107.5895802  64.5798782  30.6445225 107.0242224  63.8272635
  30.9637239 108.3896697  64.3978272  16.2885308  99.6010471  72.6462341
  15.7438776 100.3770279  72.7782615  17.1664658  99.9481275  72.4881463
  23.0772924  92.9322055  65.0243140  23.1988836  92.0038701  65.2234027
  22.7874967  92.9460741  64.1121455  25.9464115  90.6176965  68.1609859
  25.9685812  90.6816298  67.2061839  26.3632174  89.7781474  68.3550366
  36.3247739 100.3532225  66.1989082  36.7678885  99.6039550  65.8008205
  35.4474249 100.3442361  65.8162814  31.4583520 106.9062566  61.6795681
  32.1534425 107.5269259  61.8982995  31.8006671 106.0557917  61.9548058
  17.0751330  98.7280367  75.5392498  16.3333066  98.8763003  76.1257128
  16.7544074  98.9888633  74.6759247  33.3574944 104.3562272  63.2083011
  33.8826268 104.6949545  62.4832331  33.2697296 103.4209287  63.0246146
  25.0194992 108.2696345  75.3372888  25.3282119 108.0245492  76.2095588
  25.8170474 108.4742984  74.8491758  25.0415604 110.4234255  67.5678265
  24.6020595 109.9310634  68.2611121  25.7923721 109.8807223  67.3270340
  17.5207943 106.6145796  67.5702893  18.3465963 106.3149568  67.1901536
  17.1701995 105.8453418  68.0192681  22.4889476 105.9672264  69.6400566
  21.8669486 105.3042969  69.3402794  23.1594343 105.9933396  68.9574214
  15.7216548 104.5332122  68.5291826  14.8848457 104.1054297  68.3475827
  15.6940194 104.7264566  69.4662617  22.5614004  94.4454052  79.2333072
  22.6102159  95.3216175  78.8510842  23.1036518  93.9031445  78.6604715
  33.0468850 104.9895175  78.5134209  32.2564393 104.9719314  77.9738709
  32.8102204 105.5283469  79.2683246  33.1666725 101.8387642  75.8266938
  33.2164730 101.6737649  76.7682461  33.0580648 100.9714901  75.4364819
  22.0502983 104.5176188  63.1159027  22.1991104 105.2011652  62.4625700
  22.8569427 104.4981278  63.6308482  30.4570487  97.8218570  77.1426245
  31.3580350  97.6825035  76.8510242  30.5318462  97.9873025  78.0824422
  24.7913292  95.1985425  75.9879431  23.9216602  95.4918991  75.7162019
  25.0272773  95.7825870  76.7086695  34.6684921 104.2584583  76.0708959
  34.3769730 104.6214564  76.9072420  34.0557053 103.5451592  75.8922291
  35.8680604 101.8237463  68.5911530  36.7027495 102.2627267  68.7549090
  36.0039733 101.3476116  67.7719775  32.9172110  99.3817198  74.5389017
  33.3926231  99.5744844  73.7307869  31.9937675  99.4376384  74.2932401
  19.8055616 100.5441365  64.1220096  19.5601658  99.6403695  64.3200306
  19.9751531 100.5458516  63.1799574  27.4952326  91.4165042  73.5044851
  28.0134270  92.1526068  73.1791340  27.1407459  91.7229035  74.3391610
  19.0751264  96.2769723  61.6206257  18.3820509  96.3514078  60.9646293
  18.8303016  95.5130066  62.1427774  27.7464920  87.8365324  69.0245748
  28.0266674  87.1688513  69.6506174  28.5315527  88.0294420  68.5120412
  25.5498389 107.0124318  60.5870774  24.9772356 107.6314505  60.1341246
  26.1231183 107.5623680  61.1210696  31.6173779  96.2582958  72.7717323
  32.5691202  96.3581056  72.7929547  31.4477229  95.4661227  73.2815407
  29.6388158  93.3438541  72.9576724  29.0438090  93.6243554  72.2623213
  29.3537855  93.8332442  73.7293465  28.7695649 107.2961468  61.7179356
  29.7026322 107.2307030  61.9212232  28.6818861 108.1317735  61.2593889
  31.3983665 106.6127338  58.6783304  31.3197297 106.2787202  59.5719062
  32.2193332 107.1049106  58.6774776  34.0961857  99.4789078  71.8859623
  34.0638177  98.5405078  72.0719306  34.7062480  99.5573114  71.1525448
  25.9345187  98.3485131  57.9286827  26.8804292  98.2191339  57.9975245
  25.5559432  97.6099793  58.4056255  34.2456345  96.2700121  71.9317906
  33.7295394  95.4858578  71.7447835  35.1296294  95.9418838  72.0964425
  31.9067072  90.0141137  67.8913718  31.7091893  89.7056225  68.7757050
  32.5166778  90.7402776  68.0211648  39.9138406 100.5405085  71.0265659
  40.6441795 100.2790373  71.5873363  39.3045352  99.8033807  71.0667727
  37.9953703  98.6812947  71.6240111  37.2686867  98.5468912  71.0156602
  37.5800990  98.9889776  72.4296829  25.8183880 102.4002877  79.3887484
  26.7386889 102.5781476  79.5827530  25.7833463 101.4558922  79.2367183
  24.1188105  96.2735107  57.8641712  23.2119560  95.9768220  57.9404426
  24.3964086  95.9764925  56.9975998  15.0366045  97.5941471  68.3140758
  14.7168829  96.7406779  68.0215132  14.4899473  97.8090049  69.0698726
  18.8145952 100.3103911  72.0310265  19.0331962 101.2421019  72.0498299
  19.2271726  99.9511886  72.8165069  25.7350170  90.8171997  64.0185953
  24.9250899  90.4719082  64.3941199  26.4234587  90.5079541  64.6073565
  27.6640719  89.8950044  65.6410250  28.2171757  90.3145497  66.3000273
  27.9010805  88.9685792  65.6833206  23.6873818  95.8837117  81.4213014
  23.5870545  96.8331474  81.3525105  23.4695360  95.5555356  80.5489084
  22.8886889  93.1322042  58.0053691  23.7506053  93.4576941  58.2649508
  23.0737233  92.3453538  57.4926757  14.9054305 101.2144382  70.2833880
  14.2117776 100.7998335  69.7703834  15.6527296 101.2564919  69.6867299
  31.0419526  92.0050569  65.1488914  30.4618195  92.6635373  64.7666967
  30.7755458  91.1827913  64.7376332  29.4923092  91.4055626  67.3510234
  29.9922870  91.5172161  66.5424553  30.1358700  91.1016679  67.9911043
  23.5505088  99.3134256  80.2378075  23.0672170 100.1134616  80.4441964
  23.6366027  99.3242201  79.2845519  16.8191047 101.1462636  68.1599895
  16.7961736 101.2450323  67.2081778  17.1291684 101.9927787  68.4817061
  19.4778425 103.2038791  72.2746509  20.4321679 103.1722733  72.2076441
  19.2790949 102.7429415  73.0896735  20.0677807 101.7739907  74.8417307
  20.8870696 102.2683986  74.8652144  20.3414615 100.8571875  74.8134874
  29.8244404  94.1650659  64.2045262  28.9370259  94.4500310  63.9865457
  30.2398393  94.0044423  63.3572539  33.1758940  94.1897180  67.9199602
  33.9519330  94.6793633  68.1924218  32.4507074  94.6155234  68.3771471
  35.6131498  94.9024799  68.9773542  36.2075989  94.6620535  68.2666850
  35.6858082  94.1831930  69.6047079  17.8328654 108.7458410  69.2916707
  17.6983122 107.9858811  68.7254705  17.4160716 109.4699310  68.8245496
  28.9687617 103.9295334  58.2993282  29.6723467 104.1345336  58.9150938
  28.2450266 104.4972096  58.5642366  29.7985427  99.6805195  64.4195553
  29.7420629 100.1373747  63.5803185  30.3513770  98.9195880  64.2418395
  33.6090233  95.4694927  65.2445672  33.3527168  95.0691563  66.0753880
  32.9843101  96.1838721  65.1195811  37.9202571  98.2091000  67.7516963
  37.3602129  98.2784190  68.5248525  37.3146075  98.0331985  67.0316460
  20.9897780 109.6427727  69.5035150  20.8730164 110.5873160  69.4013840
  20.1690226 109.3401289  69.8920949  30.8774315 104.3677863  60.3491742
  31.7119918 103.9359062  60.1669217  30.7158657 104.1959877  61.2768637
  30.5320207 100.8709976  61.7148082  30.4769011 100.7054248  60.7736526
  29.9066262 101.5786009  61.8710271  15.3212722  96.1078041  75.5409504
  15.9671585  95.5976995  76.0296729  15.1129873  96.8446722  76.1152929
  27.8466114 103.1758888  81.0401644  28.7157274 103.3499540  80.6788279
  27.3672865 103.9953305  80.9177374  23.8416332  90.3718085  61.2933400
  23.8295002  91.3159925  61.4501671  24.7339754  90.1888231  60.9992861
  22.0152294 110.2955989  72.7191078  22.9179541 110.3279599  73.0357573
  21.7889664 109.3656440  72.7337414  23.7705896 109.0486976  69.3801157
  22.8201527 109.0488837  69.2665529  24.0738382 108.3019710  68.8637191
  27.6568452  86.9660862  65.5479337  26.8900847  86.4119349  65.6936019
  28.0679157  87.0382731  66.4093489  19.6610213  93.2545658  79.6384518
  20.5241674  92.8982463  79.8487843  19.0875623  92.9159553  80.3259922
  39.5058590 114.8847514  70.4446919  40.1437000 114.7654261  69.7410259
  39.3879433 115.8328358  70.5034871  36.3148296 114.8374942  70.3808444
  35.9766807 114.7216007  69.4928979  37.1838064 114.4366107  70.3609450
  32.1735112 116.6910419  66.3705335  31.6099977 116.6000356  65.6021623
  32.0587507 115.8710323  66.8507827  36.7968079 115.9909794  76.3394649
  36.7856720 115.5962592  75.4675153  36.9588718 115.2575867  76.9328421
  29.7199544 118.1861610  69.2089555  30.5120835 117.8452435  68.7935855
  29.9596194 118.2956585  70.1291709  37.7534670 120.3581386  61.6819800
  37.1022650 120.9435467  61.2953813  38.5479033 120.8887581  61.7414837
  31.6790297 117.4470524  62.0806934  32.4521173 116.8999511  61.9419810
  32.0315696 118.3114773  62.2921395  33.5175340 118.7746906  75.2873833
  33.2265206 119.6792537  75.1720500  34.1532324 118.8163433  76.0017903
  34.4431547 116.1523754  71.8775193  35.0395119 115.9279777  71.1632156
  34.5006518 115.4108500  72.4800641  34.0156575 113.6063190  59.7125384
  34.2682096 113.0844711  58.9508847  33.0781134 113.4429335  59.8152068
  39.0599858 112.6098968  67.5200127  39.8462947 112.1918391  67.1690544
  39.3238562 113.5145060  67.6881776  39.2309935 118.0471818  62.2188784
  38.5955768 118.1206445  62.9309689  38.9007342 118.6365417  61.5407863
  44.4608285 112.5474201  68.4233106  45.1933457 111.9773418  68.6570935
  43.7047641 112.1595802  68.8639611  33.7352864 115.5091296  61.9149759
  33.6189122 114.8336199  62.5830843  33.8455124 115.0223670  61.0981912
  36.0784405 114.9701443  65.6196448  35.7142612 114.4432064  66.3309370
  36.9351521 114.5799912  65.4462934  41.9833706 106.2595775  72.8827714
  41.6517030 107.1291186  72.6588929  41.3879319 105.9432059  73.5621745
  35.7189892 109.9991342  60.6157797  35.8864294 110.8671579  60.9828268
  35.5287061 110.1618624  59.6919086  38.4765225 118.4608321  72.2823627
  38.1765948 119.3633360  72.1739434  38.1316285 118.1940504  73.1344780
  31.9277707 114.9122118  68.3160331  31.0028203 114.7798332  68.5238023
  32.1762120 115.6916337  68.8130274  41.8762369 110.9790861  69.9621064
  40.9679246 110.9106270  69.6679825  41.8249965 111.4562806  70.7902890
  35.6979113 112.4549000  61.6004463  35.5778738 112.9006051  62.4389944
  35.0031701 112.8034318  61.0418002  29.2886518 114.5555392  69.1504121
  29.4178899 114.8089871  70.0643532  28.6083969 115.1483100  68.8308776
  33.4586005 125.2252642  65.2494595  33.3810035 126.1760467  65.3283075
  32.8547649 124.8798514  65.9069521  35.9503235 112.3980507  77.9055962
  35.1736569 112.9574427  77.8958826  36.5893798 112.8837290  78.4270832
  43.7424015 109.1807300  71.7398938  43.0998396 109.4739833  71.0938733
  43.2378944 109.0660220  72.5452135  41.3964179 112.9270473  62.4284798
  42.3082035 113.1597860  62.2532495  40.8873826 113.5107517  61.8659876
  34.2049607 115.2065960  77.4673929  34.9464291 115.7451004  77.1908752
  33.4986592 115.8332249  77.6245480  39.6804947 117.3495101  76.0646090
  40.0888303 116.9077511  75.3200722  38.9582208 116.7747728  76.3180283
  36.0336017 112.2867708  73.4379647  36.8797212 112.7107121  73.5814296
  35.9734654 111.6301332  74.1318210  40.0033761 117.9096292  69.8198379
  39.3742624 118.0742006  69.1174447  39.6159423 118.3237901  70.5909343
  43.8822993 118.8450729  67.1742743  43.1974031 119.2249631  66.6239776
  43.9666842 119.4546056  67.9074691  39.1835462 109.9472076  75.0960821
  38.9396394 110.7014137  74.5595096  39.4595393 110.3257424  75.9308068
  41.1373925 116.4910688  73.7738086  41.3490820 117.1342448  73.0972467
  41.0903673 115.6573005  73.3060016  38.7400154 109.1028509  70.6774658
  37.8784633 109.4009763  70.9691396  38.7662588 109.3198908  69.7455691
  35.5561723 117.6470700  67.0848464  36.0200069 117.9258403  66.2953087
  35.2918521 116.7454144  66.9021555  32.4485804 117.1942181  70.0228227
  33.0187161 117.6229450  69.3845712  33.0393916 116.9124766  70.7212413
  34.4930609 113.7693852  63.8938029  35.1954653 114.2214896  64.3611956
  34.1611238 113.1277671  64.5217922  32.9410971 112.3605609  78.2689239
  32.3109631 113.0421889  78.5024635  32.8347059 112.2488690  77.3242377
  28.2355943 112.0277405  69.1955163  27.4454997 112.2834933  68.7195273
  28.7267191 112.8425742  69.3007203  42.2519753 119.3682644  71.9460444
  43.0737196 118.9662831  71.6643125  42.2482156 119.2650878  72.8976559
  30.1870689 112.3921984  66.1538640  29.3901852 112.5040678  66.6722135
  29.9596281 112.7308636  65.2879530  36.0176356 118.9166687  74.1021154
  36.0820789 119.3787094  74.9379326  35.3087280 118.2864052  74.2303464
  26.5193646 112.2807895  71.6270154  26.7701685 113.1654905  71.8927730
  27.0553195 112.1012497  70.8545245  50.3425746 115.7121392  68.2945415
  49.5889454 115.1428790  68.1389420  50.4773287 115.6784057  69.2416050
  35.7324374 120.5834795  63.9700134  35.5970049 121.4286330  64.3984982
  36.2734186 120.7854072  63.2066068  32.2191713 106.6626374  80.6314490
  31.8258659 106.1092573  81.3062134  33.0357854 106.9736953  81.0221007
  29.1853771 118.1010233  64.5428060  29.6978292 118.8953483  64.6933624
  29.8376484 117.4036523  64.4761661  30.9948656 121.2175989  66.6250813
  31.1715284 122.1393954  66.4371797  31.7905489 120.9034408  67.0545193
  35.1359674 108.0784254  78.2234746  35.8769388 108.6791407  78.1439209
  35.3677597 107.3361891  77.6652789  30.2801012 113.2640621  76.5012976
  30.1654528 112.3625878  76.8020075  29.4245530 113.5104318  76.1497792
  37.3592850 121.2058361  78.1000477  36.9156704 120.4194740  77.7821381
  38.0210064 121.3937512  77.4344367  32.1179971 122.7354163  72.6261155
  32.6687397 122.6071226  71.8538149  31.2791447 123.0349052  72.2756048
  39.4574088 121.4861161  76.1281878  39.4392564 122.3070042  75.6362147
  40.3794008 121.3615236  76.3532019  35.9147142 119.0005291  76.9705386
  36.4475479 118.2393579  76.7404694  35.3861224 118.7078942  77.7129541
  39.0816837 104.1065356  72.4999028  38.7381107 104.9966998  72.4238139
  39.4495800 103.9167014  71.6368613  27.1502688 116.4298887  65.3187630
  27.9877910 116.8395895  65.1021338  27.3280956 115.4898329  65.2887824
  39.0467120 114.0973968  61.0071463  38.5313744 114.8678572  61.2459850
  38.7744429 113.4239104  61.6304524  36.6314231 108.9423668  66.0656701
  35.7755827 108.5530519  65.8862340  37.0441183 109.0215629  65.2056487
  38.1613378 106.4770012  70.4648261  37.6578173 106.4400147  69.6516066
  38.4543985 107.3862754  70.5244918  34.4056264 106.5608741  69.4714443
  35.2709260 106.3651550  69.1120332  34.4733773 106.3319093  70.3983800
  44.0201394 116.8506322  62.9424637  43.2430837 116.5117482  62.4979799
  44.6992875 116.8558945  62.2679602  38.8353423 111.9701060  62.8331244
  38.5303559 112.2847209  63.6841387  39.7883865 112.0482480  62.8758577
  37.2799855 118.1291283  64.4824198  36.7521217 117.3944043  64.1697436
  36.7787358 118.9065959  64.2364167  42.2592701 116.3240303  69.5991245
  41.6016376 117.0139565  69.6871373  43.0633100 116.7136735  69.9425231
  32.0118583 108.7910949  66.8430810  32.5862335 108.5686131  66.1104003
  32.5989565 108.8599644  67.5959411  41.0698160 114.6784676  67.6495186
  41.5830042 115.3114668  68.1516896  41.7199384 114.0785872  67.2838546
  32.3388170 110.8215410  60.8626695  31.5025482 111.1590097  61.1835970
  32.1992940 110.6864390  59.9253832  34.3141250 105.6652198  65.5705879
  33.6605663 105.3501215  64.9462494  34.2721725 105.0427939  66.2965702
  35.4252455 115.9471493  57.4859171  34.5179517 115.7160747  57.6850320
  35.9223487 115.1509113  57.6733153  38.3320534 124.6569000  60.4055857
  37.6582233 124.9600697  61.0140815  38.7186356 125.4598081  60.0561314
  37.5478991 112.1534132  69.8953527  36.6301552 112.3749079  69.7375215
  37.9639134 112.2280442  69.0365234  38.3314039 113.5525547  65.0256207
  39.0785858 114.0646945  64.7163329  38.6005628 113.2309600  65.8860601
  36.6040689 116.0484088  62.0083161  35.6951908 115.7643121  62.1055631
  36.6335773 116.4683167  61.1486468  41.8359956 119.6590678  65.7774329
  41.3822283 118.8181588  65.8339519  41.2053923 120.2952076  66.1149109
  40.7792876 110.5882664  67.0074996  40.0415633 110.0760050  67.3385239
  41.0319649 110.1483045  66.1958273  40.2792895 121.4967174  66.7124147
  40.5715870 122.0572231  65.9936513  40.7891516 121.7895735  67.4677306
  40.8804503 103.3658916  67.6016766  41.1863380 102.5056279  67.3142681
  41.6057108 103.9576536  67.4015760  27.1728859 113.7689602  65.9898364
  26.9753259 113.1758963  65.2649430  26.6175523 113.4641812  66.7074302
  35.1525583 113.6612709  68.1092957  35.2074193 112.7086545  68.0335433
  34.3416785 113.8172148  68.5934255  36.3016777 117.5892832  59.3471240
  35.8636206 116.8728691  58.8876877  37.0427217 117.8168947  58.7856331
  33.0917943 112.2789768  65.8683336  32.2785808 112.5783939  66.2748528
  33.5876937 111.8845457  66.5857818  35.2426521 122.2747525  67.8017600
  35.2002699 122.5008372  66.8726132  36.1589219 122.0410900  67.9503401
  38.6892154 112.7431593  74.6998229  39.0441542 112.9703066  75.5592695
  39.3364286 113.0749970  74.0775485  44.4189891 115.8650029  65.4047558
  44.2807790 116.0551625  64.4768748  44.0626110 116.6269412  65.8615610
  32.5832017 109.8508124  71.4844571  33.2231397 109.7096883  70.7867534
  31.7509548 109.5642637  71.1083172  44.4459271 117.9326556  70.4158830
  44.8795778 117.8401845  71.2641884  45.1590852 117.9084056  69.7778846
  33.3592321 119.1510554  67.5979563  34.1532920 118.6560875  67.3962138
  32.6484014 118.6228418  67.2347269  38.1787166 121.5328650  71.9491931
  38.2324188 122.1019586  72.7169646  37.3101947 121.7030535  71.5845968
  29.6675085 113.2953636  63.6739316  28.7372673 113.2338092  63.8909278
  29.7632557 112.7729589  62.8775957  29.5860634 109.8208449  66.2617557
  29.8467451 110.7353782  66.1526718  30.4077806 109.3532892  66.4114170
  31.0585559 111.2346206  73.4316382  31.7308613 111.0263568  72.7829031
  30.2315346 111.0368292  72.9921614  45.3074821 117.9750256  72.9491715
  45.5010711 118.8796067  73.1950990  45.2075439 117.5157676  73.7830300
  36.9611131 107.8608147  75.4482043  36.3139046 108.5598097  75.3546519
  37.7312147 108.2944291  75.8158291  40.3689929 118.1256999  78.5232596
  40.2175436 117.8967551  77.6062680  40.3594609 119.0827601  78.5363941
  37.1375266 115.6988912  73.5078862  38.0667326 115.8500072  73.3347830
  36.7166296 115.7872933  72.6527509  35.9363597 119.7239576  71.2777400
  35.7974683 119.3558361  72.1503338  35.1478194 120.2387216  71.1061358
  36.5311749 124.8248673  62.6202937  36.7063505 124.3536716  63.4348559
  35.8444537 125.4514439  62.8484197  37.4868813 119.1021179  68.6666238
  37.1518645 119.0621949  69.5623888  36.9872758 118.4365895  68.1936648
  31.4613056 114.5088809  74.1918819  31.3232854 113.7769048  74.7930358
  32.3717980 114.4197709  73.9103007  40.4228004 116.4477213  58.9403297
  39.8057175 115.7224042  58.8436350  39.9544493 117.2086574  58.5970372
  34.0895357 114.2208768  73.6802499  34.7994976 113.5801961  73.6389117
  34.0464665 114.4721663  74.6028679  42.0782136 121.1576122  76.6009078
  42.0194682 120.4735342  75.9339661  42.4801654 121.8995112  76.1489704
  32.8024291 111.2073986  75.4998138  32.2661648 110.7564725  76.1519734
  32.2141000 111.3419895  74.7568602  32.2126550 110.6662638  58.0624602
  31.3356016 110.5451439  57.6986848  32.6884303 109.8748716  57.8103490
  42.0799543 119.1215706  74.8323058  41.1926322 118.7841628  74.9549456
  42.6498094 118.3898737  75.0691823  23.7328690 115.4539797  68.1566109
  24.4199730 115.1401527  67.5687124  23.5776819 116.3581162  67.8833360
  28.5363412 110.3429994  72.5851133  28.4521601 109.7355664  71.8501543
  27.7146119 110.8339012  72.5860629  35.6100697 123.7817158  71.7984301
  35.5370868 124.5872130  72.3103605  35.1678090 123.9809124  70.9732322
  35.3990476 123.0188928  65.3087122  34.6157998 123.5610608  65.4025347
  36.0983221 123.5362908  65.7081363  38.7087126 108.8283558  67.9521328
  39.2055826 108.0753520  67.6322398  37.9374108 108.8647874  67.3864537
  46.5616884 114.5323923  69.5939619  46.5506760 115.4148639  69.2233552
  45.6934263 114.1795474  69.3994156  38.0699380 123.6803992  73.9542459
  38.7827352 124.3151457  73.8818361  37.5789409 123.7767858  73.1382461
  39.7916907 117.5855245  65.5259751  38.8573186 117.7056707  65.3564455
  39.9693575 116.6827712  65.2619761  35.2922095 110.9700941  67.6793012
  34.9219883 110.4171981  68.3673918  35.7881187 110.3659074  67.1268012
  43.1789458 113.4272564  66.0609785  43.6449910 114.2600556  65.9870088
  43.6296959 112.9617546  66.7655044  33.1211294 121.4298436  74.7748030
  33.8220753 122.0634919  74.9277424  32.6506409 121.7713167  74.0143669
  41.2465689 119.7716385  63.0595937  41.5225533 119.6572980  63.9689811
  40.3770188 119.3733870  63.0208110  41.1506121 105.7953151  70.1000687
  40.2369201 106.0257378  70.2682893  41.5799222 105.8791595  70.9514719
  40.9212580 113.9843043  72.6000581  40.2684030 114.2318950  71.9453033
  41.2992959 113.1707181  72.2663058  37.8819753 124.0202736  66.7028751
  38.0642148 123.2024392  67.1656503  38.7052739 124.2370428  66.2653641
  38.2161919 122.9470921  63.9643799  38.7449685 122.4363376  63.3513961
  38.4790138 122.6313452  64.8289332  36.9700153 114.7262854  79.0866618
  36.2940790 114.6256983  79.7568993  37.7927786 114.5702068  79.5502615
  28.7179012 120.9634791  71.7079133  29.3032448 120.2178479  71.8407037
  28.5203850 121.2738747  72.5915797  31.5717667 123.9986038  66.7241575
  30.9028042 124.4832166  66.2405615  31.4330537 124.2455258  67.6384954
  23.3096666 113.5340391  70.4283576  23.3480766 113.0003982  71.2220694
  22.8036959 113.0075596  69.8094553  35.7122935 126.0329782  73.3224234
  36.2641243 126.1961403  74.0873319  36.0529129 126.6234219  72.6504258
  30.6887429 108.3804931  73.9246118  30.7528755 109.2419762  73.5123516
  30.6254549 107.7678933  73.1918477  30.1639701 110.4528064  77.5719153
  30.7911740 110.0705141  78.1856677  29.3067620 110.2342266  77.9374845
  40.5633810 120.8591039  79.1772888  41.1073714 121.4720997  78.6827843
  39.9820655 121.4170617  79.6939901  26.9405244 112.2604493  63.5037507
  27.2358685 111.3515171  63.4504561  26.0393280 112.2392232  63.1818510
  38.8491323 123.9811757  70.3087916  38.7242462 123.1801497  69.7998861
  39.5070414 124.4757950  69.8201886  30.4699491 110.3360490  69.4865056
  29.7486077 110.9496457  69.3472529  31.2592747 110.8718254  69.4081702
  40.9126231 121.7820777  71.9367466  39.9656567 121.6626128  71.8645793
  41.2609004 120.8943275  72.0193727  33.2725804 107.6714916  75.7605708
  33.7960206 107.9177213  76.5232017  33.0538138 108.5034951  75.3408845
  28.6693086 109.9418591  63.6276833  28.3405792 109.0615970  63.4451938
  29.0232456 109.8866259  64.5153222  37.9172664 121.5773493  68.1371818
  37.7697627 120.6490201  68.3179388  38.7426158 121.5993584  67.6528893
  31.7834909 110.2291560  63.9952310  32.1230981 110.7577482  63.2730919
  32.2307029 110.5671967  64.7710877  41.5206786 122.4002052  69.2236691
  42.4453334 122.1944913  69.0861142  41.3522090 122.1518453  70.1326032
  34.4778349 108.6128611  73.4455378  34.1375170 107.8136424  73.8476058
  33.7717356 108.9130322  72.8732211  35.1294821 105.6977924  71.8982701
  35.9520891 105.2238402  71.7761592  35.3732885 106.4768407  72.3981388
  33.7703056 108.7266182  62.1945603  34.4911418 109.1047435  61.6909320
  33.1468360 109.4455059  62.2980581  37.9134179 109.4311331  63.1303935
  38.1297793 110.3135969  62.8292764  37.4328246 109.0397544  62.4009577
  32.6533400 112.3897044  69.7074680  32.5077981 112.7037347  70.5998961
  32.1758604 113.0081945  69.1545579  34.5129783 109.3799592  69.7555569
  34.4991352 108.4840686  69.4187867  35.2302211 109.3870256  70.3893856
  36.3655914 109.8136932  71.8008697  36.1073691 110.7354003  71.7993027
  35.8340954 109.4167367  72.4909161  41.3102102 122.9187720  64.5798782
  41.4838980 122.3534142  63.8272635  41.8030994 123.7188614  64.3978272
  27.1279062 114.9302389  72.6462341  26.5832530 115.7062197  72.7782615
  28.0058412 115.2773193  72.4881463  33.9166679 108.2613972  65.0243140
  34.0382590 107.3330619  65.2234027  33.6268721 108.2752658  64.1121455
  36.7857869 105.9468883  68.1609859  36.8079566 106.0108216  67.2061839
  37.2025928 105.1073392  68.3550366  47.1641494 115.6824142  66.1989082
  47.6072640 114.9331468  65.8008205  46.2868004 115.6734279  65.8162814
  42.2977275 122.2354484  61.6795681  42.9928180 122.8561177  61.8982995
  42.6400425 121.3849835  61.9548058  27.9145084 114.0572285  75.5392498
  27.1726820 114.2054920  76.1257128  27.5937828 114.3180550  74.6759247
  44.1968698 119.6854189  63.2083011  44.7220022 120.0241462  62.4832331
  44.1091051 118.7501205  63.0246146  35.8588747 123.5988263  75.3372888
  36.1675873 123.3537410  76.2095588  36.6564229 123.8034902  74.8491758
  35.8809359 125.7526173  67.5678265  35.4414349 125.2602551  68.2611121
  36.6317476 125.2099140  67.3270340  28.3601698 121.9437714  67.5702893
  29.1859718 121.6441485  67.1901536  28.0095750 121.1745336  68.0192681
  33.3283231 121.2964182  69.6400566  32.7063240 120.6334887  69.3402794
  33.9988098 121.3225314  68.9574214  26.5610303 119.8624040  68.5291826
  25.7242211 119.4346214  68.3475827  26.5333948 120.0556483  69.4662617
  33.4007758 109.7745970  79.2333072  33.4495914 110.6508093  78.8510842
  33.9430273 109.2323363  78.6604715  43.8862604 120.3187093  78.5134209
  43.0958148 120.3011232  77.9738709  43.6495959 120.8575387  79.2683246
  44.0060479 117.1679559  75.8266938  44.0558484 117.0029567  76.7682461
  43.8974403 116.3006819  75.4364819  32.8896738 119.8468105  63.1159027
  33.0384858 120.5303570  62.4625700  33.6963181 119.8273195  63.6308482
  41.2964242 113.1510488  77.1426245  42.1974104 113.0116952  76.8510242
  41.3712216 113.3164942  78.0824422  35.6307047 110.5277342  75.9879431
  34.7610356 110.8210908  75.7162019  35.8666527 111.1117787  76.7086695
  45.5078676 119.5876501  76.0708959  45.2163484 119.9506482  76.9072420
  44.8950807 118.8743509  75.8922291  46.7074358 117.1529381  68.5911530
  47.5421250 117.5919185  68.7549090  46.8433487 116.6768034  67.7719775
  43.7565864 114.7109116  74.5389017  44.2319986 114.9036762  73.7307869
  42.8331430 114.7668301  74.2932401  30.6449371 115.8733283  64.1220096
  30.3995413 114.9695613  64.3200306  30.8145285 115.8750433  63.1799574
  38.3346081 106.7456959  73.5044851  38.8528025 107.4817986  73.1791340
  37.9801213 107.0520952  74.3391610  29.9145018 111.6061640  61.6206257
  29.2214263 111.6805995  60.9646293  29.6696770 110.8421984  62.1427774
  38.5858675 103.1657242  69.0245748  38.8660429 102.4980431  69.6506174
  39.3709282 103.3586337  68.5120412  36.3892143 122.3416236  60.5870774
  35.8166110 122.9606423  60.1341246  36.9624937 122.8915597  61.1210696
  42.4567533 111.5874876  72.7717323  43.4084956 111.6872973  72.7929547
  42.2870984 110.7953144  73.2815407  40.4781913 108.6730459  72.9576724
  39.8831845 108.9535472  72.2623213  40.1931609 109.1624360  73.7293465
  39.6089403 122.6253386  61.7179356  40.5420076 122.5598947  61.9212232
  39.5212616 123.4609653  61.2593889  42.2377420 121.9419256  58.6783304
  42.1591051 121.6079120  59.5719062  43.0587087 122.4341024  58.6774776
  44.9355611 114.8080995  71.8859623  44.9031931 113.8696996  72.0719306
  45.5456235 114.8865032  71.1525448  36.7738942 113.6777048  57.9286827
  37.7198047 113.5483256  57.9975245  36.3953187 112.9391710  58.4056255
  45.0850099 111.5992039  71.9317906  44.5689148 110.8150495  71.7447835
  45.9690048 111.2710755  72.0964425  42.7460826 105.3433054  67.8913718
  42.5485648 105.0348143  68.7757050  43.3560532 106.0694693  68.0211648
  50.7532161 115.8697002  71.0265659  51.4835549 115.6082290  71.5873363
  50.1439106 115.1325724  71.0667727  48.8347458 114.0104865  71.6240111
  48.1080622 113.8760830  71.0156602  48.4194745 114.3181693  72.4296829
  36.6577634 117.7294795  79.3887484  37.5780644 117.9073394  79.5827530
  36.6227217 116.7850840  79.2367183  34.9581859 111.6027025  57.8641712
  34.0513314 111.3060137  57.9404426  35.2357840 111.3056843  56.9975998
  25.8759799 112.9233388  68.3140758  25.5562584 112.0698696  68.0215132
  25.3293228 113.1381966  69.0698726  29.6539707 115.6395829  72.0310265
  29.8725717 116.5712937  72.0498299  30.0665481 115.2803804  72.8165069
  36.5743925 106.1463914  64.0185953  35.7644653 105.8010999  64.3941199
  37.2628342 105.8371458  64.6073565  38.5034473 105.2241961  65.6410250
  39.0565512 105.6437415  66.3000273  38.7404559 104.2977709  65.6833206
  34.5267572 111.2129035  81.4213014  34.4264299 112.1623392  81.3525105
  34.3089114 110.8847274  80.5489084  33.7280644 108.4613960  58.0053691
  34.5899808 108.7868858  58.2649508  33.9130988 107.6745456  57.4926757
  25.7448059 116.5436300  70.2833880  25.0511531 116.1290252  69.7703834
  26.4921050 116.5856836  69.6867299  41.8813280 107.3342486  65.1488914
  41.3011949 107.9927290  64.7666967  41.6149213 106.5119831  64.7376332
  40.3316846 106.7347544  67.3510234  40.8316625 106.8464079  66.5424553
  40.9752454 106.4308597  67.9911043  34.3898842 114.6426174  80.2378075
  33.9065924 115.4426534  80.4441964  34.4759781 114.6534119  79.2845519
  27.6584802 116.4754553  68.1599895  27.6355490 116.5742241  67.2081778
  27.9685438 117.3219704  68.4817061  30.3172180 118.5330708  72.2746509
  31.2715433 118.5014651  72.2076441  30.1184703 118.0721332  73.0896735
  30.9071562 117.1031825  74.8417307  31.7264451 117.5975903  74.8652144
  31.1808370 116.1863793  74.8134874  40.6638158 109.4942577  64.2045262
  39.7764013 109.7792227  63.9865457  41.0792147 109.3336340  63.3572539
  44.0152694 109.5189098  67.9199602  44.7913084 110.0085550  68.1924218
  43.2900828 109.9447152  68.3771471  46.4525253 110.2316717  68.9773542
  47.0469744 109.9912453  68.2666850  46.5251837 109.5123848  69.6047079
  28.6722409 124.0750328  69.2916707  28.5376877 123.3150729  68.7254705
  28.2554471 124.7991228  68.8245496  39.8081372 119.2587251  58.2993282
  40.5117222 119.4637254  58.9150938  39.0844020 119.8264013  58.5642366
  40.6379182 115.0097113  64.4195553  40.5814383 115.4665664  63.5803185
  41.1907524 114.2487797  64.2418395  44.4483988 110.7986845  65.2445672
  44.1920922 110.3983480  66.0753880  43.8236856 111.5130639  65.1195811
  48.7596326 113.5382918  67.7516963  48.1995884 113.6076107  68.5248525
  48.1539829 113.3623902  67.0316460  31.8291534 124.9719645  69.5035150
  31.7123919 125.9165077  69.4013840  31.0083981 124.6693207  69.8920949
  41.7168069 119.6969781  60.3491742  42.5513673 119.2650979  60.1669217
  41.5552412 119.5251794  61.2768637  41.3713961 116.2001894  61.7148082
  41.3162765 116.0346165  60.7736526  40.7460016 116.9077927  61.8710271
  26.1606476 111.4369958  75.5409504  26.8065340 110.9268912  76.0296729
  25.9523627 112.1738640  76.1152929  38.6859868 118.5050806  81.0401644
  39.5551028 118.6791458  80.6788279  38.2066620 119.3245223  80.9177374
  34.6810087 105.7010003  61.2933400  34.6688756 106.6451843  61.4501671
  35.5733509 105.5180148  60.9992861  32.8546049 125.6247907  72.7191078
  33.7573295 125.6571517  73.0357573  32.6283419 124.6948358  72.7337414
  34.6099651 124.3778893  69.3801157  33.6595282 124.3780755  69.2665529
  34.9132137 123.6311628  68.8637191  38.4962206 102.2952780  65.5479337
  37.7294602 101.7411266  65.6936019  38.9072911 102.3674648  66.4093489
  30.5003967 108.5837575  79.6384518  31.3635429 108.2274380  79.8487843
  29.9269378 108.2451470  80.3259922  50.3452344 130.2139432  70.4446919
  50.9830754 130.0946179  69.7410259  50.2273187 131.1620276  70.5034871
  47.1542050 130.1666860  70.3808444  46.8160562 130.0507925  69.4928979
  48.0231819 129.7658025  70.3609450  43.0128866 132.0202336  66.3705335
  42.4493731 131.9292273  65.6021623  42.8981261 131.2002241  66.8507827
  47.6361833 131.3201712  76.3394649  47.6250474 130.9254510  75.4675153
  47.7982473 130.5867784  76.9328421  45.2825301 131.4815672  71.8775193
  45.8788874 131.2571694  71.1632156  45.3400273 130.7400417  72.4800641
  44.8550330 128.9355107  59.7125384  45.1075850 128.4136629  58.9508847
  43.9174889 128.7721253  59.8152068  49.8993613 127.9390886  67.5200127
  50.6856702 127.5210309  67.1690544  50.1632317 128.8436978  67.6881776
  50.0703690 133.3763736  62.2188784  49.4349523 133.4498362  62.9309689
  49.7401096 133.9657335  61.5407863  55.3002040 127.8766119  68.4233106
  56.0327212 127.3065336  68.6570935  54.5441395 127.4887719  68.8639611
  44.5746619 130.8383213  61.9149759  44.4582877 130.1628117  62.5830843
  44.6848878 130.3515587  61.0981912  46.9178159 130.2993360  65.6196448
  46.5536367 129.7723981  66.3309370  47.7745275 129.9091829  65.4462934
  52.8227460 121.5887693  72.8827714  52.4910785 122.4583104  72.6588929
  52.2273073 121.2723977  73.5621745  46.5583646 125.3283260  60.6157797
  46.7258049 126.1963496  60.9828268  46.3680815 125.4910542  59.6919086
  49.3158980 133.7900239  72.2823627  49.0159703 134.6925278  72.1739434
  48.9710039 133.5232422  73.1344780  42.7671461 130.2414036  68.3160331
  41.8421958 130.1090250  68.5238023  43.0155874 131.0208255  68.8130274
  52.7156123 126.3082779  69.9621064  51.8073001 126.2398188  69.6679825
  52.6643719 126.7854724  70.7902890  46.5372867 127.7840918  61.6004463
  46.4172493 128.2297968  62.4389944  45.8425456 128.1326235  61.0418002
  40.1280272 129.8847309  69.1504121  40.2572653 130.1381788  70.0643532
  39.4477723 130.4775017  68.8308776  46.7896989 127.7272425  77.9055962
  46.0130323 128.2866345  77.8958826  47.4287552 128.2129208  78.4270832
  54.5817770 124.5099218  71.7398938  53.9392150 124.8031751  71.0938733
  54.0772698 124.3952138  72.5452135  52.2357933 128.2562391  62.4284798
  53.1475790 128.4889777  62.2532495  51.7267581 128.8399435  61.8659876
  45.0443361 130.5357878  77.4673929  45.7858046 131.0742922  77.1908752
  44.3380347 131.1624167  77.6245480  50.5198701 132.6787019  76.0646090
  50.9282057 132.2369429  75.3200722  49.7975963 132.1039646  76.3180283
  46.8729771 127.6159625  73.4379647  47.7190966 128.0399039  73.5814296
  46.8128409 126.9593250  74.1318210  50.8427516 133.2388209  69.8198379
  50.2136378 133.4033923  69.1174447  50.4553178 133.6529819  70.5909343
  54.7216748 134.1742647  67.1742743  54.0367786 134.5541548  66.6239776
  54.8060597 134.7837974  67.9074691  50.0229217 125.2763994  75.0960821
  49.7790148 126.0306054  74.5595096  50.2989147 125.6549341  75.9308068
  51.9767679 131.8202606  73.7738086  52.1884575 132.4634366  73.0972467
  51.9297428 130.9864923  73.3060016  49.5793908 124.4320427  70.6774658
  48.7178387 124.7301680  70.9691396  49.6056343 124.6490826  69.7455691
  46.3955478 132.9762617  67.0848464  46.8593823 133.2550320  66.2953087
  46.1312276 132.0746062  66.9021555  45.3324364 129.0985770  63.8938029
  46.0348407 129.5506813  64.3611956  45.0004992 128.4569589  64.5217922
  43.7804725 127.6897526  78.2689239  43.1503386 128.3713807  78.5024635
  43.6740813 127.5780608  77.3242377  39.0749698 127.3569322  69.1955163
  38.2848752 127.6126851  68.7195273  39.5660945 128.1717660  69.3007203
  53.0913507 134.6974561  71.9460444  53.9130951 134.2954749  71.6643125
  53.0875910 134.5942796  72.8976559  41.0264443 127.7213902  66.1538640
  40.2295606 127.8332596  66.6722135  40.7990035 128.0600554  65.2879530
  37.3587401 127.6099813  71.6270154  37.6095439 128.4946823  71.8927730
  37.8946949 127.4304414  70.8545245  61.1819500 131.0413310  68.2945415
  60.4283209 130.4720708  68.1389420  61.3167041 131.0075974  69.2416050
  43.0585468 121.9918292  80.6314490  42.6652414 121.4384491  81.3062134
  43.8751608 122.3028871  81.0221007  45.9753429 123.4076171  78.2234746
  46.7163142 124.0083324  78.1439209  46.2071352 122.6653809  77.6652789
  41.1194767 128.5932538  76.5012976  41.0048282 127.6917796  76.8020075
  40.2639285 128.8396235  76.1497792  49.9210592 119.4357274  72.4999028
  49.5774861 120.3258916  72.4238139  50.2889554 119.2458932  71.6368613
  49.8860875 129.4265885  61.0071463  49.3707498 130.1970490  61.2459850
  49.6138183 128.7531021  61.6304524  47.4707986 124.2715586  66.0656701
  46.6149582 123.8822436  65.8862340  47.8834937 124.3507547  65.2056487
  49.0007132 121.8061929  70.4648261  48.4971928 121.7692064  69.6516066
  49.2937739 122.7154672  70.5244918  45.2450018 121.8900659  69.4714443
  46.1103015 121.6943468  69.1120332  45.3127527 121.6611011  70.3983800
  54.8595149 132.1798240  62.9424637  54.0824592 131.8409399  62.4979799
  55.5386630 132.1850863  62.2679602  49.6747178 127.2992977  62.8331244
  49.3697313 127.6139127  63.6841387  50.6277620 127.3774397  62.8758577
  53.0986456 131.6532221  69.5991245  52.4410130 132.3431483  69.6871373
  53.9026855 132.0428653  69.9425231  42.8512337 124.1202867  66.8430810
  43.4256089 123.8978048  66.1104003  43.4383320 124.1891561  67.5959411
  51.9091914 130.0076594  67.6495186  52.4223796 130.6406586  68.1516896
  52.5593138 129.4077789  67.2838546  43.1781924 126.1507328  60.8626695
  42.3419237 126.4882015  61.1835970  43.0386694 126.0156308  59.9253832
  45.1535005 120.9944116  65.5705879  44.4999417 120.6793133  64.9462494
  45.1115479 120.3719856  66.2965702  46.2646210 131.2763411  57.4859171
  45.3573272 131.0452664  57.6850320  46.7617242 130.4801030  57.6733153
  48.3872745 127.4826049  69.8953527  47.4695307 127.7040996  69.7375215
  48.8032889 127.5572360  69.0365234  49.1707793 128.8817465  65.0256207
  49.9179612 129.3938862  64.7163329  49.4399383 128.5601518  65.8860601
  47.4434443 131.3776006  62.0083161  46.5345663 131.0935039  62.1055631
  47.4729527 131.7975084  61.1486468  52.6753711 134.9882595  65.7774329
  52.2216038 134.1473505  65.8339519  52.0447677 135.6243994  66.1149109
  51.6186630 125.9174581  67.0074996  50.8809387 125.4051968  67.3385239
  51.8713404 125.4774963  66.1958273  51.7198258 118.6950833  67.6016766
  52.0257134 117.8348197  67.3142681  52.4450862 119.2868454  67.4015760
  38.0122614 129.0981520  65.9898364  37.8147013 128.5050881  65.2649430
  37.4569278 128.7933730  66.7074302  45.9919337 128.9904626  68.1092957
  46.0467947 128.0378463  68.0335433  45.1810539 129.1464065  68.5934255
  47.1410531 132.9184749  59.3471240  46.7029961 132.2020608  58.8876877
  47.8820972 133.1460864  58.7856331  43.9311697 127.6081686  65.8683336
  43.1179563 127.9075857  66.2748528  44.4270691 127.2137375  66.5857818
  49.5285909 128.0723511  74.6998229  49.8835297 128.2994984  75.5592695
  50.1758040 128.4041887  74.0775485  55.2583646 131.1941946  65.4047558
  55.1201544 131.3843542  64.4768748  54.9019865 131.9561329  65.8615610
  43.4225772 125.1800042  71.4844571  44.0625151 125.0388801  70.7867534
  42.5903303 124.8934555  71.1083172  55.2853025 133.2618474  70.4158830
  55.7189532 133.1693763  71.2641884  55.9984606 133.2375974  69.7778846
  40.5068839 128.6245554  63.6739316  39.5766427 128.5630009  63.8909278
  40.6026311 128.1021507  62.8775957  40.4254388 125.1500367  66.2617557
  40.6861206 126.0645700  66.1526718  41.2471561 124.6824809  66.4114170
  41.8979314 126.5638124  73.4316382  42.5702367 126.3555486  72.7829031
  41.0709100 126.3660210  72.9921614  56.1468575 133.3042174  72.9491715
  56.3404465 134.2087985  73.1950990  56.0469193 132.8449593  73.7830300
  47.8004886 123.1900065  75.4482043  47.1532801 123.8890014  75.3546519
  48.5705901 123.6236209  75.8158291  51.2083684 133.4548917  78.5232596
  51.0569190 133.2259469  77.6062680  51.1988363 134.4119518  78.5363941
  47.9769020 131.0280830  73.5078862  48.9061080 131.1791989  73.3347830
  47.5560050 131.1164850  72.6527509  42.3006811 129.8380727  74.1918819
  42.1626609 129.1060966  74.7930358  43.2111734 129.7489627  73.9103007
  51.2621759 131.7769131  58.9403297  50.6450929 131.0515959  58.8436350
  50.7938247 132.5378491  58.5970372  44.9289112 129.5500686  73.6802499
  45.6388730 128.9093878  73.6389117  44.8858420 129.8013581  74.6028679
  43.6418046 126.5365904  75.4998138  43.1055403 126.0856642  76.1519734
  43.0534754 126.6711813  74.7568602  43.0520305 125.9954555  58.0624602
  42.1749771 125.8743356  57.6986848  43.5278058 125.2040634  57.8103490
  52.9193298 134.4507623  74.8323058  52.0320076 134.1133545  74.9549456
  53.4891849 133.7190655  75.0691823  39.3757167 125.6721912  72.5851133
  39.2915356 125.0647581  71.8501543  38.5539873 126.1630930  72.5860629
  49.5480881 124.1575475  67.9521328  50.0449580 123.4045438  67.6322398
  48.7767862 124.1939792  67.3864537  57.4010638 129.8615841  69.5939619
  57.3900514 130.7440556  69.2233552  56.5328018 129.5087392  69.3994156
  50.6310661 132.9147162  65.5259751  49.6966940 133.0348625  65.3564455
  50.8087330 132.0119629  65.2619761  46.1315849 126.2992858  67.6793012
  45.7613637 125.7463899  68.3673918  46.6274942 125.6950992  67.1268012
  54.0183213 128.7564482  66.0609785  54.4843665 129.5892473  65.9870088
  54.4690713 128.2909463  66.7655044  52.0859444 135.1008303  63.0595937
  52.3619288 134.9864898  63.9689811  51.2163943 134.7025788  63.0208110
  51.9899876 121.1245069  70.1000687  51.0762955 121.3549296  70.2682893
  52.4192977 121.2083513  70.9514719  51.7606334 129.3134961  72.6000581
  51.1077784 129.5610868  71.9453033  52.1386714 128.4999099  72.2663058
  47.8093907 130.0554772  79.0866618  47.1334544 129.9548901  79.7568993
  48.6321541 129.8993985  79.5502615  34.1490421 128.8632309  70.4283576
  34.1874520 128.3295899  71.2220694  33.6430714 128.3367514  69.8094553
  41.5281183 123.7096849  73.9246118  41.5922510 124.5711680  73.5123516
  41.4648303 123.0970851  73.1918477  41.0033456 125.7819982  77.5719153
  41.6305494 125.3997059  78.1856677  40.1461375 125.5634183  77.9374845
  37.7798998 127.5896411  63.5037507  38.0752440 126.6807089  63.4504561
  36.8787034 127.5684150  63.1818510  41.3093245 125.6652407  69.4865056
  40.5879831 126.2788375  69.3472529  42.0986501 126.2010172  69.4081702
  44.1119559 123.0006834  75.7605708  44.6353961 123.2469130  76.5232017
  43.8931892 123.8326869  75.3408845  39.5086840 125.2710508  63.6276833
  39.1799546 124.3907887  63.4451938  39.8626211 125.2158177  64.5153222
  42.6228663 125.5583478  63.9952310  42.9624736 126.0869399  63.2730919
  43.0700784 125.8963884  64.7710877  45.3172104 123.9420529  73.4455378
  44.9768924 123.1428342  73.8476058  44.6111110 124.2422240  72.8732211
  45.9688576 121.0269841  71.8982701  46.7914645 120.5530319  71.7761592
  46.2126639 121.8060325  72.3981388  44.6096810 124.0558100  62.1945603
  45.3305173 124.4339352  61.6909320  43.9862114 124.7746977  62.2980581
  48.7527933 124.7603249  63.1303935  48.9691548 125.6427887  62.8292764
  48.2722000 124.3689462  62.4009577  43.4927155 127.7188962  69.7074680
  43.3471735 128.0329265  70.5998961  43.0152358 128.3373862  69.1545579
  45.3523537 124.7091510  69.7555569  45.3385106 123.8132603  69.4187867
  46.0695966 124.7162174  70.3893856  47.2049668 125.1428850  71.8008697
  46.9467446 126.0645921  71.7993027  46.6734709 124.7459285  72.4909161
  44.7560433 123.5905890  65.0243140  44.8776345 122.6622536  65.2234027
  44.4662476 123.6044576  64.1121455  47.6251624 121.2760801  68.1609859
  47.6473321 121.3400134  67.2061839  48.0419683 120.4365309  68.3550366
  58.0035248 131.0116060  66.1989082  58.4466394 130.2623385  65.8008205
  57.1261758 131.0026197  65.8162814  38.7538839 129.3864203  75.5392498
  38.0120575 129.5346838  76.1257128  38.4331583 129.6472468  74.6759247
  55.0362453 135.0146107  63.2083011  55.5613777 135.3533380  62.4832331
  54.9484805 134.0793122  63.0246146  44.2401513 125.1037888  79.2333072
  44.2889668 125.9800010  78.8510842  44.7824027 124.5615281  78.6604715
  54.7256359 135.6479011  78.5134209  53.9351902 135.6303150  77.9738709
  54.4889713 136.1867304  79.2683246  54.8454234 132.4971477  75.8266938
  54.8952239 132.3321485  76.7682461  54.7368157 131.6298736  75.4364819
  52.1357996 128.4802405  77.1426245  53.0367859 128.3408870  76.8510242
  52.2105971 128.6456860  78.0824422  46.4700801 125.8569260  75.9879431
  45.6004111 126.1502826  75.7162019  46.7060282 126.4409705  76.7086695
  56.3472430 134.9168419  76.0708959  56.0557239 135.2798399  76.9072420
  55.7344562 134.2035427  75.8922291  57.5468113 132.4821298  68.5911530
  58.3815004 132.9211103  68.7549090  57.6827242 132.0059952  67.7719775
  54.5959619 130.0401033  74.5389017  55.0713740 130.2328680  73.7307869
  53.6725184 130.0960219  74.2932401  41.4843125 131.2025200  64.1220096
  41.2389167 130.2987530  64.3200306  41.6539040 131.2042351  63.1799574
  49.1739835 122.0748877  73.5044851  49.6921779 122.8109904  73.1791340
  48.8194968 122.3812870  74.3391610  40.7538773 126.9353558  61.6206257
  40.0608018 127.0097913  60.9646293  40.5090525 126.1713902  62.1427774
  49.4252429 118.4949159  69.0245748  49.7054183 117.8272348  69.6506174
  50.2103036 118.6878255  68.5120412  53.2961288 126.9166793  72.7717323
  54.2478711 127.0164891  72.7929547  53.1264738 126.1245062  73.2815407
  51.3175667 124.0022377  72.9576724  50.7225599 124.2827389  72.2623213
  51.0325364 124.4916278  73.7293465  55.7749366 130.1372913  71.8859623
  55.7425686 129.1988914  72.0719306  56.3849989 130.2156950  71.1525448
  47.6132696 129.0068966  57.9286827  48.5591801 128.8775174  57.9975245
  47.2346941 128.2683628  58.4056255  55.9243854 126.9283957  71.9317906
  55.4082903 126.1442413  71.7447835  56.8083803 126.6002673  72.0964425
  53.5854581 120.6724972  67.8913718  53.3879402 120.3640060  68.7757050
  54.1954286 121.3986611  68.0211648  61.5925915 131.1988920  71.0265659
  62.3229304 130.9374208  71.5873363  60.9832861 130.4617642  71.0667727
  59.6741212 129.3396783  71.6240111  58.9474376 129.2052747  71.0156602
  59.2588499 129.6473611  72.4296829  47.4971389 133.0586712  79.3887484
  48.4174398 133.2365311  79.5827530  47.4620972 132.1142758  79.2367183
  45.7975614 126.9318942  57.8641712  44.8907069 126.6352055  57.9404426
  46.0751595 126.6348761  56.9975998  36.7153554 128.2525306  68.3140758
  36.3956338 127.3990614  68.0215132  36.1686982 128.4673884  69.0698726
  47.4137679 121.4755832  64.0185953  46.6038408 121.1302917  64.3941199
  48.1022096 121.1663376  64.6073565  49.3428228 120.5533879  65.6410250
  49.8959266 120.9729332  66.3000273  49.5798314 119.6269627  65.6833206
  45.3661327 126.5420953  81.4213014  45.2658054 127.4915310  81.3525105
  45.1482869 126.2139192  80.5489084  44.5674398 123.7905878  58.0053691
  45.4293562 124.1160776  58.2649508  44.7524742 123.0037374  57.4926757
  52.7207035 122.6634404  65.1488914  52.1405704 123.3219208  64.7666967
  52.4542967 121.8411749  64.7376332  51.1710601 122.0639462  67.3510234
  51.6710379 122.1755996  66.5424553  51.8146209 121.7600515  67.9911043
  45.2292597 129.9718091  80.2378075  44.7459679 130.7718452  80.4441964
  45.3153536 129.9826036  79.2845519  51.5031913 124.8234495  64.2045262
  50.6157768 125.1084145  63.9865457  51.9185902 124.6628258  63.3572539
  54.8546449 124.8481015  67.9199602  55.6306839 125.3377468  68.1924218
  54.1294583 125.2739070  68.3771471  57.2919007 125.5608635  68.9773542
  57.8863498 125.3204371  68.2666850  57.3645591 124.8415765  69.6047079
  51.4772936 130.3389030  64.4195553  51.4208138 130.7957582  63.5803185
  52.0301279 129.5779715  64.2418395  55.2877742 126.1278762  65.2445672
  55.0314677 125.7275398  66.0753880  54.6630610 126.8422556  65.1195811
  59.5990080 128.8674836  67.7516963  59.0389638 128.9368025  68.5248525
  58.9933584 128.6915820  67.0316460  52.5561824 135.0261698  60.3491742
  53.3907427 134.5942897  60.1669217  52.3946166 134.8543712  61.2768637
  52.2107716 131.5293812  61.7148082  52.1556519 131.3638083  60.7736526
  51.5853771 132.2369845  61.8710271  37.0000231 126.7661876  75.5409504
  37.6459094 126.2560830  76.0296729  36.7917382 127.5030558  76.1152929
  49.5253623 133.8342724  81.0401644  50.3944782 134.0083376  80.6788279
  49.0460374 134.6537140  80.9177374  45.5203841 121.0301921  61.2933400
  45.5082511 121.9743761  61.4501671  46.4127263 120.8472066  60.9992861
  49.3355961 117.6244697  65.5479337  48.5688356 117.0703184  65.6936019
  49.7466666 117.6966566  66.4093489  41.3397722 123.9129493  79.6384518
  42.2029183 123.5566298  79.8487843  40.7663132 123.5743388  80.3259922
  63.6621215 136.9179611  72.8827714  63.3304539 137.7875022  72.6588929
  63.0666828 136.6015895  73.5621745  65.4211524 139.8391135  71.7398938
  64.7785905 140.1323668  71.0938733  64.9166453 139.7244056  72.5452135
  60.7604346 134.7649192  72.4999028  60.4168616 135.6550834  72.4238139
  61.1283309 134.5750849  71.6368613  59.8400887 137.1353847  70.4648261
  59.3365682 137.0983982  69.6516066  60.1331494 138.0446590  70.5244918
  56.0843773 137.2192577  69.4714443  56.9496769 137.0235385  69.1120332
  56.1521282 136.9902928  70.3983800  55.9928759 136.3236034  65.5705879
  55.3393172 136.0085051  64.9462494  55.9509234 135.7011774  66.2965702
  62.5592012 134.0242751  67.6016766  62.8650889 133.1640114  67.3142681
  63.2844617 134.6160371  67.4015760  62.8293630 136.4536986  70.1000687
  61.9156710 136.6841213  70.2682893  63.2586731 136.5375430  70.9514719
  56.8082330 136.3561759  71.8982701  57.6308400 135.8822237  71.7761592
  57.0520394 137.1352243  72.3981388  58.4645378 136.6052718  68.1609859
  58.4867075 136.6692051  67.2061839  58.8813437 135.7657227  68.3550366
  60.0133590 137.4040795  73.5044851  60.5315534 138.1401821  73.1791340
  59.6588722 137.7104788  74.3391610  60.2646184 133.8241077  69.0245748
  60.5447938 133.1564266  69.6506174  61.0496791 134.0170173  68.5120412
  64.4248335 136.0016890  67.8913718  64.2273157 135.6931978  68.7757050
  65.0348041 136.7278529  68.0211648  58.2531434 136.8047750  64.0185953
  57.4432162 136.4594835  64.3941199  58.9415851 136.4955294  64.6073565
  60.1821982 135.8825797  65.6410250  60.7353021 136.3021250  66.3000273
  60.4192068 134.9561545  65.6833206  63.5600789 137.9926322  65.1488914
  62.9799458 138.6511126  64.7666967  63.2936722 137.1703666  64.7376332
  62.0104355 137.3931380  67.3510234  62.5104134 137.5047914  66.5424553
  62.6539963 137.0892432  67.9911043  68.1312762 140.8900552  68.9773542
  68.7257253 140.6496288  68.2666850  68.2039346 140.1707683  69.6047079
  56.3597596 136.3593838  61.2933400  56.3476265 137.3035678  61.4501671
  57.2521018 136.1763984  60.9992861  60.1749715 132.9536615  65.5479337
  59.4082111 132.3995102  65.6936019  60.5860420 133.0258484  66.4093489
   6.9850729  31.4015844  55.0190722   6.2314437  30.8323242  54.8634726
   7.1198270  31.3678509  55.9661356   1.0614875  31.5544481  52.1292865
   0.9232773  31.7446077  51.2014054   0.7051093  32.3163864  52.5860916
   1.0884254  33.6221008  57.1404137   1.5220761  33.5296297  57.9887191
   1.8015835  33.5978508  56.5024153   1.9499804  33.6644708  59.6737022
   2.1435694  34.5690519  59.9196297   1.8500422  33.2052127  60.5075607
   3.2041867  30.2218375  56.3184926   3.1931743  31.1043090  55.9478859
   2.3359246  29.8689926  56.1239463   3.8066477  31.3718594  52.9234389
   4.2497623  30.6225920  52.5253512   2.9292987  31.3628731  52.5408121
   0.8393681  35.3748641  49.9328318   1.3645005  35.7135914  49.2077638
   0.7516034  34.4395657  49.7491453   0.6485462  32.8574011  62.5512245
   0.6983467  32.6924019  63.4927767   0.5399386  31.9901270  62.1610125
   2.1503659  35.2770953  62.7954266   1.8588468  35.6400933  63.6317727
   1.5375791  34.5637961  62.6167598   3.3499342  32.8423833  55.3156836
   4.1846233  33.2813637  55.4794397   3.4858470  32.3662486  54.4965082
   1.5780594  30.4975447  58.6104929   1.5456914  29.5591448  58.7964613
   2.1881218  30.5759484  57.8770754   1.7275083  27.2886491  58.6563212
   1.2114131  26.5044947  58.4693141   2.6115031  26.9605207  58.8209732
   7.3957144  31.5591454  57.7510966   8.1260533  31.2976742  58.3118669
   6.7864090  30.8220176  57.7913034   5.4772441  29.6999317  58.3485417
   4.7505605  29.5655282  57.7401909   5.0619728  30.0076145  59.1542135
   3.0950236  25.9211169  55.7018849   3.6894727  25.6806905  54.9912157
   3.1676820  25.2018299  56.3292385   1.0908971  26.4881297  51.9690979
   0.8345905  26.0877932  52.7999186   0.4661839  27.2025090  51.8441118
   5.4021309  29.2277370  54.4762270   4.8420867  29.2970559  55.2493832
   4.7964812  29.0518354  53.7561766   6.9877327  45.9033884  57.1692226
   7.6255737  45.7840631  56.4655566   6.8698170  46.8514728  57.2280178
   3.7967034  45.8561312  57.1053750   3.4585545  45.7402377  56.2174285
   4.6656802  45.4552477  57.0854757   4.2786817  47.0096164  63.0639956
   4.2675457  46.6148962  62.1920460   4.4407456  46.2762236  63.6573727
   5.2353408  51.3767756  48.4065106   4.5841388  51.9621836  48.0199120
   6.0297771  51.9073951  48.4660144   0.9994078  49.7933275  62.0119140
   0.7083944  50.6978906  61.8965806   1.6351062  49.8349803  62.7263210
   1.9250285  47.1710124  58.6020500   2.5213857  46.9466146  57.8877463
   1.9825256  46.4294869  59.2045947   1.4975313  44.6249559  46.4370691
   1.7500834  44.1031080  45.6754154   0.5599872  44.4615705  46.5397374
   6.5418596  43.6285338  54.2445434   7.3281685  43.2104761  53.8935851
   6.8057300  44.5331430  54.4127082   6.7128673  49.0658188  48.9434091
   6.0774506  49.1392814  49.6554995   6.3826080  49.6551787  48.2653170
  11.9427023  43.5660571  55.1478412  12.6752195  42.9959788  55.3816242
  11.1866379  43.1782171  55.5884918   1.2171602  46.5277665  48.6395066
   1.1007860  45.8522569  49.3076150   1.3273862  46.0410039  47.8227219
   3.5603143  45.9887812  52.3441755   3.1961350  45.4618433  53.0554676
   4.4170259  45.5986281  52.1708240   9.4652443  37.2782145  59.6073021
   9.1335768  38.1477556  59.3834236   8.8698057  36.9618429  60.2867051
   3.2008630  41.0177712  47.3403103   3.3683032  41.8857948  47.7073574
   3.0105799  41.1804994  46.4164393   5.9583963  49.4794691  59.0068934
   5.6584686  50.3819730  58.8984741   5.6135022  49.2126874  59.8590087
   9.3581107  41.9977231  56.6866371   8.4497984  41.9292639  56.3925132
   9.3068702  42.4749176  57.5148196   3.1797851  43.4735369  48.3249770
   3.0597476  43.9192420  49.1635250   2.4850439  43.8220687  47.7663308
   3.4321972  43.4166877  64.6301268   2.6555307  43.9760797  64.6204133
   4.0712536  43.9023660  65.1516138  11.2242753  40.1993669  58.4644245
  10.5817133  40.4926203  57.8184040  10.7197682  40.0846590  59.2697442
   8.8782917  43.9456843  49.1530104   9.7900773  44.1784229  48.9777802
   8.3692564  44.5293887  48.5905183   1.6868345  46.2252330  64.1919235
   2.4283029  46.7637374  63.9154059   0.9805330  46.8518619  64.3490787
   7.1623684  48.3681470  62.7891397   7.5707040  47.9263881  62.0446029
   6.4400946  47.7934098  63.0425590   3.5154754  43.3054077  60.1624954
   4.3615950  43.7293491  60.3059603   3.4553392  42.6487702  60.8563517
   7.4852499  48.9282661  56.5443686   6.8561362  49.0928375  55.8419754
   7.0978161  49.3424271  57.3154650  11.3641731  49.8637099  53.8988049
  10.6792769  50.2436000  53.3485083  11.4485580  50.4732426  54.6319997
   6.6654200  40.9658446  61.8206127   6.4215132  41.7200506  61.2840403
   6.9414130  41.3443793  62.6553374   8.6192663  47.5097058  60.4983393
   8.8309558  48.1528818  59.8217774   8.5722411  46.6759375  60.0305323
   6.2218892  40.1214879  57.4019965   5.3603371  40.4196132  57.6936703
   6.2481326  40.3385277  56.4700998   3.0380461  48.6657069  53.8093771
   3.5018806  48.9444772  53.0198393   2.7737259  47.7640514  53.6266861
   1.9749347  44.7880222  50.6183336   2.6773390  45.2401265  51.0857262
   1.6429975  44.1464040  51.2463229   9.7338491  50.3869013  58.6705750
  10.5555934  49.9849201  58.3888432   9.7300893  50.2837248  59.6221866
   3.4995094  49.9353057  60.8266461   3.5639526  50.3973464  61.6624633
   2.7906018  49.3050422  60.9548771  17.8244484  46.7307762  55.0190722
  17.0708192  46.1615160  54.8634726  17.9592025  46.6970426  55.9661356
   3.2143112  51.6021164  50.6945441   3.0788786  52.4472700  51.1230289
   3.7552924  51.8040442  49.9311375   2.6178412  39.0970623  64.9480053
   3.3588126  39.6977776  64.8684515   2.8496335  38.3548261  64.3898095
   4.8411588  52.2244731  64.8245783   4.3975442  51.4381109  64.5066688
   5.5028802  52.4123881  64.1589674   6.9392826  52.5047531  62.8527184
   6.9211301  53.3256412  62.3607454   7.8612746  52.3801606  63.0777326
   3.3965880  50.0191660  63.6950693   3.9294217  49.2579948  63.4650001
   2.8679961  49.7265312  64.4374847   6.5635575  35.1251726  59.2244335
   6.2199845  36.0153368  59.1483445   6.9314538  34.9353384  58.3613920
   6.5285858  45.1160337  47.7316770   6.0132481  45.8864942  47.9705157
   6.2563166  44.4425473  48.3549831   4.1132969  39.9610038  52.7902008
   3.2574565  39.5716888  52.6107647   4.5259921  40.0401999  51.9301794
   5.6432116  37.4956381  57.1893568   5.1396911  37.4586516  56.3761373
   5.9362722  38.4049124  57.2490224   1.8875001  37.5795111  56.1959750
   2.7527998  37.3837920  55.8365639   1.9552510  37.3505463  57.1229106
  11.5020132  47.8692692  49.6669943  10.7249575  47.5303851  49.2225105
  12.1811613  47.8745315  48.9924908   6.3172161  42.9887429  49.5576551
   6.0122297  43.3033578  50.4086694   7.2702603  43.0668849  49.6003884
   4.7618593  49.1477653  51.2069505   4.2339954  48.4130412  50.8942742
   4.2606096  49.9252329  50.9609473   9.7411439  47.3426673  56.3236551
   9.0835113  48.0325934  56.4116680  10.5451838  47.7323105  56.6670537
   8.5516898  45.6971046  54.3740493   9.0648779  46.3301038  54.8762203
   9.2018122  45.0972241  54.0083853   1.7959988  36.6838568  52.2951186
   1.1424401  36.3687585  51.6707801   1.7540462  36.0614308  53.0211009
   2.9071193  46.9657863  44.2104478   1.9998255  46.7347116  44.4095627
   3.4042225  46.1695482  44.3978459   5.8139272  55.6755370  47.1301164
   5.1400971  55.9787067  47.7386122   6.2005094  56.4784450  46.7806621
   5.0297729  43.1720501  56.6198833   4.1120290  43.3935448  56.4620521
   5.4457872  43.2466812  55.7610541   5.8132776  44.5711917  51.7501514
   6.5604595  45.0833314  51.4408636   6.0824366  44.2495970  52.6105907
   4.0859427  47.0670458  48.7328468   3.1770646  46.7829491  48.8300938
   4.1154510  47.4869536  47.8731775   9.3178694  50.6777047  52.5019636
   8.8641021  49.8367957  52.5584826   8.6872661  51.3138446  52.8394416
   8.2611614  41.6069033  53.7320303   7.5234370  41.0946419  54.0630546
   8.5138387  41.1669415  52.9203580   7.7611633  52.5153544  53.4369454
   8.0534608  53.0758601  52.7181819   8.2710254  52.8082105  54.1922613
   8.3623241  34.3845285  54.3262072   8.6682118  33.5242649  54.0387987
   9.0875846  34.9762905  54.1261066   2.6344321  44.6799078  54.8338263
   2.6892930  43.7272915  54.7580740   1.8235523  44.8358517  55.3179562
   3.7835514  48.6079201  46.0716547   3.3454944  47.8915060  45.6122184
   4.5245955  48.8355316  45.5101638   2.7245258  53.2933895  54.5262907
   2.6821437  53.5194741  53.5971439   3.6407957  53.0597270  54.6748708
   6.1710892  43.7617963  61.4243536   6.5260280  43.9889436  62.2838002
   6.8183023  44.0936339  60.8020791  11.9008629  46.8836398  52.1292865
  11.7626528  47.0737994  51.2014054  11.5444848  47.6455781  52.5860916
  11.9278009  48.9512925  57.1404137  12.3614515  48.8588214  57.9887191
  12.6409589  48.9270426  56.5024153   5.6605904  52.5515020  58.6737237
   5.7142926  53.1205956  59.4414953   4.7920685  52.7216905  58.3091274
  12.7893558  48.9936626  59.6737022  12.9829448  49.8982437  59.9196297
  12.6894176  48.5344045  60.5075607   4.4429869  38.8794517  62.1727349
   3.7957784  39.5784466  62.0791826   5.2130884  39.3130661  62.5403598
   7.8508667  49.1443369  65.2477903   7.6994173  48.9153920  64.3307986
   7.8413346  50.1013970  65.2609248   4.6194003  46.7175282  60.2324169
   5.5486063  46.8686441  60.0593136   4.1985033  46.8059302  59.3772816
   3.4182335  50.7425946  58.0022707   3.2793421  50.3744730  58.8748645
   2.6296931  51.2573585  57.8306664   4.0130487  55.8435042  49.3448243
   4.1882243  55.3723086  50.1593866   3.3263275  56.4700809  49.5729504
   4.9687550  50.1207549  55.3911544   4.6337383  50.0808319  56.2869194
   4.4691496  49.4552265  54.9181955   7.9046742  47.4663583  45.6648604
   7.2875913  46.7410411  45.5681657   7.4363230  48.2272943  45.3215678
   1.5714095  45.2395138  60.4047805   2.2813713  44.5988330  60.3634424
   1.5283403  45.4908033  61.3273986   9.5600874  52.1762491  63.3254384
   9.5013420  51.4921711  62.6584968   9.9620392  52.9181481  62.8735010
   9.5618281  50.1402075  61.5568364   8.6745060  49.8027997  61.6794763
  10.1316832  49.4085107  61.7937130   3.0919434  54.8003528  58.5229607
   3.0189606  55.6058499  59.0348912   2.6496827  54.9995493  57.6977629
   2.8809214  54.0375298  52.0332429   2.0976736  54.5796978  52.1270653
   3.5801959  54.5549277  52.4326670   6.1905864  39.8469927  54.6766634
   6.6874564  39.0939889  54.3567705   5.4192846  39.8834244  54.1109844
  14.0435621  45.5510293  56.3184926  14.0325498  46.4335008  55.9478859
  13.1753001  45.1981843  56.1239463   5.5518118  54.6990362  60.6787766
   6.2646090  55.3337826  60.6063667   5.0608146  54.7954228  59.8627768
   7.2735645  48.6041614  52.2505058   6.3391923  48.7243077  52.0809762
   7.4512313  47.7014081  51.9865068   2.7740833  41.9887310  54.4038319
   2.4038620  41.4358350  55.0919224   3.2699925  41.3845444  53.8513319
  10.6608196  44.4458934  52.7855092  11.1268648  45.2786925  52.7115394
  11.1115697  43.9803915  53.4900350   8.7284427  50.7902755  49.7841244
   9.0044271  50.6759350  50.6935118   7.8588926  50.3920240  49.7453417
   8.6324859  36.8139521  56.8245993   7.7187939  37.0443747  56.9928200
   9.0617960  36.8977965  57.6760026   8.4031317  45.0029413  59.3245887
   7.7502768  45.2505320  58.6698340   8.7811697  44.1893551  58.9908364
   5.3638491  55.0389106  53.4274057   5.5460886  54.2210762  53.8901810
   6.1871477  55.2556798  52.9898947   5.6980657  53.9657291  50.6889106
   6.2268423  53.4549745  50.0759268   5.9608876  53.6499821  51.5534639
   4.4518890  45.7449224  65.8111924   3.7759527  45.6443353  66.4814300
   5.2746524  45.5888437  66.2747922   3.1941673  57.0516151  60.0469540
   3.7459981  57.2147773  60.8118626   3.5347867  57.6420589  59.3749565
   8.0452548  51.8777409  65.9018195   8.5892452  52.4907367  65.4073150
   7.4639392  52.4356987  66.4185208   6.3310060  54.9998127  57.0333222
   6.2061200  54.1987866  56.5244168   6.9889152  55.4944320  56.5447192
   8.3944969  52.8007147  58.6612773   7.4475304  52.6812498  58.5891099
   8.7427742  51.9129645  58.7439034   0.7544542  38.6901286  62.4851014
   1.2778944  38.9363582  63.2477324   0.5356876  39.5221320  62.0654152
   5.3991402  52.5959863  54.8617125   5.2516365  51.6676570  55.0424695
   6.2244896  52.6179954  54.3774200   9.0025524  53.4188422  55.9481998
   9.9272071  53.2131283  55.8106449   8.8340827  53.1704823  56.8571339
   1.9597087  39.6314981  60.1700685   1.6193908  38.8322794  60.5721365
   1.2536094  39.9316692  59.5977518   2.6113559  36.7164293  58.6228008
   3.4339628  36.2424771  58.5006898   2.8551623  37.4954777  59.1226694
   1.2521794  39.7452552  48.9190910   1.9730156  40.1233804  48.4154627
   0.6287098  40.4641428  49.0225888   5.3952916  40.4497701  49.8549242
   5.6116531  41.3322338  49.5538070   4.9146984  40.0583914  49.1254884
   1.9948521  40.3985962  56.4800876   1.9810090  39.5027055  56.1433174
   2.7120949  40.4056626  57.1139162   3.8474651  40.8323302  58.5254004
   3.5892429  41.7540373  58.5238334   3.3159692  40.4353737  59.2154468
   8.7920840  53.9374089  51.3044089   8.9657718  53.3720512  50.5517941
   9.2849731  54.7374984  51.1223579   1.3985417  39.2800342  51.7488446
   1.5201328  38.3516988  51.9479334   1.1087459  39.2939028  50.8366762
   4.2676607  36.9655252  54.8855166   4.2898304  37.0294586  53.9307146
   4.6844666  36.1259761  55.0795672  14.6460231  46.7010512  52.9234389
  15.0891377  45.9517837  52.5253512  13.7686742  46.6920648  52.5408121
   9.7796013  53.2540854  48.4040987  10.4746917  53.8747546  48.6228302
  10.1219163  52.4036205  48.6793365  11.6787436  50.7040559  49.9328318
  12.2038760  51.0427832  49.2077638  11.5909788  49.7687574  49.7491453
   3.3407485  54.6174633  62.0618195   3.6494611  54.3723779  62.9340894
   4.1382967  54.8221271  61.5737065   3.3628097  56.7712542  54.2923571
   2.9233087  56.2788921  54.9856428   4.1136214  56.2285510  54.0515646
   0.8826496  40.7932339  65.9578379   0.9314652  41.6694462  65.5756148
   1.4249010  40.2509732  65.3850022  11.3681342  51.3373463  65.2379516
  10.5776886  51.3197602  64.6984015  11.1314696  51.8761756  65.9928553
  11.4879217  48.1865929  62.5512245  11.5377222  48.0215936  63.4927767
  11.3793140  47.3193188  62.1610125   8.7782979  44.1696857  63.8671551
   9.6792842  44.0303322  63.5755549   8.8530954  44.3351312  64.8069729
   3.1125785  41.5463712  62.7124738   2.2429094  41.8397278  62.4407326
   3.3485265  42.1304157  63.4332001  12.9897414  50.6062871  62.7954266
  12.6982222  50.9692851  63.6317727  12.3769545  49.8929879  62.6167598
  14.1893096  48.1715750  55.3156836  15.0239987  48.6105554  55.4794397
  14.3252225  47.6954404  54.4965082  11.2384602  45.7295485  61.2634324
  11.7138724  45.9223132  60.4553175  10.3150167  45.7854671  61.0177708
   5.8164818  37.7643329  60.2290158   6.3346762  38.5004356  59.9036646
   5.4619951  38.0707322  61.0636917   6.0677413  34.1843611  55.7491055
   6.3479166  33.5166800  56.3751481   6.8528020  34.3772707  55.2365718
   3.8710881  53.3602605  47.3116081   3.2984848  53.9792792  46.8586553
   4.4443675  53.9101967  47.8456003   9.9386271  42.6061245  59.4962630
  10.8903694  42.7059343  59.5174854   9.7689721  41.8139514  60.0060714
   7.9600650  39.6916828  59.6822031   7.3650583  39.9721841  58.9868519
   7.6750347  40.1810729  60.4538772   7.0908141  53.6439755  48.4424663
   8.0238814  53.5785317  48.6457539   7.0031354  54.4796022  47.9839196
   9.7196158  52.9605626  45.4028611   9.6409789  52.6265489  46.2964369
  10.5405824  53.4527394  45.4020083  12.4174349  45.8267365  58.6104929
  12.3850669  44.8883366  58.7964613  13.0274972  45.9051402  57.8770754
   4.2557680  44.6963418  44.6532133   5.2016784  44.5669626  44.7220551
   3.8771925  43.9578080  45.1301561  12.5668837  42.6178408  58.6563212
  12.0507886  41.8336865  58.4693141  13.4508786  42.2897125  58.8209732
  10.2279564  36.3619424  54.6159025  10.0304385  36.0534512  55.5002357
  10.8379270  37.0881063  54.7456955  18.2350899  46.8883372  57.7510966
  18.9654287  46.6268660  58.3118669  17.6257844  46.1512094  57.7913034
  16.3166196  45.0291234  58.3485417  15.5899359  44.8947199  57.7401909
  15.9013483  45.3368063  59.1542135   4.1396372  48.7481164  66.1132790
   5.0599382  48.9259763  66.3072837   4.1045955  47.8037209  65.9612490
   2.4400597  42.6213394  44.5887019   1.5332052  42.3246507  44.6649732
   2.7176578  42.3243212  43.7221305   4.0562663  37.1650284  50.7431260
   3.2463391  36.8197369  51.1186506   4.7447079  36.8557828  51.3318871
   5.9853211  36.2428331  52.3655556   6.5384249  36.6623784  53.0245580
   6.2223297  35.3164079  52.4078512   2.0086310  42.2315404  68.1458320
   1.9083037  43.1809761  68.0770411   1.7907852  41.9033643  67.2734390
   1.2099381  39.4800330  44.7298998   2.0718545  39.8055228  44.9894815
   1.3949726  38.6931825  44.2172064   9.3632018  38.3528856  51.8734221
   8.7830687  39.0113660  51.4912273   9.0967951  37.5306201  51.4621638
   7.8135584  37.7533914  54.0755541   8.3135363  37.8650448  53.2669860
   8.4571192  37.4494967  54.7156350   1.8717580  45.6612543  66.9623382
   1.3884662  46.4612903  67.1687271   1.9578519  45.6720488  66.0090826
   8.1456896  40.5128946  50.9290569   7.2582751  40.7978597  50.7110764
   8.5610885  40.3522710  50.0817846  11.4971432  40.5375467  54.6444908
  12.2731822  41.0271920  54.9169525  10.7719566  40.9633522  55.1016778
  13.9343991  41.2503087  55.7018849  14.5288481  41.0098823  54.9912157
  14.0070574  40.5310217  56.3292385   7.2900109  50.2773621  45.0238589
   7.9935960  50.4823624  45.6396245   6.5662758  50.8450383  45.2887673
   8.1197920  46.0283482  51.1440859   8.0633121  46.4852034  50.3048492
   8.6726262  45.2674167  50.9663702  11.9302726  41.8173214  51.9690979
  11.6739660  41.4169850  52.7999186  11.3055594  42.5317008  51.8441118
  16.2415063  44.5569287  54.4762270  15.6814621  44.6262477  55.2493832
  15.6358567  44.3810272  53.7561766   9.1986807  50.7156150  47.0737049
  10.0332411  50.2837349  46.8914524   9.0371150  50.5438164  48.0013944
   8.8532699  47.2188264  48.4393388   8.7981503  47.0532535  47.4981832
   8.2278754  47.9264296  48.5955578   6.1678606  49.5237175  67.7646951
   7.0369766  49.6977828  67.4033586   5.6885358  50.3431592  67.6422680
   2.1628824  36.7196373  48.0178707   2.1507494  37.6638212  48.1746978
   3.0552246  36.5366518  47.7238168   2.0918388  55.3965263  56.1046463
   1.1414019  55.3967125  55.9910836   2.3950875  54.6497998  55.5882498
   5.9780944  33.3139149  52.2724644   5.2113340  32.7597636  52.4181326
   6.3891649  33.3861018  53.1338795  17.8271082  61.2325801  57.1692226
  18.4649492  61.1132549  56.4655566  17.7091925  62.1806645  57.2280178
  14.6360788  61.1853229  57.1053750  14.2979300  61.0694294  56.2174285
  15.5050556  60.7844395  57.0854757  10.4947604  63.0388706  53.0950641
   9.9312469  62.9478643  52.3266929  10.3799999  62.2188610  53.5753134
  15.1180571  62.3388081  63.0639956  15.1069212  61.9440879  62.1920460
  15.2801211  61.6054154  63.6573727   8.0412036  64.5339897  55.9334862
   8.8333328  64.1930722  55.5181161   8.2808686  64.6434873  56.8537015
  16.0747163  66.7059674  48.4065106  15.4235142  67.2913754  48.0199120
  16.8691525  67.2365869  48.4660144  10.0002790  63.7948811  48.8052241
  10.7733666  63.2477798  48.6665116  10.3528189  64.6593060  49.0166702
  11.8387832  65.1225193  62.0119140  11.5477698  66.0270824  61.8965806
  12.4744817  65.1641721  62.7263210  12.7644039  62.5002042  58.6020500
  13.3607611  62.2758064  57.8877463  12.8219011  61.7586787  59.2045947
  12.3369068  59.9541477  46.4370691  12.5894588  59.4322998  45.6754154
  11.3993627  59.7907622  46.5397374  17.3812350  58.9577255  54.2445434
  18.1675440  58.5396678  53.8935851  17.6451055  59.8623347  54.4127082
  17.5522428  64.3950106  48.9434091  16.9168261  64.4684732  49.6554995
  17.2219834  64.9843704  48.2653170  22.7820778  58.8952488  55.1478412
  23.5145949  58.3251705  55.3816242  22.0260133  58.5074089  55.5884918
  12.0565356  61.8569583  48.6395066  11.9401614  61.1814486  49.3076150
  12.1667616  61.3701957  47.8227219  14.3996897  61.3179730  52.3441755
  14.0355104  60.7910351  53.0554676  15.2564013  60.9278199  52.1708240
  20.3046198  52.6074063  59.6073021  19.9729523  53.4769473  59.3834236
  19.7091811  52.2910347  60.2867051  14.0402384  56.3469630  47.3403103
  14.2076787  57.2149866  47.7073574  13.8499553  56.5096911  46.4164393
  16.7977717  64.8086609  59.0068934  16.4978440  65.7111647  58.8984741
  16.4528777  64.5418792  59.8590087  10.2490199  61.2600405  55.0405638
   9.3240695  61.1276619  55.2483330  10.4974612  62.0394625  55.5375581
  20.1974861  57.3269149  56.6866371  19.2891739  57.2584557  56.3925132
  20.1462457  57.8041094  57.5148196  14.0191605  58.8027287  48.3249770
  13.8991230  59.2484338  49.1635250  13.3244193  59.1512605  47.7663308
   7.6099010  60.9033679  55.8749427   7.7391391  61.1568158  56.7888839
   6.9296461  61.4961387  55.5554082  11.7798497  71.5730929  51.9739901
  11.7022527  72.5238754  52.0528382  11.1760141  71.2276801  52.6314828
  14.2715727  58.7458794  64.6301268  13.4949061  59.3052714  64.6204133
  14.9106290  59.2315577  65.1516138  22.0636508  55.5285587  58.4644245
  21.4210888  55.8218120  57.8184040  21.5591436  55.4138507  59.2697442
  19.7176671  59.2748760  49.1530104  20.6294527  59.5076147  48.9777802
  19.2086318  59.8585805  48.5905183  12.5262099  61.5544248  64.1919235
  13.2676784  62.0929292  63.9154059  11.8199085  62.1810536  64.3490787
  18.0017439  63.6973388  62.7891397  18.4100795  63.2555799  62.0446029
  17.2794700  63.1226016  63.0425590  14.3548509  58.6345995  60.1624954
  15.2009704  59.0585408  60.3059603  14.2947147  57.9779619  60.8563517
  18.3246254  64.2574579  56.5443686  17.6955116  64.4220293  55.8419754
  17.9371916  64.6716188  57.3154650  22.2035485  65.1929017  53.8988049
  21.5186524  65.5727918  53.3485083  22.2879335  65.8024343  54.6319997
  17.5047954  56.2950363  61.8206127  17.2608886  57.0492424  61.2840403
  17.7807885  56.6735711  62.6553374  19.4586417  62.8388976  60.4983393
  19.6703312  63.4820736  59.8217774  19.4116165  62.0051292  60.0305323
  17.0612646  55.4506796  57.4019965  16.1997125  55.7488050  57.6936703
  17.0875081  55.6677195  56.4700998  13.8774215  63.9948987  53.8093771
  14.3412561  64.2736690  53.0198393  13.6131014  63.0932431  53.6266861
  10.7698296  63.5420468  56.7473534  11.3399654  63.9707737  56.1091019
  11.3606408  63.2603053  57.4457720  12.8143101  60.1172139  50.6183336
  13.5167145  60.5693183  51.0857262  12.4823730  59.4755958  51.2463229
  11.2623463  58.7083896  64.9934545  10.6322124  59.3900177  65.2269942
  11.1559551  58.5966977  64.0487684   6.5568435  58.3755692  55.9200469
   5.7667489  58.6313220  55.4440580   7.0479683  59.1904030  56.0252510
  20.5732245  65.7160931  58.6705750  21.3949689  65.3141118  58.3888432
  20.5694648  65.6129165  59.6221866   8.5083181  58.7400271  52.8783946
   7.7114344  58.8518965  53.3967442   8.2808773  59.0786923  52.0124837
  14.3388848  65.2644974  60.8266461  14.4033281  65.7265382  61.6624633
  13.6299772  64.6342339  60.9548771   4.8406138  58.6286182  58.3515460
   5.0914177  59.5133192  58.6173036   5.3765687  58.4490784  57.5790552
  28.6638238  62.0599680  55.0190722  27.9101946  61.4907078  54.8634726
  28.7985779  62.0262344  55.9661356  14.0536866  66.9313082  50.6945441
  13.9182541  67.7764618  51.1230289  14.5946679  67.1332359  49.9311375
  10.5404206  53.0104662  67.3559796  10.1471151  52.4570860  68.0307441
  11.3570346  53.3215240  67.7466314   7.5066264  64.4488520  51.2673366
   8.0190784  65.2431770  51.4178931   8.1588976  63.7514810  51.2006968
   9.3161148  67.5654276  53.3496119   9.4927777  68.4872241  53.1617103
  10.1117982  67.2512695  53.7790499  13.4572167  54.4262541  64.9480053
  14.1981880  55.0269694  64.8684515  13.6890090  53.6840179  64.3898095
   8.6013505  59.6118908  63.2258283   8.4867020  58.7104165  63.5265381
   7.7458022  59.8582605  62.8743099  15.6805342  67.5536648  64.8245783
  15.2369197  66.7673027  64.5066688  16.3422556  67.7415799  64.1589674
  10.4392464  69.0832450  59.3506462  10.9899889  68.9549513  58.5783456
   9.6003940  69.3827339  59.0001354  17.7786581  67.8339448  62.8527184
  17.7605056  68.6548329  62.3607454  18.7006501  67.7093523  63.0777326
  14.2359635  65.3483578  63.6950693  14.7687972  64.5871866  63.4650001
  13.7073716  65.0557230  64.4374847  17.4029330  50.4543644  59.2244335
  17.0593599  51.3445285  59.1483445  17.7708292  50.2645301  58.3613920
   5.4715180  62.7777174  52.0432937   6.3090402  63.1874183  51.8266644
   5.6493448  61.8376616  52.0133131  17.3679612  60.4452255  47.7316770
  16.8526236  61.2156859  47.9705157  17.0956921  59.7717391  48.3549831
  14.9526723  55.2901956  52.7902008  14.0968320  54.9008806  52.6107647
  15.3653675  55.3693916  51.9301794  16.4825870  52.8248299  57.1893568
  15.9790666  52.7878434  56.3761373  16.7756477  53.7341042  57.2490224
  12.7268756  52.9087029  56.1959750  13.5921753  52.7129837  55.8365639
  12.7946265  52.6797380  57.1229106  22.3413887  63.1984609  49.6669943
  21.5643329  62.8595769  49.2225105  23.0205368  63.2037233  48.9924908
  17.1565916  58.3179347  49.5576551  16.8516051  58.6325496  50.4086694
  18.1096358  58.3960767  49.6003884  15.6012347  64.4769570  51.2069505
  15.0733709  63.7422330  50.8942742  15.0999850  65.2544247  50.9609473
  20.5805193  62.6718591  56.3236551  19.9228868  63.3617852  56.4116680
  21.3845593  63.0615023  56.6670537  10.3331075  55.1389237  53.5676116
  10.9074827  54.9164418  52.8349309  10.9202057  55.2077931  54.3204718
  19.3910652  61.0262963  54.3740493  19.9042534  61.6592955  54.8762203
  20.0411876  60.4264159  54.0083853  10.6600662  57.1693698  47.5872002
   9.8237974  57.5068384  47.9081276  10.5205432  57.0342677  46.6499139
  12.6353743  52.0130485  52.2951186  11.9818155  51.6979503  51.6707801
  12.5934217  51.3906226  53.0211009  13.7464948  62.2949780  44.2104478
  12.8392009  62.0639034  44.4095627  14.2435980  61.4987400  44.3978459
  16.6533026  71.0047288  47.1301164  15.9794725  71.3078984  47.7386122
  17.0398848  71.8076368  46.7806621  15.8691483  58.5012419  56.6198833
  14.9514044  58.7227366  56.4620521  16.2851627  58.5758729  55.7610541
  16.6526531  59.9003835  51.7501514  17.3998350  60.4125232  51.4408636
  16.9218120  59.5787887  52.6105907  14.9253181  62.3962375  48.7328468
  14.0164400  62.1121408  48.8300938  14.9548265  62.8161454  47.8731775
  20.1572448  66.0068965  52.5019636  19.7034776  65.1659875  52.5584826
  19.5266415  66.6430363  52.8394416  19.1005368  56.9360951  53.7320303
  18.3628125  56.4238337  54.0630546  19.3532142  56.4961333  52.9203580
  18.6005388  67.8445462  53.4369454  18.8928362  68.4050519  52.7181819
  19.1104008  68.1374023  54.1922613  19.2016995  49.7137203  54.3262072
  19.5075872  48.8534566  54.0387987  19.9269600  50.3054823  54.1261066
   5.4941351  60.1167889  52.7143670   5.2965751  59.5237250  51.9894737
   4.9388015  59.8120100  53.4319609  13.4738075  60.0090996  54.8338263
  13.5286685  59.0564832  54.7580740  12.6629277  60.1650435  55.3179562
  14.6229269  63.9371119  46.0716547  14.1848699  63.2206978  45.6122184
  15.3639710  64.1647234  45.5101638  11.4130435  58.6268056  52.5928642
  10.5998301  58.9262226  52.9993834  11.9089429  58.2323744  53.3103124
  13.5639013  68.6225813  54.5262907  13.5215192  68.8486659  53.5971439
  14.4801712  68.3889187  54.6748708  17.0104647  59.0909880  61.4243536
  17.3654034  59.3181353  62.2838002  17.6576778  59.4228257  60.8020791
  22.7402384  62.2128316  52.1292865  22.6020282  62.4029912  51.2014054
  22.3838602  62.9747699  52.5860916  10.9044510  56.1986411  58.2089877
  11.5443889  56.0575170  57.5112840  10.0722040  55.9120925  57.8328479
  22.7671763  64.2804843  57.1404137  23.2008270  64.1880132  57.9887191
  23.4803344  64.2562344  56.5024153  11.6804814  65.4988842  54.3224870
  12.4745412  65.0039162  54.1207445  10.9696506  64.9706705  53.9592575
  16.4999658  67.8806937  58.6737237  16.5536680  68.4497874  59.4414953
  15.6314439  68.0508822  58.3091274   7.9887577  59.6431923  50.3984622
   7.0585165  59.5816379  50.6154584   8.0845049  59.1207876  49.6021264
   7.9073126  56.1686736  52.9862864   8.1679943  57.0832069  52.8772024
   8.7290299  55.7011179  53.1359477   9.3798052  57.5824493  60.1561688
  10.0521105  57.3741856  59.5074337   8.5527838  57.3846579  59.7166921
  23.6287313  64.3228544  59.6737022  23.8223203  65.2274354  59.9196297
  23.5287931  63.8635963  60.5075607  15.2823624  54.2086434  62.1727349
  14.6351539  54.9076384  62.0791826  16.0524639  54.6422578  62.5403598
  18.6902421  64.4735286  65.2477903  18.5387928  64.2445838  64.3307986
  18.6807101  65.4305888  65.2609248  15.4587758  62.0467199  60.2324169
  16.3879818  62.1978359  60.0593136  15.0378788  62.1351220  59.3772816
  14.2576090  66.0717864  58.0022707  14.1187175  65.7036648  58.8748645
  13.4690686  66.5865503  57.8306664  14.8524242  71.1726960  49.3448243
  15.0275997  70.7015003  50.1593866  14.1657030  71.7992726  49.5729504
  15.8081305  65.4499466  55.3911544  15.4731137  65.4100236  56.2869194
  15.3085250  64.7844182  54.9181955   9.7825549  60.8567096  60.9164126
   9.6445347  60.1247335  61.5175665  10.6930472  60.7675996  60.6348313
  18.7440496  62.7955501  45.6648604  18.1269667  62.0702329  45.5681657
  18.2756985  63.5564861  45.3215678  12.4107849  60.5687056  60.4047805
  13.1207468  59.9280248  60.3634424  12.3677158  60.8199951  61.3273986
  20.3994628  67.5054409  63.3254384  20.3407174  66.8213629  62.6584968
  20.8014146  68.2473399  62.8735010  11.1236783  57.5552274  62.2243445
  10.5874140  57.1043012  62.8765041  10.5353492  57.6898182  61.4813909
   9.4185327  74.3216323  56.1188103   9.6581925  74.9534847  56.7967122
   8.5754523  73.9704363  56.4053463  10.5339042  57.0140925  44.7869908
   9.6568509  56.8929726  44.4232155  11.0096795  56.2227003  44.5348797
  20.4012035  65.4693993  61.5568364  19.5138814  65.1319915  61.6794763
  20.9710586  64.7377024  61.7937130   2.0541182  61.8018085  54.8811416
   2.7412222  61.4879815  54.2932431   1.8989311  62.7059449  54.6078667
   6.8575905  56.6908281  59.3096439   6.7734093  56.0833951  58.5746849
   6.0358611  57.1817300  59.3105936  13.9313189  70.1295445  58.5229607
  13.8583360  70.9350417  59.0348912  13.4890582  70.3287411  57.6977629
  13.7202968  69.3667215  52.0332429  12.9370490  69.9088896  52.1270653
  14.4195714  69.8841195  52.4326670  17.0299619  55.1761845  54.6766634
  17.5268318  54.4231807  54.3567705  16.2586600  55.2126161  54.1109844
  24.8829376  60.8802210  56.3184926  24.8719252  61.7626926  55.9478859
  24.0146755  60.5273761  56.1239463  16.3911872  70.0282279  60.6787766
  17.1039844  70.6629744  60.6063667  15.9001901  70.1246145  59.8627768
  18.1129399  63.9333532  52.2505058  17.1785678  64.0534994  52.0809762
  18.2906068  63.0305999  51.9865068  13.6134587  57.3179228  54.4038319
  13.2432375  56.7650268  55.0919224  14.1093680  56.7137361  53.8513319
  21.5001951  59.7750851  52.7855092  21.9662403  60.6078843  52.7115394
  21.9509451  59.3095833  53.4900350  11.4423786  67.7776723  61.4993337
  12.1433245  68.4113206  61.6522731  10.9718901  68.1191454  60.7388976
  19.5678182  66.1194673  49.7841244  19.8438026  66.0051267  50.6935118
  18.6982680  65.7212157  49.7453417  19.4718613  52.1431438  56.8245993
  18.5581693  52.3735665  56.9928200  19.9011715  52.2269882  57.6760026
  19.2425072  60.3321330  59.3245887  18.5896522  60.5797238  58.6698340
  19.6205452  59.5185468  58.9908364  16.2032246  70.3681023  53.4274057
  16.3854640  69.5502679  53.8901810  17.0265232  70.5848716  52.9898947
  16.5374411  69.2949209  50.6889106  17.0662178  68.7841663  50.0759268
  16.8002631  68.9791739  51.5534639  15.2912645  61.0741141  65.8111924
  14.6153282  60.9735271  66.4814300  16.1140279  60.9180355  66.2747922
   7.0391504  67.3113078  58.4324440   7.6244941  66.5656766  58.5652344
   6.8416342  67.6217035  59.3161103   9.8930159  70.3464325  53.4486882
   9.2240534  70.8310453  52.9650922   9.7543029  70.5933546  54.3630260
   1.6309159  59.8818678  57.1528883   1.6693258  59.3482269  57.9466001
   1.1249451  59.3553884  56.5339860  14.0335428  72.3808069  60.0469540
  14.5853736  72.5439690  60.8118626  14.3741621  72.9712507  59.3749565
   9.0099921  54.7283219  60.6491425   9.0741247  55.5898049  60.2368823
   8.9467041  54.1157220  59.9163783   8.4852193  56.8006351  64.2964459
   9.1124232  56.4183428  64.9101984   7.6280112  56.5820553  64.6620152
  18.8846302  67.2069326  65.9018195  19.4286206  67.8199285  65.4073150
  18.3033147  67.7648905  66.4185208   5.2617736  58.6082780  50.2282814
   5.5571177  57.6993459  50.1749868   4.3605772  58.5870520  49.9063816
  17.1703815  70.3290044  57.0333222  17.0454954  69.5279784  56.5244168
  17.8282906  70.8236238  56.5447192   8.7911983  56.6838777  56.2110363
   8.0698569  57.2974745  56.0717836   9.5805239  57.2196542  56.1327009
  19.2338723  68.1299064  58.6612773  18.2869059  68.0104416  58.5891099
  19.5821496  67.2421562  58.7439034  11.5938297  54.0193203  62.4851014
  12.1172699  54.2655500  63.2477324  11.3750630  54.8513238  62.0654152
   6.9905578  56.2896878  50.3522139   6.6618284  55.4094257  50.1697245
   7.3444948  56.2344547  51.2398528  16.2385157  67.9251781  54.8617125
  16.0910119  66.9968488  55.0424695  17.0638650  67.9471871  54.3774200
  10.1047401  56.5769848  50.7197617  10.4443473  57.1055769  49.9976225
  10.5519521  56.9150254  51.4956183  19.8419278  68.7480339  55.9481998
  20.7665826  68.5423201  55.8106449  19.6734582  68.4996740  56.8571339
  12.7990842  54.9606898  60.1700685  12.4587662  54.1614711  60.5721365
  12.0929848  55.2608609  59.5977518  13.4507314  52.0456211  58.6228008
  14.2733383  51.5716689  58.5006898  13.6945377  52.8246695  59.1226694
  12.0915548  55.0744469  48.9190910  12.8123911  55.4525722  48.4154627
  11.4680852  55.7933346  49.0225888  16.2346671  55.7789618  49.8549242
  16.4510285  56.6614256  49.5538070  15.7540738  55.3875832  49.1254884
  10.9745892  58.7375331  56.4319987  10.8290473  59.0515635  57.3244268
  10.4971096  59.3560232  55.8790885  12.8342275  55.7277879  56.4800876
  12.8203844  54.8318973  56.1433174  13.5514703  55.7348543  57.1139162
  14.6868406  56.1615220  58.5254004  14.4286184  57.0832290  58.5238334
  14.1553446  55.7645654  59.2154468  19.6314595  69.2666007  51.3044089
  19.8051472  68.7012429  50.5517941  20.1243486  70.0666902  51.1223579
   5.4491555  61.2780676  59.3707648   4.9045023  62.0540484  59.5027922
   6.3270904  61.6251480  59.2126769  12.2379171  54.6092260  51.7488446
  12.3595082  53.6808906  51.9479334  11.9481214  54.6230946  50.8366762
  15.1070362  52.2947170  54.8855166  15.1292058  52.3586503  53.9307146
  15.5238421  51.4551679  55.0795672  25.4853986  62.0302430  52.9234389
  25.9285132  61.2809755  52.5253512  24.6080496  62.0212566  52.5408121
  20.6189767  68.5832771  48.4040987  21.3140672  69.2039464  48.6228302
  20.9612917  67.7328122  48.6793365   6.2357576  60.4050572  62.2637805
   5.4939312  60.5533207  62.8502435   5.9150321  60.6658838  61.4004554
  22.5181190  66.0332477  49.9328318  23.0432514  66.3719749  49.2077638
  22.4303543  65.0979492  49.7491453  14.1801239  69.9466550  62.0618195
  14.4888365  69.7015697  62.9340894  14.9776721  70.1513189  61.5737065
  14.2021851  72.1004460  54.2923571  13.7626841  71.6080839  54.9856428
  14.9529968  71.5577428  54.0515646   6.6814190  68.2916001  54.2948199
   7.5072210  67.9919773  53.9146843   6.3308242  67.5223623  54.7437988
  11.6495723  67.6442469  56.3645873  11.0275733  66.9813174  56.0648101
  12.3200590  67.6703601  55.6819521   4.8822795  66.2102327  55.2537133
   4.0454703  65.7824502  55.0721134   4.8546441  66.4034771  56.1907924
  11.7220251  56.1224257  65.9578379  11.7708406  56.9986380  65.5756148
  12.2642765  55.5801650  65.3850022  22.2075096  66.6665380  65.2379516
  21.4170640  66.6489519  64.6984015  21.9708451  67.2053674  65.9928553
  22.3272971  63.5157847  62.5512245  22.3770976  63.3507854  63.4927767
  22.2186895  62.6485106  62.1610125  11.2109230  66.1946392  49.8404333
  11.3597350  66.8781857  49.1871006  12.0175674  66.1751482  50.3553789
  19.6176734  59.4988775  63.8671551  20.5186597  59.3595240  63.5755549
  19.6924708  59.6643230  64.8069729  13.9519539  56.8755630  62.7124738
  13.0822849  57.1689196  62.4407326  14.1879020  57.4596075  63.4332001
  23.8291168  65.9354788  62.7954266  23.5375977  66.2984769  63.6317727
  23.2163300  65.2221797  62.6167598  25.0286851  63.5007668  55.3156836
  25.8633742  63.9397472  55.4794397  25.1645979  63.0246321  54.4965082
  22.0778357  61.0587403  61.2634324  22.5532478  61.2515049  60.4553175
  21.1543922  61.1146589  61.0177708   8.9661863  62.2211570  50.8465402
   8.7207905  61.3173900  51.0445612   9.1357778  62.2228721  49.9044880
  16.6558573  53.0935246  60.2290158  17.1740517  53.8296273  59.9036646
  16.3013706  53.3999240  61.0636917   8.2357511  57.9539928  48.3451564
   7.5426756  58.0284283  47.6891600   7.9909263  57.1900271  48.8673081
  16.9071167  49.5135529  55.7491055  17.1872921  48.8458718  56.3751481
  17.6921774  49.7064625  55.2365718  14.7104636  68.6894523  47.3116081
  14.1378603  69.3084710  46.8586553  15.2837429  69.2393885  47.8456003
  20.7780026  57.9353163  59.4962630  21.7297448  58.0351261  59.5174854
  20.6083476  57.1431432  60.0060714  18.7994405  55.0208746  59.6822031
  18.2044337  55.3013759  58.9868519  18.5144102  55.5102647  60.4538772
  17.9301895  68.9731673  48.4424663  18.8632569  68.9077235  48.6457539
  17.8425108  69.8087940  47.9839196  20.5589912  68.2897543  45.4028611
  20.4803544  67.9557407  46.2964369  21.3799579  68.7819311  45.4020083
  23.2568103  61.1559283  58.6104929  23.2244423  60.2175283  58.7964613
  23.8668727  61.2343319  57.8770754  15.0951434  60.0255336  44.6532133
  16.0410539  59.8961544  44.7220551  14.7165679  59.2869998  45.1301561
  23.4062592  57.9470326  58.6563212  22.8901640  57.1628783  58.4693141
  24.2902540  57.6189043  58.8209732  21.0673319  51.6911342  54.6159025
  20.8698140  51.3826430  55.5002357  21.6773024  52.4172981  54.7456955
  29.0744653  62.2175289  57.7510966  29.8048042  61.9560578  58.3118669
  28.4651599  61.4804011  57.7913034  27.1559950  60.3583152  58.3485417
  26.4293114  60.2239117  57.7401909  26.7407237  60.6659981  59.1542135
  14.9790127  64.0773082  66.1132790  15.8993136  64.2551681  66.3072837
  14.9439710  63.1329127  65.9612490  13.2794351  57.9505312  44.5887019
  12.3725807  57.6538425  44.6649732  13.5570332  57.6535130  43.7221305
   4.1972292  59.2711675  55.0386065   3.8775076  58.4176984  54.7460439
   3.6505720  59.4860254  55.7944032   7.9752199  61.9874116  58.7555571
   8.1938209  62.9191224  58.7743605   8.3877973  61.6282091  59.5410375
  14.8956417  52.4942202  50.7431260  14.0857145  52.1489287  51.1186506
  15.5840834  52.1849745  51.3318871  16.8246965  51.5720249  52.3655556
  17.3778004  51.9915702  53.0245580  17.0617052  50.6455997  52.4078512
  12.8480065  57.5607322  68.1458320  12.7476791  58.5101679  68.0770411
  12.6301607  57.2325561  67.2734390  12.0493136  54.8092247  44.7298998
  12.9112300  55.1347146  44.9894815  12.2343480  54.0223743  44.2172064
   4.0660552  62.8914587  57.0079187   3.3724023  62.4768540  56.4949141
   4.8133543  62.9335123  56.4112605  20.2025772  53.6820774  51.8734221
  19.6224441  54.3405578  51.4912273  19.9361705  52.8598118  51.4621638
  18.6529339  53.0825831  54.0755541  19.1529117  53.1942366  53.2669860
  19.2964947  52.7786884  54.7156350  12.7111335  60.9904461  66.9623382
  12.2278416  61.7904821  67.1687271  12.7972274  61.0012406  66.0090826
   5.9797294  62.8232841  54.8845201   5.9567982  62.9220528  53.9327085
   6.2897931  63.6697991  55.2062368   8.6384672  64.8808996  58.9991816
   9.5927926  64.8492938  58.9321747   8.4397196  64.4199619  59.8142042
   9.2284054  63.4510112  61.5662613  10.0476943  63.9454190  61.5897451
   9.5020862  62.5342080  61.5380181  18.9850650  55.8420864  50.9290569
  18.0976505  56.1270515  50.7110764  19.4004639  55.6814627  50.0817846
  22.3365187  55.8667385  54.6444908  23.1125577  56.3563837  54.9169525
  21.6113321  56.2925439  55.1016778  24.7737745  56.5795004  55.7018849
  25.3682236  56.3390740  54.9912157  24.8464329  55.8602135  56.3292385
   6.9934901  70.4228615  56.0162014   6.8589369  69.6629016  55.4500012
   6.5766963  71.1469515  55.5490803  18.1293864  65.6065539  45.0238589
  18.8329714  65.8115541  45.6396245  17.4056513  66.1742301  45.2887673
  18.9591674  61.3575400  51.1440859  18.9026876  61.8143951  50.3048492
  19.5120017  60.5966085  50.9663702  22.7696480  57.1465132  51.9690979
  22.5133414  56.7461768  52.7999186  22.1449348  57.8608926  51.8441118
  27.0808818  59.8861205  54.4762270  26.5208376  59.9554394  55.2493832
  26.4752321  59.7102190  53.7561766  10.1504027  71.3197932  56.2280456
  10.0336411  72.2643365  56.1259147   9.3296473  71.0171494  56.6166256
  20.0380561  66.0448068  47.0737049  20.8726165  65.6129266  46.8914524
  19.8764904  65.8730082  48.0013944  19.6926453  62.5480181  48.4393388
  19.6375257  62.3824453  47.4981832  19.0672509  63.2556214  48.5955578
   4.4818968  57.7848246  62.2654811   5.1277832  57.2747200  62.7542036
   4.2736120  58.5216927  62.8398236  17.0072361  64.8529093  67.7646951
  17.8763520  65.0269745  67.4033586  16.5279112  65.6723510  67.6422680
  13.0022579  52.0488290  48.0178707  12.9901249  52.9930130  48.1746978
  13.8946001  51.8658436  47.7238168  11.1758541  71.9726194  59.4436385
  12.0785788  72.0049804  59.7602880  10.9495911  71.0426645  59.4582721
  12.9312143  70.7257181  56.1046463  11.9807774  70.7259042  55.9910836
  13.2344629  69.9789915  55.5882498  16.8174698  48.6431067  52.2724644
  16.0507094  48.0889554  52.4181326  17.2285403  48.7152936  53.1338795
   8.8216459  54.9315863  66.3629825   9.6847921  54.5752668  66.5733149
   8.2481870  54.5929758  67.0505229  28.6664836  76.5617719  57.1692226
  29.3043246  76.4424466  56.4655566  28.5485679  77.5098563  57.2280178
  25.4754543  76.5145147  57.1053750  25.1373054  76.3986212  56.2174285
  26.3444311  76.1136312  57.0854757  21.3341358  78.3680624  53.0950641
  20.7706223  78.2770561  52.3266929  21.2193753  77.5480528  53.5753134
  25.9574326  77.6679999  63.0639956  25.9462966  77.2732797  62.1920460
  26.1194965  76.9346072  63.6573727  18.8805790  79.8631815  55.9334862
  19.6727082  79.5222640  55.5181161  19.1202440  79.9726790  56.8537015
  26.9140917  82.0351591  48.4065106  26.2628897  82.6205672  48.0199120
  27.7085280  82.5657786  48.4660144  20.8396544  79.1240728  48.8052241
  21.6127420  78.5769716  48.6665116  21.1921943  79.9884978  49.0166702
  22.6781587  80.4517111  62.0119140  22.3871453  81.3562742  61.8965806
  23.3138571  80.4933638  62.7263210  23.6037794  77.8293959  58.6020500
  24.2001366  77.6049982  57.8877463  23.6612765  77.0878705  59.2045947
  23.1762822  75.2833395  46.4370691  23.4288343  74.7614916  45.6754154
  22.2387381  75.1199540  46.5397374  28.2206105  74.2869173  54.2445434
  29.0069194  73.8688596  53.8935851  28.4844809  75.1915265  54.4127082
  28.3916182  79.7242023  48.9434091  27.7562015  79.7976650  49.6554995
  28.0613589  80.3135622  48.2653170  33.6214532  74.2244406  55.1478412
  34.3539704  73.6543623  55.3816242  32.8653888  73.8366007  55.5884918
  22.8959111  77.1861501  48.6395066  22.7795369  76.5106404  49.3076150
  23.0061371  76.6993874  47.8227219  25.2390652  76.6471648  52.3441755
  24.8748859  76.1202269  53.0554676  26.0957768  76.2570117  52.1708240
  31.1439952  67.9365980  59.6073021  30.8123277  68.8061391  59.3834236
  30.5485566  67.6202264  60.2867051  24.8796139  71.6761547  47.3403103
  25.0470541  72.5441784  47.7073574  24.6893308  71.8388829  46.4164393
  27.6371472  80.1378526  59.0068934  27.3372195  81.0403565  58.8984741
  27.2922531  79.8710709  59.8590087  21.0883953  76.5892323  55.0405638
  20.1634450  76.4568537  55.2483330  21.3368367  77.3686542  55.5375581
  31.0368616  72.6561066  56.6866371  30.1285493  72.5876475  56.3925132
  30.9856211  73.1333011  57.5148196  24.8585360  74.1319205  48.3249770
  24.7384985  74.5776256  49.1635250  24.1637948  74.4804522  47.7663308
  18.4492764  76.2325597  55.8749427  18.5785146  76.4860076  56.7888839
  17.7690216  76.8253305  55.5554082  22.6192252  86.9022847  51.9739901
  22.5416281  87.8530672  52.0528382  22.0153895  86.5568719  52.6314828
  25.1109481  74.0750712  64.6301268  24.3342816  74.6344632  64.6204133
  25.7500045  74.5607495  65.1516138  32.9030262  70.8577505  58.4644245
  32.2604642  71.1510038  57.8184040  32.3985191  70.7430425  59.2697442
  30.5570426  74.6040678  49.1530104  31.4688282  74.8368065  48.9777802
  30.0480073  75.1877722  48.5905183  23.3655854  76.8836165  64.1919235
  24.1070538  77.4221209  63.9154059  22.6592839  77.5102454  64.3490787
  28.8411193  79.0265306  62.7891397  29.2494549  78.5847716  62.0446029
  28.1188455  78.4517933  63.0425590  25.1942263  73.9637913  60.1624954
  26.0403459  74.3877326  60.3059603  25.1340901  73.3071537  60.8563517
  29.1640008  79.5866496  56.5443686  28.5348870  79.7512211  55.8419754
  28.7765670  80.0008106  57.3154650  33.0429240  80.5220934  53.8988049
  32.3580278  80.9019836  53.3485083  33.1273089  81.1316261  54.6319997
  28.3441709  71.6242281  61.8206127  28.1002641  72.3784341  61.2840403
  28.6201639  72.0027629  62.6553374  30.2980172  78.1680893  60.4983393
  30.5097067  78.8112653  59.8217774  30.2509920  77.3343210  60.0305323
  27.9006401  70.7798714  57.4019965  27.0390880  71.0779968  57.6936703
  27.9268835  70.9969113  56.4700998  24.7167970  79.3240905  53.8093771
  25.1806315  79.6028608  53.0198393  24.4524768  78.4224349  53.6266861
  21.6092051  78.8712386  56.7473534  22.1793408  79.2999654  56.1091019
  22.2000163  78.5894971  57.4457720  23.6536856  75.4464057  50.6183336
  24.3560899  75.8985101  51.0857262  23.3217484  74.8047876  51.2463229
  22.1017218  74.0375814  64.9934545  21.4715878  74.7192094  65.2269942
  21.9953305  73.9258895  64.0487684  17.3962190  73.7047610  55.9200469
  16.6061244  73.9605138  55.4440580  17.8873437  74.5195947  56.0252510
  31.4125999  81.0452849  58.6705750  32.2343443  80.6433036  58.3888432
  31.4088402  80.9421083  59.6221866  19.3476935  74.0692189  52.8783946
  18.5508099  74.1810883  53.3967442  19.1202528  74.4078841  52.0124837
  25.1782603  80.5936892  60.8266461  25.2427035  81.0557299  61.6624633
  24.4693527  79.9634257  60.9548771  15.6799893  73.9578100  58.3515460
  15.9307931  74.8425110  58.6173036  16.2159441  73.7782702  57.5790552
  39.5031993  77.3891597  55.0190722  38.7495701  76.8198995  54.8634726
  39.6379534  77.3554262  55.9661356  24.8930621  82.2605000  50.6945441
  24.7576295  83.1056535  51.1230289  25.4340433  82.4624277  49.9311375
  18.3460018  79.7780438  51.2673366  18.8584539  80.5723688  51.4178931
  18.9982731  79.0806728  51.2006968  20.1554903  82.8946194  53.3496119
  20.3321531  83.8164159  53.1617103  20.9511736  82.5804613  53.7790499
  24.2965921  69.7554458  64.9480053  25.0375635  70.3561612  64.8684515
  24.5283844  69.0132096  64.3898095  19.4407259  74.9410826  63.2258283
  19.3260774  74.0396083  63.5265381  18.5851777  75.1874522  62.8743099
  26.5199097  82.8828566  64.8245783  26.0762951  82.0964945  64.5066688
  27.1816311  83.0707717  64.1589674  21.2786218  84.4124368  59.3506462
  21.8293643  84.2841431  58.5783456  20.4397694  84.7119257  59.0001354
  28.6180335  83.1631366  62.8527184  28.5998810  83.9840247  62.3607454
  29.5400255  83.0385441  63.0777326  25.0753389  80.6775495  63.6950693
  25.6081726  79.9163784  63.4650001  24.5467470  80.3849147  64.4374847
  28.2423084  65.7835561  59.2244335  27.8987354  66.6737203  59.1483445
  28.6102047  65.5937219  58.3613920  16.3108935  78.1069092  52.0432937
  17.1484157  78.5166100  51.8266644  16.4887202  77.1668534  52.0133131
  28.2073367  75.7744172  47.7316770  27.6919990  76.5448777  47.9705157
  27.9350675  75.1009309  48.3549831  25.7920478  70.6193873  52.7902008
  24.9362074  70.2300724  52.6107647  26.2047430  70.6985834  51.9301794
  27.3219625  68.1540217  57.1893568  26.8184420  68.1170352  56.3761373
  27.6150231  69.0632959  57.2490224  23.5662510  68.2378946  56.1959750
  24.4315507  68.0421755  55.8365639  23.6340019  68.0089298  57.1229106
  33.1807641  78.5276527  49.6669943  32.4037084  78.1887687  49.2225105
  33.8599122  78.5329150  48.9924908  27.9959670  73.6471265  49.5576551
  27.6909806  73.9617414  50.4086694  28.9490112  73.7252684  49.6003884
  26.4406102  79.8061488  51.2069505  25.9127463  79.0714247  50.8942742
  25.9393605  80.5836164  50.9609473  31.4198948  78.0010508  56.3236551
  30.7622622  78.6909770  56.4116680  32.2239347  78.3906940  56.6670537
  21.1724830  70.4681154  53.5676116  21.7468581  70.2456336  52.8349309
  21.7595812  70.5369849  54.3204718  30.2304407  76.3554881  54.3740493
  30.7436288  76.9884873  54.8762203  30.8805631  75.7556077  54.0083853
  21.4994417  72.4985615  47.5872002  20.6631729  72.8360302  47.9081276
  21.3599186  72.3634595  46.6499139  23.4747497  67.3422403  52.2951186
  22.8211910  67.0271420  51.6707801  23.4327971  66.7198144  53.0211009
  24.5858702  77.6241698  44.2104478  23.6785764  77.3930952  44.4095627
  25.0829734  76.8279317  44.3978459  27.4926781  86.3339205  47.1301164
  26.8188480  86.6370902  47.7386122  27.8792603  87.1368286  46.7806621
  26.7085238  73.8304337  56.6198833  25.7907799  74.0519284  56.4620521
  27.1245381  73.9050647  55.7610541  27.4920285  75.2295752  51.7501514
  28.2392104  75.7417150  51.4408636  27.7611875  74.9079805  52.6105907
  25.7646936  77.7254293  48.7328468  24.8558155  77.4413326  48.8300938
  25.7942019  78.1453372  47.8731775  30.9966203  81.3360883  52.5019636
  30.5428530  80.4951792  52.5584826  30.3660170  81.9722281  52.8394416
  29.9399123  72.2652869  53.7320303  29.2021879  71.7530255  54.0630546
  30.1925896  71.8253250  52.9203580  29.4399142  83.1737379  53.4369454
  29.7322117  83.7342436  52.7181819  29.9497763  83.4665940  54.1922613
  30.0410750  65.0429121  54.3262072  30.3469627  64.1826484  54.0387987
  30.7663355  65.6346741  54.1261066  16.3335106  75.4459807  52.7143670
  16.1359506  74.8529168  51.9894737  15.7781770  75.1412017  53.4319609
  24.3131830  75.3382914  54.8338263  24.3680439  74.3856750  54.7580740
  23.5023032  75.4942353  55.3179562  25.4623023  79.2663037  46.0716547
  25.0242453  78.5498896  45.6122184  26.2033464  79.4939152  45.5101638
  22.2524189  73.9559973  52.5928642  21.4392055  74.2554144  52.9993834
  22.7483184  73.5615662  53.3103124  24.4032767  83.9517730  54.5262907
  24.3608946  84.1778577  53.5971439  25.3195466  83.7181105  54.6748708
  27.8498401  74.4201798  61.4243536  28.2047789  74.6473271  62.2838002
  28.4970532  74.7520175  60.8020791  33.5796138  77.5420234  52.1292865
  33.4414037  77.7321830  51.2014054  33.2232357  78.3039617  52.5860916
  21.7438264  71.5278329  58.2089877  22.3837644  71.3867088  57.5112840
  20.9115795  71.2412842  57.8328479  33.6065518  79.6096761  57.1404137
  34.0402024  79.5172050  57.9887191  34.3197098  79.5854261  56.5024153
  22.5198568  80.8280759  54.3224870  23.3139167  80.3331079  54.1207445
  21.8090261  80.2998622  53.9592575  27.3393413  83.2098855  58.6737237
  27.3930435  83.7789791  59.4414953  26.4708194  83.3800740  58.3091274
  18.8281332  74.9723841  50.3984622  17.8978920  74.9108297  50.6154584
  18.9238804  74.4499794  49.6021264  18.7466881  71.4978654  52.9862864
  19.0073698  72.4123987  52.8772024  19.5684053  71.0303096  53.1359477
  20.2191806  72.9116411  60.1561688  20.8914859  72.7033773  59.5074337
  19.3921593  72.7138497  59.7166921  34.4681067  79.6520461  59.6737022
  34.6616957  80.5566272  59.9196297  34.3681685  79.1927880  60.5075607
  26.1217378  69.5378352  62.1727349  25.4745293  70.2368302  62.0791826
  26.8918393  69.9714496  62.5403598  29.5296176  79.8027204  65.2477903
  29.3781682  79.5737756  64.3307986  29.5200855  80.7597806  65.2609248
  26.2981512  77.3759117  60.2324169  27.2273572  77.5270277  60.0593136
  25.8772542  77.4643138  59.3772816  25.0969844  81.4009781  58.0022707
  24.9580930  81.0328566  58.8748645  24.3084440  81.9157421  57.8306664
  25.6917996  86.5018878  49.3448243  25.8669752  86.0306921  50.1593866
  25.0050784  87.1284644  49.5729504  26.6475059  80.7791384  55.3911544
  26.3124892  80.7392154  56.2869194  26.1479005  80.1136100  54.9181955
  20.6219303  76.1859014  60.9164126  20.4839101  75.4539253  61.5175665
  21.5324227  76.0967914  60.6348313  29.5834251  78.1247418  45.6648604
  28.9663422  77.3994247  45.5681657  29.1150739  78.8856779  45.3215678
  23.2501604  75.8978973  60.4047805  23.9601222  75.2572166  60.3634424
  23.2070912  76.1491868  61.3273986  31.2388383  82.8346327  63.3254384
  31.1800929  82.1505547  62.6584968  31.6407901  83.5765317  62.8735010
  21.9630538  72.8844191  62.2243445  21.4267895  72.4334930  62.8765041
  21.3747246  73.0190100  61.4813909  20.2579081  89.6508241  56.1188103
  20.4975680  90.2826765  56.7967122  19.4148278  89.2996281  56.4053463
  21.3732797  72.3432843  44.7869908  20.4962263  72.2221643  44.4232155
  21.8490550  71.5518921  44.5348797  31.2405790  80.7985911  61.5568364
  30.3532569  80.4611832  61.6794763  31.8104341  80.0668942  61.7937130
  12.8934937  77.1310002  54.8811416  13.5805977  76.8171732  54.2932431
  12.7383066  78.0351367  54.6078667  17.6969659  72.0200199  59.3096439
  17.6127848  71.4125869  58.5746849  16.8752366  72.5109217  59.3105936
  24.7706943  85.4587363  58.5229607  24.6977115  86.2642334  59.0348912
  24.3284336  85.6579329  57.6977629  24.5596723  84.6959133  52.0332429
  23.7764245  85.2380813  52.1270653  25.2589468  85.2133113  52.4326670
  27.8693373  70.5053762  54.6766634  28.3662073  69.7523725  54.3567705
  27.0980355  70.5418079  54.1109844  35.7223130  76.2094128  56.3184926
  35.7113007  77.0918843  55.9478859  34.8540510  75.8565679  56.1239463
  27.2305627  85.3574197  60.6787766  27.9433599  85.9921662  60.6063667
  26.7395655  85.4538063  59.8627768  28.9523154  79.2625450  52.2505058
  28.0179432  79.3826912  52.0809762  29.1299822  78.3597916  51.9865068
  24.4528342  72.6471145  54.4038319  24.0826129  72.0942186  55.0919224
  24.9487434  72.0429279  53.8513319  32.3395705  75.1042769  52.7855092
  32.8056157  75.9370761  52.7115394  32.7903206  74.6387751  53.4900350
  22.2817540  83.1068640  61.4993337  22.9827000  83.7405123  61.6522731
  21.8112655  83.4483372  60.7388976  30.4071936  81.4486590  49.7841244
  30.6831780  81.3343185  50.6935118  29.5376435  81.0504075  49.7453417
  30.3112368  67.4723356  56.8245993  29.3975448  67.7027583  56.9928200
  30.7405469  67.5561800  57.6760026  30.0818826  75.6613248  59.3245887
  29.4290277  75.9089155  58.6698340  30.4599206  74.8477386  58.9908364
  27.0426000  85.6972941  53.4274057  27.2248395  84.8794597  53.8901810
  27.8658986  85.9140633  52.9898947  27.3768166  84.6241126  50.6889106
  27.9055932  84.1133581  50.0759268  27.6396385  84.3083656  51.5534639
  26.1306399  76.4033059  65.8111924  25.4547036  76.3027188  66.4814300
  26.9534033  76.2472273  66.2747922  17.8785258  82.6404996  58.4324440
  18.4638695  81.8948683  58.5652344  17.6810097  82.9508952  59.3161103
  20.7323914  85.6756243  53.4486882  20.0634289  86.1602371  52.9650922
  20.5936783  85.9225463  54.3630260  12.4702913  75.2110596  57.1528883
  12.5087013  74.6774186  57.9466001  11.9643206  74.6845801  56.5339860
  24.8729182  87.7099986  60.0469540  25.4247490  87.8731608  60.8118626
  25.2135376  88.3004424  59.3749565  19.8493675  70.0575136  60.6491425
  19.9135002  70.9189967  60.2368823  19.7860796  69.4449138  59.9163783
  19.3245948  72.1298269  64.2964459  19.9517987  71.7475346  64.9101984
  18.4673867  71.9112471  64.6620152  29.7240057  82.5361244  65.9018195
  30.2679960  83.1491202  65.4073150  29.1426901  83.0940822  66.4185208
  16.1011491  73.9374698  50.2282814  16.3964932  73.0285376  50.1749868
  15.1999526  73.9162437  49.9063816  28.0097569  85.6581962  57.0333222
  27.8848709  84.8571702  56.5244168  28.6676661  86.1528155  56.5447192
  19.6305738  72.0130694  56.2110363  18.9092323  72.6266662  56.0717836
  20.4198993  72.5488459  56.1327009  30.0732478  83.4590982  58.6612773
  29.1262813  83.3396333  58.5891099  30.4215251  82.5713480  58.7439034
  22.4332051  69.3485121  62.4851014  22.9566453  69.5947418  63.2477324
  22.2144384  70.1805156  62.0654152  17.8299332  71.6188796  50.3522139
  17.5012038  70.7386174  50.1697245  18.1838703  71.5636464  51.2398528
  27.0778911  83.2543698  54.8617125  26.9303874  82.3260406  55.0424695
  27.9032405  83.2763789  54.3774200  20.9441155  71.9061765  50.7197617
  21.2837228  72.4347687  49.9976225  21.3913276  72.2442171  51.4956183
  30.6813033  84.0772257  55.9481998  31.6059580  83.8715118  55.8106449
  30.5128336  83.8288658  56.8571339  23.6384596  70.2898816  60.1700685
  23.2981417  69.4906629  60.5721365  22.9323603  70.5900527  59.5977518
  24.2901068  67.3748128  58.6228008  25.1127137  66.9008607  58.5006898
  24.5339132  68.1538612  59.1226694  22.9309303  70.4036387  48.9190910
  23.6517665  70.7817640  48.4154627  22.3074607  71.1225264  49.0225888
  27.0740425  71.1081536  49.8549242  27.2904040  71.9906174  49.5538070
  26.5934493  70.7167749  49.1254884  21.8139647  74.0667249  56.4319987
  21.6684228  74.3807552  57.3244268  21.3364850  74.6852149  55.8790885
  23.6736030  71.0569797  56.4800876  23.6597598  70.1610890  56.1433174
  24.3908458  71.0640461  57.1139162  25.5262160  71.4907137  58.5254004
  25.2679938  72.4124208  58.5238334  24.9947201  71.0937572  59.2154468
  30.4708349  84.5957924  51.3044089  30.6445227  84.0304347  50.5517941
  30.9637240  85.3958819  51.1223579  16.2885309  76.6072594  59.3707648
  15.7438777  77.3832402  59.5027922  17.1664659  76.9543398  59.2126769
  23.0772926  69.9384177  51.7488446  23.1988837  69.0100824  51.9479334
  22.7874968  69.9522863  50.8366762  25.9464116  67.6239088  54.8855166
  25.9685813  67.6878421  53.9307146  26.3632175  66.7843596  55.0795672
  36.3247740  77.3594347  52.9234389  36.7678886  76.6101673  52.5253512
  35.4474251  77.3504484  52.5408121  31.4583522  83.9124689  48.4040987
  32.1534426  84.5331382  48.6228302  31.8006672  83.0620040  48.6793365
  17.0751331  75.7342490  62.2637805  16.3333067  75.8825125  62.8502435
  16.7544075  75.9950755  61.4004554  33.3574945  81.3624394  49.9328318
  33.8826269  81.7011667  49.2077638  33.2697297  80.4271410  49.7491453
  25.0194994  85.2758468  62.0618195  25.3282120  85.0307615  62.9340894
  25.8170476  85.4805106  61.5737065  25.0415606  87.4296378  54.2923571
  24.6020596  86.9372756  54.9856428  25.7923723  86.8869345  54.0515646
  17.5207945  83.6207919  54.2948199  18.3465964  83.3211690  53.9146843
  17.1701997  82.8515541  54.7437988  22.4889478  82.9734387  56.3645873
  21.8669487  82.3105092  56.0648101  23.1594345  82.9995519  55.6819521
  15.7216550  81.5394245  55.2537133  14.8848458  81.1116419  55.0721134
  15.6940195  81.7326688  56.1907924  22.5614005  71.4516175  65.9578379
  22.6102161  72.3278298  65.5756148  23.1036519  70.9093568  65.3850022
  33.0468851  81.9957298  65.2379516  32.2564395  81.9781437  64.6984015
  32.8102205  82.5345592  65.9928553  33.1666726  78.8449764  62.5512245
  33.2164731  78.6799772  63.4927767  33.0580649  77.9777023  62.1610125
  22.0502985  81.5238310  49.8404333  22.1991105  82.2073774  49.1871006
  22.8569428  81.5043400  50.3553789  30.4570488  74.8280692  63.8671551
  31.3580351  74.6887157  63.5755549  30.5318463  74.9935147  64.8069729
  24.7913294  72.2047547  62.7124738  23.9216603  72.4981113  62.4407326
  25.0272774  72.7887992  63.4332001  34.6684923  81.2646706  62.7954266
  34.3769731  81.6276686  63.6317727  34.0557054  80.5513714  62.6167598
  35.8680605  78.8299586  55.3156836  36.7027496  79.2689390  55.4794397
  36.0039734  78.3538239  54.4965082  32.9172111  76.3879321  61.2634324
  33.3926233  76.5806967  60.4553175  31.9937676  76.4438506  61.0177708
  19.8055618  77.5503488  50.8465402  19.5601660  76.6465818  51.0445612
  19.9751532  77.5520638  49.9044880  27.4952327  68.4227164  60.2290158
  28.0134271  69.1588191  59.9036646  27.1407460  68.7291157  61.0636917
  19.0751265  73.2831845  48.3451564  18.3820510  73.3576200  47.6891600
  18.8303017  72.5192189  48.8673081  27.7464922  64.8427447  55.7491055
  28.0266675  64.1750636  56.3751481  28.5315529  65.0356542  55.2365718
  25.5498390  84.0186441  47.3116081  24.9772357  84.6376628  46.8586553
  26.1231184  84.5685802  47.8456003  31.6173780  73.2645081  59.4962630
  32.5691203  73.3643178  59.5174854  31.4477230  72.4723349  60.0060714
  29.6388159  70.3500664  59.6822031  29.0438092  70.6305677  58.9868519
  29.3537856  70.8394565  60.4538772  28.7695650  84.3023591  48.4424663
  29.7026323  84.2369152  48.6457539  28.6818863  85.1379858  47.9839196
  31.3983667  83.6189461  45.4028611  31.3197298  83.2849325  46.2964369
  32.2193333  84.1111229  45.4020083  34.0961858  76.4851200  58.6104929
  34.0638178  75.5467201  58.7964613  34.7062481  76.5635237  57.8770754
  25.9345189  75.3547253  44.6532133  26.8804293  75.2253461  44.7220551
  25.5559434  74.6161915  45.1301561  34.2456346  73.2762244  58.6563212
  33.7295395  72.4920700  58.4693141  35.1296295  72.9480960  58.8209732
  31.9067073  67.0203259  54.6159025  31.7091894  66.7118348  55.5002357
  32.5166779  67.7464898  54.7456955  39.9138408  77.5467207  57.7510966
  40.6441796  77.2852495  58.3118669  39.3045353  76.8095929  57.7913034
  37.9953705  75.6875070  58.3485417  37.2686868  75.5531035  57.7401909
  37.5800992  75.9951898  59.1542135  25.8183881  79.4064999  66.1132790
  26.7386891  79.5843598  66.3072837  25.7833464  78.4621045  65.9612490
  24.1188106  73.2797230  44.5887019  23.2119561  72.9830342  44.6649732
  24.3964087  72.9827048  43.7221305  15.0366046  74.6003593  55.0386065
  14.7168831  73.7468901  54.7460439  14.4899474  74.8152171  55.7944032
  18.8145954  77.3166034  58.7555571  19.0331964  78.2483142  58.7743605
  19.2271728  76.9574008  59.5410375  25.7350172  67.8234119  50.7431260
  24.9250900  67.4781204  51.1186506  26.4234588  67.5141663  51.3318871
  27.6640720  66.9012166  52.3655556  28.2171758  67.3207620  53.0245580
  27.9010806  65.9747914  52.4078512  23.6873819  72.8899240  68.1458320
  23.5870546  73.8393597  68.0770411  23.4695361  72.5617479  67.2734390
  22.8886890  70.1384165  44.7298998  23.7506054  70.4639063  44.9894815
  23.0737235  69.3515661  44.2172064  14.9054306  78.2206505  57.0079187
  14.2117778  77.8060457  56.4949141  15.6527297  78.2627041  56.4112605
  31.0419527  69.0112691  51.8734221  30.4618196  69.6697495  51.4912273
  30.7755460  68.1890036  51.4621638  29.4923093  68.4117749  54.0755541
  29.9922872  68.5234284  53.2669860  30.1358701  68.1078802  54.7156350
  23.5505089  76.3196379  66.9623382  23.0672171  77.1196739  67.1687271
  23.6366028  76.3304324  66.0090826  16.8191049  78.1524758  54.8845201
  16.7961737  78.2512446  53.9327085  17.1291685  78.9989909  55.2062368
  19.4778427  80.2100913  58.9991816  20.4321680  80.1784856  58.9321747
  19.2790950  79.7491537  59.8142042  20.0677809  78.7802029  61.5662613
  20.8870698  79.2746108  61.5897451  20.3414616  77.8633998  61.5380181
  29.8244405  71.1712782  50.9290569  28.9370260  71.4562432  50.7110764
  30.2398394  71.0106545  50.0817846  33.1758941  71.1959303  54.6444908
  33.9519331  71.6855755  54.9169525  32.4507075  71.6217357  55.1016778
  35.6131500  71.9086922  55.7018849  36.2075990  71.6682658  54.9912157
  35.6858083  71.1894053  56.3292385  17.8328655  85.7520533  56.0162014
  17.6983123  84.9920934  55.4500012  17.4160718  86.4761433  55.5490803
  28.9687618  80.9357456  45.0238589  29.6723469  81.1407459  45.6396245
  28.2450267  81.5034218  45.2887673  29.7985429  76.6867318  51.1440859
  29.7420630  77.1435869  50.3048492  30.3513771  75.9258002  50.9663702
  33.6090235  72.4757050  51.9690979  33.3527169  72.0753685  52.7999186
  32.9843103  73.1900843  51.8441118  37.9202572  75.2153123  54.4762270
  37.3602130  75.2846312  55.2493832  37.3146076  75.0394107  53.7561766
  20.9897781  86.6489850  56.2280456  20.8730165  87.5935282  56.1259147
  20.1690228  86.3463411  56.6166256  30.8774316  81.3739986  47.0737049
  31.7119920  80.9421184  46.8914524  30.7158659  81.2021999  48.0013944
  30.5320208  77.8772099  48.4393388  30.4769012  77.7116370  47.4981832
  29.9066263  78.5848132  48.5955578  15.3212723  73.1140163  62.2654811
  15.9671587  72.6039117  62.7542036  15.1129874  73.8508845  62.8398236
  27.8466115  80.1821011  67.7646951  28.7157275  80.3561663  67.4033586
  27.3672867  81.0015428  67.6422680  23.8416333  67.3780208  48.0178707
  23.8295003  68.3222048  48.1746978  24.7339755  67.1950353  47.7238168
  22.0152295  87.3018112  59.4436385  22.9179542  87.3341722  59.7602880
  21.7889665  86.3718563  59.4582721  23.7705897  86.0549098  56.1046463
  22.8201528  86.0550960  55.9910836  24.0738384  85.3081833  55.5882498
  27.6568453  63.9722985  52.2724644  26.8900849  63.4181471  52.4181326
  28.0679158  64.0444853  53.1338795  19.6610214  70.2607780  66.3629825
  20.5241676  69.9044585  66.5733149  19.0875625  69.9221675  67.0505229
  36.3148297  91.8437065  57.1053750  35.9766809  91.7278130  56.2174285
  37.1838065  91.4428230  57.0854757  32.1735113  93.6972541  53.0950641
  31.6099978  93.6062478  52.3266929  32.0587508  92.8772446  53.5753134
  36.7968080  92.9971917  63.0639956  36.7856721  92.6024715  62.1920460
  36.9588720  92.2637989  63.6573727  29.7199545  95.1923733  55.9334862
  30.5120837  94.8514557  55.5181161  29.9596195  95.3018708  56.8537015
  37.7534672  97.3643509  48.4065106  37.1022651  97.9497589  48.0199120
  38.5479034  97.8949704  48.4660144  31.6790299  94.4532646  48.8052241
  32.4521175  93.9061633  48.6665116  32.0315698  95.3176895  49.0166702
  33.5175341  95.7809028  62.0119140  33.2265207  96.6854659  61.8965806
  34.1532326  95.8225556  62.7263210  34.4431548  93.1585877  58.6020500
  35.0395120  92.9341899  57.8877463  34.5006520  92.4170622  59.2045947
  34.0156577  90.6125312  46.4370691  34.2682097  90.0906833  45.6754154
  33.0781136  90.4491458  46.5397374  39.0599859  89.6161091  54.2445434
  39.8462949  89.1980514  53.8935851  39.3238564  90.5207183  54.4127082
  39.2309937  95.0533941  48.9434091  38.5955770  95.1268567  49.6554995
  38.9007343  95.6427540  48.2653170  33.7352865  92.5153418  48.6395066
  33.6189123  91.8398322  49.3076150  33.8455125  92.0285792  47.8227219
  36.0784406  91.9763565  52.3441755  35.7142613  91.4494186  53.0554676
  36.9351522  91.5862034  52.1708240  41.9833707  83.2657898  59.6073021
  41.6517032  84.1353309  59.3834236  41.3879320  82.9494182  60.2867051
  35.7189893  87.0053465  47.3403103  35.8864296  87.8733701  47.7073574
  35.5287062  87.1680747  46.4164393  38.4765226  95.4670444  59.0068934
  38.1765949  96.3695483  58.8984741  38.1316286  95.2002627  59.8590087
  31.9277708  91.9184241  55.0405638  31.0028204  91.7860455  55.2483330
  32.1762121  92.6978460  55.5375581  35.6979114  89.4611122  48.3249770
  35.5778739  89.9068173  49.1635250  35.0031702  89.8096440  47.7663308
  29.2886519  91.5617514  55.8749427  29.4178900  91.8151993  56.7888839
  28.6083970  92.1545222  55.5554082  33.4586006 102.2314764  51.9739901
  33.3810036 103.1822589  52.0528382  32.8547650 101.8860637  52.6314828
  35.9503236  89.4042630  64.6301268  35.1736570  89.9636550  64.6204133
  36.5893799  89.8899413  65.1516138  41.3964180  89.9332596  49.1530104
  42.3082036  90.1659982  48.9777802  40.8873827  90.5169640  48.5905183
  34.2049608  92.2128083  64.1919235  34.9464293  92.7513127  63.9154059
  33.4986594  92.8394372  64.3490787  39.6804948  94.3557223  62.7891397
  40.0888304  93.9139634  62.0446029  38.9582209  93.7809851  63.0425590
  36.0336018  89.2929830  60.1624954  36.8797213  89.7169244  60.3059603
  35.9734656  88.6363455  60.8563517  40.0033763  94.9158414  56.5443686
  39.3742625  95.0804128  55.8419754  39.6159425  95.3300024  57.3154650
  43.8822994  95.8512852  53.8988049  43.1974033  96.2311753  53.3485083
  43.9666844  96.4608179  54.6319997  39.1835463  86.9534199  61.8206127
  38.9396395  87.7076259  61.2840403  39.4595394  87.3319546  62.6553374
  41.1373926  93.4972811  60.4983393  41.3490821  94.1404571  59.8217774
  41.0903674  92.6635128  60.0305323  38.7400155  86.1090632  57.4019965
  37.8784634  86.4071885  57.6936703  38.7662590  86.3261031  56.4700998
  35.5561724  94.6532822  53.8093771  36.0200070  94.9320525  53.0198393
  35.2918523  93.7516267  53.6266861  32.4485805  94.2004304  56.7473534
  33.0187163  94.6291572  56.1091019  33.0393917  93.9186888  57.4457720
  34.4930610  90.7755975  50.6183336  35.1954654  91.2277018  51.0857262
  34.1611239  90.1339793  51.2463229  32.9410972  89.3667731  64.9934545
  32.3109633  90.0484012  65.2269942  32.8347060  89.2550813  64.0487684
  28.2355944  89.0339527  55.9200469  27.4454998  89.2897056  55.4440580
  28.7267192  89.8487865  56.0252510  42.2519754  96.3744766  58.6705750
  43.0737198  95.9724954  58.3888432  42.2482157  96.2713001  59.6221866
  30.1870690  89.3984106  52.8783946  29.3901853  89.5102801  53.3967442
  29.9596282  89.7370759  52.0124837  36.0176357  95.9228810  60.8266461
  36.0820790  96.3849217  61.6624633  35.3087281  95.2926175  60.9548771
  26.5193647  89.2870018  58.3515460  26.7701686  90.1717028  58.6173036
  27.0553196  89.1074619  57.5790552  35.7324375  97.5896917  50.6945441
  35.5970050  98.4348453  51.1230289  36.2734188  97.7916195  49.9311375
  32.2191715  83.6688497  67.3559796  31.8258660  83.1154696  68.0307441
  33.0357855  83.9799076  67.7466314  29.1853772  95.1072355  51.2673366
  29.6978293  95.9015605  51.4178931  29.8376485  94.4098646  51.2006968
  30.9948657  98.2238112  53.3496119  31.1715286  99.1456076  53.1617103
  31.7905491  97.9096531  53.7790499  35.1359676  85.0846376  64.9480053
  35.8769389  85.6853529  64.8684515  35.3677599  84.3424014  64.3898095
  30.2801014  90.2702743  63.2258283  30.1654529  89.3688001  63.5265381
  29.4245531  90.5166440  62.8743099  37.3592851  98.2120484  64.8245783
  36.9156706  97.4256862  64.5066688  38.0210065  98.3999634  64.1589674
  32.1179973  99.7416285  59.3506462  32.6687398  99.6133349  58.5783456
  31.2791449 100.0411174  59.0001354  39.4574090  98.4923284  62.8527184
  39.4392565  99.3132165  62.3607454  40.3794010  98.3677359  63.0777326
  35.9147144  96.0067413  63.6950693  36.4475480  95.2455701  63.4650001
  35.3861225  95.7141065  64.4374847  39.0816839  81.1127479  59.2244335
  38.7381108  82.0029121  59.1483445  39.4495801  80.9229137  58.3613920
  27.1502689  93.4361010  52.0432937  27.9877911  93.8458018  51.8266644
  27.3280957  92.4960452  52.0133131  39.0467121  91.1036090  47.7316770
  38.5313745  91.8740695  47.9705157  38.7744430  90.4301226  48.3549831
  36.6314232  85.9485791  52.7902008  35.7755829  85.5592641  52.6107647
  37.0441184  86.0277752  51.9301794  38.1613379  83.4832134  57.1893568
  37.6578175  83.4462269  56.3761373  38.4543986  84.3924877  57.2490224
  34.4056265  83.5670864  56.1959750  35.2709262  83.3713673  55.8365639
  34.4733774  83.3381216  57.1229106  44.0201396  93.8568445  49.6669943
  43.2430838  93.5179604  49.2225105  44.6992876  93.8621068  48.9924908
  38.8353425  88.9763182  49.5576551  38.5303560  89.2909331  50.4086694
  39.7883867  89.0544602  49.6003884  37.2799856  95.1353406  51.2069505
  36.7521218  94.4006165  50.8942742  36.7787359  95.9128082  50.9609473
  32.0118584  85.7973072  53.5676116  32.5862336  85.5748253  52.8349309
  32.5989566  85.8661766  54.3204718  32.3388171  87.8277533  47.5872002
  31.5025483  88.1652219  47.9081276  32.1992941  87.6926513  46.6499139
  34.3141252  82.6714321  52.2951186  33.6605664  82.3563338  51.6707801
  34.2721726  82.0490061  53.0211009  35.4252457  92.9533616  44.2104478
  34.5179518  92.7222869  44.4095627  35.9223489  92.1571235  44.3978459
  38.3320535 101.6631123  47.1301164  37.6582234 101.9662820  47.7386122
  38.7186357 102.4660203  46.7806621  37.5478992  89.1596254  56.6198833
  36.6301553  89.3811201  56.4620521  37.9639136  89.2342565  55.7610541
  38.3314040  90.5587670  51.7501514  39.0785859  91.0709067  51.4408636
  38.6005629  90.2371723  52.6105907  36.6040690  93.0546211  48.7328468
  35.6951909  92.7705244  48.8300938  36.6335774  93.4745289  47.8731775
  41.8359957  96.6652800  52.5019636  41.3822285  95.8243710  52.5584826
  41.2053924  97.3014199  52.8394416  40.7792877  87.5944786  53.7320303
  40.0415634  87.0822172  54.0630546  41.0319651  87.1545168  52.9203580
  40.2792897  98.5029297  53.4369454  40.5715871  99.0634354  52.7181819
  40.7891517  98.7957858  54.1922613  40.8804504  80.3721038  54.3262072
  41.1863381  79.5118402  54.0387987  41.6057109  80.9638658  54.1261066
  27.1728860  90.7751725  52.7143670  26.9753260  90.1821086  51.9894737
  26.6175524  90.4703935  53.4319609  35.1525584  90.6674831  54.8338263
  35.2074194  89.7148668  54.7580740  34.3416786  90.8234270  55.3179562
  36.3016778  94.5954954  46.0716547  35.8636208  93.8790813  45.6122184
  37.0427219  94.8231069  45.5101638  33.0917944  89.2851891  52.5928642
  32.2785810  89.5846062  52.9993834  33.5876938  88.8907580  53.3103124
  35.2426522  99.2809648  54.5262907  35.2002701  99.5070494  53.5971439
  36.1589221  99.0473023  54.6748708  38.6892156  89.7493716  61.4243536
  39.0441543  89.9765189  62.2838002  39.3364287  90.0812092  60.8020791
  44.4189893  92.8712151  52.1292865  44.2807791  93.0613747  51.2014054
  44.0626111  93.6331534  52.5860916  32.5832019  86.8570247  58.2089877
  33.2231398  86.7159006  57.5112840  31.7509549  86.5704760  57.8328479
  44.4459272  94.9388678  57.1404137  44.8795779  94.8463968  57.9887191
  45.1590853  94.9146179  56.5024153  33.3592323  96.1572677  54.3224870
  34.1532921  95.6622997  54.1207445  32.6484015  95.6290540  53.9592575
  38.1787167  98.5390773  58.6737237  38.2324189  99.1081709  59.4414953
  37.3101948  98.7092658  58.3091274  29.6675086  90.3015759  50.3984622
  28.7372674  90.2400214  50.6154584  29.7632558  89.7791712  49.6021264
  29.5860635  86.8270572  52.9862864  29.8467452  87.7415905  52.8772024
  30.4077807  86.3595014  53.1359477  31.0585560  88.2408329  60.1561688
  31.7308614  88.0325691  59.5074337  30.2315347  88.0430415  59.7166921
  45.3074822  94.9812379  59.6737022  45.5010712  95.8858190  59.9196297
  45.2075440  94.5219798  60.5075607  36.9611132  84.8670270  62.1727349
  36.3139048  85.5660219  62.0791826  37.7312148  85.3006414  62.5403598
  40.3689930  95.1319122  65.2477903  40.2175437  94.9029674  64.3307986
  40.3594610  96.0889723  65.2609248  37.1375267  92.7051035  60.2324169
  38.0667327  92.8562194  60.0593136  36.7166297  92.7935055  59.3772816
  35.9363599  96.7301699  58.0022707  35.7974684  96.3620483  58.8748645
  35.1478195  97.2449338  57.8306664  36.5311751 101.8310795  49.3448243
  36.7063506 101.3598839  50.1593866  35.8444539 102.4576562  49.5729504
  37.4868814  96.1083302  55.3911544  37.1518646  96.0684072  56.2869194
  36.9872759  95.4428018  54.9181955  31.4613058  91.5150932  60.9164126
  31.3232856  90.7831171  61.5175665  32.3717981  91.4259832  60.6348313
  40.4228005  93.4539336  45.6648604  39.8057176  92.7286164  45.5681657
  39.9544494  94.2148696  45.3215678  34.0895358  91.2270891  60.4047805
  34.7994977  90.5864083  60.3634424  34.0464667  91.4783786  61.3273986
  42.0782137  98.1638244  63.3254384  42.0194683  97.4797465  62.6584968
  42.4801655  98.9057234  62.8735010  32.8024292  88.2136109  62.2243445
  32.2661649  87.7626847  62.8765041  32.2141001  88.3482018  61.4813909
  31.0972836 104.9800158  56.1188103  31.3369434 105.6118682  56.7967122
  30.2542032 104.6288198  56.4053463  32.2126551  87.6724760  44.7869908
  31.3356018  87.5513561  44.4232155  32.6884304  86.8810839  44.5348797
  42.0799544  96.1277828  61.5568364  41.1926323  95.7903750  61.6794763
  42.6498095  95.3960860  61.7937130  23.7328691  92.4601920  54.8811416
  24.4199731  92.1463650  54.2932431  23.5776820  93.3643285  54.6078667
  28.5363414  87.3492117  59.3096439  28.4521602  86.7417786  58.5746849
  27.7146120  87.8401135  59.3105936  35.6100698 100.7879281  58.5229607
  35.5370869 101.5934252  59.0348912  35.1678091 100.9871246  57.6977629
  35.3990477 100.0251051  52.0332429  34.6157999 100.5672731  52.1270653
  36.0983223 100.5425030  52.4326670  38.7087127  85.8345680  54.6766634
  39.2055827  85.0815642  54.3567705  37.9374109  85.8709997  54.1109844
  38.0699381 100.6866115  60.6787766  38.7827353 101.3213580  60.6063667
  37.5789410 100.7829981  59.8627768  39.7916908  94.5917367  52.2505058
  38.8573187  94.7118830  52.0809762  39.9693577  93.6889834  51.9865068
  35.2922096  87.9763063  54.4038319  34.9219884  87.4234104  55.0919224
  35.7881189  87.3721197  53.8513319  43.1789460  90.4334687  52.7855092
  43.6449912  91.2662678  52.7115394  43.6296960  89.9679668  53.4900350
  33.1211295  98.4360558  61.4993337  33.8220754  99.0697041  61.6522731
  32.6506410  98.7775290  60.7388976  41.2465691  96.7778508  49.7841244
  41.5225535  96.6635103  50.6935118  40.3770189  96.3795993  49.7453417
  41.1506122  82.8015274  56.8245993  40.2369202  83.0319500  56.9928200
  41.5799224  82.8853718  57.6760026  37.8819755 101.0264859  53.4274057
  38.0642149 100.2086515  53.8901810  38.7052741 101.2432551  52.9898947
  38.2161920  99.9533044  50.6889106  38.7449687  99.4425499  50.0759268
  38.4790140  99.6375574  51.5534639  36.9700154  91.7324977  65.8111924
  36.2940791  91.6319106  66.4814300  37.7927788  91.5764190  66.2747922
  28.7179013  97.9696913  58.4324440  29.3032450  97.2240601  58.5652344
  28.5203851  98.2800870  59.3161103  31.5717668 101.0048161  53.4486882
  30.9028043 101.4894288  52.9650922  31.4330538 101.2517381  54.3630260
  23.3096668  90.5402513  57.1528883  23.3480767  90.0066104  57.9466001
  22.8036960  90.0137719  56.5339860  35.7122937 103.0391904  60.0469540
  36.2641245 103.2023526  60.8118626  36.0529130 103.6296342  59.3749565
  30.6887430  85.3867054  60.6491425  30.7528756  86.2481885  60.2368823
  30.6254550  84.7741056  59.9163783  30.1639702  87.4590186  64.2964459
  30.7911741  87.0767264  64.9101984  29.3067621  87.2404388  64.6620152
  40.5633811  97.8653162  65.9018195  41.1073715  98.4783120  65.4073150
  39.9820656  98.4232740  66.4185208  26.9405245  89.2666616  50.2282814
  27.2358686  88.3577294  50.1749868  26.0393281  89.2454355  49.9063816
  38.8491324 100.9873880  57.0333222  38.7242463 100.1863619  56.5244168
  39.5070415 101.4820073  56.5447192  30.4699492  87.3422612  56.2110363
  29.7486078  87.9558580  56.0717836  31.2592748  87.8780377  56.1327009
  40.9126232  98.7882900  58.6612773  39.9656568  98.6688251  58.5891099
  41.2609005  97.9005398  58.7439034  33.2725806  84.6777039  62.4851014
  33.7960208  84.9239335  63.2477324  33.0538139  85.5097073  62.0654152
  28.6693087  86.9480713  50.3522139  28.3405793  86.0678092  50.1697245
  29.0232457  86.8928382  51.2398528  37.9172666  98.5835616  54.8617125
  37.7697628  97.6552323  55.0424695  38.7426159  98.6055707  54.3774200
  31.7834910  87.2353683  50.7197617  32.1230982  87.7639604  49.9976225
  32.2307030  87.5734089  51.4956183  41.5206787  99.4064175  55.9481998
  42.4453335  99.2007036  55.8106449  41.3522091  99.1580576  56.8571339
  34.4778351  85.6190734  60.1700685  34.1375171  84.8198547  60.5721365
  33.7717357  85.9192445  59.5977518  35.1294823  82.7040046  58.6228008
  35.9520892  82.2300524  58.5006898  35.3732886  83.4830530  59.1226694
  33.7703057  85.7328305  48.9190910  34.4911420  86.1109557  48.4154627
  33.1468361  86.4517181  49.0225888  37.9134180  86.4373454  49.8549242
  38.1297794  87.3198091  49.5538070  37.4328247  86.0459667  49.1254884
  32.6533401  89.3959167  56.4319987  32.5077982  89.7099470  57.3244268
  32.1758605  90.0144067  55.8790885  34.5129784  86.3861715  56.4800876
  34.4991353  85.4902808  56.1433174  35.2302212  86.3932379  57.1139162
  36.3655915  86.8199055  58.5254004  36.1073693  87.7416126  58.5238334
  35.8340955  86.4229490  59.2154468  41.3102104  99.9249842  51.3044089
  41.4838981  99.3596265  50.5517941  41.8030995 100.7250737  51.1223579
  27.1279063  91.9364511  59.3707648  26.5832532  92.7124319  59.5027922
  28.0058413  92.2835316  59.2126769  33.9166680  85.2676095  51.7488446
  34.0382591  84.3392741  51.9479334  33.6268723  85.2814781  50.8366762
  36.7857871  82.9531006  54.8855166  36.8079567  83.0170339  53.9307146
  37.2025930  82.1135514  55.0795672  47.1641495  92.6886265  52.9234389
  47.6072641  91.9393590  52.5253512  46.2868005  92.6796401  52.5408121
  42.2977276  99.2416607  48.4040987  42.9928181  99.8623299  48.6228302
  42.6400426  98.3911958  48.6793365  27.9145085  91.0634407  62.2637805
  27.1726821  91.2117043  62.8502435  27.5937830  91.3242673  61.4004554
  44.1968699  96.6916312  49.9328318  44.7220023  97.0303585  49.2077638
  44.1091052  95.7563327  49.7491453  35.8588748 100.6050386  62.0618195
  36.1675874 100.3599532  62.9340894  36.6564230 100.8097024  61.5737065
  35.8809360 102.7588295  54.2923571  35.4414350 102.2664674  54.9856428
  36.6317477 102.2161263  54.0515646  28.3601699  98.9499836  54.2948199
  29.1859719  98.6503608  53.9146843  28.0095751  98.1807459  54.7437988
  33.3283232  98.3026304  56.3645873  32.7063241  97.6397009  56.0648101
  33.9988099  98.3287436  55.6819521  26.5610304  96.8686163  55.2537133
  25.7242212  96.4408337  55.0721134  26.5333950  97.0618606  56.1907924
  33.4007760  86.7808092  65.9578379  33.4495915  87.6570215  65.5756148
  33.9430274  86.2385486  65.3850022  43.8862605  97.3249216  65.2379516
  43.0958149  97.3073355  64.6984015  43.6495960  97.8637509  65.9928553
  44.0060480  94.1741682  62.5512245  44.0558485  94.0091690  63.4927767
  43.8974404  93.3068941  62.1610125  32.8896739  96.8530228  49.8404333
  33.0384859  97.5365692  49.1871006  33.6963183  96.8335318  50.3553789
  41.2964243  90.1572610  63.8671551  42.1974106  90.0179075  63.5755549
  41.3712217  90.3227065  64.8069729  35.6307048  87.5339465  62.7124738
  34.7610358  87.8273031  62.4407326  35.8666528  88.1179910  63.4332001
  45.5078677  96.5938624  62.7954266  45.2163486  96.9568604  63.6317727
  44.8950809  95.8805632  62.6167598  30.6449372  92.8795405  50.8465402
  30.3995414  91.9757735  51.0445612  30.8145287  92.8812556  49.9044880
  38.3346082  83.7519082  60.2290158  38.8528026  84.4880109  59.9036646
  37.9801215  84.0583075  61.0636917  29.9145020  88.6123763  48.3451564
  29.2214265  88.6868118  47.6891600  29.6696772  87.8484107  48.8673081
  38.5858676  80.1719364  55.7491055  38.8660430  79.5042553  56.3751481
  39.3709283  80.3648460  55.2365718  36.3892145  99.3478358  47.3116081
  35.8166112  99.9668545  46.8586553  36.9624938  99.8977720  47.8456003
  40.4781914  85.6792582  59.6822031  39.8831846  85.9597594  58.9868519
  40.1931611  86.1686482  60.4538772  39.6089404  99.6315508  48.4424663
  40.5420078  99.5661070  48.6457539  39.5212617 100.4671775  47.9839196
  42.2377421  98.9481379  45.4028611  42.1591053  98.6141242  46.2964369
  43.0587088  99.4403147  45.4020083  36.7738943  90.6839171  44.6532133
  37.7198048  90.5545379  44.7220551  36.3953188  89.9453833  45.1301561
  42.7460828  82.3495177  54.6159025  42.5485649  82.0410265  55.5002357
  43.3560533  83.0756816  54.7456955  36.6577636  94.7356917  66.1132790
  37.5780645  94.9135516  66.3072837  36.6227219  93.7912962  65.9612490
  34.9581860  88.6089147  44.5887019  34.0513316  88.3122260  44.6649732
  35.2357841  88.3118965  43.7221305  25.8759801  89.9295511  55.0386065
  25.5562585  89.0760819  54.7460439  25.3293229  90.1444089  55.7944032
  29.6539708  92.6457952  58.7555571  29.8725718  93.5775060  58.7743605
  30.0665482  92.2865926  59.5410375  36.5743926  83.1526037  50.7431260
  35.7644654  82.8073122  51.1186506  37.2628343  82.8433581  51.3318871
  38.5034474  82.2304084  52.3655556  39.0565513  82.6499537  53.0245580
  38.7404561  81.3039832  52.4078512  34.5267574  88.2191158  68.1458320
  34.4264300  89.1685514  68.0770411  34.3089116  87.8909396  67.2734390
  33.7280645  85.4676083  44.7298998  34.5899809  85.7930981  44.9894815
  33.9130989  84.6807578  44.2172064  25.7448061  93.5498422  57.0079187
  25.0511532  93.1352375  56.4949141  26.4921052  93.5918959  56.4112605
  41.8813281  84.3404609  51.8734221  41.3011950  84.9989413  51.4912273
  41.6149214  83.5181954  51.4621638  40.3316848  83.7409667  54.0755541
  40.8316626  83.8526201  53.2669860  40.9752456  83.4370720  54.7156350
  34.3898844  91.6488296  66.9623382  33.9065925  92.4488656  67.1687271
  34.4759783  91.6596241  66.0090826  27.6584803  93.4816676  54.8845201
  27.6355491  93.5804363  53.9327085  27.9685440  94.3281827  55.2062368
  30.3172181  95.5392831  58.9991816  31.2715435  95.5076773  58.9321747
  30.1184705  95.0783455  59.8142042  30.9071563  94.1093947  61.5662613
  31.7264452  94.6038026  61.5897451  31.1808371  93.1925915  61.5380181
  40.6638159  86.5004699  50.9290569  39.7764014  86.7854350  50.7110764
  41.0792148  86.3398463  50.0817846  28.6722410 101.0812451  56.0162014
  28.5376878 100.3212851  55.4500012  28.2554472 101.8053350  55.5490803
  39.8081373  96.2649374  45.0238589  40.5117223  96.4699377  45.6396245
  39.0844022  96.8326136  45.2887673  40.6379183  92.0159235  51.1440859
  40.5814385  92.4727787  50.3048492  41.1907526  91.2549920  50.9663702
  31.8291536 101.9781768  56.2280456  31.7123920 102.9227200  56.1259147
  31.0083982 101.6755329  56.6166256  41.7168070  96.7031903  47.0737049
  42.5513674  96.2713102  46.8914524  41.5552413  96.5313917  48.0013944
  41.3713962  93.2064017  48.4393388  41.3162766  93.0408288  47.4981832
  40.7460018  93.9140050  48.5955578  26.1606477  88.4432081  62.2654811
  26.8065341  87.9331035  62.7542036  25.9523629  89.1800763  62.8398236
  38.6859870  95.5112928  67.7646951  39.5551029  95.6853581  67.4033586
  38.2066621  96.3307345  67.6422680  34.6810088  82.7072126  48.0178707
  34.6688758  83.6513966  48.1746978  35.5733510  82.5242271  47.7238168
  32.8546050 102.6310029  59.4436385  33.7573297 102.6633640  59.7602880
  32.6283420 101.7010480  59.4582721  34.6099652 101.3841016  56.1046463
  33.6595283 101.3842878  55.9910836  34.9132138 100.6373751  55.5882498
  38.4962207  79.3014902  52.2724644  37.7294603  78.7473389  52.4181326
  38.9072912  79.3736771  53.1338795  30.5003968  85.5899698  66.3629825
  31.3635430  85.2336503  66.5733149  29.9269379  85.2513593  67.0505229
  50.3452345 107.2201554  57.1692226  50.9830755 107.1008302  56.4655566
  50.2273188 108.1682398  57.2280178  47.1542052 107.1728983  57.1053750
  46.8160563 107.0570047  56.2174285  48.0231820 106.7720148  57.0854757
  43.0128867 109.0264459  53.0950641  42.4493732 108.9354396  52.3266929
  42.8981262 108.2064363  53.5753134  47.6361835 108.3263834  63.0639956
  47.6250475 107.9316633  62.1920460  47.7982474 107.5929907  63.6573727
  40.5593299 110.5215651  55.9334862  41.3514591 110.1806475  55.5181161
  40.7989949 110.6310626  56.8537015  48.5928426 112.6935427  48.4065106
  47.9416406 113.2789507  48.0199120  49.3872789 113.2241622  48.4660144
  42.5184053 109.7824564  48.8052241  43.2914929 109.2353551  48.6665116
  42.8709452 110.6468813  49.0166702  44.3569096 111.1100946  62.0119140
  44.0658962 112.0146577  61.8965806  44.9926080 111.1517474  62.7263210
  45.2825303 108.4877795  58.6020500  45.8788875 108.2633817  57.8877463
  45.3400274 107.7462540  59.2045947  44.8550331 105.9417230  46.4370691
  45.1075852 105.4198751  45.6754154  43.9174890 105.7783375  46.5397374
  49.8993614 104.9453008  54.2445434  50.6856703 104.5272431  53.8935851
  50.1632318 105.8499100  54.4127082  50.0703691 110.3825859  48.9434091
  49.4349524 110.4560485  49.6554995  49.7401098 110.9719457  48.2653170
  55.3002041 104.8828241  55.1478412  56.0327213 104.3127458  55.3816242
  54.5441397 104.4949842  55.5884918  44.5746620 107.8445336  48.6395066
  44.4582878 107.1690239  49.3076150  44.6848880 107.3577710  47.8227219
  46.9178161 107.3055483  52.3441755  46.5536368 106.7786104  53.0554676
  47.7745277 106.9153952  52.1708240  46.5583648 102.3345383  47.3403103
  46.7258050 103.2025619  47.7073574  46.3680817 102.4972664  46.4164393
  49.3158981 110.7962362  59.0068934  49.0159704 111.6987400  58.8984741
  48.9710040 110.5294545  59.8590087  42.7671462 107.2476158  55.0405638
  41.8421959 107.1152373  55.2483330  43.0155876 108.0270378  55.5375581
  46.5372869 104.7903040  48.3249770  46.4172494 105.2360091  49.1635250
  45.8425457 105.1388358  47.7663308  40.1280273 106.8909432  55.8749427
  40.2572655 107.1443911  56.7888839  39.4477725 107.4837140  55.5554082
  44.2979761 117.5606682  51.9739901  44.2203790 118.5114507  52.0528382
  43.6941404 117.2152554  52.6314828  52.2357935 105.2624513  49.1530104
  53.1475791 105.4951900  48.9777802  51.7267582 105.8461558  48.5905183
  45.0443363 107.5420001  64.1919235  45.7858047 108.0805045  63.9154059
  44.3380348 108.1686289  64.3490787  50.5198702 109.6849141  62.7891397
  50.9282058 109.2431552  62.0446029  49.7975964 109.1101769  63.0425590
  50.8427517 110.2450332  56.5443686  50.2136379 110.4096046  55.8419754
  50.4553179 110.6591941  57.3154650  54.7216749 111.1804770  53.8988049
  54.0367787 111.5603671  53.3485083  54.8060598 111.7900096  54.6319997
  51.9767681 108.8264729  60.4983393  52.1884576 109.4696489  59.8217774
  51.9297429 107.9927045  60.0305323  46.3955479 109.9824740  53.8093771
  46.8593824 110.2612443  53.0198393  46.1312277 109.0808184  53.6266861
  43.2879560 109.5296221  56.7473534  43.8580917 109.9583490  56.1091019
  43.8787672 109.2478806  57.4457720  45.3324365 106.1047892  50.6183336
  46.0348408 106.5568936  51.0857262  45.0004993 105.4631711  51.2463229
  43.7804726 104.6959649  64.9934545  43.1503387 105.3775930  65.2269942
  43.6740814 104.5842730  64.0487684  39.0749699 104.3631445  55.9200469
  38.2848753 104.6188973  55.4440580  39.5660946 105.1779783  56.0252510
  53.0913508 111.7036684  58.6705750  53.9130952 111.3016871  58.3888432
  53.0875911 111.6004918  59.6221866  41.0264444 104.7276024  52.8783946
  40.2295608 104.8394718  53.3967442  40.7990036 105.0662676  52.0124837
  46.8570112 111.2520727  60.8266461  46.9214544 111.7141135  61.6624633
  46.1481036 110.6218092  60.9548771  37.3587402 104.6161935  58.3515460
  37.6095440 105.5008945  58.6173036  37.8946950 104.4366537  57.5790552
  61.1819502 108.0475433  55.0190722  60.4283210 107.4782831  54.8634726
  61.3167043 108.0138097  55.9661356  46.5718130 112.9188835  50.6945441
  46.4363804 113.7640371  51.1230289  47.1127942 113.1208113  49.9311375
  43.0585469  98.9980415  67.3559796  42.6652415  98.4446613  68.0307441
  43.8751610  99.3090993  67.7466314  40.0247527 110.4364273  51.2673366
  40.5372048 111.2307523  51.4178931  40.6770240 109.7390563  51.2006968
  41.8342412 113.5530029  53.3496119  42.0109040 114.4747994  53.1617103
  42.6299245 113.2388448  53.7790499  41.1194768 105.5994661  63.2258283
  41.0048283 104.6979918  63.5265381  40.2639286 105.8458358  62.8743099
  48.1986606 113.5412401  64.8245783  47.7550460 112.7548780  64.5066688
  48.8603820 113.7291552  64.1589674  42.9573727 115.0708203  59.3506462
  43.5081152 114.9425266  58.5783456  42.1185203 115.3703092  59.0001354
  50.2967844 113.8215201  62.8527184  50.2786319 114.6424082  62.3607454
  51.2187764 113.6969277  63.0777326  46.7540898 111.3359331  63.6950693
  47.2869235 110.5747619  63.4650001  46.2254979 111.0432983  64.4374847
  49.9210593  96.4419397  59.2244335  49.5774863  97.3321038  59.1483445
  50.2889556  96.2521054  58.3613920  37.9896444 108.7652927  52.0432937
  38.8271666 109.1749936  51.8266644  38.1674711 107.8252369  52.0133131
  49.8860876 106.4328008  47.7316770  49.3707499 107.2032612  47.9705157
  49.6138184 105.7593144  48.3549831  47.4707987 101.2777709  52.7902008
  46.6149583 100.8884559  52.6107647  47.8834939 101.3569669  51.9301794
  45.2450019  98.8962782  56.1959750  46.1103016  98.7005590  55.8365639
  45.3127528  98.6673133  57.1229106  54.8595150 109.1860362  49.6669943
  54.0824593 108.8471522  49.2225105  55.5386631 109.1912986  48.9924908
  49.6747179 104.3055100  49.5576551  49.3697315 104.6201249  50.4086694
  50.6277621 104.3836520  49.6003884  48.1193611 110.4645323  51.2069505
  47.5914972 109.7298083  50.8942742  47.6181114 111.2420000  50.9609473
  53.0986457 108.6594344  56.3236551  52.4410131 109.3493605  56.4116680
  53.9026856 109.0490776  56.6670537  42.8512338 101.1264990  53.5676116
  43.4256090 100.9040171  52.8349309  43.4383321 101.1953684  54.3204718
  51.9091916 107.0138716  54.3740493  52.4223797 107.6468708  54.8762203
  52.5593140 106.4139912  54.0083853  43.1781926 103.1569451  47.5872002
  42.3419238 103.4944137  47.9081276  43.0386695 103.0218430  46.6499139
  45.1535006  98.0006238  52.2951186  44.4999419  97.6855256  51.6707801
  45.1115480  97.3781979  53.0211009  46.2646211 108.2825534  44.2104478
  45.3573273 108.0514787  44.4095627  46.7617243 107.4863153  44.3978459
  49.1714290 116.9923041  47.1301164  48.4975989 117.2954737  47.7386122
  49.5580112 117.7952121  46.7806621  48.3872747 104.4888172  56.6198833
  47.4695308 104.7103119  56.4620521  48.8032890 104.5634482  55.7610541
  49.1707794 105.8879588  51.7501514  49.9179613 106.4000985  51.4408636
  49.4399384 105.5663640  52.6105907  47.4434445 108.3838128  48.7328468
  46.5345664 108.0997161  48.8300938  47.4729528 108.8037207  47.8731775
  52.6753712 111.9944718  52.5019636  52.2216039 111.1535628  52.5584826
  52.0447679 112.6306116  52.8394416  51.6186631 102.9236704  53.7320303
  50.8809388 102.4114090  54.0630546  51.8713405 102.4837086  52.9203580
  51.1186651 113.8321215  53.4369454  51.4109626 114.3926272  52.7181819
  51.6285272 114.1249776  54.1922613  38.0122615 106.1043643  52.7143670
  37.8147015 105.5113003  51.9894737  37.4569279 105.7995853  53.4319609
  45.9919339 105.9966749  54.8338263  46.0467948 105.0440585  54.7580740
  45.1810541 106.1526188  55.3179562  47.1410532 109.9246872  46.0716547
  46.7029962 109.2082731  45.6122184  47.8820973 110.1522987  45.5101638
  43.9311698 104.6143809  52.5928642  43.1179564 104.9137979  52.9993834
  44.4270693 104.2199498  53.3103124  46.0820276 114.6101566  54.5262907
  46.0396455 114.8362412  53.5971439  46.9982975 114.3764940  54.6748708
  55.2583647 108.2004069  52.1292865  55.1201546 108.3905665  51.2014054
  54.9019866 108.9623452  52.5860916  43.4225773 102.1862164  58.2089877
  44.0625153 102.0450923  57.5112840  42.5903304 101.8996678  57.8328479
  55.2853027 110.2680596  57.1404137  55.7189533 110.1755885  57.9887191
  55.9984607 110.2438097  56.5024153  44.1986077 111.4864595  54.3224870
  44.9926676 110.9914915  54.1207445  43.4877770 110.9582458  53.9592575
  49.0180922 113.8682690  58.6737237  49.0717944 114.4373627  59.4414953
  48.1495703 114.0384575  58.3091274  40.5068841 105.6307676  50.3984622
  39.5766429 105.5692132  50.6154584  40.6026313 105.1083629  49.6021264
  40.4254390 102.1562489  52.9862864  40.6861207 103.0707823  52.8772024
  41.2471562 101.6886932  53.1359477  41.8979315 103.5700246  60.1561688
  42.5702368 103.3617609  59.5074337  41.0709102 103.3722332  59.7166921
  56.1468576 110.3104297  59.6737022  56.3404466 111.2150107  59.9196297
  56.0469194 109.8511716  60.5075607  51.2083685 110.4611040  65.2477903
  51.0569191 110.2321591  64.3307986  51.1988364 111.4181641  65.2609248
  47.9769021 108.0342952  60.2324169  48.9061081 108.1854112  60.0593136
  47.5560051 108.1226973  59.3772816  46.7757353 112.0593617  58.0022707
  46.6368439 111.6912401  58.8748645  45.9871949 112.5741256  57.8306664
  47.3705505 117.1602713  49.3448243  47.5457261 116.6890756  50.1593866
  46.6838293 117.7868479  49.5729504  48.3262568 111.4375219  55.3911544
  47.9912401 111.3975989  56.2869194  47.8266514 110.7719935  54.9181955
  42.3006812 106.8442849  60.9164126  42.1626610 106.1123088  61.5175665
  43.2111736 106.7551750  60.6348313  51.2621760 108.7831254  45.6648604
  50.6450931 108.0578082  45.5681657  50.7938248 109.5440614  45.3215678
  44.9289113 106.5562809  60.4047805  45.6388731 105.9156001  60.3634424
  44.8858421 106.8075704  61.3273986  52.9175892 113.4930162  63.3254384
  52.8588438 112.8089382  62.6584968  53.3195410 114.2349152  62.8735010
  41.9366590 120.3092076  56.1188103  42.1763189 120.9410600  56.7967122
  41.0935787 119.9580116  56.4053463  43.0520306 103.0016678  44.7869908
  42.1749772 102.8805479  44.4232155  43.5278059 102.2102756  44.5348797
  52.9193299 111.4569746  61.5568364  52.0320078 111.1195668  61.6794763
  53.4891850 110.7252777  61.7937130  34.5722446 107.7893838  54.8811416
  35.2593486 107.4755568  54.2932431  34.4170575 108.6935202  54.6078667
  39.3757168 102.6784034  59.3096439  39.2915357 102.0709704  58.5746849
  38.5539875 103.1693053  59.3105936  46.4494452 116.1171198  58.5229607
  46.3764624 116.9226170  59.0348912  46.0071845 116.3163164  57.6977629
  46.2384232 115.3542968  52.0332429  45.4551754 115.8964649  52.1270653
  46.9376977 115.8716948  52.4326670  49.5480882 101.1637598  54.6766634
  50.0449582 100.4107560  54.3567705  48.7767863 101.2001914  54.1109844
  57.4010639 106.8677963  56.3184926  57.3900516 107.7502679  55.9478859
  56.5328019 106.5149514  56.1239463  48.9093136 116.0158032  60.6787766
  49.6221108 116.6505497  60.6063667  48.4183164 116.1121898  59.8627768
  50.6310663 109.9209285  52.2505058  49.6966941 110.0410748  52.0809762
  50.8087331 109.0181752  51.9865068  46.1315851 103.3054981  54.4038319
  45.7613638 102.7526021  55.0919224  46.6274943 102.7013114  53.8513319
  54.0183214 105.7626604  52.7855092  54.4843666 106.5954596  52.7115394
  54.4690715 105.2971586  53.4900350  43.9605049 113.7652476  61.4993337
  44.6614509 114.3988959  61.6522731  43.4900164 114.1067207  60.7388976
  52.0859445 112.1070426  49.7841244  52.3619289 111.9927020  50.6935118
  51.2163944 111.7087910  49.7453417  48.7213509 116.3556776  53.4274057
  48.9035904 115.5378432  53.8901810  49.5446495 116.5724469  52.9898947
  49.0555675 115.2824962  50.6889106  49.5843441 114.7717416  50.0759268
  49.3183894 114.9667492  51.5534639  39.5572767 113.2988831  58.4324440
  40.1426204 112.5532519  58.5652344  39.3597606 113.6092788  59.3161103
  42.4111423 116.3340078  53.4486882  41.7421798 116.8186206  52.9650922
  42.2724292 116.5809299  54.3630260  34.1490422 105.8694431  57.1528883
  34.1874522 105.3358022  57.9466001  33.6430715 105.3429637  56.5339860
  46.5516691 118.3683822  60.0469540  47.1034999 118.5315443  60.8118626
  46.8922885 118.9588260  59.3749565  41.5281184 100.7158972  60.6491425
  41.5922511 101.5773803  60.2368823  41.4648305 100.1032973  59.9163783
  41.0033457 102.7882104  64.2964459  41.6305496 102.4059181  64.9101984
  40.1461376 102.5696306  64.6620152  51.4027565 113.1945079  65.9018195
  51.9467469 113.8075038  65.4073150  50.8214410 113.7524658  66.4185208
  37.7799000 104.5958533  50.2282814  38.0752441 103.6869212  50.1749868
  36.8787035 104.5746273  49.9063816  49.6885078 116.3165797  57.0333222
  49.5636218 115.5155537  56.5244168  50.3464170 116.8111991  56.5447192
  41.3093247 102.6714530  56.2110363  40.5879832 103.2850498  56.0717836
  42.0986502 103.2072295  56.1327009  51.7519987 114.1174817  58.6612773
  50.8050322 113.9980169  58.5891099  52.1002760 113.2297315  58.7439034
  44.1119560 100.0068956  62.4851014  44.6353962 100.2531253  63.2477324
  43.8931893 100.8388991  62.0654152  39.5086841 102.2772631  50.3522139
  39.1799547 101.3970010  50.1697245  39.8626212 102.2220300  51.2398528
  48.7566420 113.9127534  54.8617125  48.6091383 112.9844241  55.0424695
  49.5819914 113.9347624  54.3774200  42.6228664 102.5645601  50.7197617
  42.9624737 103.0931522  49.9976225  43.0700785 102.9026007  51.4956183
  52.3600542 114.7356092  55.9481998  53.2847089 114.5298954  55.8106449
  52.1915845 114.4872494  56.8571339  45.9688577  98.0331964  58.6228008
  46.7914646  97.5592442  58.5006898  46.2126641  98.8122448  59.1226694
  44.6096812 101.0620222  48.9190910  45.3305174 101.4401475  48.4154627
  43.9862116 101.7809099  49.0225888  48.7527934 101.7665371  49.8549242
  48.9691549 102.6490009  49.5538070  48.2722002 101.3751585  49.1254884
  43.4927156 104.7251085  56.4319987  43.3471737 105.0391388  57.3244268
  43.0152359 105.3435985  55.8790885  45.3523539 101.7153632  56.4800876
  45.3385107 100.8194726  56.1433174  46.0695967 101.7224296  57.1139162
  52.1495858 115.2541760  51.3044089  52.3232736 114.6888182  50.5517941
  52.6424749 116.0542655  51.1223579  37.9672818 107.2656429  59.3707648
  37.4226286 108.0416237  59.5027922  38.8452168 107.6127233  59.2126769
  44.7560435 100.5968013  51.7488446  44.8776346  99.6684659  51.9479334
  44.4662477 100.6106699  50.8366762  47.6251625  98.2822923  54.8855166
  47.6473322  98.3462256  53.9307146  48.0419684  97.4427432  55.0795672
  58.0035249 108.0178183  52.9234389  58.4466395 107.2685508  52.5253512
  57.1261760 108.0088319  52.5408121  53.1371031 114.5708524  48.4040987
  53.8321935 115.1915217  48.6228302  53.4794181 113.7203875  48.6793365
  38.7538840 106.3926325  62.2637805  38.0120576 106.5408961  62.8502435
  38.4331584 106.6534591  61.4004554  55.0362454 112.0208230  49.9328318
  55.5613778 112.3595503  49.2077638  54.9484806 111.0855245  49.7491453
  46.6982502 115.9342303  62.0618195  47.0069629 115.6891450  62.9340894
  47.4957985 116.1388942  61.5737065  46.7203115 118.0880213  54.2923571
  46.2808105 117.5956592  54.9856428  47.4711231 117.5453181  54.0515646
  39.1995454 114.2791754  54.2948199  40.0253473 113.9795526  53.9146843
  38.8489506 113.5099376  54.7437988  44.1676987 113.6318222  56.3645873
  43.5456996 112.9688927  56.0648101  44.8381854 113.6579354  55.6819521
  37.4004059 112.1978080  55.2537133  36.5635967 111.7700255  55.0721134
  37.3727704 112.3910524  56.1907924  44.2401514 102.1100010  65.9578379
  44.2889670 102.9862133  65.5756148  44.7824028 101.5677403  65.3850022
  54.7256360 112.6541133  65.2379516  53.9351904 112.6365272  64.6984015
  54.4889714 113.1929427  65.9928553  54.8454235 109.5033600  62.5512245
  54.8952240 109.3383607  63.4927767  54.7368158 108.6360859  62.1610125
  43.7290494 112.1822145  49.8404333  43.8778614 112.8657610  49.1871006
  44.5356937 112.1627236  50.3553789  56.3472432 111.9230541  62.7954266
  56.0557240 112.2860522  63.6317727  55.7344563 111.2097550  62.6167598
  57.5468114 109.4883421  55.3156836  58.3815005 109.9273225  55.4794397
  57.6827243 109.0122074  54.4965082  41.4843127 108.2087323  50.8465402
  41.2389169 107.3049653  51.0445612  41.6539041 108.2104474  49.9044880
  40.7538774 103.9415681  48.3451564  40.0608019 104.0160036  47.6891600
  40.5090526 103.1776024  48.8673081  47.2285899 114.6770276  47.3116081
  46.6559866 115.2960463  46.8586553  47.8018693 115.2269638  47.8456003
  50.4483159 114.9607426  48.4424663  51.3813832 114.8952988  48.6457539
  50.3606372 115.7963693  47.9839196  53.0771176 114.2773296  45.4028611
  52.9984807 113.9433160  46.2964369  53.8980842 114.7695064  45.4020083
  47.6132698 106.0131089  44.6532133  48.5591802 105.8837297  44.7220551
  47.2346943 105.2745751  45.1301561  53.5854582  97.6787095  54.6159025
  53.3879403  97.3702183  55.5002357  54.1954288  98.4048734  54.7456955
  61.5925917 108.2051043  57.7510966  62.3229305 107.9436331  58.3118669
  60.9832862 107.4679764  57.7913034  47.4971390 110.0648835  66.1132790
  48.4174400 110.2427434  66.3072837  47.4620973 109.1204880  65.9612490
  45.7975615 103.9381065  44.5887019  44.8907070 103.6414178  44.6649732
  46.0751596 103.6410883  43.7221305  36.7153555 105.2587428  55.0386065
  36.3956340 104.4052737  54.7460439  36.1686983 105.4736007  55.7944032
  40.4933463 107.9749869  58.7555571  40.7119472 108.9066977  58.7743605
  40.9059237 107.6157844  59.5410375  47.4137680  98.4817955  50.7431260
  46.6038409  98.1365040  51.1186506  48.1022097  98.1725498  51.3318871
  49.3428229  97.5596002  52.3655556  49.8959267  97.9791455  53.0245580
  49.5798315  96.6331750  52.4078512  45.3661328 103.5483075  68.1458320
  45.2658055 104.4977432  68.0770411  45.1482870 103.2201314  67.2734390
  44.5674399 100.7968000  44.7298998  45.4293563 101.1222899  44.9894815
  44.7524744 100.0099496  44.2172064  36.5841815 108.8790340  57.0079187
  35.8905287 108.4644293  56.4949141  37.3314806 108.9210876  56.4112605
  52.7207036  99.6696527  51.8734221  52.1405705 100.3281331  51.4912273
  52.4542969  98.8473871  51.4621638  51.1710602  99.0701584  54.0755541
  51.6710381  99.1818119  53.2669860  51.8146210  98.7662637  54.7156350
  45.2292598 106.9780214  66.9623382  44.7459680 107.7780574  67.1687271
  45.3153537 106.9888159  66.0090826  38.4978558 108.8108594  54.8845201
  38.4749246 108.9096281  53.9327085  38.8079194 109.6573745  55.2062368
  41.1565936 110.8684749  58.9991816  42.1109189 110.8368691  58.9321747
  40.9578459 110.4075372  59.8142042  41.7465318 109.4385865  61.5662613
  42.5658207 109.9329943  61.5897451  42.0202125 108.5217833  61.5380181
  51.5031914 101.8296617  50.9290569  50.6157769 102.1146268  50.7110764
  51.9185903 101.6690380  50.0817846  54.8546450 101.8543138  54.6444908
  55.6306840 102.3439591  54.9169525  54.1294584 102.2801192  55.1016778
  57.2919009 102.5670757  55.7018849  57.8863499 102.3266493  54.9912157
  57.3645592 101.8477888  56.3292385  39.5116164 116.4104368  56.0162014
  39.3770632 115.6504769  55.4500012  39.0948227 117.1345268  55.5490803
  50.6475127 111.5941292  45.0238589  51.3510977 111.7991294  45.6396245
  49.9237776 112.1618054  45.2887673  51.4772938 107.3451153  51.1440859
  51.4208139 107.8019704  50.3048492  52.0301280 106.5841838  50.9663702
  59.5990081 105.8736958  54.4762270  59.0389639 105.9430147  55.2493832
  58.9933585 105.6977943  53.7561766  42.6685290 117.3073685  56.2280456
  42.5517674 118.2519118  56.1259147  41.8477736 117.0047247  56.6166256
  52.5561825 112.0323821  47.0737049  53.3907429 111.6005019  46.8914524
  52.3946168 111.8605835  48.0013944  52.2107717 108.5355934  48.4393388
  52.1556521 108.3700206  47.4981832  51.5853772 109.2431967  48.5955578
  37.0000232 103.7723999  62.2654811  37.6459096 103.2622953  62.7542036
  36.7917383 104.5092680  62.8398236  49.5253624 110.8404846  67.7646951
  50.3944784 111.0145498  67.4033586  49.0460376 111.6599263  67.6422680
  45.5203842  98.0364043  48.0178707  45.5082512  98.9805883  48.1746978
  46.4127264  97.8534189  47.7238168  43.6939804 117.9601947  59.4436385
  44.5967051 117.9925557  59.7602880  43.4677174 117.0302398  59.4582721
  45.4493406 116.7132934  56.1046463  44.4989037 116.7134795  55.9910836
  45.7525893 115.9665668  55.5882498  49.3355962  94.6306820  52.2724644
  48.5688358  94.0765307  52.4181326  49.7466667  94.7028689  53.1338795
  41.3397723 100.9191616  66.3629825  42.2029184 100.5628421  66.5733149
  40.7663134 100.5805511  67.0505229  61.1846100 122.5493472  57.1692226
  61.8224510 122.4300219  56.4655566  61.0666943 123.4974316  57.2280178
  57.9935806 122.5020900  57.1053750  57.6554318 122.3861965  56.2174285
  58.8625574 122.1012065  57.0854757  53.8522622 124.3556377  53.0950641
  53.2887487 124.2646314  52.3266929  53.7375017 123.5356281  53.5753134
  58.4755589 123.6555752  63.0639956  58.4644230 123.2608550  62.1920460
  58.6376229 122.9221825  63.6573727  51.3987054 125.8507568  55.9334862
  52.1908346 125.5098393  55.5181161  51.6383704 125.9602543  56.8537015
  59.4322181 128.0227344  48.4065106  58.7810160 128.6081425  48.0199120
  60.2266543 128.5533539  48.4660144  53.3577808 125.1116481  48.8052241
  54.1308684 124.5645469  48.6665116  53.7103207 125.9760731  49.0166702
  55.1962850 126.4392864  62.0119140  54.9052716 127.3438495  61.8965806
  55.8319835 126.4809391  62.7263210  56.1219057 123.8169712  58.6020500
  56.7182629 123.5925735  57.8877463  56.1794029 123.0754458  59.2045947
  55.6944086 121.2709148  46.4370691  55.9469606 120.7490669  45.6754154
  54.7568645 121.1075293  46.5397374  60.7387368 120.2744926  54.2445434
  61.5250458 119.8564349  53.8935851  61.0026073 121.1791018  54.4127082
  60.9097446 125.7117776  48.9434091  60.2743279 125.7852403  49.6554995
  60.5794852 126.3011375  48.2653170  66.1395795 120.2120159  55.1478412
  66.8720967 119.6419376  55.3816242  65.3835151 119.8241760  55.5884918
  55.4140374 123.1737254  48.6395066  55.2976632 122.4982157  49.3076150
  55.5242634 122.6869627  47.8227219  57.7571915 122.6347401  52.3441755
  57.3930122 122.1078022  53.0554676  58.6139031 122.2445870  52.1708240
  63.6621216 113.9241733  59.6073021  63.3304541 114.7937144  59.3834236
  63.0666829 113.6078017  60.2867051  57.3977402 117.6637300  47.3403103
  57.5651805 118.5317537  47.7073574  57.2074571 117.8264582  46.4164393
  60.1552735 126.1254279  59.0068934  59.8553458 127.0279318  58.8984741
  59.8103795 125.8586462  59.8590087  53.6065217 122.5768076  55.0405638
  52.6815713 122.4444290  55.2483330  53.8549630 123.3562295  55.5375581
  63.5549879 118.6436819  56.6866371  62.6466756 118.5752228  56.3925132
  63.5037475 119.1208764  57.5148196  57.3766623 120.1194958  48.3249770
  57.2566248 120.5652009  49.1635250  56.6819211 120.4680276  47.7663308
  50.9674028 122.2201350  55.8749427  51.0966409 122.4735829  56.7888839
  50.2871479 122.8129058  55.5554082  55.1373515 132.8898600  51.9739901
  55.0597545 133.8406425  52.0528382  54.5335159 132.5444472  52.6314828
  57.6290745 120.0626465  64.6301268  56.8524079 120.6220385  64.6204133
  58.2681308 120.5483248  65.1516138  65.4211526 116.8453258  58.4644245
  64.7785906 117.1385791  57.8184040  64.9166454 116.7306178  59.2697442
  63.0751689 120.5916431  49.1530104  63.9869545 120.8243818  48.9777802
  62.5661336 121.1753475  48.5905183  55.8837117 122.8711918  64.1919235
  56.6251802 123.4096962  63.9154059  55.1774103 123.4978207  64.3490787
  61.3592457 125.0141059  62.7891397  61.7675813 124.5723469  62.0446029
  60.6369718 124.4393686  63.0425590  57.7123527 119.9513666  60.1624954
  58.5584722 120.3753079  60.3059603  57.6522165 119.2947290  60.8563517
  61.6821272 125.5742249  56.5443686  61.0530134 125.7387964  55.8419754
  61.2946934 125.9883859  57.3154650  65.5610503 126.5096687  53.8988049
  64.8761542 126.8895589  53.3485083  65.6454353 127.1192014  54.6319997
  60.8622972 117.6118034  61.8206127  60.6183904 118.3660094  61.2840403
  61.1382903 117.9903382  62.6553374  62.8161435 124.1556646  60.4983393
  63.0278330 124.7988406  59.8217774  62.7691183 123.3218963  60.0305323
  60.4187664 116.7674467  57.4019965  59.5572143 117.0655721  57.6936703
  60.4450099 116.9844866  56.4700998  57.2349233 125.3116658  53.8093771
  57.6987579 125.5904361  53.0198393  56.9706031 124.4100102  53.6266861
  54.1273314 124.8588139  56.7473534  54.6974672 125.2875407  56.1091019
  54.7181426 124.5770724  57.4457720  56.1718119 121.4339810  50.6183336
  56.8742163 121.8860854  51.0857262  55.8398748 120.7923629  51.2463229
  54.6198481 120.0251567  64.9934545  53.9897142 120.7067847  65.2269942
  54.5134569 119.9134648  64.0487684  49.9143453 119.6923363  55.9200469
  49.1242507 119.9480891  55.4440580  50.4054701 120.5071700  56.0252510
  63.9307263 127.0328602  58.6705750  64.7524707 126.6308789  58.3888432
  63.9269666 126.9296836  59.6221866  51.8658199 120.0567942  52.8783946
  51.0689362 120.1686636  53.3967442  51.6383791 120.3954594  52.0124837
  57.6963866 126.5812645  60.8266461  57.7608299 127.0433052  61.6624633
  56.9874790 125.9510010  60.9548771  48.1981156 119.9453853  58.3515460
  48.4489195 120.8300863  58.6173036  48.7340705 119.7658455  57.5790552
  72.0213256 123.3767350  55.0190722  71.2676964 122.8074748  54.8634726
  72.1560797 123.3430015  55.9661356  57.4111884 128.2480753  50.6945441
  57.2757559 129.0932288  51.1230289  57.9521697 128.4500030  49.9311375
  53.8979224 114.3272332  67.3559796  53.5046169 113.7738531  68.0307441
  54.7145364 114.6382911  67.7466314  50.8641281 125.7656191  51.2673366
  51.3765802 126.5599441  51.4178931  51.5163994 125.0682481  51.2006968
  52.6736166 128.8821947  53.3496119  52.8502794 129.8039912  53.1617103
  53.4693000 128.5680366  53.7790499  56.8147185 115.7430211  64.9480053
  57.5556898 116.3437365  64.8684515  57.0465108 115.0007849  64.3898095
  51.9588523 120.9286579  63.2258283  51.8442038 120.0271836  63.5265381
  51.1033040 121.1750276  62.8743099  59.0380360 128.8704319  64.8245783
  58.5944215 128.0840698  64.5066688  59.6997574 129.0583470  64.1589674
  53.7967482 130.4000121  59.3506462  54.3474907 130.2717184  58.5783456
  52.9578958 130.6995010  59.0001354  61.1361599 129.1507119  62.8527184
  61.1180074 129.9716000  62.3607454  62.0581519 129.0261194  63.0777326
  57.5934653 126.6651248  63.6950693  58.1262989 125.9039537  63.4650001
  57.0648734 126.3724900  64.4374847  60.7604348 111.7711314  59.2244335
  60.4168617 112.6612956  59.1483445  61.1283310 111.5812972  58.3613920
  48.8290198 124.0944845  52.0432937  49.6665420 124.5041853  51.8266644
  49.0068466 123.1544287  52.0133131  60.7254630 121.7619926  47.7316770
  60.2101254 122.5324530  47.9705157  60.4531939 121.0885062  48.3549831
  58.3101741 116.6069626  52.7902008  57.4543338 116.2176477  52.6107647
  58.7228693 116.6861587  51.9301794  59.8400888 114.1415970  57.1893568
  59.3365684 114.1046105  56.3761373  60.1331495 115.0508712  57.2490224
  56.0843774 114.2254699  56.1959750  56.9496771 114.0297508  55.8365639
  56.1521283 113.9965051  57.1229106  65.6988904 124.5152280  49.6669943
  64.9218347 124.1763440  49.2225105  66.3780385 124.5204903  48.9924908
  60.5140934 119.6347018  49.5576551  60.2091069 119.9493167  50.4086694
  61.4671376 119.7128438  49.6003884  58.9587365 125.7937241  51.2069505
  58.4308727 125.0590001  50.8942742  58.4574868 126.5711917  50.9609473
  63.9380211 123.9886261  56.3236551  63.2803886 124.6785523  56.4116680
  64.7420611 124.3782693  56.6670537  53.6906093 116.4556907  53.5676116
  54.2649845 116.2332089  52.8349309  54.2777075 116.5245602  54.3204718
  62.7485670 122.3430634  54.3740493  63.2617552 122.9760626  54.8762203
  63.3986894 121.7431830  54.0083853  54.0175680 118.4861368  47.5872002
  53.1812992 118.8236055  47.9081276  53.8780450 118.3510348  46.6499139
  55.9928761 113.3298156  52.2951186  55.3393173 113.0147173  51.6707801
  55.9509235 112.7073897  53.0211009  57.1039966 123.6117451  44.2104478
  56.1967027 123.3806705  44.4095627  57.6010998 122.8155070  44.3978459
  60.0108044 132.3214958  47.1301164  59.3369743 132.6246655  47.7386122
  60.3973866 133.1244039  46.7806621  59.2266501 119.8180090  56.6198833
  58.3089062 120.0395037  56.4620521  59.6426645 119.8926400  55.7610541
  60.0101549 121.2171505  51.7501514  60.7573368 121.7292903  51.4408636
  60.2793138 120.8955558  52.6105907  58.2828199 123.7130046  48.7328468
  57.3739418 123.4289079  48.8300938  58.3123283 124.1329125  47.8731775
  63.5147466 127.3236636  52.5019636  63.0609794 126.4827545  52.5584826
  62.8841433 127.9598034  52.8394416  62.4580386 118.2528622  53.7320303
  61.7203143 117.7406008  54.0630546  62.7107160 117.8129003  52.9203580
  61.9580406 129.1613132  53.4369454  62.2503380 129.7218189  52.7181819
  62.4679026 129.4541693  54.1922613  62.5592013 111.0304874  54.3262072
  62.8650890 110.1702237  54.0387987  63.2844618 111.6222494  54.1261066
  48.8516369 121.4335560  52.7143670  48.6540769 120.8404921  51.9894737
  48.2963033 121.1287770  53.4319609  56.8313093 121.3258667  54.8338263
  56.8861703 120.3732503  54.7580740  56.0204295 121.4818106  55.3179562
  57.9804287 125.2538790  46.0716547  57.5423717 124.5374649  45.6122184
  58.7214728 125.4814905  45.5101638  54.7705453 119.9435726  52.5928642
  53.9573318 120.2429897  52.9993834  55.2664447 119.5491415  53.3103124
  56.9214031 129.9393483  54.5262907  56.8790210 130.1654330  53.5971439
  57.8376730 129.7056858  54.6748708  60.3679665 120.4077551  61.4243536
  60.7229052 120.6349024  62.2838002  61.0151796 120.7395928  60.8020791
  66.0977402 123.5295987  52.1292865  65.9595300 123.7197583  51.2014054
  65.7413620 124.2915370  52.5860916  54.2619528 117.5154082  58.2089877
  54.9018907 117.3742841  57.5112840  53.4297058 117.2288595  57.8328479
  66.1246781 125.5972514  57.1404137  66.5583288 125.5047803  57.9887191
  66.8378362 125.5730014  56.5024153  55.0379832 126.8156512  54.3224870
  55.8320430 126.3206833  54.1207445  54.3271524 126.2874375  53.9592575
  59.8574676 129.1974608  58.6737237  59.9111698 129.7665544  59.4414953
  58.9889457 129.3676493  58.3091274  51.3462595 120.9599594  50.3984622
  50.4160183 120.8984050  50.6154584  51.4420067 120.4375547  49.6021264
  51.2648144 117.4854407  52.9862864  51.5254961 118.3999740  52.8772024
  52.0865316 117.0178849  53.1359477  52.7373069 118.8992164  60.1561688
  53.4096123 118.6909526  59.5074337  51.9102856 118.7014250  59.7166921
  66.9862331 125.6396214  59.6737022  67.1798221 126.5442025  59.9196297
  66.8862949 125.1803634  60.5075607  58.6398641 115.5254105  62.1727349
  57.9926557 116.2244055  62.0791826  59.4099657 115.9590249  62.5403598
  62.0477439 125.7902957  65.2477903  61.8962946 125.5613509  64.3307986
  62.0382119 126.7473559  65.2609248  58.8162776 123.3634870  60.2324169
  59.7454836 123.5146030  60.0593136  58.3953806 123.4518891  59.3772816
  57.6151108 127.3885534  58.0022707  57.4762193 127.0204319  58.8748645
  56.8265704 127.9033174  57.8306664  58.2099260 132.4894631  49.3448243
  58.3851015 132.0182674  50.1593866  57.5232048 133.1160397  49.5729504
  59.1656323 126.7667137  55.3911544  58.8306155 126.7267907  56.2869194
  58.6660268 126.1011853  54.9181955  53.1400567 122.1734767  60.9164126
  53.0020365 121.4415006  61.5175665  54.0505490 122.0843667  60.6348313
  62.1015514 124.1123171  45.6648604  61.4844685 123.3870000  45.5681657
  61.6332003 124.8732532  45.3215678  55.7682867 121.8854726  60.4047805
  56.4782486 121.2447919  60.3634424  55.7252176 122.1367621  61.3273986
  63.7569646 128.8222080  63.3254384  63.6982192 128.1381300  62.6584968
  64.1589164 129.5641070  62.8735010  54.4811801 118.8719944  62.2243445
  53.9449158 118.4210683  62.8765041  53.8928510 119.0065853  61.4813909
  53.8914060 118.3308596  44.7869908  53.0143527 118.2097396  44.4232155
  54.3671813 117.5394674  44.5348797  63.7587053 126.7861664  61.5568364
  62.8713832 126.4487585  61.6794763  64.3285604 126.0544695  61.7937130
  45.4116200 123.1185755  54.8811416  46.0987240 122.8047485  54.2932431
  45.2564329 124.0227120  54.6078667  50.2150923 118.0075952  59.3096439
  50.1309111 117.4001622  58.5746849  49.3933629 118.4984970  59.3105936
  57.2888207 131.4463116  58.5229607  57.2158378 132.2518088  59.0348912
  56.8465600 131.6455082  57.6977629  57.0777986 130.6834886  52.0332429
  56.2945508 131.2256566  52.1270653  57.7770732 131.2008866  52.4326670
  60.3874636 116.4929516  54.6766634  60.8843336 115.7399478  54.3567705
  59.6161618 116.5293832  54.1109844  68.2404394 122.1969881  56.3184926
  68.2294270 123.0794596  55.9478859  67.3721773 121.8441432  56.1239463
  59.7486890 131.3449950  60.6787766  60.4614862 131.9797415  60.6063667
  59.2576919 131.4413816  59.8627768  61.4704417 125.2501203  52.2505058
  60.5360696 125.3702665  52.0809762  61.6481086 124.3473670  51.9865068
  56.9709605 118.6346899  54.4038319  56.6007393 118.0817939  55.0919224
  57.4668698 118.0305032  53.8513319  64.8576969 121.0918522  52.7855092
  65.3237421 121.9246514  52.7115394  65.3084469 120.6263504  53.4900350
  54.7998804 129.0944394  61.4993337  55.5008263 129.7280876  61.6522731
  54.3293919 129.4359125  60.7388976  62.9253200 127.4362343  49.7841244
  63.2013044 127.3218938  50.6935118  62.0557698 127.0379828  49.7453417
  62.8293631 113.4599109  56.8245993  61.9156711 113.6903336  56.9928200
  63.2586733 113.5437553  57.6760026  62.6000090 121.6489001  59.3245887
  61.9471540 121.8964908  58.6698340  62.9780470 120.8353139  58.9908364
  59.5607264 131.6848694  53.4274057  59.7429658 130.8670350  53.8901810
  60.3840250 131.9016386  52.9898947  59.8949429 130.6116879  50.6889106
  60.4237196 130.1009334  50.0759268  60.1577649 130.2959409  51.5534639
  58.6487663 122.3908812  65.8111924  57.9728300 122.2902941  66.4814300
  59.4715297 122.2348026  66.2747922  50.3966522 128.6280749  58.4324440
  50.9819959 127.8824436  58.5652344  50.1991360 128.9384705  59.3161103
  53.2505177 131.6631996  53.4486882  52.5815552 132.1478124  52.9650922
  53.1118047 131.9101216  54.3630260  44.9884177 121.1986349  57.1528883
  45.0268276 120.6649939  57.9466001  44.4824469 120.6721554  56.5339860
  57.3910446 133.6975739  60.0469540  57.9428754 133.8607361  60.8118626
  57.7316639 134.2880177  59.3749565  52.3674939 116.0450889  60.6491425
  52.4316265 116.9065720  60.2368823  52.3042059 115.4324891  59.9163783
  51.8427211 118.1174022  64.2964459  52.4699250 117.7351099  64.9101984
  50.9855130 117.8988224  64.6620152  62.2421320 128.5236997  65.9018195
  62.7861224 129.1366955  65.4073150  61.6608165 129.0816575  66.4185208
  48.6192754 119.9250451  50.2282814  48.9146195 119.0161129  50.1749868
  47.7180790 119.9038190  49.9063816  60.5278833 131.6457715  57.0333222
  60.4029972 130.8447455  56.5244168  61.1857924 132.1403908  56.5447192
  52.1487001 118.0006447  56.2110363  51.4273587 118.6142415  56.0717836
  52.9380257 118.5364212  56.1327009  62.5913741 129.4466735  58.6612773
  61.6444077 129.3272086  58.5891099  62.9396514 128.5589233  58.7439034
  54.9513315 115.3360874  62.4851014  55.4747716 115.5823171  63.2477324
  54.7325648 116.1680909  62.0654152  50.3480596 117.6064549  50.3522139
  50.0193302 116.7261928  50.1697245  50.7019966 117.5512217  51.2398528
  59.5960175 129.2419451  54.8617125  59.4485137 128.3136159  55.0424695
  60.4213668 129.2639542  54.3774200  53.4622419 117.8937518  50.7197617
  53.8018491 118.4223440  49.9976225  53.9094539 118.2317925  51.4956183
  63.1994296 130.0648010  55.9481998  64.1240844 129.8590871  55.8106449
  63.0309600 129.8164411  56.8571339  56.1565860 116.2774569  60.1700685
  55.8162680 115.4782382  60.5721365  55.4504866 116.5776280  59.5977518
  56.8082332 113.3623882  58.6228008  57.6308401 112.8884360  58.5006898
  57.0520395 114.1414365  59.1226694  55.4490566 116.3912140  48.9190910
  56.1698929 116.7693393  48.4154627  54.8255870 117.1101017  49.0225888
  59.5921689 117.0957289  49.8549242  59.8085303 117.9781927  49.5538070
  59.1115756 116.7043502  49.1254884  54.3320910 120.0543002  56.4319987
  54.1865491 120.3683305  57.3244268  53.8546114 120.6727903  55.8790885
  56.1917293 117.0445550  56.4800876  56.1778862 116.1486643  56.1433174
  56.9089721 117.0516214  57.1139162  58.0443424 117.4782890  58.5254004
  57.7861202 118.3999961  58.5238334  57.5128464 117.0813325  59.2154468
  62.9889613 130.5833677  51.3044089  63.1626490 130.0180100  50.5517941
  63.4818504 131.3834572  51.1223579  48.8066572 122.5948347  59.3707648
  48.2620041 123.3708155  59.5027922  49.6845922 122.9419151  59.2126769
  55.5954189 115.9259930  51.7488446  55.7170100 114.9976577  51.9479334
  55.3056231 115.9398616  50.8366762  58.4645380 113.6114841  54.8855166
  58.4867076 113.6754174  53.9307146  58.8813439 112.7719350  55.0795672
  68.8429004 123.3470100  52.9234389  69.2860150 122.5977426  52.5253512
  67.9655514 123.3380237  52.5408121  63.9764785 129.9000442  48.4040987
  64.6715690 130.5207135  48.6228302  64.3187935 129.0495793  48.6793365
  49.5932594 121.7218243  62.2637805  48.8514330 121.8700878  62.8502435
  49.2725339 121.9826508  61.4004554  65.8756208 127.3500147  49.9328318
  66.4007532 127.6887420  49.2077638  65.7878561 126.4147163  49.7491453
  57.5376257 131.2634221  62.0618195  57.8463383 131.0183368  62.9340894
  58.3351739 131.4680860  61.5737065  57.5596869 133.4172131  54.2923571
  57.1201859 132.9248509  54.9856428  58.3104986 132.8745098  54.0515646
  50.0389208 129.6083672  54.2948199  50.8647228 129.3087443  53.9146843
  49.6883260 128.8391294  54.7437988  55.0070741 128.9610140  56.3645873
  54.3850750 128.2980845  56.0648101  55.6775608 128.9871272  55.6819521
  48.2397813 127.5269998  55.2537133  47.4029721 127.0992172  55.0721134
  48.2121458 127.7202441  56.1907924  55.0795269 117.4391928  65.9578379
  55.1283424 118.3154051  65.5756148  55.6217783 116.8969321  65.3850022
  65.5650114 127.9833051  65.2379516  64.7745658 127.9657190  64.6984015
  65.3283469 128.5221345  65.9928553  65.6847989 124.8325517  62.5512245
  65.7345994 124.6675525  63.4927767  65.5761913 123.9652776  62.1610125
  54.5684248 127.5114063  49.8404333  54.7172368 128.1949528  49.1871006
  55.3750692 127.4919153  50.3553789  62.9751752 120.8156445  63.8671551
  63.8761615 120.6762910  63.5755549  63.0499726 120.9810900  64.8069729
  57.3094557 118.1923300  62.7124738  56.4397867 118.4856866  62.4407326
  57.5454037 118.7763745  63.4332001  67.1866186 127.2522459  62.7954266
  66.8950995 127.6152440  63.6317727  66.5738318 126.5389467  62.6167598
  68.3861869 124.8175339  55.3156836  69.2208760 125.2565143  55.4794397
  68.5220997 124.3413992  54.4965082  65.4353374 122.3755074  61.2634324
  65.9107496 122.5682720  60.4553175  64.5118940 122.4314259  61.0177708
  52.3236881 123.5379241  50.8465402  52.0782923 122.6341571  51.0445612
  52.4932796 123.5396391  49.9044880  60.0133591 114.4102917  60.2290158
  60.5315535 115.1463944  59.9036646  59.6588724 114.7166910  61.0636917
  51.5932529 119.2707598  48.3451564  50.9001774 119.3451953  47.6891600
  51.3484281 118.5067942  48.8673081  60.2646185 110.8303200  55.7491055
  60.5447939 110.1626389  56.3751481  61.0496792 111.0232295  55.2365718
  58.0679654 130.0062194  47.3116081  57.4953621 130.6252381  46.8586553
  58.6412447 130.5561555  47.8456003  64.1355043 119.2520834  59.4962630
  65.0872466 119.3518931  59.5174854  63.9658494 118.4599102  60.0060714
  62.1569423 116.3376417  59.6822031  61.5619355 116.6181430  58.9868519
  61.8719120 116.8270318  60.4538772  61.2876913 130.2899344  48.4424663
  62.2207587 130.2244905  48.6457539  61.2000126 131.1255611  47.9839196
  63.9164930 129.6065214  45.4028611  63.8378562 129.2725078  46.2964369
  64.7374597 130.0986982  45.4020083  66.6143121 122.4726953  58.6104929
  66.5819441 121.5342954  58.7964613  67.2243745 122.5510990  57.8770754
  58.4526452 121.3423006  44.6532133  59.3985557 121.2129214  44.7220551
  58.0740697 120.6037668  45.1301561  66.7637610 119.2637997  58.6563212
  66.2476658 118.4796453  58.4693141  67.6477558 118.9356713  58.8209732
  64.4248337 113.0079012  54.6159025  64.2273158 112.6994101  55.5002357
  65.0348042 113.7340651  54.7456955  72.4319671 123.5342960  57.7510966
  73.1623060 123.2728248  58.3118669  71.8226617 122.7971682  57.7913034
  70.5134968 121.6750823  58.3485417  69.7868132 121.5406788  57.7401909
  70.0982255 121.9827651  59.1542135  58.3365145 125.3940752  66.1132790
  59.2568154 125.5719351  66.3072837  58.3014728 124.4496798  65.9612490
  56.6369369 119.2672983  44.5887019  55.7300825 118.9706095  44.6649732
  56.9145350 118.9702801  43.7221305  47.5547310 120.5879346  55.0386065
  47.2350094 119.7344654  54.7460439  47.0080738 120.8027924  55.7944032
  51.3327217 123.3041787  58.7555571  51.5513227 124.2358895  58.7743605
  51.7452991 122.9449762  59.5410375  58.2531435 113.8109872  50.7431260
  57.4432163 113.4656957  51.1186506  58.9415852 113.5017416  51.3318871
  60.1821983 112.8887919  52.3655556  60.7353022 113.3083373  53.0245580
  60.4192070 111.9623667  52.4078512  56.2055083 118.8774993  68.1458320
  56.1051809 119.8269350  68.0770411  55.9876625 118.5493232  67.2734390
  55.4068154 116.1259918  44.7298998  56.2687318 116.4514816  44.9894815
  55.5918498 115.3391414  44.2172064  47.4235570 124.2082258  57.0079187
  46.7299041 123.7936210  56.4949141  48.1708561 124.2502794  56.4112605
  63.5600790 114.9988444  51.8734221  62.9799459 115.6573248  51.4912273
  63.2936723 114.1765789  51.4621638  62.0104357 114.3993502  54.0755541
  62.5104135 114.5110037  53.2669860  62.6539965 114.0954555  54.7156350
  56.0686353 122.3072132  66.9623382  55.5853434 123.1072492  67.1687271
  56.1547292 122.3180077  66.0090826  49.3372312 124.1400511  54.8845201
  49.3143000 124.2388199  53.9327085  49.6472949 124.9865662  55.2062368
  51.9959690 126.1976666  58.9991816  52.9502944 126.1660609  58.9321747
  51.7972214 125.7367290  59.8142042  52.5859072 124.7677782  61.5662613
  53.4051961 125.2621861  61.5897451  52.8595880 123.8509751  61.5380181
  62.3425668 117.1588535  50.9290569  61.4551523 117.4438185  50.7110764
  62.7579657 116.9982298  50.0817846  65.6940205 117.1835056  54.6444908
  66.4700595 117.6731508  54.9169525  64.9688339 117.6093110  55.1016778
  68.1312763 117.8962675  55.7018849  68.7257254 117.6558411  54.9912157
  68.2039347 117.1769806  56.3292385  50.3509919 131.7396286  56.0162014
  50.2164387 130.9796687  55.4500012  49.9341981 132.4637186  55.5490803
  61.4868882 126.9233209  45.0238589  62.1904732 127.1283212  45.6396245
  60.7631531 127.4909971  45.2887673  62.3166692 122.6743071  51.1440859
  62.2601894 123.1311622  50.3048492  62.8695035 121.9133755  50.9663702
  66.1271498 118.4632803  51.9690979  65.8708432 118.0629438  52.7999186
  65.5024366 119.1776597  51.8441118  70.4383836 121.2028876  54.4762270
  69.8783394 121.2722065  55.2493832  69.8327339 121.0269860  53.7561766
  53.5079045 132.6365603  56.2280456  53.3911429 133.5811035  56.1259147
  52.6871491 132.3339164  56.6166256  63.3955579 127.3615739  47.0737049
  64.2301183 126.9296937  46.8914524  63.2339922 127.1897752  48.0013944
  63.0501471 123.8647852  48.4393388  62.9950275 123.6992123  47.4981832
  62.4247527 124.5723885  48.5955578  47.8393986 119.1015916  62.2654811
  48.4852850 118.5914870  62.7542036  47.6311138 119.8384598  62.8398236
  60.3647379 126.1696764  67.7646951  61.2338538 126.3437416  67.4033586
  59.8854130 126.9891181  67.6422680  56.3597597 113.3655961  48.0178707
  56.3476267 114.3097801  48.1746978  57.2521019 113.1826106  47.7238168
  54.5333559 133.2893865  59.4436385  55.4360806 133.3217475  59.7602880
  54.3070929 132.3594316  59.4582721  56.2887161 132.0424851  56.1046463
  55.3382792 132.0426713  55.9910836  56.5919647 131.2957586  55.5882498
  60.1749716 109.9598738  52.2724644  59.4082112 109.4057224  52.4181326
  60.5860421 110.0320606  53.1338795  52.1791477 116.2483533  66.3629825
  53.0422939 115.8920338  66.5733149  51.6056888 115.9097428  67.0505229
  72.0239854 137.8785390  57.1692226  72.6618264 137.7592137  56.4655566
  71.9060697 138.8266234  57.2280178  68.8329561 137.8312818  57.1053750
  68.4948072 137.7153883  56.2174285  69.7019329 137.4303983  57.0854757
  64.6916376 139.6848294  53.0950641  64.1281241 139.5938231  52.3266929
  64.5768771 138.8648199  53.5753134  69.3149344 138.9847670  63.0639956
  69.3037984 138.5900468  62.1920460  69.4769983 138.2513742  63.6573727
  66.9612812 139.1461630  58.6020500  67.5576384 138.9217652  57.8877463
  67.0187783 138.4046375  59.2045947  66.5337840 136.6001065  46.4370691
  66.7863361 136.0782587  45.6754154  65.5962399 136.4367211  46.5397374
  71.5781123 135.6036844  54.2445434  72.3644212 135.1856267  53.8935851
  71.8419827 136.5082936  54.4127082  71.7491200 141.0409694  48.9434091
  71.1137033 141.1144320  49.6554995  71.4188607 141.6303293  48.2653170
  76.9789550 135.5412077  55.1478412  77.7114722 134.9711294  55.3816242
  76.2228906 135.1533677  55.5884918  66.2534129 138.5029171  48.6395066
  66.1370387 137.8274075  49.3076150  66.3636389 138.0161545  47.8227219
  68.5965670 137.9639318  52.3441755  68.2323877 137.4369939  53.0554676
  69.4532786 137.5737787  52.1708240  74.5014970 129.2533651  59.6073021
  74.1698295 130.1229062  59.3834236  73.9060584 128.9369935  60.2867051
  68.2371157 132.9929218  47.3403103  68.4045559 133.8609454  47.7073574
  68.0468326 133.1556500  46.4164393  70.9946490 141.4546197  59.0068934
  70.6947213 142.3571236  58.8984741  70.6497549 141.1878380  59.8590087
  64.4458971 137.9059994  55.0405638  63.5209468 137.7736208  55.2483330
  64.6943385 138.6854213  55.5375581  74.3943634 133.9728737  56.6866371
  73.4860511 133.9044146  56.3925132  74.3431229 134.4500682  57.5148196
  68.2160378 135.4486876  48.3249770  68.0960003 135.8943926  49.1635250
  67.5212966 135.7972193  47.7663308  61.8067782 137.5493267  55.8749427
  61.9360164 137.8027746  56.7888839  61.1265234 138.1420975  55.5554082
  68.4684499 135.3918383  64.6301268  67.6917833 135.9512303  64.6204133
  69.1075062 135.8775166  65.1516138  76.2605280 132.1745175  58.4644245
  75.6179660 132.4677709  57.8184040  75.7560209 132.0598096  59.2697442
  73.9145444 135.9208349  49.1530104  74.8263300 136.1535735  48.9777802
  73.4055091 136.5045393  48.5905183  66.7230872 138.2003836  64.1919235
  67.4645556 138.7388880  63.9154059  66.0167857 138.8270125  64.3490787
  72.1986211 140.3432977  62.7891397  72.6069567 139.9015387  62.0446029
  71.4763473 139.7685604  63.0425590  68.5517281 135.2805583  60.1624954
  69.3978477 135.7044997  60.3059603  68.4915919 134.6239208  60.8563517
  72.5215026 140.9034167  56.5443686  71.8923888 141.0679881  55.8419754
  72.1340688 141.3175777  57.3154650  76.4004258 141.8388605  53.8988049
  75.7155296 142.2187506  53.3485083  76.4848107 142.4483932  54.6319997
  71.7016727 132.9409952  61.8206127  71.4577659 133.6952012  61.2840403
  71.9776657 133.3195299  62.6553374  73.6555190 139.4848564  60.4983393
  73.8672085 140.1280324  59.8217774  73.6084938 138.6510881  60.0305323
  71.2581418 132.0966385  57.4019965  70.3965898 132.3947638  57.6936703
  71.2843853 132.3136784  56.4700998  68.0742988 140.6408575  53.8093771
  68.5381333 140.9196278  53.0198393  67.8099786 139.7392020  53.6266861
  67.0111874 136.7631728  50.6183336  67.7135917 137.2152771  51.0857262
  66.6792502 136.1215546  51.2463229  65.4592235 135.3543484  64.9934545
  64.8290896 136.0359765  65.2269942  65.3528323 135.2426566  64.0487684
  60.7537208 135.0215280  55.9200469  59.9636262 135.2772809  55.4440580
  61.2448455 135.8363618  56.0252510  74.7701017 142.3620519  58.6705750
  75.5918461 141.9600707  58.3888432  74.7663420 142.2588754  59.6221866
  62.7051953 135.3859860  52.8783946  61.9083117 135.4978554  53.3967442
  62.4777545 135.7246512  52.0124837  59.0374911 135.2745771  58.3515460
  59.2882949 136.1592781  58.6173036  59.5734459 135.0950372  57.5790552
  82.8607011 138.7059268  55.0190722  82.1070719 138.1366666  54.8634726
  82.9954552 138.6721932  55.9661356  64.7372978 129.6564250  67.3559796
  64.3439924 129.1030449  68.0307441  65.5539119 129.9674829  67.7466314
  67.6540939 131.0722129  64.9480053  68.3950653 131.6729282  64.8684515
  67.8858862 130.3299767  64.3898095  62.7982277 136.2578496  63.2258283
  62.6835792 135.3563754  63.5265381  61.9426795 136.5042193  62.8743099
  71.5998102 127.1003232  59.2244335  71.2562372 127.9904874  59.1483445
  71.9677065 126.9104890  58.3613920  71.5648385 137.0911843  47.7316770
  71.0495008 137.8616448  47.9705157  71.2925693 136.4176979  48.3549831
  69.1495496 131.9361544  52.7902008  68.2937092 131.5468394  52.6107647
  69.5622448 132.0153505  51.9301794  70.6794643 129.4707887  57.1893568
  70.1759438 129.4338022  56.3761373  70.9725249 130.3800630  57.2490224
  66.9237528 129.5546617  56.1959750  67.7890525 129.3589426  55.8365639
  66.9915037 129.3256969  57.1229106  76.5382659 139.8444198  49.6669943
  75.7612102 139.5055357  49.2225105  77.2174140 139.8496821  48.9924908
  71.3534688 134.9638935  49.5576551  71.0484824 135.2785084  50.4086694
  72.3065130 135.0420355  49.6003884  74.7773966 139.3178179  56.3236551
  74.1197640 140.0077440  56.4116680  75.5814365 139.7074611  56.6670537
  64.5299847 131.7848825  53.5676116  65.1043599 131.5624006  52.8349309
  65.1170830 131.8537519  54.3204718  73.5879425 137.6722552  54.3740493
  74.1011306 138.3052544  54.8762203  74.2380649 137.0723747  54.0083853
  64.8569435 133.8153286  47.5872002  64.0206747 134.1527972  47.9081276
  64.7174204 133.6802266  46.6499139  66.8322515 128.6590074  52.2951186
  66.1786928 128.3439091  51.6707801  66.7902989 128.0365814  53.0211009
  67.9433720 138.9409369  44.2104478  67.0360782 138.7098622  44.4095627
  68.4404752 138.1446988  44.3978459  70.0660256 135.1472007  56.6198833
  69.1482817 135.3686954  56.4620521  70.4820399 135.2218318  55.7610541
  70.8495303 136.5463423  51.7501514  71.5967122 137.0584820  51.4408636
  71.1186893 136.2247476  52.6105907  69.1221953 139.0421964  48.7328468
  68.2133173 138.7580997  48.8300938  69.1517037 139.4621042  47.8731775
  74.3541221 142.6528553  52.5019636  73.9003548 141.8119463  52.5584826
  73.7235188 143.2889952  52.8394416  73.2974140 133.5820539  53.7320303
  72.5596897 133.0697925  54.0630546  73.5500914 133.1420921  52.9203580
  73.3985768 126.3596791  54.3262072  73.7044645 125.4994155  54.0387987
  74.1238373 126.9514411  54.1261066  59.6910124 136.7627478  52.7143670
  59.4934524 136.1696839  51.9894737  59.1356788 136.4579688  53.4319609
  67.6706848 136.6550584  54.8338263  67.7255457 135.7024421  54.7580740
  66.8598050 136.8110023  55.3179562  68.8198041 140.5830707  46.0716547
  68.3817471 139.8666566  45.6122184  69.5608482 140.8106822  45.5101638
  65.6099207 135.2727644  52.5928642  64.7967073 135.5721815  52.9993834
  66.1058202 134.8783333  53.3103124  71.2073419 135.7369469  61.4243536
  71.5622807 135.9640942  62.2838002  71.8545550 136.0687845  60.8020791
  76.9371156 138.8587904  52.1292865  76.7989055 139.0489500  51.2014054
  76.5807375 139.6207287  52.5860916  65.1013282 132.8446000  58.2089877
  65.7412662 132.7034759  57.5112840  64.2690813 132.5580513  57.8328479
  76.9640536 140.9264431  57.1404137  77.3977042 140.8339721  57.9887191
  77.6772116 140.9021932  56.5024153  62.1856350 136.2891512  50.3984622
  61.2553938 136.2275967  50.6154584  62.2813822 135.7667465  49.6021264
  62.1041899 132.8146325  52.9862864  62.3648716 133.7291658  52.8772024
  62.9259071 132.3470767  53.1359477  63.5766824 134.2284082  60.1561688
  64.2489877 134.0201444  59.5074337  62.7496610 134.0306168  59.7166921
  77.8256085 140.9688132  59.6737022  78.0191975 141.8733943  59.9196297
  77.7256703 140.5095551  60.5075607  69.4792396 130.8546023  62.1727349
  68.8320311 131.5535972  62.0791826  70.2493411 131.2882167  62.5403598
  72.8871194 141.1194875  65.2477903  72.7356700 140.8905427  64.3307986
  72.8775873 142.0765476  65.2609248  69.6556530 138.6926788  60.2324169
  70.5848590 138.8437947  60.0593136  69.2347560 138.7810808  59.3772816
  63.9794321 137.5026685  60.9164126  63.8414119 136.7706924  61.5175665
  64.8899245 137.4135585  60.6348313  72.9409269 139.4415089  45.6648604
  72.3238440 138.7161917  45.5681657  72.4725757 140.2024449  45.3215678
  66.6076622 137.2146644  60.4047805  67.3176240 136.5739836  60.3634424
  66.5645930 137.4659539  61.3273986  65.3205556 134.2011862  62.2243445
  64.7842913 133.7502600  62.8765041  64.7322264 134.3357771  61.4813909
  64.7307815 133.6600513  44.7869908  63.8537281 133.5389314  44.4232155
  65.2065568 132.8686592  44.5348797  74.5980808 142.1153581  61.5568364
  73.7107587 141.7779503  61.6794763  75.1679359 141.3836613  61.7937130
  61.0544677 133.3367870  59.3096439  60.9702866 132.7293539  58.5746849
  60.2327383 133.8276888  59.3105936  71.2268391 131.8221433  54.6766634
  71.7237090 131.0691396  54.3567705  70.4555372 131.8585750  54.1109844
  79.0798148 137.5261799  56.3184926  79.0688025 138.4086514  55.9478859
  78.2115528 137.1733350  56.1239463  72.3098172 140.5793120  52.2505058
  71.3754450 140.6994583  52.0809762  72.4874840 139.6765587  51.9865068
  67.8103360 133.9638816  54.4038319  67.4401147 133.4109857  55.0919224
  68.3062452 133.3596950  53.8513319  75.6970723 136.4210440  52.7855092
  76.1631175 137.2538431  52.7115394  76.1478223 135.9555421  53.4900350
  73.7646954 142.7654261  49.7841244  74.0406798 142.6510856  50.6935118
  72.8951453 142.3671746  49.7453417  73.6687386 128.7891027  56.8245993
  72.7550466 129.0195254  56.9928200  74.0980487 128.8729471  57.6760026
  73.4393844 136.9780919  59.3245887  72.7865294 137.2256826  58.6698340
  73.8174224 136.1645057  58.9908364  69.4881417 137.7200730  65.8111924
  68.8122054 137.6194859  66.4814300  70.3109051 137.5639943  66.2747922
  55.8277931 136.5278266  57.1528883  55.8662031 135.9941857  57.9466001
  55.3218224 136.0013472  56.5339860  63.2068693 131.3742807  60.6491425
  63.2710020 132.2357638  60.2368823  63.1435814 130.7616809  59.9163783
  62.6820966 133.4465939  64.2964459  63.3093005 133.0643017  64.9101984
  61.8248885 133.2280141  64.6620152  59.4586509 135.2542369  50.2282814
  59.7539950 134.3453047  50.1749868  58.5574544 135.2330108  49.9063816
  62.9880756 133.3298365  56.2110363  62.2667341 133.9434333  56.0717836
  63.7774011 133.8656130  56.1327009  65.7907069 130.6652792  62.4851014
  66.3141471 130.9115088  63.2477324  65.5719402 131.4972826  62.0654152
  61.1874350 132.9356466  50.3522139  60.8587056 132.0553845  50.1697245
  61.5413721 132.8804135  51.2398528  64.3016173 133.2229436  50.7197617
  64.6412246 133.7515357  49.9976225  64.7488294 133.5609842  51.4956183
  66.9959614 131.6066487  60.1700685  66.6556435 130.8074300  60.5721365
  66.2898620 131.9068198  59.5977518  67.6476086 128.6915799  58.6228008
  68.4702155 128.2176277  58.5006898  67.8914150 129.4706283  59.1226694
  66.2884321 131.7204058  48.9190910  67.0092683 132.0985310  48.4154627
  65.6649625 132.4392934  49.0225888  70.4315443 132.4249207  49.8549242
  70.6479058 133.3073845  49.5538070  69.9509511 132.0335420  49.1254884
  65.1714665 135.3834920  56.4319987  65.0259246 135.6975223  57.3244268
  64.6939868 136.0019820  55.8790885  67.0311048 132.3737468  56.4800876
  67.0172616 131.4778561  56.1433174  67.7483476 132.3808132  57.1139162
  68.8837178 132.8074808  58.5254004  68.6254956 133.7291879  58.5238334
  68.3522219 132.4105243  59.2154468  66.4347944 131.2551848  51.7488446
  66.5563855 130.3268494  51.9479334  66.1449986 131.2690534  50.8366762
  69.3039134 128.9406759  54.8855166  69.3260831 129.0046092  53.9307146
  69.7207193 128.1011267  55.0795672  79.6822758 138.6762018  52.9234389
  80.1253904 137.9269343  52.5253512  78.8049269 138.6672154  52.5408121
  60.4326349 137.0510161  62.2637805  59.6908085 137.1992796  62.8502435
  60.1119093 137.3118426  61.4004554  76.7149963 142.6792065  49.9328318
  77.2401287 143.0179338  49.2077638  76.6272315 141.7439080  49.7491453
  65.9189023 132.7683845  65.9578379  65.9677179 133.6445968  65.5756148
  66.4611537 132.2261239  65.3850022  76.4043869 143.3124969  65.2379516
  75.6139413 143.2949108  64.6984015  76.1677223 143.8513262  65.9928553
  76.5241744 140.1617435  62.5512245  76.5739749 139.9967443  63.4927767
  76.4155667 139.2944694  62.1610125  73.8145506 136.1448363  63.8671551
  74.7155369 136.0054828  63.5755549  73.8893481 136.3102818  64.8069729
  68.1488312 133.5215218  62.7124738  67.2791621 133.8148784  62.4407326
  68.3847792 134.1055663  63.4332001  78.0259941 142.5814377  62.7954266
  77.7344749 142.9444357  63.6317727  77.4132072 141.8681385  62.6167598
  79.2255623 140.1467256  55.3156836  80.0602514 140.5857060  55.4794397
  79.3614752 139.6705910  54.4965082  76.2747129 137.7046991  61.2634324
  76.7501251 137.8974638  60.4553175  75.3512694 137.7606177  61.0177708
  63.1630636 138.8671158  50.8465402  62.9176677 137.9633488  51.0445612
  63.3326550 138.8688309  49.9044880  70.8527345 129.7394835  60.2290158
  71.3709289 130.4755862  59.9036646  70.4982478 130.0458828  61.0636917
  62.4326283 134.5999516  48.3451564  61.7395528 134.6743871  47.6891600
  62.1878035 133.8359860  48.8673081  71.1039940 126.1595117  55.7491055
  71.3841693 125.4918306  56.3751481  71.8890547 126.3524213  55.2365718
  74.9748798 134.5812751  59.4962630  75.9266221 134.6810849  59.5174854
  74.8052248 133.7891020  60.0060714  72.9963177 131.6668335  59.6822031
  72.4013110 131.9473347  58.9868519  72.7112874 132.1562235  60.4538772
  77.4536876 137.8018871  58.6104929  77.4213196 136.8634872  58.7964613
  78.0637499 137.8802908  57.8770754  69.2920207 136.6714924  44.6532133
  70.2379311 136.5421132  44.7220551  68.9134452 135.9329586  45.1301561
  77.6031364 134.5929914  58.6563212  77.0870413 133.8088371  58.4693141
  78.4871313 134.2648631  58.8209732  75.2642091 128.3370930  54.6159025
  75.0666912 128.0286018  55.5002357  75.8741797 129.0632569  54.7456955
  83.2713426 138.8634878  57.7510966  84.0016814 138.6020166  58.3118669
  82.6620371 138.1263600  57.7913034  81.3528723 137.0042740  58.3485417
  80.6261886 136.8698705  57.7401909  80.9376010 137.3119569  59.1542135
  69.1758899 140.7232670  66.1132790  70.0961909 140.9011269  66.3072837
  69.1408482 139.7788715  65.9612490  67.4763124 134.5964900  44.5887019
  66.5694579 134.2998013  44.6649732  67.7539105 134.2994718  43.7221305
  58.3941064 135.9171264  55.0386065  58.0743848 135.0636572  54.7460439
  57.8474492 136.1319842  55.7944032  69.0925189 129.1401790  50.7431260
  68.2825918 128.7948875  51.1186506  69.7809606 128.8309334  51.3318871
  71.0215738 128.2179837  52.3655556  71.5746776 128.6375290  53.0245580
  71.2585824 127.2915585  52.4078512  67.0448837 134.2066911  68.1458320
  66.9445564 135.1561268  68.0770411  66.8270379 133.8785149  67.2734390
  66.2461908 131.4551836  44.7298998  67.1081072 131.7806734  44.9894815
  66.4312253 130.6683332  44.2172064  74.3994545 130.3280362  51.8734221
  73.8193214 130.9865166  51.4912273  74.1330478 129.5057707  51.4621638
  72.8498111 129.7285420  54.0755541  73.3497890 129.8401954  53.2669860
  73.4933719 129.4246473  54.7156350  66.9080107 137.6364049  66.9623382
  66.4247189 138.4364410  67.1687271  66.9941046 137.6471994  66.0090826
  73.1819423 132.4880452  50.9290569  72.2945278 132.7730103  50.7110764
  73.5973412 132.3274216  50.0817846  76.5333959 132.5126973  54.6444908
  77.3094349 133.0023426  54.9169525  75.8082093 132.9385028  55.1016778
  78.9706518 133.2254593  55.7018849  79.5651008 132.9850329  54.9912157
  79.0433101 132.5061723  56.3292385  73.1560447 138.0034988  51.1440859
  73.0995648 138.4603540  50.3048492  73.7088789 137.2425673  50.9663702
  76.9665253 133.7924720  51.9690979  76.7102187 133.3921356  52.7999186
  76.3418121 134.5068514  51.8441118  81.2777590 136.5320793  54.4762270
  80.7177148 136.6013983  55.2493832  80.6721094 136.3561778  53.7561766
  74.2349334 142.6907656  47.0737049  75.0694938 142.2588855  46.8914524
  74.0733677 142.5189670  48.0013944  73.8895226 139.1939770  48.4393388
  73.8344030 139.0284041  47.4981832  73.2641281 139.9015803  48.5955578
  58.6787741 134.4307834  62.2654811  59.3246605 133.9206788  62.7542036
  58.4704892 135.1676516  62.8398236  71.2041133 141.4988681  67.7646951
  72.0732293 141.6729334  67.4033586  70.7247885 142.3183098  67.6422680
  67.1991351 128.6947879  48.0178707  67.1870021 129.6389719  48.1746978
  68.0914773 128.5118024  47.7238168  71.0143471 125.2890655  52.2724644
  70.2475867 124.7349142  52.4181326  71.4254176 125.3612524  53.1338795
  63.0185232 131.5775451  66.3629825  63.8816693 131.2212256  66.5733149
  62.4450643 131.2389346  67.0505229  85.3408725 144.5825569  59.6073021
  85.0092050 145.4520980  59.3834236  84.7454338 144.2661853  60.2867051
  87.0999035 147.5037093  58.4644245  86.4573415 147.7969626  57.8184040
  86.5953963 147.3890014  59.2697442  82.4391857 142.4295150  59.2244335
  82.0956126 143.3196791  59.1483445  82.8070819 142.2396807  58.3613920
  81.5188397 144.7999805  57.1893568  81.0153193 144.7629940  56.3761373
  81.8119004 145.7092548  57.2490224  77.7631283 144.8838535  56.1959750
  78.6284280 144.6881343  55.8365639  77.8308792 144.6548886  57.1229106
  77.6716270 143.9881991  52.2951186  77.0180682 143.6731009  51.6707801
  77.6296744 143.3657732  53.0211009  84.2379522 141.6888709  54.3262072
  84.5438399 140.8286072  54.0387987  84.9632127 142.2806329  54.1261066
  84.5081140 144.1182944  56.8245993  83.5944220 144.3487171  56.9928200
  84.9374242 144.2021388  57.6760026  78.4869841 144.0207717  58.6228008
  79.3095910 143.5468195  58.5006898  78.7307904 144.7998201  59.1226694
  80.1432888 144.2698676  54.8855166  80.1654585 144.3338009  53.9307146
  80.5600948 143.4303185  55.0795672  81.6921100 145.0686752  60.2290158
  82.2103044 145.8047779  59.9036646  81.3376233 145.3750746  61.0636917
  81.9433694 141.4887035  55.7491055  82.2235448 140.8210224  56.3751481
  82.7284301 141.6816131  55.2365718  86.1035846 143.6662848  54.6159025
  85.9060667 143.3577936  55.5002357  86.7135551 144.3924487  54.7456955
  79.9318944 144.4693708  50.7431260  79.1219672 144.1240793  51.1186506
  80.6203361 144.1601252  51.3318871  81.8609492 143.5471755  52.3655556
  82.4140531 143.9667208  53.0245580  82.0979579 142.6207503  52.4078512
  85.2388299 145.6572280  51.8734221  84.6586968 146.3157084  51.4912273
  84.9724232 144.8349624  51.4621638  83.6891866 145.0577337  54.0755541
  84.1891644 145.1693872  53.2669860  84.3327474 144.7538390  54.7156350
  89.8100272 148.5546510  55.7018849  90.4044763 148.3142246  54.9912157
  89.8826856 147.8353641  56.3292385  78.0385106 144.0239796  48.0178707
  78.0263776 144.9681636  48.1746978  78.9308528 143.8409942  47.7238168
  81.8537225 140.6182573  52.2724644  81.0869621 140.0641060  52.4181326
  82.2647930 140.6904442  53.1338795   6.9877329  22.9096006  43.8937532
   7.6255739  22.7902754  43.1900873   6.8698172  23.8576850  43.9525485
   3.7967035  22.8623434  43.8299057   3.4585546  22.7464499  42.9419592
   4.6656803  22.4614599  43.8100063   4.2786818  24.0158286  49.7885263
   4.2675459  23.6211084  48.9165766   4.4407457  23.2824359  50.3819034
   5.2353409  28.3829879  35.1310413   4.5841389  28.9683959  34.7444427
   6.0297772  28.9136073  35.1905450   0.9994079  26.7995398  48.7364447
   0.7083945  27.7041029  48.6211113   1.6351063  26.8411926  49.4508516
   1.9250286  24.1772246  45.3265806   2.5213858  23.9528269  44.6122769
   1.9825257  23.4356992  45.9291254   6.5418597  20.6347460  40.9690740
   7.3281686  20.2166883  40.6181157   6.8057301  21.5393552  41.1372389
  11.9427024  20.5722693  41.8723719  12.6752196  20.0021910  42.1061548
  11.1866380  20.1844294  42.3130225   3.5603144  22.9949935  39.0687061
   3.1961351  22.4680556  39.7799983   4.4170260  22.6048404  38.8953547
   5.9583964  26.4856813  45.7314240   5.6584687  27.3881852  45.6230048
   5.6135024  26.2188997  46.5835393   9.3581108  19.0039354  43.4111678
   8.4497985  18.9354762  43.1170439   9.3068704  19.4811299  44.2393503
   3.4321974  20.4228999  51.3546575   2.6555308  20.9822919  51.3449440
   4.0712537  20.9085782  51.8761445  11.2242754  17.2055792  45.1889552
  10.5817135  17.4988325  44.5429346  10.7197683  17.0908712  45.9942748
   1.6868346  23.2314453  50.9164542   2.4283030  23.7699497  50.6399366
   0.9805332  23.8580741  51.0736094   7.1623686  25.3743593  49.5136703
   7.5707042  24.9326004  48.7691336   6.4400947  24.7996221  49.7670896
   3.5154756  20.3116200  46.8870260   4.3615951  20.7355613  47.0304909
   3.4553393  19.6549824  47.5808823   7.4852500  25.9344784  43.2688992
   6.8561363  26.0990498  42.5665060   7.0978162  26.3486393  44.0399956
  11.3641732  26.8699222  40.6233356  10.6792770  27.2498123  40.0730389
  11.4485582  27.4794548  41.3565304   6.6654201  17.9720568  48.5451434
   6.4215133  18.7262629  48.0085710   6.9414132  18.3505916  49.3798681
   8.6192664  24.5159181  47.2228700   8.8309559  25.1590940  46.5463081
   8.5722412  23.6821497  46.7550630   6.2218893  17.1277001  44.1265272
   5.3603372  17.4258255  44.4182009   6.2481327  17.3447400  43.1946304
   3.0380462  25.6719192  40.5339077   3.5018808  25.9506895  39.7443700
   2.7737260  24.7702636  40.3512168   9.7338492  27.3931136  45.3951057
  10.5555936  26.9911323  45.1133739   9.7300895  27.2899370  46.3467173
   3.4995095  26.9415179  47.5511767   3.5639528  27.4035586  48.3869939
   2.7906019  26.3112544  47.6794077  17.8244485  23.7369884  41.7436028
  17.0708193  23.1677283  41.5880033  17.9592026  23.7032549  42.6906663
   3.2143113  28.6083287  37.4190748   3.0788788  29.4534822  37.8475596
   3.7552925  28.8102564  36.6556682   4.8411589  29.2306853  51.5491090
   4.3975443  28.4443232  51.2311994   5.5028803  29.4186004  50.8834981
   6.9392827  29.5109653  49.5772491   6.9211303  30.3318534  49.0852760
   7.8612747  29.3863728  49.8022632   3.3965881  27.0253783  50.4195999
   3.9294218  26.2642071  50.1895307   2.8679963  26.7327434  51.1620154
  11.5020133  24.8754814  36.3915250  10.7249576  24.5365974  35.9470412
  12.1811614  24.8807438  35.7170215   4.7618594  26.1539775  37.9314811
   4.2339956  25.4192535  37.6188049   4.2606097  26.9314451  37.6854780
   9.7411440  24.3488796  43.0481858   9.0835115  25.0388057  43.1361986
  10.5451839  24.7385228  43.3915844   8.5516899  22.7033168  41.0985800
   9.0648781  23.3363160  41.6007509   9.2018123  22.1034364  40.7329160
   5.8139273  32.6817493  33.8546471   5.1400972  32.9849189  34.4631428
   6.2005095  33.4846573  33.5051928   5.0297730  20.1782624  43.3444140
   4.1120291  20.3997571  43.1865828   5.4457873  20.2528934  42.4855847
   5.8132778  21.5774040  38.4746820   6.5604597  22.0895437  38.1653942
   6.0824367  21.2558092  39.3351214   9.3178695  27.6839170  39.2264942
   8.8641022  26.8430080  39.2830133   8.6872662  28.3200568  39.5639722
   8.2611615  18.6131156  40.4565610   7.5234372  18.1008542  40.7875852
   8.5138388  18.1731537  39.6448886   7.7611634  29.5215666  40.1614760
   8.0534609  30.0820724  39.4427126   8.2710255  29.8144227  40.9167919
   2.6344322  21.6861201  41.5583570   2.6892932  20.7335037  41.4826047
   1.8235524  21.8420640  42.0424868   2.7245260  30.2996018  41.2508214
   2.6821438  30.5256864  40.3216746   3.6407959  30.0659392  41.3994015
   6.1710893  20.7680085  48.1488843   6.5260281  20.9951558  49.0083308
   6.8183025  21.0998462  47.5266098  11.9008630  23.8898521  38.8538172
  11.7626529  24.0800117  37.9259361  11.5444849  24.6517904  39.3106223
  11.9278010  25.9575048  43.8649443  12.3614517  25.8650337  44.7132497
  12.6409591  25.9332548  43.2269459   5.6605905  29.5577142  45.3982544
   5.7142927  30.1268078  46.1660260   4.7920686  29.7279027  45.0336581
  12.7893560  25.9998749  46.3982329  12.9829450  26.9044559  46.6441604
  12.6894178  25.5406168  47.2320914   7.8508668  26.1505491  51.9723209
   7.6994175  25.9216043  51.0553293   7.8413348  27.1076093  51.9854554
   4.6194005  23.7237404  46.9569476   5.5486065  23.8748564  46.7838443
   4.1985035  23.8121425  46.1018122   3.4182336  27.7488069  44.7268013
   3.2793422  27.3806853  45.5993951   2.6296933  28.2635708  44.5551971
   4.0130488  32.8497165  36.0693550   4.1882244  32.3785208  36.8839173
   3.3263276  33.4762931  36.2974811   4.9687552  27.1269671  42.1156851
   4.6337384  27.0870441  43.0114501   4.4691497  26.4614387  41.6427261
   1.5714096  22.2457261  47.1293112   2.2813715  21.6050453  47.0879730
   1.5283404  22.4970155  48.0519293   9.5600875  29.1824614  50.0499691
   9.5013421  28.4983834  49.3830274   9.9620393  29.9243604  49.5980317
   9.5618282  27.1464198  48.2813671   8.6745061  26.8090120  48.4040070
  10.1316833  26.4147229  48.5182436   3.0919436  31.8065650  45.2474914
   3.0189607  32.6120622  45.7594219   2.6496829  32.0057616  44.4222935
   2.8809215  31.0437420  38.7577736   2.0976737  31.5859100  38.8515960
   3.5801960  31.5611400  39.1571977  14.0435623  22.5572415  43.0430232
  14.0325499  23.4397131  42.6724166  13.1753002  22.2043966  42.8484769
   5.5518119  31.7052484  47.4033073   6.2646091  32.3399949  47.3308974
   5.0608148  31.8016350  46.5873074   7.2735646  25.6103737  38.9750364
   6.3391925  25.7305199  38.8055069   7.4512314  24.7076204  38.7110374
  10.6608197  21.4521056  39.5100398  11.1268650  22.2849048  39.4360701
  11.1115698  20.9866038  40.2145657   8.7284428  27.7964878  36.5086551
   9.0044272  27.6821472  37.4180425   7.8588927  27.3982362  36.4698724
   8.4031319  22.0091535  46.0491194   7.7502769  22.2567443  45.3943647
   8.7811698  21.1955673  45.7153671   5.3638492  32.0451228  40.1519364
   5.5460887  31.2272884  40.6147116   6.1871478  32.2618921  39.7144254
   5.6980658  30.9719413  37.4134413   6.2268424  30.4611868  36.8004575
   5.9608878  30.6561944  38.2779946   4.4518892  22.7511346  52.5357231
   3.7759529  22.6505476  53.2059606   5.2746525  22.5950560  52.9993228
   3.1941674  34.0578274  46.7714847   3.7459982  34.2209895  47.5363932
   3.5347868  34.6482712  46.0994872   8.0452549  28.8839531  52.6263501
   8.5892453  29.4969489  52.1318456   7.4639394  29.4419110  53.1430514
   6.3310062  32.0060249  43.7578529   6.2061201  31.2049989  43.2489475
   6.9889153  32.5006443  43.2692499   8.3944970  29.8069269  45.3858079
   7.4475306  29.6874620  45.3136406   8.7427743  28.9191767  45.4684341
   5.3991403  29.6021986  41.5862431   5.2516366  28.6738693  41.7670001
   6.2244897  29.6242076  41.1019507   9.0025525  30.4250544  42.6727304
   9.9272073  30.2193406  42.5351755   8.8340829  30.1766945  43.5816646
   8.7920841  30.9436212  38.0289396   8.9657719  30.3782634  37.2763248
   9.2849733  31.7437107  37.8468886  14.6460233  23.7072635  39.6479695
  15.0891379  22.9579960  39.2498819  13.7686743  23.6982771  39.2653427
   9.7796014  30.2602976  35.1286294  10.4746919  30.8809669  35.3473609
  10.1219164  29.4098327  35.4038672  11.6787437  27.7102682  36.6573625
  12.2038761  28.0489954  35.9322945  11.5909790  26.7749697  36.4736759
   3.3407486  31.6236755  48.7863501   3.6494612  31.3785902  49.6586201
   4.1382968  31.8283394  48.2982372   3.3628098  33.7774665  41.0168878
   2.9233088  33.2851044  41.7101735   4.1136215  33.2347633  40.7760953
  11.3681343  28.3435585  51.9624823  10.5776887  28.3259724  51.4229322
  11.1314698  28.8823879  52.7173859  11.4879218  25.1928052  49.2757551
  11.5377223  25.0278059  50.2173074  11.3793142  24.3255311  48.8855432
   8.7782981  21.1758980  50.5916858   9.6792843  21.0365445  50.3000856
   8.8530955  21.3413435  51.5315035  12.9897415  27.6124993  49.5199573
  12.6982223  27.9754974  50.3563034  12.3769546  26.8992001  49.3412905
  14.1893097  25.1777873  42.0402143  15.0239989  25.6167677  42.2039703
  14.3252226  24.7016526  41.2210389  11.2384603  22.7357608  47.9879631
  11.7138725  22.9285254  47.1798482  10.3150169  22.7916794  47.7423014
   9.9386272  19.6123368  46.2207936  10.8903695  19.7121466  46.2420160
   9.7689723  18.8201636  46.7306021   7.9600652  16.6978951  46.4067337
   7.3650584  16.9783964  45.7113826   7.6750348  17.1872852  47.1784078
   7.0908142  30.6501878  35.1669970   8.0238815  30.5847440  35.3702845
   7.0031355  31.4858145  34.7084502   9.7196159  29.9667748  32.1273917
   9.6409790  29.6327612  33.0209675  10.5405826  30.4589516  32.1265390
  12.4174350  22.8329488  45.3350236  12.3850670  21.8945488  45.5209920
  13.0274974  22.9113524  44.6016061  12.5668839  19.6240531  45.3808519
  12.0507887  18.8398988  45.1938448  13.4508787  19.2959248  45.5455039
  18.2350900  23.8945494  44.4756273  18.9654288  23.6330783  45.0363976
  17.6257845  23.1574216  44.5158341  16.3166197  22.0353357  45.0730724
  15.5899361  21.9009322  44.4647216  15.9013484  22.3430186  45.8787442
   4.1396373  25.7543287  52.8378097   5.0599383  25.9321886  53.0318143
   4.1045956  24.8099332  52.6857796   1.8717581  22.6674666  53.6868689
   1.3884663  23.4675026  53.8932578   1.9578520  22.6782611  52.7336133
  11.4971433  17.5437590  41.3690215  12.2731823  18.0334042  41.6414832
  10.7719567  17.9695644  41.8262084  13.9343992  18.2565209  42.4264156
  14.5288483  18.0160945  41.7157464  14.0070576  17.5372340  43.0537692
   8.1197921  23.0345605  37.8686166   8.0633122  23.4914156  37.0293798
   8.6726263  22.2736290  37.6909009  11.9302727  18.8235337  38.6936285
  11.6739661  18.4231972  39.5244493  11.3055595  19.5379131  38.5686424
  16.2415065  21.5631410  41.2007577  15.6814623  21.6324599  41.9739139
  15.6358568  21.3872395  40.4807073   9.1986808  27.7218273  33.7982356
  10.0332412  27.2899471  33.6159830   9.0371151  27.5500287  34.7259250
   6.1678607  26.5299298  54.4892258   7.0369767  26.7039950  54.1278893
   5.6885359  27.3493715  54.3667987   2.0918390  32.4027386  42.8291770
   1.1414021  32.4029247  42.7156142   2.3950876  31.6560120  42.3127805
  17.8271083  38.2387924  43.8937532  18.4649493  38.1194671  43.1900873
  17.7091926  39.1868768  43.9525485  14.6360789  38.1915352  43.8299057
  14.2979301  38.0756417  42.9419592  15.5050558  37.7906517  43.8100063
  10.4947605  40.0450828  39.8195948   9.9312470  39.9540765  39.0512236
  10.3800000  39.2250733  40.2998441  15.1180572  39.3450204  49.7885263
  15.1069213  38.9503002  48.9165766  15.2801212  38.6116276  50.3819034
   8.0412037  41.5402020  42.6580169   8.8333329  41.1992845  42.2426468
   8.2808687  41.6496995  43.5782322  16.0747164  43.7121796  35.1310413
  15.4235144  44.2975877  34.7444427  16.8691527  44.2427991  35.1905450
  10.0002791  40.8010933  35.5297547  10.7733667  40.2539920  35.3910423
  10.3528190  41.6655183  35.7412009  11.8387834  42.1287316  48.7364447
  11.5477700  43.0332946  48.6211113  12.4744818  42.1703843  49.4508516
  12.7644040  39.5064164  45.3265806  13.3607613  39.2820187  44.6122769
  12.8219012  38.7648910  45.9291254  12.3369069  36.9603599  33.1615997
  12.5894590  36.4385121  32.3999460  11.3993628  36.7969745  33.2642681
  17.3812352  35.9639378  40.9690740  18.1675441  35.5458801  40.6181157
  17.6451056  36.8685470  41.1372389  17.5522429  41.4012228  35.6679397
  16.9168262  41.4746855  36.3800302  17.2219835  41.9905827  34.9898477
  22.7820779  35.9014611  41.8723719  23.5145951  35.3313828  42.1061548
  22.0260134  35.5136211  42.3130225  12.0565358  38.8631705  35.3640372
  11.9401616  38.1876609  36.0321457  12.1667617  38.3764079  34.5472525
  14.3996898  38.3241853  39.0687061  14.0355106  37.7972473  39.7799983
  15.2564014  37.9340322  38.8953547  20.3046199  29.6136185  46.3318328
  19.9729524  30.4831596  46.1079543  19.7091813  29.2972469  47.0112358
  14.0402385  33.3531752  34.0648410  14.2076788  34.2211989  34.4318881
  13.8499555  33.5159034  33.1409699  16.7977719  41.8148731  45.7314240
  16.4978442  42.7173770  45.6230048  16.4528778  41.5480914  46.5835393
  10.2490200  38.2662528  41.7650945   9.3240697  38.1338742  41.9728637
  10.4974613  39.0456747  42.2620887  20.1974862  34.3331271  43.4111678
  19.2891740  34.2646680  43.1170439  20.1462458  34.8103216  44.2393503
  14.0191606  35.8089410  35.0495077  13.8991232  36.2546460  35.8880557
  13.3244195  36.1574727  34.4908615   7.6099011  37.9095802  42.5994734
   7.7391392  38.1630280  43.5134146   6.9296462  38.5023510  42.2799389
  11.7798498  48.5793051  38.6985208  11.7022528  49.5300877  38.7773689
  11.1760142  48.2338924  39.3560134  14.2715728  35.7520917  51.3546575
  13.4949062  36.3114837  51.3449440  14.9106291  36.2377700  51.8761445
  22.0636509  32.5347710  45.1889552  21.4210889  32.8280243  44.5429346
  21.5591437  32.4200630  45.9942748  19.7176673  36.2810883  35.8775411
  20.6294529  36.5138270  35.7023108  19.2086320  36.8647927  35.3150489
  12.5262101  38.5606370  50.9164542  13.2676785  39.0991414  50.6399366
  11.8199086  39.1872659  51.0736094  18.0017440  40.7035511  49.5136703
  18.4100796  40.2617921  48.7691336  17.2794702  40.1288138  49.7670896
  14.3548510  35.6408117  46.8870260  15.2009705  36.0647531  47.0304909
  14.2947148  34.9841742  47.5808823  18.3246255  41.2636701  43.2688992
  17.6955117  41.4282415  42.5665060  17.9371917  41.6778311  44.0399956
  22.2035487  42.1991139  40.6233356  21.5186525  42.5790041  40.0730389
  22.2879336  42.8086466  41.3565304  17.5047956  33.3012486  48.5451434
  17.2608887  34.0554546  48.0085710  17.7807886  33.6797833  49.3798681
  19.4586418  39.8451098  47.2228700  19.6703314  40.4882858  46.5463081
  19.4116167  39.0113415  46.7550630  17.0612647  32.4568919  44.1265272
  16.1997126  32.7550172  44.4182009  17.0875082  32.6739318  43.1946304
  13.8774217  41.0011109  40.5339077  14.3412562  41.2798812  39.7443700
  13.6131015  40.0994554  40.3512168  10.7698298  40.5482591  43.4718841
  11.3399655  40.9769859  42.8336325  11.3606410  40.2665176  44.1703026
  12.8143103  37.1234262  37.3428643  13.5167146  37.5755305  37.8102569
  12.4823731  36.4818081  37.9708536  11.2623464  35.7146018  51.7179852
  10.6322125  36.3962299  51.9515249  11.1559552  35.6029100  50.7732990
   6.5568437  35.3817814  42.6445776   5.7667491  35.6375343  42.1685887
   7.0479684  36.1966152  42.7497817  20.5732246  42.7223054  45.3951057
  21.3949690  42.3203241  45.1133739  20.5694649  42.6191288  46.3467173
   8.5083182  35.7462394  39.6029253   7.7114345  35.8581088  40.1212748
   8.2808774  36.0849046  38.7370143  14.3388850  42.2707097  47.5511767
  14.4033282  42.7327504  48.3869939  13.6299774  41.6404462  47.6794077
   4.8406140  35.6348305  45.0760767   5.0914178  36.5195315  45.3418343
   5.3765688  35.4552906  44.3035859  28.6638239  39.0661802  41.7436028
  27.9101948  38.4969200  41.5880033  28.7985781  39.0324467  42.6906663
  14.0536867  43.9375204  37.4190748  13.9182542  44.7826740  37.8475596
  14.5946680  44.1394482  36.6556682  10.5404207  30.0166784  54.0805103
  10.1471153  29.4632983  54.7552747  11.3570347  30.3277363  54.4711620
   7.5066265  41.4550642  37.9918673   8.0190785  42.2493893  38.1424238
   8.1588978  40.7576933  37.9252274   9.3161149  44.5716399  40.0741426
   9.4927778  45.4934363  39.8862410  10.1117983  44.2574818  40.5035806
  13.4572168  31.4324663  51.6725360  14.1981881  32.0331817  51.5929822
  13.6890091  30.6902301  51.1143402   8.6013506  36.6181031  49.9503589
   8.4867021  35.7166288  50.2510688   7.7458024  36.8644727  49.5988406
  15.6805344  44.5598771  51.5491090  15.2369198  43.7735149  51.2311994
  16.3422557  44.7477921  50.8834981  10.4392465  46.0894573  46.0751768
  10.9899890  45.9611636  45.3028762   9.6003941  46.3889462  45.7246661
  17.7786582  44.8401571  49.5772491  17.7605057  45.6610452  49.0852760
  18.7006502  44.7155646  49.8022632  14.2359636  42.3545700  50.4195999
  14.7687973  41.5933989  50.1895307  13.7073717  42.0619352  51.1620154
  17.4029331  27.4605766  45.9489641  17.0593600  28.3507408  45.8728752
  17.7708294  27.2707424  45.0859226   5.4715182  39.7839297  38.7678243
   6.3090404  40.1936305  38.5511951   5.6493449  38.8438739  38.7378437
  17.3679614  37.4514377  34.4562076  16.8526237  38.2218982  34.6950464
  17.0956922  36.7779514  35.0795138  14.9526725  32.2964078  39.5147315
  14.0968321  31.9070929  39.3352953  15.3653676  32.3756039  38.6547100
  16.4825871  29.8310421  43.9138874  15.9790667  29.7940557  43.1006680
  16.7756478  30.7403164  43.9735531  12.7268757  29.9149151  42.9205056
  13.5921754  29.7191960  42.5610946  12.7946266  29.6859503  43.8474413
  22.3413888  40.2046732  36.3915250  21.5643331  39.8657892  35.9470412
  23.0205369  40.2099355  35.7170215  17.1565917  35.3241470  36.2821857
  16.8516052  35.6387619  37.1332001  18.1096359  35.4022889  36.3249190
  15.6012349  41.4831693  37.9314811  15.0733710  40.7484452  37.6188049
  15.0999851  42.2606369  37.6854780  20.5805195  39.6780713  43.0481858
  19.9228869  40.3679975  43.1361986  21.3845594  40.0677145  43.3915844
  10.3331076  32.1451359  40.2921423  10.9074828  31.9226541  39.5594616
  10.9202059  32.2140054  41.0450024  19.3910653  38.0325086  41.0985800
  19.9042535  38.6655078  41.6007509  20.0411877  37.4326282  40.7329160
  10.6600663  34.1755820  34.3117308   9.8237976  34.5130507  34.6326583
  10.5205433  34.0404800  33.3744445  12.6353744  29.0192608  39.0196492
  11.9818156  28.7041625  38.3953107  12.5934218  28.3968348  39.7456315
  13.7464949  39.3011903  30.9349784  12.8392011  39.0701157  31.1340933
  14.2435981  38.5049522  31.1223766  16.6533028  48.0109410  33.8546471
  15.9794726  48.3141107  34.4631428  17.0398850  48.8138491  33.5051928
  15.8691484  35.5074542  43.3444140  14.9514046  35.7289489  43.1865828
  16.2851628  35.5820852  42.4855847  16.6526532  36.9065957  38.4746820
  17.3998351  37.4187354  38.1653942  16.9218122  36.5850010  39.3351214
  14.9253182  39.4024498  35.4573775  14.0164402  39.1183531  35.5546244
  14.9548266  39.8223577  34.5977081  20.1572450  43.0131087  39.2264942
  19.7034777  42.1721997  39.2830133  19.5266416  43.6492486  39.5639722
  19.1005369  33.9423073  40.4565610  18.3628126  33.4300460  40.7875852
  19.3532143  33.5023455  39.6448886  18.6005389  44.8507584  40.1614760
  18.8928363  45.4112641  39.4427126  19.1104010  45.1436145  40.9167919
  19.2016997  26.7199325  41.0507379  19.5075873  25.8596689  40.7633294
  19.9269601  27.3116946  40.8506373   5.4941353  37.1230012  39.4388977
   5.2965752  36.5299373  38.7140043   4.9388017  36.8182222  40.1564916
  13.4738076  37.0153119  41.5583570  13.5286686  36.0626955  41.4826047
  12.6629278  37.1712558  42.0424868  14.6229270  40.9433242  32.7961853
  14.1848700  40.2269101  32.3367491  15.3639711  41.1709356  32.2346945
  11.4130436  35.6330178  39.3173949  10.5998302  35.9324349  39.7239141
  11.9089430  35.2385867  40.0348431  13.5639014  45.6287935  41.2508214
  13.5215193  45.8548782  40.3216746  14.4801713  45.3951310  41.3994015
  17.0104648  36.0972003  48.1488843  17.3654036  36.3243476  49.0083308
  17.6576779  36.4290380  47.5266098  22.7402385  39.2190439  38.8538172
  22.6020283  39.4092035  37.9259361  22.3838604  39.9809821  39.3106223
  10.9044511  33.2048534  44.9335184  11.5443890  33.0637293  44.2358147
  10.0722042  32.9183047  44.5573786  22.7671764  41.2866966  43.8649443
  23.2008271  41.1942255  44.7132497  23.4803345  41.2624466  43.2269459
  11.6804815  42.5050964  41.0470176  12.4745413  42.0101284  40.8452751
  10.9696507  41.9768827  40.6837882  16.4999659  44.8869060  45.3982544
  16.5536682  45.4559996  46.1660260  15.6314441  45.0570945  45.0336581
   7.9887578  36.6494046  37.1229929   7.0585166  36.5878501  37.3399891
   8.0845050  36.1269999  36.3266570   7.9073127  33.1748859  39.7108171
   8.1679945  34.0894192  39.6017331   8.7290300  32.7073301  39.8604783
   9.3798053  34.5886616  46.8806995  10.0521106  34.3803978  46.2319644
   8.5527839  34.3908702  46.4412227  23.6287314  41.3290666  46.3982329
  23.8223204  42.2336477  46.6441604  23.5287932  40.8698085  47.2320914
  15.2823625  31.2148557  48.8972656  14.6351540  31.9138507  48.8037132
  16.0524640  31.6484701  49.2648904  18.6902423  41.4797409  51.9723209
  18.5387929  41.2507961  51.0553293  18.6807102  42.4368010  51.9854554
  15.4587759  39.0529322  46.9569476  16.3879819  39.2040481  46.7838443
  15.0378789  39.1413343  46.1018122  14.2576091  43.0779986  44.7268013
  14.1187177  42.7098771  45.5993951  13.4690687  43.5927626  44.5551971
  14.8524243  48.1789083  36.0693550  15.0275999  47.7077126  36.8839173
  14.1657031  48.8054849  36.2974811  15.8081306  42.4561589  42.1156851
  15.4731139  42.4162359  43.0114501  15.3085252  41.7906305  41.6427261
   9.7825550  37.8629219  47.6409432   9.6445348  37.1309458  48.2420971
  10.6930473  37.7738119  47.3593620  18.7440498  39.8017623  32.3893911
  18.1269668  39.0764451  32.2926963  18.2756986  40.5626984  32.0460985
  12.4107851  37.5749178  47.1293112  13.1207469  36.9342370  47.0879730
  12.3677159  37.8262073  48.0519293  20.3994629  44.5116532  50.0499691
  20.3407176  43.8275752  49.3830274  20.8014148  45.2535522  49.5980317
  11.1236785  34.5614396  48.9488751  10.5874142  34.1105135  49.6010348
  10.5353493  34.6960305  48.2059216   9.4185328  51.3278445  42.8433410
   9.6581926  51.9596970  43.5212429   8.5754525  50.9766485  43.1298769
  10.5339044  34.0203048  31.5115215   9.6568510  33.8991848  31.1477462
  11.0096797  33.2289126  31.2594104  20.4012037  42.4756116  48.2813671
  19.5138815  42.1382037  48.4040070  20.9710588  41.7439147  48.5182436
   2.0541184  38.8080207  41.6056722   2.7412224  38.4941937  41.0177737
   1.8989312  39.7121572  41.3323974   6.8575906  33.6970404  46.0341746
   6.7734095  33.0896073  45.2992156   6.0358612  34.1879422  46.0351242
  13.9313190  47.1357568  45.2474914  13.8583362  47.9412539  45.7594219
  13.4890583  47.3349534  44.4222935  13.7202970  46.3729338  38.7577736
  12.9370492  46.9151018  38.8515960  14.4195715  46.8903318  39.1571977
  17.0299620  32.1823967  41.4011941  17.5268319  31.4293930  41.0813011
  16.2586601  32.2188284  40.8355150  24.8829377  37.8864333  43.0430232
  24.8719253  38.7689048  42.6724166  24.0146757  37.5335884  42.8484769
  16.3911874  47.0344402  47.4033073  17.1039846  47.6691867  47.3308974
  15.9001902  47.1308268  46.5873074  18.1129400  40.9395655  38.9750364
  17.1785679  41.0597117  38.8055069  18.2906069  40.0368121  38.7110374
  13.6134589  34.3241350  41.1283626  13.2432376  33.7712391  41.8164531
  14.1093681  33.7199484  40.5758626  21.5001952  36.7812974  39.5100398
  21.9662404  37.6140965  39.4360701  21.9509452  36.3157955  40.2145657
  11.4423787  44.7838845  48.2238643  12.1433247  45.4175328  48.3768038
  10.9718902  45.1253577  47.4634283  19.5678183  43.1256795  36.5086551
  19.8438027  43.0113390  37.4180425  18.6982682  42.7274280  36.4698724
  19.4718615  29.1493561  43.5491300  18.5581694  29.3797788  43.7173507
  19.9011716  29.2332005  44.4005332  19.2425073  37.3383453  46.0491194
  18.5896523  37.5859360  45.3943647  19.6205453  36.5247591  45.7153671
  16.2032247  47.3743146  40.1519364  16.3854641  46.5564802  40.6147116
  17.0265233  47.5910838  39.7144254  16.5374412  46.3011331  37.4134413
  17.0662179  45.7903786  36.8004575  16.8002632  45.9853861  38.2779946
  15.2912646  38.0803264  52.5357231  14.6153283  37.9797393  53.2059606
  16.1140280  37.9242478  52.9993228   7.0391505  44.3175200  45.1569746
   7.6244942  43.5718888  45.2897650   6.8416344  44.6279157  46.0406410
   9.8930160  47.3526448  40.1732189   9.2240536  47.8372575  39.6896229
   9.7543030  47.5995668  41.0875567   1.6309160  36.8880801  43.8774189
   1.6693259  36.3544391  44.6711307   1.1249453  36.3616006  43.2585166
  14.0335429  49.3870191  46.7714847  14.5853737  49.5501813  47.5363932
  14.3741622  49.9774629  46.0994872   9.0099922  31.7345341  47.3736732
   9.0741249  32.5960172  46.9614129   8.9467042  31.1219343  46.6409090
   8.4852195  33.8068474  51.0209766   9.1124234  33.4245551  51.6347290
   7.6280114  33.5882676  51.3865458  18.8846303  44.2131449  52.6263501
  19.4286207  44.8261407  52.1318456  18.3033148  44.7711027  53.1430514
   5.2617737  35.6144903  36.9528121   5.5571179  34.7055581  36.8995174
   4.3605773  35.5932642  36.6309123  17.1703816  47.3352167  43.7578529
  17.0454956  46.5341907  43.2489475  17.8282907  47.8298360  43.2692499
   8.7911984  33.6900899  42.9355669   8.0698570  34.3036867  42.7963143
   9.5805240  34.2258664  42.8572315  19.2338725  45.1361187  45.3858079
  18.2869060  45.0166538  45.3136406  19.5821498  44.2483685  45.4684341
  11.5938298  31.0255326  49.2096321  12.1172700  31.2717622  49.9722630
  11.3750631  31.8575361  48.7899458   6.9905579  33.2959000  37.0767446
   6.6618285  32.4156379  36.8942552   7.3444950  33.2406669  37.9643835
  16.2385158  44.9313903  41.5862431  16.0910120  44.0030611  41.7670001
  17.0638651  44.9533994  41.1019507  10.1047402  33.5831970  37.4442924
  10.4443475  34.1117892  36.7221532  10.5519523  33.9212376  38.2201490
  19.8419280  45.7542462  42.6727304  20.7665827  45.5485323  42.5351755
  19.6734583  45.5058863  43.5816646  12.7990843  31.9669021  46.8945992
  12.4587663  31.1676834  47.2966671  12.0929849  32.2670732  46.3222825
  13.4507315  29.0518333  45.3473315  14.2733384  28.5778812  45.2252205
  13.6945378  29.8308817  45.8472001  12.0915549  32.0806592  35.6436216
  12.8123912  32.4587845  35.1399933  11.4680853  32.7995469  35.7471194
  16.2346672  32.7851741  36.5794549  16.4510287  33.6676379  36.2783377
  15.7540739  32.3937954  35.8500191  10.9745894  35.7437454  43.1565293
  10.8290474  36.0577757  44.0489575  10.4971097  36.3622354  42.6036192
  12.8342276  32.7340002  43.2046183  12.8203845  31.8381095  42.8678481
  13.5514705  32.7410666  43.8384469  14.6868407  33.1677342  45.2499310
  14.4286185  34.0894413  45.2483641  14.1553448  32.7707777  45.9399774
  19.6314596  46.2728129  38.0289396  19.8051474  45.7074552  37.2763248
  20.1243487  47.0729024  37.8468886   5.4491556  38.2842798  46.0952954
   4.9045024  39.0602606  46.2273229   6.3270906  38.6313603  45.9372076
  12.2379172  31.6154382  38.4733753  12.3595084  30.6871029  38.6724640
  11.9481215  31.6293068  37.5612068  15.1070363  29.3009293  41.6100473
  15.1292060  29.3648626  40.6552452  15.5238422  28.4613801  41.8040979
  25.4853987  39.0364552  39.6479695  25.9285133  38.2871878  39.2498819
  24.6080497  39.0274689  39.2653427  20.6189768  45.5894894  35.1286294
  21.3140673  46.2101586  35.3473609  20.9612919  44.7390245  35.4038672
   6.2357578  37.4112695  48.9883111   5.4939314  37.5595330  49.5747742
   5.9150322  37.6720960  48.1249861  22.5181192  43.0394599  36.6573625
  23.0432516  43.3781872  35.9322945  22.4303544  42.1041615  36.4736759
  14.1801240  46.9528673  48.7863501  14.4888367  46.7077820  49.6586201
  14.9776722  47.1575311  48.2982372  14.2021852  49.1066583  41.0168878
  13.7626843  48.6142961  41.7101735  14.9529969  48.5639550  40.7760953
   6.6814191  45.2978123  41.0193506   7.5072211  44.9981895  40.6392149
   6.3308243  44.5285746  41.4683295  11.6495724  44.6504592  43.0891180
  11.0275734  43.9875297  42.7893407  12.3200591  44.6765724  42.4064827
   4.8822796  43.2164450  41.9782440   4.0454705  42.7886624  41.7966441
   4.8546442  43.4096893  42.9153231  11.7220252  33.1286380  52.6823686
  11.7708407  34.0048503  52.3001455  12.2642766  32.5863773  52.1095329
  22.2075098  43.6727503  51.9624823  21.4170641  43.6551642  51.4229322
  21.9708452  44.2115797  52.7173859  22.3272973  40.5219969  49.2757551
  22.3770978  40.3569977  50.2173074  22.2186896  39.6547228  48.8855432
  11.2109231  43.2008515  36.5649640  11.3597352  43.8843979  35.9116313
  12.0175675  43.1813605  37.0799096  19.6176735  36.5050897  50.5916858
  20.5186598  36.3657362  50.3000856  19.6924710  36.6705352  51.5315035
  13.9519540  33.8817752  49.4370044  13.0822850  34.1751318  49.1652633
  14.1879021  34.4658197  50.1577308  23.8291170  42.9416911  49.5199573
  23.5375978  43.3046891  50.3563034  23.2163301  42.2283919  49.3412905
  25.0286852  40.5069791  42.0402143  25.8633743  40.9459595  42.2039703
  25.1645981  40.0308444  41.2210389  22.0778358  38.0649525  47.9879631
  22.5532479  38.2577172  47.1798482  21.1543923  38.1208711  47.7423014
   8.9661864  39.2273693  37.5710709   8.7207906  38.3236023  37.7690919
   9.1357779  39.2290843  36.6290187  16.6558574  30.0997369  46.9535465
  17.1740518  30.8358396  46.6281953  16.3013707  30.4061362  47.7882224
   8.2357512  34.9602050  35.0696870   7.5426757  35.0346405  34.4136906
   7.9909264  34.1962394  35.5918387  16.9071168  26.5197652  42.4736361
  17.1872922  25.8520841  43.0996788  17.6921775  26.7126747  41.9611025
  14.7104637  45.6956645  34.0361387  14.1378604  46.3146833  33.5831859
  15.2837431  46.2456007  34.5701309  20.7780027  34.9415286  46.2207936
  21.7297450  35.0413383  46.2420160  20.6083477  34.1493554  46.7306021
  18.7994406  32.0270869  46.4067337  18.2044338  32.3075881  45.7113826
  18.5144103  32.5164770  47.1784078  17.9301897  45.9793796  35.1669970
  18.8632570  45.9139357  35.3702845  17.8425110  46.8150062  34.7084502
  20.5589913  45.2959666  32.1273917  20.4803545  44.9619530  33.0209675
  21.3799580  45.7881434  32.1265390  23.2568105  38.1621405  45.3350236
  23.2244425  37.2237406  45.5209920  23.8668728  38.2405442  44.6016061
  15.0951435  37.0317458  31.3777440  16.0410540  36.9023666  31.4465858
  14.7165680  36.2932120  31.8546868  23.4062593  34.9532449  45.3808519
  22.8901642  34.1690905  45.1938448  24.2902542  34.6251165  45.5455039
  21.0673320  28.6973464  41.3404332  20.8698141  28.3888552  42.2247664
  21.6773026  29.4235103  41.4702262  29.0744654  39.2237412  44.4756273
  29.8048043  38.9622700  45.0363976  28.4651600  38.4866134  44.5158341
  27.1559952  37.3645275  45.0730724  26.4293115  37.2301240  44.4647216
  26.7407238  37.6722103  45.8787442  14.9790128  41.0835204  52.8378097
  15.8993137  41.2613803  53.0318143  14.9439711  40.1391250  52.6857796
  13.2794353  34.9567435  31.3132325  12.3725808  34.6600547  31.3895039
  13.5570334  34.6597253  30.4466611   4.1972293  36.2773798  41.7631372
   3.8775077  35.4239106  41.4705746   3.6505721  36.4922376  42.5189339
   7.9752200  38.9936239  45.4800878   8.1938210  39.9253347  45.4988912
   8.3877974  38.6344213  46.2655682  14.8956418  29.5004324  37.4676566
  14.0857147  29.1551409  37.8431813  15.5840835  29.1911868  38.0564178
  16.8246967  28.5782371  39.0900863  17.3778005  28.9977825  39.7490886
  17.0617053  27.6518119  39.1323819  12.8480066  34.5669445  54.8703627
  12.7476793  35.5163802  54.8015718  12.6301608  34.2387684  53.9979697
  12.0493137  31.8154370  31.4544304  12.9112301  32.1409268  31.7140122
  12.2343481  31.0285866  30.9417370   4.0660553  39.8976709  43.7324493
   3.3724024  39.4830662  43.2194448   4.8133544  39.9397246  43.1357912
  20.2025774  30.6882896  38.5979527  19.6224443  31.3467700  38.2157580
  19.9361706  29.8660241  38.1866945  18.6529340  30.0887954  40.8000848
  19.1529118  30.2004489  39.9915167  19.2964948  29.7849007  41.4401656
  12.7111336  37.9966584  53.6868689  12.2278418  38.7966944  53.8932578
  12.7972275  38.0074528  52.7336133   5.9797295  39.8294963  41.6090508
   5.9567984  39.9282651  40.6572391   6.2897932  40.6760114  41.9307674
   8.6384673  41.8871118  45.7237122   9.5927927  41.8555061  45.6567054
   8.4397197  41.4261742  46.5387348   9.2284055  40.4572234  48.2907920
  10.0476944  40.9516313  48.3142757   9.5020863  39.5404202  48.2625488
  18.9850652  32.8482987  37.6535876  18.0976507  33.1332637  37.4356070
  19.4004641  32.6876750  36.8063153  22.3365188  32.8729508  41.3690215
  23.1125578  33.3625960  41.6414832  21.6113322  33.2987562  41.8262084
  24.7737746  33.5857127  42.4264156  25.3682237  33.3452863  41.7157464
  24.8464330  32.8664257  43.0537692   6.9934902  47.4290738  42.7407320
   6.8589370  46.6691139  42.1745318   6.5766964  48.1531638  42.2736109
  18.1293865  42.6127661  31.7483896  18.8329715  42.8177664  32.3641551
  17.4056514  43.1804423  32.0132979  18.9591675  38.3637523  37.8686166
  18.9026877  38.8206074  37.0293798  19.5120018  37.6028207  37.6909009
  22.7696481  34.1527254  38.6936285  22.5133416  33.7523890  39.5244493
  22.1449349  34.8671048  38.5686424  27.0808819  36.8923328  41.2007577
  26.5208377  36.9616517  41.9739139  26.4752323  36.7164312  40.4807073
  10.1504028  48.3260055  42.9525763  10.0336412  49.2705487  42.8504453
   9.3296474  48.0233616  43.3411562  20.0380563  43.0510191  33.7982356
  20.8726166  42.6191389  33.6159830  19.8764905  42.8792204  34.7259250
  19.6926455  39.5542304  35.1638695  19.6375259  39.3886575  34.2227139
  19.0672510  40.2618337  35.3200885   4.4818970  34.7910368  48.9900117
   5.1277833  34.2809322  49.4787342   4.2736121  35.5279050  49.5643542
  17.0072362  41.8591216  54.4892258  17.8763522  42.0331868  54.1278893
  16.5279113  42.6785633  54.3667987  13.0022580  29.0550413  34.7424013
  12.9901250  29.9992253  34.8992284  13.8946002  28.8720558  34.4483475
  11.1758542  48.9788317  46.1681691  12.0785789  49.0111927  46.4848186
  10.9495912  48.0488768  46.1828027  12.9312144  47.7319303  42.8291770
  11.9807775  47.7321165  42.7156142  13.2344630  46.9852038  42.3127805
  16.8174700  25.6493189  38.9969950  16.0507095  25.0951676  39.1426633
  17.2285405  25.7215058  39.8584102   8.8216461  31.9377985  53.0875131
   9.6847922  31.5814790  53.2978456   8.2481871  31.5991880  53.7750536
  28.6664838  53.5679842  43.8937532  29.3043248  53.4486589  43.1900873
  28.5485681  54.5160686  43.9525485  25.4754544  53.5207270  43.8299057
  25.1373055  53.4048334  42.9419592  26.3444312  53.1198435  43.8100063
  21.3341360  55.3742746  39.8195948  20.7706225  55.2832683  39.0512236
  21.2193755  54.5542651  40.2998441  25.9574327  54.6742121  49.7885263
  25.9462968  54.2794920  48.9165766  26.1194966  53.9408194  50.3819034
  18.8805792  56.8693938  42.6580169  19.6727083  56.5284762  42.2426468
  19.1202442  56.9788913  43.5782322  26.9140918  59.0413714  35.1310413
  26.2628898  59.6267794  34.7444427  27.7085281  59.5719909  35.1905450
  20.8396545  56.1302851  35.5297547  21.6127421  55.5831838  35.3910423
  21.1921944  56.9947100  35.7412009  22.6781588  57.4579233  48.7364447
  22.3871454  58.3624864  48.6211113  23.3138572  57.4995761  49.4508516
  23.6037795  54.8356082  45.3265806  24.2001367  54.6112104  44.6122769
  23.6612766  54.0940827  45.9291254  23.1762823  52.2895517  33.1615997
  23.4288344  51.7677038  32.3999460  22.2387382  52.1261663  33.2642681
  28.2206106  51.2931295  40.9690740  29.0069195  50.8750719  40.6181157
  28.4844810  52.1977388  41.1372389  28.3916183  56.7304146  35.6679397
  27.7562016  56.8038772  36.3800302  28.0613590  57.3197745  34.9898477
  33.6214533  51.2306529  41.8723719  34.3539705  50.6605746  42.1061548
  32.8653889  50.8428129  42.3130225  22.8959112  54.1923623  35.3640372
  22.7795370  53.5168526  36.0321457  23.0061372  53.7055997  34.5472525
  25.2390653  53.6533770  39.0687061  24.8748860  53.1264391  39.7799983
  26.0957769  53.2632239  38.8953547  31.1439954  44.9428103  46.3318328
  30.8123278  45.8123514  46.1079543  30.5485567  44.6264387  47.0112358
  24.8796140  48.6823670  34.0648410  25.0470542  49.5503906  34.4318881
  24.6893309  48.8450952  33.1409699  27.6371473  57.1440649  45.7314240
  27.3372196  58.0465688  45.6230048  27.2922533  56.8772832  46.5835393
  21.0883955  53.5954446  41.7650945  20.1634451  53.4630660  41.9728637
  21.3368368  54.3748665  42.2620887  31.0368617  49.6623189  43.4111678
  30.1285494  49.5938597  43.1170439  30.9856213  50.1395134  44.2393503
  24.8585361  51.1381327  35.0495077  24.7384986  51.5838378  35.8880557
  24.1637949  51.4866645  34.4908615  18.4492766  53.2387719  42.5994734
  18.5785147  53.4922198  43.5134146  17.7690217  53.8315427  42.2799389
  22.6192253  63.9084969  38.6985208  22.5416283  64.8592794  38.7773689
  22.0153897  63.5630842  39.3560134  25.1109483  51.0812835  51.3546575
  24.3342817  51.6406755  51.3449440  25.7500046  51.5669618  51.8761445
  32.9030263  47.8639627  45.1889552  32.2604644  48.1572161  44.5429346
  32.3985192  47.7492548  45.9942748  30.5570427  51.6102801  35.8775411
  31.4688283  51.8430187  35.7023108  30.0480074  52.1939845  35.3150489
  23.3655855  53.8898288  50.9164542  24.1070539  54.4283332  50.6399366
  22.6592840  54.5164577  51.0736094  28.8411195  56.0327428  49.5136703
  29.2494551  55.5909839  48.7691336  28.1188456  55.4580056  49.7670896
  25.1942265  50.9700035  46.8870260  26.0403460  51.3939449  47.0304909
  25.1340902  50.3133659  47.5808823  29.1640009  56.5928619  43.2688992
  28.5348872  56.7574333  42.5665060  28.7765671  57.0070229  44.0399956
  33.0429241  57.5283057  40.6233356  32.3580279  57.9081958  40.0730389
  33.1273091  58.1378384  41.3565304  28.3441710  48.6304404  48.5451434
  28.1002642  49.3846464  48.0085710  28.6201641  49.0089751  49.3798681
  30.2980173  55.1743016  47.2228700  30.5097068  55.8174776  46.5463081
  30.2509921  54.3405332  46.7550630  27.9006402  47.7860837  44.1265272
  27.0390881  48.0842090  44.4182009  27.9268836  48.0031235  43.1946304
  24.7167971  56.3303027  40.5339077  25.1806317  56.6090730  39.7443700
  24.4524769  55.4286472  40.3512168  21.6092052  55.8774509  43.4718841
  22.1793409  56.3061777  42.8336325  22.2000164  55.5957093  44.1703026
  23.6536857  52.4526179  37.3428643  24.3560901  52.9047223  37.8102569
  23.3217486  51.8109998  37.9708536  22.1017219  51.0437936  51.7179852
  21.4715879  51.7254217  51.9515249  21.9953307  50.9321018  50.7732990
  17.3962191  50.7109732  42.6445776  16.6061245  50.9667261  42.1685887
  17.8873439  51.5258070  42.7497817  31.4126001  58.0514971  45.3951057
  32.2343444  57.6495159  45.1133739  31.4088404  57.9483205  46.3467173
  19.3476937  51.0754311  39.6029253  18.5508100  51.1873006  40.1212748
  19.1202529  51.4140964  38.7370143  25.1782604  57.5999015  47.5511767
  25.2427037  58.0619422  48.3869939  24.4693528  56.9696380  47.6794077
  15.6799894  50.9640223  45.0760767  15.9307933  51.8487233  45.3418343
  16.2159443  50.7844824  44.3035859  39.5031994  54.3953720  41.7436028
  38.7495702  53.8261118  41.5880033  39.6379535  54.3616384  42.6906663
  24.8930622  59.2667122  37.4190748  24.7576297  60.1118658  37.8475596
  25.4340434  59.4686400  36.6556682  21.3797961  45.3458702  54.0805103
  20.9864907  44.7924901  54.7552747  22.1964102  45.6569280  54.4711620
  18.3460019  56.7842560  37.9918673  18.8584540  57.5785810  38.1424238
  18.9982732  56.0868851  37.9252274  20.1554904  59.9008316  40.0741426
  20.3321532  60.8226281  39.8862410  20.9511737  59.5866736  40.5035806
  24.2965922  46.7616581  51.6725360  25.0375636  47.3623734  51.5929822
  24.5283845  46.0194219  51.1143402  19.4407260  51.9472948  49.9503589
  19.3260776  51.0458206  50.2510688  18.5851778  52.1936645  49.5988406
  26.5199098  59.8890689  51.5491090  26.0762952  59.1027067  51.2311994
  27.1816312  60.0769839  50.8834981  21.2786219  61.4186490  46.0751768
  21.8293645  61.2903554  45.3028762  20.4397695  61.7181379  45.7246661
  28.6180336  60.1693489  49.5772491  28.5998812  60.9902370  49.0852760
  29.5400256  60.0447564  49.8022632  25.0753390  57.6837618  50.4195999
  25.6081727  56.9225906  50.1895307  24.5467472  57.3911270  51.1620154
  28.2423085  42.7897684  45.9489641  27.8987355  43.6799326  45.8728752
  28.6102048  42.5999342  45.0859226  16.3108936  55.1131214  38.7678243
  17.1484158  55.5228223  38.5511951  16.4887204  54.1730657  38.7378437
  28.2073368  52.7806295  34.4562076  27.6919992  53.5510900  34.6950464
  27.9350677  52.1071431  35.0795138  25.7920479  47.6255996  39.5147315
  24.9362076  47.2362846  39.3352953  26.2047431  47.7047957  38.6547100
  27.3219626  45.1602339  43.9138874  26.8184421  45.1232474  43.1006680
  27.6150233  46.0695082  43.9735531  23.5662512  45.2441069  42.9205056
  24.4315508  45.0483878  42.5610946  23.6340021  45.0151421  43.8474413
  33.1807642  55.5338650  36.3915250  32.4037085  55.1949809  35.9470412
  33.8599123  55.5391273  35.7170215  27.9959671  50.6533387  36.2821857
  27.6909807  50.9679536  37.1332001  28.9490113  50.7314807  36.3249190
  26.4406103  56.8123611  37.9314811  25.9127465  56.0776370  37.6188049
  25.9393606  57.5898287  37.6854780  31.4198949  55.0072631  43.0481858
  30.7622624  55.6971892  43.1361986  32.2239348  55.3969063  43.3915844
  21.1724831  47.4743277  40.2921423  21.7468583  47.2518458  39.5594616
  21.7595813  47.5431971  41.0450024  30.2304408  53.3617004  41.0985800
  30.7436290  53.9946996  41.6007509  30.8805632  52.7618199  40.7329160
  21.4994418  49.5047738  34.3117308  20.6631730  49.8422424  34.6326583
  21.3599188  49.3696718  33.3744445  23.4747498  44.3484526  39.0196492
  22.8211911  44.0333543  38.3953107  23.4327973  43.7260266  39.7456315
  24.5858703  54.6303821  30.9349784  23.6785765  54.3993074  31.1340933
  25.0829735  53.8341440  31.1223766  27.4926782  63.3401328  33.8546471
  26.8188481  63.6433025  34.4631428  27.8792604  64.1430408  33.5051928
  26.7085239  50.8366459  43.3444140  25.7907800  51.0581406  43.1865828
  27.1245382  50.9112770  42.4855847  27.4920287  52.2357875  38.4746820
  28.2392106  52.7479272  38.1653942  27.7611876  51.9141928  39.3351214
  25.7646937  54.7316416  35.4573775  24.8558156  54.4475448  35.5546244
  25.7942021  55.1515494  34.5977081  30.9966204  58.3423005  39.2264942
  30.5428531  57.5013915  39.2830133  30.3660171  58.9784404  39.5639722
  29.9399124  49.2714991  40.4565610  29.2021881  48.7592377  40.7875852
  30.1925897  48.8315373  39.6448886  29.4399143  60.1799502  40.1614760
  29.7322118  60.7404559  39.4427126  29.9497764  60.4728063  40.9167919
  30.0410751  42.0491243  41.0507379  30.3469628  41.1888607  40.7633294
  30.7663356  42.6408863  40.8506373  16.3335107  52.4521930  39.4388977
  16.1359507  51.8591290  38.7140043  15.7781771  52.1474140  40.1564916
  24.3131831  52.3445036  41.5583570  24.3680441  51.3918873  41.4826047
  23.5023033  52.5004475  42.0424868  25.4623025  56.2725159  32.7961853
  25.0242455  55.5561018  32.3367491  26.2033465  56.5001274  32.2346945
  22.2524191  50.9622096  39.3173949  21.4392056  51.2616267  39.7239141
  22.7483185  50.5677785  40.0348431  24.4032769  60.9579853  41.2508214
  24.3608947  61.1840699  40.3216746  25.3195467  60.7243228  41.3994015
  27.8498402  51.4263920  48.1488843  28.2047790  51.6535394  49.0083308
  28.4970534  51.7582297  47.5266098  33.5796139  54.5482356  38.8538172
  33.4414038  54.7383952  37.9259361  33.2232358  55.3101739  39.3106223
  21.7438266  48.5340452  44.9335184  22.3837645  48.3929211  44.2358147
  20.9115796  48.2474965  44.5573786  33.6065519  56.6158883  43.8649443
  34.0402026  56.5234172  44.7132497  34.3197100  56.5916384  43.2269459
  22.5198569  57.8342882  41.0470176  23.3139168  57.3393202  40.8452751
  21.8090262  57.3060745  40.6837882  27.3393414  60.2160977  45.3982544
  27.3930436  60.7851914  46.1660260  26.4708195  60.3862862  45.0336581
  18.8281333  51.9785964  37.1229929  17.8978921  51.9170419  37.3399891
  18.9238805  51.4561916  36.3266570  18.7466882  48.5040776  39.7108171
  19.0073699  49.4186110  39.6017331  19.5684054  48.0365219  39.8604783
  20.2191807  49.9178534  46.8806995  20.8914861  49.7095896  46.2319644
  19.3921594  49.7200620  46.4412227  34.4681069  56.6582584  46.3982329
  34.6616959  57.5628395  46.6441604  34.3681687  56.1990003  47.2320914
  26.1217379  46.5440475  48.8972656  25.4745294  47.2430424  48.8037132
  26.8918395  46.9776619  49.2648904  29.5296177  56.8089327  51.9723209
  29.3781684  56.5799878  51.0553293  29.5200857  57.7659928  51.9854554
  26.2981514  54.3821239  46.9569476  27.2273574  54.5332399  46.7838443
  25.8772544  54.4705260  46.1018122  25.0969845  58.4071904  44.7268013
  24.9580931  58.0390688  45.5993951  24.3084442  58.9219543  44.5551971
  25.6917997  63.5081000  36.0693550  25.8669753  63.0369044  36.8839173
  25.0050785  64.1346767  36.2974811  26.6475061  57.7853507  42.1156851
  26.3124893  57.7454277  43.0114501  26.1479006  57.1198223  41.6427261
  20.6219305  53.1921137  47.6409432  20.4839102  52.4601375  48.2420971
  21.5324228  53.1030037  47.3593620  29.5834252  55.1309541  32.3893911
  28.9663423  54.4056369  32.2926963  29.1150741  55.8918901  32.0460985
  23.2501605  52.9041096  47.1293112  23.9601224  52.2634288  47.0879730
  23.2070913  53.1553991  48.0519293  31.2388384  59.8408449  50.0499691
  31.1800930  59.1567669  49.3830274  31.6407902  60.5827439  49.5980317
  21.9630539  49.8906314  48.9488751  21.4267896  49.4397052  49.6010348
  21.3747248  50.0252223  48.2059216  20.2579083  66.6570363  42.8433410
  20.4975681  67.2888887  43.5212429  19.4148279  66.3058403  43.1298769
  21.3732798  49.3494965  31.5115215  20.4962264  49.2283766  31.1477462
  21.8490551  48.5581044  31.2594104  31.2405791  57.8048033  48.2813671
  30.3532570  57.4673955  48.4040070  31.8104342  57.0731064  48.5182436
  12.8934938  54.1372125  41.6056722  13.5805978  53.8233855  41.0177737
  12.7383067  55.0413490  41.3323974  17.6969660  49.0262322  46.0341746
  17.6127849  48.4187991  45.2992156  16.8752367  49.5171340  46.0351242
  24.7706945  62.4649486  45.2474914  24.6977116  63.2704457  45.7594219
  24.3284338  62.6641451  44.4222935  24.5596724  61.7021256  38.7577736
  23.7764246  62.2442936  38.8515960  25.2589469  62.2195235  39.1571977
  27.8693374  47.5115885  41.4011941  28.3662074  46.7585847  41.0813011
  27.0980356  47.5480202  40.8355150  35.7223132  53.2156251  43.0430232
  35.7113008  54.0980966  42.6724166  34.8540511  52.8627801  42.8484769
  27.2305628  62.3636320  47.4033073  27.9433600  62.9983784  47.3308974
  26.7395657  62.4600186  46.5873074  28.9523155  56.2687572  38.9750364
  28.0179434  56.3889035  38.8055069  29.1299823  55.3660039  38.7110374
  24.4528343  49.6533268  41.1283626  24.0826131  49.1004308  41.8164531
  24.9487435  49.0491402  40.5758626  32.3395706  52.1104892  39.5100398
  32.8056159  52.9432883  39.4360701  32.7903207  51.6449873  40.2145657
  22.2817542  60.1130763  48.2238643  22.9827001  60.7467246  48.3768038
  21.8112657  60.4545495  47.4634283  30.4071937  58.4548713  36.5086551
  30.6831781  58.3405307  37.4180425  29.5376436  58.0566198  36.4698724
  30.3112369  44.4785479  43.5491300  29.3975449  44.7089705  43.7173507
  30.7405471  44.5623923  44.4005332  30.0818828  52.6675371  46.0491194
  29.4290278  52.9151278  45.3943647  30.4599207  51.8539509  45.7153671
  27.0426001  62.7035064  40.1519364  27.2248396  61.8856720  40.6147116
  27.8658987  62.9202756  39.7144254  27.3768167  61.6303249  37.4134413
  27.9055933  61.1195703  36.8004575  27.6396387  61.3145779  38.2779946
  26.1306401  53.4095182  52.5357231  25.4547038  53.3089311  53.2059606
  26.9534034  53.2534395  52.9993228  17.8785260  59.6467118  45.1569746
  18.4638696  58.9010806  45.2897650  17.6810098  59.9571075  46.0406410
  20.7323915  62.6818366  40.1732189  20.0634290  63.1664493  39.6896229
  20.5936785  62.9287586  41.0875567  12.4702914  52.2172718  43.8774189
  12.5087014  51.6836309  44.6711307  11.9643207  51.6907924  43.2585166
  24.8729183  64.7162109  46.7714847  25.4247491  64.8793731  47.5363932
  25.2135377  65.3066547  46.0994872  19.8493677  47.0637259  47.3736732
  19.9135003  47.9252090  46.9614129  19.7860797  46.4511260  46.6409090
  19.3245949  49.1360391  51.0209766  19.9517988  48.7537469  51.6347290
  18.4673868  48.9174593  51.3865458  29.7240058  59.5423367  52.6263501
  30.2679962  60.1553325  52.1318456  29.1426903  60.1002945  53.1430514
  16.1011492  50.9436820  36.9528121  16.3964933  50.0347499  36.8995174
  15.1999528  50.9224560  36.6309123  28.0097571  62.6644085  43.7578529
  27.8848710  61.8633824  43.2489475  28.6676662  63.1590278  43.2692499
  19.6305739  49.0192817  42.9355669  18.9092325  49.6328785  42.7963143
  20.4198995  49.5550582  42.8572315  30.0732479  60.4653105  45.3858079
  29.1262815  60.3458456  45.3136406  30.4215252  59.5775603  45.4684341
  22.4332052  46.3547244  49.2096321  22.9566454  46.6009540  49.9722630
  22.2144386  47.1867278  48.7899458  17.8299334  48.6250918  37.0767446
  17.5012040  47.7448297  36.8942552  18.1838704  48.5698587  37.9643835
  27.0778912  60.2605821  41.5862431  26.9303875  59.3322528  41.7670001
  27.9032406  60.2825912  41.1019507  20.9441157  48.9123888  37.4442924
  21.2837229  49.4409809  36.7221532  21.3913277  49.2504294  38.2201490
  30.6813034  61.0834380  42.6727304  31.6059582  60.8777241  42.5351755
  30.5128338  60.8350781  43.5816646  23.6384598  47.2960939  46.8945992
  23.2981418  46.4968752  47.2966671  22.9323604  47.5962650  46.3222825
  24.2901069  44.3810251  45.3473315  25.1127139  43.9070729  45.2252205
  24.5339133  45.1600735  45.8472001  22.9309304  47.4098510  35.6436216
  23.6517666  47.7879762  35.1399933  22.3074608  48.1287386  35.7471194
  27.0740427  48.1143659  36.5794549  27.2904041  48.9968296  36.2783377
  26.5934494  47.7229872  35.8500191  21.8139648  51.0729372  43.1565293
  21.6684229  51.3869675  44.0489575  21.3364852  51.6914272  42.6036192
  23.6736031  48.0631920  43.2046183  23.6597600  47.1673013  42.8678481
  24.3908459  48.0702583  43.8384469  25.5262162  48.4969260  45.2499310
  25.2679940  49.4186331  45.2483641  24.9947202  48.0999694  45.9399774
  30.4708350  61.6020047  38.0289396  30.6445228  61.0366470  37.2763248
  30.9637242  62.4020942  37.8468886  16.2885310  53.6134716  46.0952954
  15.7438778  54.3894524  46.2273229  17.1664660  53.9605521  45.9372076
  23.0772927  46.9446300  38.4733753  23.1988838  46.0162946  38.6724640
  22.7874969  46.9584986  37.5612068  25.9464117  44.6301210  41.6100473
  25.9685814  44.6940544  40.6552452  26.3632176  43.7905719  41.8040979
  36.3247742  54.3656470  39.6479695  36.7678888  53.6163795  39.2498819
  35.4474252  54.3566606  39.2653427  31.4583523  60.9186811  35.1286294
  32.1534428  61.5393504  35.3473609  31.8006673  60.0682163  35.4038672
  17.0751332  52.7404612  48.9883111  16.3333068  52.8887248  49.5747742
  16.7544076  53.0012878  48.1249861  33.3574946  58.3686517  36.6573625
  33.8826270  58.7073790  35.9322945  33.2697299  57.4333532  36.4736759
  25.0194995  62.2820591  48.7863501  25.3282121  62.0369737  49.6586201
  25.8170477  62.4867229  48.2982372  25.0415607  64.4358500  41.0168878
  24.6020597  63.9434879  41.7101735  25.7923724  63.8931468  40.7760953
  17.5207946  60.6270041  41.0193506  18.3465966  60.3273813  40.6392149
  17.1701998  59.8577664  41.4683295  22.4889479  59.9796509  43.0891180
  21.8669488  59.3167214  42.7893407  23.1594346  60.0057641  42.4064827
  15.7216551  58.5456368  41.9782440  14.8848459  58.1178542  41.7966441
  15.6940196  58.7388811  42.9153231  22.5614006  48.4578297  52.6823686
  22.6102162  49.3340420  52.3001455  23.1036521  47.9155690  52.1095329
  33.0468852  59.0019421  51.9624823  32.2564396  58.9843559  51.4229322
  32.8102207  59.5407714  52.7173859  33.1666727  55.8511887  49.2757551
  33.2164732  55.6861894  50.2173074  33.0580651  54.9839146  48.8855432
  22.0502986  58.5300433  36.5649640  22.1991106  59.2135897  35.9116313
  22.8569429  58.5105523  37.0799096  30.4570490  51.8342815  50.5916858
  31.3580352  51.6949280  50.3000856  30.5318464  51.9997270  51.5315035
  24.7913295  49.2109670  49.4370044  23.9216604  49.5043236  49.1652633
  25.0272775  49.7950115  50.1577308  34.6684924  58.2708829  49.5199573
  34.3769732  58.6338809  50.3563034  34.0557055  57.5575837  49.3412905
  35.8680606  55.8361708  42.0402143  36.7027498  56.2751512  42.2039703
  36.0039735  55.3600362  41.2210389  32.9172112  53.3941443  47.9879631
  33.3926234  53.5869089  47.1798482  31.9937678  53.4500629  47.7423014
  19.8055619  54.5565610  37.5710709  19.5601661  53.6527940  37.7690919
  19.9751533  54.5582761  36.6290187  27.4952329  45.4289287  46.9535465
  28.0134273  46.1650314  46.6281953  27.1407462  45.7353280  47.7882224
  19.0751266  50.2893968  35.0696870  18.3820511  50.3638323  34.4136906
  18.8303018  49.5254312  35.5918387  27.7464923  41.8489569  42.4736361
  28.0266677  41.1812758  43.0996788  28.5315530  42.0418665  41.9611025
  25.5498391  61.0248563  34.0361387  24.9772358  61.6438750  33.5831859
  26.1231185  61.5747925  34.5701309  31.6173781  50.2707203  46.2207936
  32.5691204  50.3705301  46.2420160  31.4477232  49.4785472  46.7306021
  29.6388161  47.3562786  46.4067337  29.0438093  47.6367799  45.7113826
  29.3537857  47.8456687  47.1784078  28.7695651  61.3085713  35.1669970
  29.7026324  61.2431275  35.3702845  28.6818864  62.1441980  34.7084502
  31.3983668  60.6251584  32.1273917  31.3197299  60.2911447  33.0209675
  32.2193335  61.1173352  32.1265390  34.0961859  53.4913323  45.3350236
  34.0638179  52.5529324  45.5209920  34.7062483  53.5697360  44.6016061
  25.9345190  52.3609376  31.3777440  26.8804295  52.2315584  31.4465858
  25.5559435  51.6224038  31.8546868  34.2456348  50.2824366  45.3808519
  33.7295396  49.4982823  45.1938448  35.1296296  49.9543083  45.5455039
  31.9067074  44.0265382  41.3404332  31.7091896  43.7180470  42.2247664
  32.5166780  44.7527021  41.4702262  39.9138409  54.5529330  44.4756273
  40.6441797  54.2914618  45.0363976  39.3045354  53.8158052  44.5158341
  37.9953706  52.6937192  45.0730724  37.2686870  52.5593157  44.4647216
  37.5800993  53.0014021  45.8787442  25.8183882  56.4127122  52.8378097
  26.7386892  56.5905721  53.0318143  25.7833465  55.4683167  52.6857796
  24.1188107  50.2859352  31.3132325  23.2119562  49.9892465  31.3895039
  24.3964088  49.9889170  30.4466611  15.0366047  51.6065716  41.7631372
  14.7168832  50.7531024  41.4705746  14.4899476  51.8214294  42.5189339
  18.8145955  54.3228157  45.4800878  19.0331965  55.2545264  45.4988912
  19.2271729  53.9636131  46.2655682  25.7350173  44.8296242  37.4676566
  24.9250901  44.4843327  37.8431813  26.4234590  44.5203786  38.0564178
  27.6640721  43.9074289  39.0900863  28.2171760  44.3269742  39.7490886
  27.9010807  42.9810037  39.1323819  23.6873820  49.8961362  54.8703627
  23.5870547  50.8455719  54.8015718  23.4695362  49.5679601  53.9979697
  22.8886892  47.1446288  31.4544304  23.7506056  47.4701186  31.7140122
  23.0737236  46.3577783  30.9417370  14.9054307  55.2268627  43.7324493
  14.2117779  54.8122580  43.2194448  15.6527298  55.2689164  43.1357912
  31.0419528  46.0174814  38.5979527  30.4618197  46.6759618  38.2157580
  30.7755461  45.1952159  38.1866945  29.4923095  45.4179872  40.8000848
  29.9922873  45.5296406  39.9915167  30.1358702  45.1140925  41.4401656
  23.5505090  53.3258501  53.6868689  23.0672172  54.1258861  53.8932578
  23.6366029  53.3366446  52.7336133  16.8191050  55.1586881  41.6090508
  16.7961738  55.2574568  40.6572391  17.1291686  56.0052032  41.9307674
  19.4778428  57.2163036  45.7237122  20.4321681  57.1846978  45.6567054
  19.2790951  56.7553660  46.5387348  20.0677810  55.7864152  48.2907920
  20.8870699  56.2808231  48.3142757  20.3414618  54.8696120  48.2625488
  29.8244406  48.1774904  37.6535876  28.9370261  48.4624555  37.4356070
  30.2398395  48.0168668  36.8063153  33.1758942  48.2021425  41.3690215
  33.9519332  48.6917878  41.6414832  32.4507076  48.6279480  41.8262084
  35.6131501  48.9149045  42.4264156  36.2075992  48.6744781  41.7157464
  35.6858085  48.1956175  43.0537692  17.8328657  62.7582655  42.7407320
  17.6983125  61.9983056  42.1745318  17.4160719  63.4823555  42.2736109
  28.9687620  57.9419579  31.7483896  29.6723470  58.1469582  32.3641551
  28.2450268  58.5096341  32.0132979  29.7985430  53.6929440  37.8686166
  29.7420631  54.1497992  37.0293798  30.3513772  52.9320125  37.6909009
  33.6090236  49.4819172  38.6936285  33.3527170  49.0815808  39.5244493
  32.9843104  50.1962966  38.5686424  37.9202574  52.2215245  41.2007577
  37.3602132  52.2908435  41.9739139  37.3146077  52.0456230  40.4807073
  20.9897783  63.6551973  42.9525763  20.8730167  64.5997405  42.8504453
  20.1690229  63.3525534  43.3411562  30.8774317  58.3802108  33.7982356
  31.7119921  57.9483307  33.6159830  30.7158660  58.2084122  34.7259250
  30.5320209  54.8834222  35.1638695  30.4769013  54.7178493  34.2227139
  29.9066264  55.5910254  35.3200885  15.3212724  50.1202286  48.9900117
  15.9671588  49.6101240  49.4787342  15.1129875  50.8570968  49.5643542
  27.8466116  57.1883133  54.4892258  28.7157276  57.3623786  54.1278893
  27.3672868  58.0077550  54.3667987  23.8416335  44.3842331  34.7424013
  23.8295005  45.3284170  34.8992284  24.7339757  44.2012476  34.4483475
  22.0152297  64.3080234  46.1681691  22.9179543  64.3403845  46.4848186
  21.7889667  63.3780685  46.1828027  23.7705899  63.0611221  42.8291770
  22.8201530  63.0613083  42.7156142  24.0738385  62.3143956  42.3127805
  27.6568454  40.9785107  38.9969950  26.8900850  40.4243594  39.1426633
  28.0679159  41.0506976  39.8584102  19.6610215  47.2669903  53.0875131
  20.5241677  46.9106708  53.2978456  19.0875626  46.9283798  53.7750536
  39.5058592  68.8971759  43.8937532  40.1437002  68.7778507  43.1900873
  39.3879435  69.8452603  43.9525485  36.3148298  68.8499187  43.8299057
  35.9766810  68.7340252  42.9419592  37.1838067  68.4490353  43.8100063
  32.1735114  70.7034664  39.8195948  31.6099979  70.6124601  39.0512236
  32.0587509  69.8834568  40.2998441  36.7968081  70.0034039  49.7885263
  36.7856722  69.6086837  48.9165766  36.9588721  69.2700112  50.3819034
  29.7199546  72.1985855  42.6580169  30.5120838  71.8576680  42.2426468
  29.9596196  72.3080830  43.5782322  37.7534673  74.3705632  35.1310413
  37.1022653  74.9559712  34.7444427  38.5479036  74.9011826  35.1905450
  31.6790300  71.4594769  35.5297547  32.4521176  70.9123756  35.3910423
  32.0315699  72.3239018  35.7412009  33.5175343  72.7871151  48.7364447
  33.2265209  73.6916782  48.6211113  34.1532327  72.8287679  49.4508516
  34.4431549  70.1647999  45.3265806  35.0395122  69.9404022  44.6122769
  34.5006521  69.4232745  45.9291254  34.0156578  67.6187435  33.1615997
  34.2682098  67.0968956  32.3999460  33.0781137  67.4553580  33.2642681
  39.0599861  66.6223213  40.9690740  39.8462950  66.2042636  40.6181157
  39.3238565  67.5269305  41.1372389  39.2309938  72.0596063  35.6679397
  38.5955771  72.1330690  36.3800302  38.9007344  72.6489662  34.9898477
  44.4608288  66.5598446  41.8723719  45.1933460  65.9897663  42.1061548
  43.7047643  66.1720047  42.3130225  33.7352867  69.5215541  35.3640372
  33.6189125  68.8460444  36.0321457  33.8455126  69.0347915  34.5472525
  36.0784407  68.9825688  39.0687061  35.7142615  68.4556309  39.7799983
  36.9351523  68.5924157  38.8953547  41.9833708  60.2720020  46.3318328
  41.6517033  61.1415431  46.1079543  41.3879321  59.9556304  47.0112358
  35.7189894  64.0115588  34.0648410  35.8864297  64.8795824  34.4318881
  35.5287064  64.1742869  33.1409699  38.4765228  72.4732566  45.7314240
  38.1765951  73.3757605  45.6230048  38.1316287  72.2064750  46.5835393
  31.9277709  68.9246363  41.7650945  31.0028206  68.7922577  41.9728637
  32.1762122  69.7040583  42.2620887  41.8762371  64.9915107  43.4111678
  40.9679249  64.9230515  43.1170439  41.8249967  65.4687052  44.2393503
  35.6979115  66.4673245  35.0495077  35.5778741  66.9130296  35.8880557
  35.0031704  66.8158563  34.4908615  29.2886520  68.5679637  42.5994734
  29.4178901  68.8214116  43.5134146  28.6083971  69.1607345  42.2799389
  33.4586007  79.2376887  38.6985208  33.3810037  80.1884712  38.7773689
  32.8547651  78.8922759  39.3560134  35.9503237  66.4104752  51.3546575
  35.1736571  66.9698672  51.3449440  36.5893800  66.8961535  51.8761445
  43.7424018  63.1931545  45.1889552  43.0998398  63.4864078  44.5429346
  43.2378946  63.0784465  45.9942748  41.3964181  66.9394718  35.8775411
  42.3082038  67.1722105  35.7023108  40.8873829  67.5231762  35.3150489
  34.2049610  69.2190206  50.9164542  34.9464294  69.7575250  50.6399366
  33.4986595  69.8456494  51.0736094  39.6804949  71.3619346  49.5136703
  40.0888305  70.9201757  48.7691336  38.9582211  70.7871974  49.7670896
  36.0336019  66.2991953  46.8870260  36.8797214  66.7231366  47.0304909
  35.9734657  65.6425577  47.5808823  40.0033764  71.9220537  43.2688992
  39.3742626  72.0866251  42.5665060  39.6159426  72.3362146  44.0399956
  43.8822996  72.8574975  40.6233356  43.1974034  73.2373876  40.0730389
  43.9666845  73.4670301  41.3565304  39.1835465  63.9596321  48.5451434
  38.9396396  64.7138382  48.0085710  39.4595395  64.3381669  49.3798681
  41.1373927  70.5034934  47.2228700  41.3490823  71.1466693  46.5463081
  41.0903676  69.6697250  46.7550630  38.7400156  63.1152754  44.1265272
  37.8784635  63.4134008  44.4182009  38.7662591  63.3323153  43.1946304
  35.5561726  71.6594945  40.5339077  36.0200071  71.9382648  39.7443700
  35.2918524  70.7578389  40.3512168  32.4485807  71.2066426  43.4718841
  33.0187164  71.6353695  42.8336325  33.0393919  70.9249011  44.1703026
  34.4930612  67.7818097  37.3428643  35.1954655  68.2339141  37.8102569
  34.1611240  67.1401916  37.9708536  32.9410973  66.3729854  51.7179852
  32.3109634  67.0546135  51.9515249  32.8347061  66.2612935  50.7732990
  28.2355946  66.0401650  42.6445776  27.4455000  66.2959178  42.1685887
  28.7267193  66.8549988  42.7497817  42.2519755  73.3806889  45.3951057
  43.0737199  72.9787076  45.1133739  42.2482158  73.2775123  46.3467173
  30.1870691  66.4046229  39.6029253  29.3901854  66.5164923  40.1212748
  29.9596283  66.7432881  38.7370143  36.0176359  72.9290932  47.5511767
  36.0820791  73.3911340  48.3869939  35.3087283  72.2988297  47.6794077
  26.5193649  66.2932140  45.0760767  26.7701687  67.1779150  45.3418343
  27.0553197  66.1136742  44.3035859  35.7324376  74.5959040  37.4190748
  35.5970051  75.4410576  37.8475596  36.2734189  74.7978317  36.6556682
  32.2191716  60.6750620  54.0805103  31.8258662  60.1216818  54.7552747
  33.0357856  60.9861198  54.4711620  29.1853774  72.1134478  37.9918673
  29.6978294  72.9077728  38.1424238  29.8376487  71.4160768  37.9252274
  30.9948658  75.2300234  40.0741426  31.1715287  76.1518199  39.8862410
  31.7905492  74.9158653  40.5035806  35.1359677  62.0908499  51.6725360
  35.8769390  62.6915652  51.5929822  35.3677600  61.3486137  51.1143402
  30.2801015  67.2764866  49.9503589  30.1654530  66.3750123  50.2510688
  29.4245533  67.5228563  49.5988406  37.3592853  75.2182606  51.5491090
  36.9156707  74.4318985  51.2311994  38.0210066  75.4061757  50.8834981
  32.1179974  76.7478408  46.0751768  32.6687399  76.6195471  45.3028762
  31.2791450  77.0473297  45.7246661  39.4574091  75.4985406  49.5772491
  39.4392566  76.3194287  49.0852760  40.3794011  75.3739481  49.8022632
  35.9147145  73.0129536  50.4195999  36.4475482  72.2517824  50.1895307
  35.3861226  72.7203188  51.1620154  39.0816840  58.1189602  45.9489641
  38.7381109  59.0091243  45.8728752  39.4495803  57.9291259  45.0859226
  27.1502691  70.4423132  38.7678243  27.9877913  70.8520140  38.5511951
  27.3280958  69.5022574  38.7378437  39.0467123  68.1098213  34.4562076
  38.5313746  68.8802817  34.6950464  38.7744431  67.4363349  35.0795138
  36.6314234  62.9547914  39.5147315  35.7755830  62.5654764  39.3352953
  37.0441185  63.0339874  38.6547100  38.1613380  60.4894257  43.9138874
  37.6578176  60.4524392  43.1006680  38.4543987  61.3987000  43.9735531
  34.4056266  60.5732987  42.9205056  35.2709263  60.3775795  42.5610946
  34.4733775  60.3443338  43.8474413  44.0201397  70.8630567  36.3915250
  43.2430840  70.5241727  35.9470412  44.6992878  70.8683191  35.7170215
  38.8353426  65.9825305  36.2821857  38.5303561  66.2971454  37.1332001
  39.7883868  66.0606725  36.3249190  37.2799858  72.1415528  37.9314811
  36.7521219  71.4068288  37.6188049  36.7787360  72.9190205  37.6854780
  42.2592704  70.3364549  43.0481858  41.6016378  71.0263810  43.1361986
  43.0633103  70.7260981  43.3915844  32.0118585  62.8035194  40.2921423
  32.5862337  62.5810376  39.5594616  32.5989568  62.8723889  41.0450024
  41.0698162  68.6908921  41.0985800  41.5830044  69.3238913  41.6007509
  41.7199386  68.0910117  40.7329160  32.3388172  64.8339655  34.3117308
  31.5025485  65.1714342  34.6326583  32.1992942  64.6988635  33.3744445
  34.3141253  59.6776443  39.0196492  33.6605665  59.3625461  38.3953107
  34.2721727  59.0552184  39.7456315  35.4252458  69.9595738  30.9349784
  34.5179520  69.7284992  31.1340933  35.9223490  69.1633358  31.1223766
  38.3320537  78.6693246  33.8546471  37.6582235  78.9724942  34.4631428
  38.7186359  79.4722326  33.5051928  37.5478993  66.1658377  43.3444140
  36.6301555  66.3873324  43.1865828  37.9639137  66.2404687  42.4855847
  38.3314041  67.5649793  38.4746820  39.0785860  68.0771190  38.1653942
  38.6005631  67.2433845  39.3351214  36.6040691  70.0608333  35.4573775
  35.6951911  69.7767366  35.5546244  36.6335775  70.4807412  34.5977081
  41.8359959  73.6714923  39.2264942  41.3822286  72.8305833  39.2830133
  41.2053925  74.3076321  39.5639722  40.7792878  64.6006909  40.4565610
  40.0415635  64.0884295  40.7875852  41.0319652  64.1607290  39.6448886
  40.2792898  75.5091420  40.1614760  40.5715872  76.0696477  39.4427126
  40.7891519  75.8019980  40.9167919  40.8804506  57.3783161  41.0507379
  41.1863382  56.5180524  40.7633294  41.6057110  57.9700781  40.8506373
  27.1728862  67.7813847  39.4388977  26.9753261  67.1883208  38.7140043
  26.6175526  67.4766058  40.1564916  35.1525585  67.6736954  41.5583570
  35.2074195  66.7210790  41.4826047  34.3416787  67.8296393  42.0424868
  36.3016779  71.6017077  32.7961853  35.8636209  70.8852936  32.3367491
  37.0427220  71.8293192  32.2346945  33.0917945  66.2914014  39.3173949
  32.2785811  66.5908184  39.7239141  33.5876939  65.8969702  40.0348431
  35.2426523  76.2871771  41.2508214  35.2002702  76.5132617  40.3216746
  36.1589222  76.0535145  41.3994015  38.6892157  66.7555838  48.1488843
  39.0441545  66.9827311  49.0083308  39.3364288  67.0874215  47.5266098
  44.4189894  69.8774274  38.8538172  44.2807792  70.0675870  37.9259361
  44.0626113  70.6393657  39.3106223  32.5832020  63.8632369  44.9335184
  33.2231399  63.7221128  44.2358147  31.7509551  63.5766883  44.5573786
  44.4459273  71.9450801  43.8649443  44.8795780  71.8526090  44.7132497
  45.1590854  71.9208301  43.2269459  33.3592324  73.1634800  41.0470176
  34.1532922  72.6685120  40.8452751  32.6484016  72.6352663  40.6837882
  38.1787168  75.5452895  45.3982544  38.2324191  76.1143831  46.1660260
  37.3101950  75.7154780  45.0336581  29.6675087  67.3077881  37.1229929
  28.7372675  67.2462337  37.3399891  29.7632559  66.7853834  36.3266570
  29.5860636  63.8332694  39.7108171  29.8467454  64.7478027  39.6017331
  30.4077809  63.3657137  39.8604783  31.0585562  65.2470451  46.8806995
  31.7308615  65.0387813  46.2319644  30.2315348  65.0492537  46.4412227
  45.3074823  71.9874502  46.3982329  45.5010713  72.8920312  46.6441604
  45.2075441  71.5281921  47.2320914  36.9611134  61.8732392  48.8972656
  36.3139049  62.5722342  48.8037132  37.7312149  62.3068536  49.2648904
  40.3689932  72.1381244  51.9723209  40.2175438  71.9091796  51.0553293
  40.3594611  73.0951846  51.9854554  37.1375268  69.7113157  46.9569476
  38.0667328  69.8624317  46.7838443  36.7166298  69.7997178  46.1018122
  35.9363600  73.7363822  44.7268013  35.7974686  73.3682606  45.5993951
  35.1478196  74.2511461  44.5551971  36.5311752  78.8372918  36.0693550
  36.7063508  78.3660961  36.8839173  35.8444540  79.4638684  36.2974811
  37.4868815  73.1145424  42.1156851  37.1518648  73.0746194  43.0114501
  36.9872761  72.4490140  41.6427261  31.4613059  68.5213054  47.6409432
  31.3232857  67.7893293  48.2420971  32.3717982  68.4321954  47.3593620
  40.4228007  70.4601459  32.3893911  39.8057177  69.7348287  32.2926963
  39.9544495  71.2210819  32.0460985  34.0895360  68.2333014  47.1293112
  34.7994978  67.5926206  47.0879730  34.0464668  68.4845908  48.0519293
  42.0782138  75.1700367  50.0499691  42.0194685  74.4859587  49.3830274
  42.4801657  75.9119357  49.5980317  32.8024294  65.2198232  48.9488751
  32.2661651  64.7688970  49.6010348  32.2141002  65.3544140  48.2059216
  31.0972837  81.9862281  42.8433410  31.3369435  82.6180805  43.5212429
  30.2542034  81.6350321  43.1298769  32.2126553  64.6786883  31.5115215
  31.3356019  64.5575684  31.1477462  32.6884306  63.8872961  31.2594104
  42.0799546  73.1339951  48.2813671  41.1926324  72.7965873  48.4040070
  42.6498097  72.4022982  48.5182436  23.7328693  69.4664043  41.6056722
  24.4199733  69.1525773  41.0177737  23.5776821  70.3705407  41.3323974
  28.5363415  64.3554239  46.0341746  28.4521604  63.7479909  45.2992156
  27.7146121  64.8463258  46.0351242  35.6100699  77.7941403  45.2474914
  35.5370870  78.5996375  45.7594219  35.1678092  77.9933369  44.4222935
  35.3990479  77.0313173  38.7577736  34.6158001  77.5734853  38.8515960
  36.0983224  77.5487153  39.1571977  38.7087129  62.8407803  41.4011941
  39.2055828  62.0877765  41.0813011  37.9374110  62.8772119  40.8355150
  46.5616886  68.5448168  43.0430232  46.5506762  69.4272884  42.6724166
  45.6934266  68.1919719  42.8484769  38.0699383  77.6928237  47.4033073
  38.7827355  78.3275702  47.3308974  37.5789411  77.7892103  46.5873074
  39.7916909  71.5979490  38.9750364  38.8573188  71.7180952  38.8055069
  39.9693578  70.6951957  38.7110374  35.2922098  64.9825186  41.1283626
  34.9219885  64.4296226  41.8164531  35.7881190  64.3783319  40.5758626
  43.1789461  67.4396809  39.5100398  43.6449913  68.2724801  39.4360701
  43.6296961  66.9741791  40.2145657  33.1211296  75.4422681  48.2238643
  33.8220756  76.0759164  48.3768038  32.6506411  75.7837412  47.4634283
  41.2465692  73.7840631  36.5086551  41.5225536  73.6697225  37.4180425
  40.3770191  73.3858115  36.4698724  41.1506124  59.8077396  43.5491300
  40.2369203  60.0381623  43.7173507  41.5799225  59.8915840  44.4005332
  40.9212582  67.9967288  46.0491194  40.2684032  68.2443196  45.3943647
  41.2992962  67.1831426  45.7153671  37.8819756  78.0326981  40.1519364
  38.0642150  77.2148637  40.6147116  38.7052742  78.2494674  39.7144254
  38.2161921  76.9595167  37.4134413  38.7449688  76.4487621  36.8004575
  38.4790141  76.6437697  38.2779946  36.9700155  68.7387099  52.5357231
  36.2940792  68.6381229  53.2059606  37.7927789  68.5826313  52.9993228
  28.7179014  74.9759036  45.1569746  29.3032451  74.2302724  45.2897650
  28.5203853  75.2862993  46.0406410  31.5717669  78.0110283  40.1732189
  30.9028045  78.4956411  39.6896229  31.4330539  78.2579504  41.0875567
  23.3096669  67.5464636  43.8774189  23.3480768  67.0128227  44.6711307
  22.8036962  67.0199842  43.2585166  35.7122938  80.0454027  46.7714847
  36.2641246  80.2085648  47.5363932  36.0529131  80.6358465  46.0994872
  30.6887431  62.3929177  47.3736732  30.7528758  63.2544007  46.9614129
  30.6254551  61.7803178  46.6409090  30.1639704  64.4652309  51.0209766
  30.7911743  64.0829386  51.6347290  29.3067623  64.2466511  51.3865458
  40.5633812  74.8715284  52.6263501  41.1073716  75.4845243  52.1318456
  39.9820657  75.4294863  53.1430514  26.9405246  66.2728738  36.9528121
  27.2358688  65.3639417  36.8995174  26.0393282  66.2516478  36.6309123
  38.8491325  77.9936002  43.7578529  38.7242465  77.1925742  43.2489475
  39.5070416  78.4882196  43.2692499  30.4699493  64.3484735  42.9355669
  29.7486079  64.9620702  42.7963143  31.2592749  64.8842500  42.8572315
  40.9126234  75.7945022  45.3858079  39.9656569  75.6750374  45.3136406
  41.2609007  74.9067520  45.4684341  33.2725807  61.6839161  49.2096321
  33.7960209  61.9301458  49.9722630  33.0538140  62.5159196  48.7899458
  28.6693088  63.9542836  37.0767446  28.3405794  63.0740215  36.8942552
  29.0232459  63.8990505  37.9643835  37.9172667  75.5897739  41.5862431
  37.7697629  74.6614446  41.7670001  38.7426160  75.6117829  41.1019507
  31.7834911  64.2415806  37.4442924  32.1230984  64.7701727  36.7221532
  32.2307032  64.5796212  38.2201490  41.5206789  76.4126297  42.6727304
  42.4453336  76.2069159  42.5351755  41.3522092  76.1642698  43.5816646
  34.4778352  62.6252856  46.8945992  34.1375172  61.8260669  47.2966671
  33.7717358  62.9254567  46.3222825  35.1294824  59.7102169  45.3473315
  35.9520893  59.2362647  45.2252205  35.3732887  60.4892653  45.8472001
  33.7703058  62.7390427  35.6436216  34.4911421  63.1171680  35.1399933
  33.1468362  63.4579304  35.7471194  37.9134181  63.4435576  36.5794549
  38.1297796  64.3260214  36.2783377  37.4328248  63.0521790  35.8500191
  32.6533403  66.4021289  43.1565293  32.5077983  66.7161592  44.0489575
  32.1758606  67.0206190  42.6036192  34.5129785  63.3923837  43.2046183
  34.4991354  62.4964931  42.8678481  35.2302214  63.3994501  43.8384469
  36.3655916  63.8261178  45.2499310  36.1073694  64.7478248  45.2483641
  35.8340957  63.4291612  45.9399774  41.3102105  76.9311965  38.0289396
  41.4838982  76.3658387  37.2763248  41.8030996  77.7312860  37.8468886
  27.1279065  68.9426634  46.0952954  26.5832533  69.7186442  46.2273229
  28.0058415  69.2897438  45.9372076  33.9166681  62.2738218  38.4733753
  34.0382593  61.3454864  38.6724640  33.6268724  62.2876904  37.5612068
  36.7857872  59.9593128  41.6100473  36.8079569  60.0232461  40.6552452
  37.2025931  59.1197637  41.8040979  47.1641496  69.6948388  39.6479695
  47.6072642  68.9455713  39.2498819  46.2868006  69.6858524  39.2653427
  42.2977277  76.2478729  35.1286294  42.9928182  76.8685422  35.3473609
  42.6400428  75.3974080  35.4038672  27.9145087  68.0696530  48.9883111
  27.1726823  68.2179165  49.5747742  27.5937831  68.3304796  48.1249861
  44.1968701  73.6978435  36.6573625  44.7220025  74.0365707  35.9322945
  44.1091053  72.7625450  36.4736759  35.8588749  77.6112508  48.7863501
  36.1675876  77.3661655  49.6586201  36.6564231  77.8159147  48.2982372
  35.8809361  79.7650418  41.0168878  35.4414352  79.2726797  41.7101735
  36.6317478  79.2223386  40.7760953  28.3601700  75.9561959  41.0193506
  29.1859720  75.6565731  40.6392149  28.0095752  75.1869581  41.4683295
  33.3283233  75.3088427  43.0891180  32.7063243  74.6459132  42.7893407
  33.9988100  75.3349559  42.4064827  26.5610305  73.8748285  41.9782440
  25.7242214  73.4470460  41.7966441  26.5333951  74.0680729  42.9153231
  33.4007761  63.7870215  52.6823686  33.4495916  64.6632338  52.3001455
  33.9430275  63.2447608  52.1095329  43.8862607  74.3311338  51.9624823
  43.0958150  74.3135477  51.4229322  43.6495961  74.8699632  52.7173859
  44.0060482  71.1803805  49.2757551  44.0558487  71.0153812  50.2173074
  43.8974405  70.3131064  48.8855432  32.8896740  73.8592350  36.5649640
  33.0384861  74.5427815  35.9116313  33.6963184  73.8397440  37.0799096
  41.2964244  67.1634733  50.5916858  42.1974107  67.0241198  50.3000856
  41.3712219  67.3289188  51.5315035  35.6307049  64.5401587  49.4370044
  34.7610359  64.8335154  49.1652633  35.8666530  65.1242032  50.1577308
  45.5078679  73.6000746  49.5199573  45.2163487  73.9630727  50.3563034
  44.8950810  72.8867754  49.3412905  46.7074361  71.1653626  42.0402143
  47.5421252  71.6043430  42.2039703  46.8433490  70.6892279  41.2210389
  43.7565867  68.7233361  47.9879631  44.2319988  68.9161007  47.1798482
  42.8331432  68.7792547  47.7423014  30.6449373  69.8857528  37.5710709
  30.3995415  68.9819858  37.7690919  30.8145288  69.8874678  36.6290187
  38.3346083  60.7581204  46.9535465  38.8528027  61.4942231  46.6281953
  37.9801216  61.0645198  47.7882224  29.9145021  65.6185886  35.0696870
  29.2214266  65.6930241  34.4136906  29.6696773  64.8546229  35.5918387
  38.5858677  57.1781487  42.4736361  38.8660431  56.5104676  43.0996788
  39.3709284  57.3710583  41.9611025  36.3892146  76.3540481  34.0361387
  35.8166113  76.9730668  33.5831859  36.9624940  76.9039843  34.5701309
  42.4567536  65.5999121  46.2207936  43.4084959  65.6997219  46.2420160
  42.2870986  64.8077389  46.7306021  40.4781915  62.6854704  46.4067337
  39.8831847  62.9659717  45.7113826  40.1931612  63.1748605  47.1784078
  39.6089406  76.6377631  35.1669970  40.5420079  76.5723193  35.3702845
  39.5212619  77.4733898  34.7084502  42.2377422  75.9543501  32.1273917
  42.1591054  75.6203365  33.0209675  43.0587089  76.4465269  32.1265390
  44.9355614  68.8205241  45.3350236  44.9031934  67.8821241  45.5209920
  45.5456237  68.8989277  44.6016061  36.7738944  67.6901294  31.3777440
  37.7198049  67.5607502  31.4465858  36.3953189  66.9515955  31.8546868
  45.0850102  65.6116284  45.3808519  44.5689151  64.8274741  45.1938448
  45.9690051  65.2835001  45.5455039  42.7460829  59.3557300  41.3404332
  42.5485650  59.0472388  42.2247664  43.3560535  60.0818939  41.4702262
  50.7532163  69.8821247  44.4756273  51.4835552  69.6206536  45.0363976
  50.1439109  69.1449969  44.5158341  48.8347461  68.0229110  45.0730724
  48.1080624  67.8885075  44.4647216  48.4194747  68.3305939  45.8787442
  36.6577637  71.7419040  52.8378097  37.5780646  71.9197639  53.0318143
  36.6227220  70.7975085  52.6857796  34.9581862  65.6151270  31.3132325
  34.0513317  65.3184383  31.3895039  35.2357843  65.3181088  30.4466611
  25.8759802  66.9357633  41.7631372  25.5562586  66.0822942  41.4705746
  25.3293230  67.1506212  42.5189339  29.6539709  69.6520074  45.4800878
  29.8725719  70.5837182  45.4988912  30.0665483  69.2928049  46.2655682
  36.5743927  60.1588160  37.4676566  35.7644656  59.8135245  37.8431813
  37.2628344  59.8495703  38.0564178  38.5034476  59.2366206  39.0900863
  39.0565514  59.6561660  39.7490886  38.7404562  58.3101955  39.1323819
  34.5267575  65.2253280  54.8703627  34.4264302  66.1747637  54.8015718
  34.3089117  64.8971519  53.9979697  33.7280646  62.4738205  31.4544304
  34.5899810  62.7993103  31.7140122  33.9130990  61.6869701  30.9417370
  25.7448062  70.5560545  43.7324493  25.0511533  70.1414498  43.2194448
  26.4921053  70.5981081  43.1357912  41.8813283  61.3466732  38.5979527
  41.3011952  62.0051536  38.2157580  41.6149215  60.5244076  38.1866945
  40.3316849  60.7471789  40.8000848  40.8316627  60.8588324  39.9915167
  40.9752457  60.4432842  41.4401656  34.3898845  68.6550419  53.6868689
  33.9065927  69.4550779  53.8932578  34.4759784  68.6658364  52.7336133
  27.6584804  70.4878799  41.6090508  27.6355493  70.5866486  40.6572391
  27.9685441  71.3343949  41.9307674  30.3172182  72.5454954  45.7237122
  31.2715436  72.5138896  45.6567054  30.1184706  72.0845577  46.5387348
  30.9071564  71.1156070  48.2907920  31.7264453  71.6100148  48.3142757
  31.1808372  70.1988038  48.2625488  40.6638161  63.5066822  37.6535876
  39.7764016  63.7916473  37.4356070  41.0792150  63.3460585  36.8063153
  44.0152697  63.5313343  41.3690215  44.7913087  64.0209795  41.6414832
  43.2900831  63.9571397  41.8262084  46.4525255  64.2440962  42.4264156
  47.0469746  64.0036698  41.7157464  46.5251839  63.5248093  43.0537692
  28.6722411  78.0874573  42.7407320  28.5376879  77.3274974  42.1745318
  28.2554473  78.8115473  42.2736109  39.8081374  73.2711497  31.7483896
  40.5117224  73.4761499  32.3641551  39.0844023  73.8388259  32.0132979
  40.6379184  69.0221358  37.8686166  40.5814386  69.4789909  37.0293798
  41.1907527  68.2612043  37.6909009  44.4483990  64.8111090  38.6936285
  44.1920925  64.4107725  39.5244493  43.8236858  65.5254884  38.5686424
  48.7596328  67.5507163  41.2007577  48.1995886  67.6200352  41.9739139
  48.1539832  67.3748148  40.4807073  31.8291537  78.9843890  42.9525763
  31.7123921  79.9289323  42.8504453  31.0083983  78.6817452  43.3411562
  41.7168072  73.7094026  33.7982356  42.5513675  73.2775224  33.6159830
  41.5552414  73.5376040  34.7259250  41.3713964  70.2126139  35.1638695
  41.3162768  70.0470411  34.2227139  40.7460019  70.9202172  35.3200885
  26.1606479  65.4494204  48.9900117  26.8065342  64.9393158  49.4787342
  25.9523630  66.1862885  49.5643542  38.6859871  72.5175051  54.4892258
  39.5551031  72.6915703  54.1278893  38.2066622  73.3369468  54.3667987
  34.6810089  59.7134248  34.7424013  34.6688759  60.6576088  34.8992284
  35.5733511  59.5304394  34.4483475  32.8546051  79.6372152  46.1681691
  33.7573298  79.6695762  46.4848186  32.6283421  78.7072603  46.1828027
  34.6099653  78.3903139  42.8291770  33.6595284  78.3905000  42.7156142
  34.9132139  77.6435873  42.3127805  38.4962209  56.3077025  38.9969950
  37.7294604  55.7535512  39.1426633  38.9072914  56.3798894  39.8584102
  30.5003970  62.5961821  53.0875131  31.3635431  62.2398626  53.2978456
  29.9269380  62.2575715  53.7750536  50.3452347  84.2263677  43.8937532
  50.9830757  84.1070424  43.1900873  50.2273190  85.1744521  43.9525485
  47.1542053  84.1791105  43.8299057  46.8160564  84.0632170  42.9419592
  48.0231821  83.7782270  43.8100063  43.0128869  86.0326582  39.8195948
  42.4493734  85.9416518  39.0512236  42.8981264  85.2126486  40.2998441
  47.6361836  85.3325957  49.7885263  47.6250477  84.9378755  48.9165766
  47.7982475  84.5992029  50.3819034  40.5593301  87.5277773  42.6580169
  41.3514592  87.1868598  42.2426468  40.7989951  87.6372748  43.5782322
  48.5928427  89.6997549  35.1310413  47.9416407  90.2851630  34.7444427
  49.3872790  90.2303744  35.1905450  42.5184054  86.7886686  35.5297547
  43.2914930  86.2415673  35.3910423  42.8709453  87.6530936  35.7412009
  44.3569097  88.1163069  48.7364447  44.0658963  89.0208699  48.6211113
  44.9926081  88.1579596  49.4508516  45.2825304  85.4939917  45.3265806
  45.8788876  85.2695940  44.6122769  45.3400275  84.7524663  45.9291254
  44.8550332  82.9479352  33.1615997  45.1075853  82.4260874  32.3999460
  43.9174891  82.7845498  33.2642681  49.8993615  81.9515131  40.9690740
  50.6856704  81.5334554  40.6181157  50.1632319  82.8561223  41.1372389
  50.0703692  87.3887981  35.6679397  49.4349525  87.4622608  36.3800302
  49.7401099  87.9781580  34.9898477  44.5746621  84.8507458  35.3640372
  44.4582879  84.1752362  36.0321457  44.6848881  84.3639832  34.5472525
  46.9178162  84.3117606  39.0687061  46.5536369  83.7848227  39.7799983
  47.7745278  83.9216075  38.8953547  46.5583649  79.3407505  34.0648410
  46.7258051  80.2087742  34.4318881  46.3680818  79.5034787  33.1409699
  49.3158982  87.8024484  45.7314240  49.0159705  88.7049523  45.6230048
  48.9710042  87.5356667  46.5835393  42.7671464  84.2538281  41.7650945
  41.8421960  84.1214495  41.9728637  43.0155877  85.0332500  42.2620887
  52.7156126  80.3207024  43.4111678  51.8073003  80.2522433  43.1170439
  52.6643722  80.7978969  44.2393503  46.5372870  81.7965163  35.0495077
  46.4172495  82.2422214  35.8880557  45.8425458  82.1450480  34.4908615
  40.1280275  83.8971555  42.5994734  40.2572656  84.1506033  43.5134146
  39.4477726  84.4899263  42.2799389  44.2979762  94.5668805  38.6985208
  44.2203792  95.5176630  38.7773689  43.6941406  94.2214677  39.3560134
  52.2357936  82.2686636  35.8775411  53.1475792  82.5014023  35.7023108
  51.7267583  82.8523680  35.3150489  50.5198704  86.6911264  49.5136703
  50.9282060  86.2493674  48.7691336  49.7975965  86.1163891  49.7670896
  46.8729774  81.6283871  46.8870260  47.7190969  82.0523284  47.0304909
  46.8128411  80.9717495  47.5808823  50.8427518  87.2512454  43.2688992
  50.2136381  87.4158169  42.5665060  50.4553180  87.6654064  44.0399956
  54.7216750  88.1866892  40.6233356  54.0367788  88.5665794  40.0730389
  54.8060599  88.7962219  41.3565304  50.0229219  79.2888239  48.5451434
  49.7790151  80.0430299  48.0085710  50.2989150  79.6673586  49.3798681
  51.9767682  85.8326851  47.2228700  52.1884577  86.4758611  46.5463081
  51.9297430  84.9989168  46.7550630  49.5793911  78.4444672  44.1265272
  48.7178390  78.7425925  44.4182009  49.6056345  78.6615071  43.1946304
  46.3955480  86.9886862  40.5339077  46.8593826  87.2674565  39.7443700
  46.1312278  86.0870307  40.3512168  43.2879561  86.5358344  43.4718841
  43.8580918  86.9645612  42.8336325  43.8787673  86.2540929  44.1703026
  45.3324366  83.1110015  37.3428643  46.0348410  83.5631059  37.8102569
  45.0004995  82.4693834  37.9708536  43.7804728  81.7021771  51.7179852
  43.1503388  82.3838052  51.9515249  43.6740816  81.5904853  50.7732990
  39.0749700  81.3693567  42.6445776  38.2848754  81.6251096  42.1685887
  39.5660948  82.1841905  42.7497817  53.0913510  88.7098807  45.3951057
  53.9130953  88.3078994  45.1133739  53.0875913  88.6067041  46.3467173
  41.0264446  81.7338147  39.6029253  40.2295609  81.8456841  40.1212748
  40.7990038  82.0724799  38.7370143  46.8570113  88.2582850  47.5511767
  46.9214546  88.7203257  48.3869939  46.1481037  87.6280215  47.6794077
  37.3587403  81.6224058  45.0760767  37.6095442  82.5071068  45.3418343
  37.8946952  81.4428659  44.3035859  46.5718131  89.9250957  37.4190748
  46.4363806  90.7702493  37.8475596  47.1127943  90.1270235  36.6556682
  43.0585470  76.0042537  54.0805103  42.6652416  75.4508736  54.7552747
  43.8751611  76.3153116  54.4711620  40.0247528  87.4426395  37.9918673
  40.5372049  88.2369646  38.1424238  40.6770241  86.7452686  37.9252274
  41.8342413  90.5592152  40.0741426  42.0109041  91.4810116  39.8862410
  42.6299246  90.2450571  40.5035806  45.9753431  77.4200416  51.6725360
  46.7163145  78.0207570  51.5929822  46.2071354  76.6778054  51.1143402
  41.1194769  82.6056784  49.9503589  41.0048285  81.7042041  50.2510688
  40.2639287  82.8520480  49.5988406  42.9573728  92.0770326  46.0751768
  43.5081154  91.9487389  45.3028762  42.1185204  92.3765215  45.7246661
  46.7540899  88.3421453  50.4195999  47.2869236  87.5809742  50.1895307
  46.2254981  88.0495105  51.1620154  49.9210594  73.4481519  45.9489641
  49.5774864  74.3383161  45.8728752  50.2889557  73.2583177  45.0859226
  37.9896445  85.7715050  38.7678243  38.8271667  86.1812058  38.5511951
  38.1674713  84.8314492  38.7378437  49.8860877  83.4390130  34.4562076
  49.3707501  84.2094735  34.6950464  49.6138186  82.7655267  35.0795138
  47.4707988  78.2839831  39.5147315  46.6149584  77.8946682  39.3352953
  47.8834940  78.3631792  38.6547100  49.0007135  75.8186174  43.9138874
  48.4971930  75.7816310  43.1006680  49.2937742  76.7278917  43.9735531
  45.2450021  75.9024904  42.9205056  46.1103017  75.7067713  42.5610946
  45.3127530  75.6735256  43.8474413  54.8595151  86.1922485  36.3915250
  54.0824594  85.8533645  35.9470412  55.5386632  86.1975108  35.7170215
  49.6747180  81.3117223  36.2821857  49.3697316  81.6263372  37.1332001
  50.6277622  81.3898642  36.3249190  48.1193612  87.4707446  37.9314811
  47.5914974  86.7360205  37.6188049  47.6181115  88.2482122  37.6854780
  53.0986458  85.6656466  43.0481858  52.4410133  86.3555728  43.1361986
  53.9026857  86.0552898  43.3915844  42.8512340  78.1327112  40.2921423
  43.4256092  77.9102294  39.5594616  43.4383322  78.2015807  41.0450024
  51.9091917  84.0200839  41.0985800  52.4223799  84.6530831  41.6007509
  52.5593141  83.4202035  40.7329160  43.1781927  80.1631573  34.3117308
  42.3419239  80.5006260  34.6326583  43.0386697  80.0280553  33.3744445
  45.1535007  75.0068361  39.0196492  44.4999420  74.6917378  38.3953107
  45.1115482  74.3844102  39.7456315  46.2646212  85.2887656  30.9349784
  45.3573274  85.0576910  31.1340933  46.7617244  84.4925275  31.1223766
  49.1714291  93.9985163  33.8546471  48.4975990  94.3016860  34.4631428
  49.5580113  94.8014244  33.5051928  48.3872748  81.4950295  43.3444140
  47.4695309  81.7165242  43.1865828  48.8032891  81.5696605  42.4855847
  49.1707796  82.8941710  38.4746820  49.9179615  83.4063107  38.1653942
  49.4399385  82.5725763  39.3351214  47.4434446  85.3900251  35.4573775
  46.5345665  85.1059284  35.5546244  47.4729530  85.8099330  34.5977081
  52.6753713  89.0006840  39.2264942  52.2216040  88.1597750  39.2830133
  52.0447680  89.6368239  39.5639722  51.6186633  79.9298827  40.4565610
  50.8809390  79.4176213  40.7875852  51.8713406  79.4899208  39.6448886
  51.1186652  90.8383337  40.1614760  51.4109627  91.3988394  39.4427126
  51.6285273  91.1311898  40.9167919  38.0122616  83.1105765  39.4388977
  37.8147016  82.5175126  38.7140043  37.4569280  82.8057975  40.1564916
  45.9919340  83.0028872  41.5583570  46.0467950  82.0502708  41.4826047
  45.1810542  83.1588311  42.0424868  47.1410534  86.9308995  32.7961853
  46.7029963  86.2144854  32.3367491  47.8820974  87.1585109  32.2346945
  43.9311700  81.6205931  39.3173949  43.1179565  81.9200102  39.7239141
  44.4270694  81.2261620  40.0348431  46.0820278  91.6163688  41.2508214
  46.0396456  91.8424535  40.3216746  46.9982976  91.3827063  41.3994015
  49.5285911  82.0847756  48.1488843  49.8835299  82.3119229  49.0083308
  50.1758043  82.4166133  47.5266098  55.2583648  85.2066192  38.8538172
  55.1201547  85.3967788  37.9259361  54.9019867  85.9685575  39.3106223
  43.4225774  79.1924287  44.9335184  44.0625154  79.0513046  44.2358147
  42.5903305  78.9058800  44.5573786  44.1986078  88.4926717  41.0470176
  44.9926677  87.9977037  40.8452751  43.4877771  87.9644580  40.6837882
  49.0180923  90.8744813  45.3982544  49.0717945  91.4435749  46.1660260
  48.1495704  91.0446698  45.0336581  40.5068842  82.6369799  37.1229929
  39.5766430  82.5754255  37.3399891  40.6026314  82.1145752  36.3266570
  40.4254391  79.1624612  39.7108171  40.6861208  80.0769945  39.6017331
  41.2471563  78.6949054  39.8604783  41.8979316  80.5762369  46.8806995
  42.5702370  80.3679731  46.2319644  41.0709103  80.3784455  46.4412227
  47.8004888  77.2024310  48.8972656  47.1532803  77.9014260  48.8037132
  48.5705904  77.6360454  49.2648904  47.9769023  85.0405075  46.9569476
  48.9061083  85.1916234  46.7838443  47.5560053  85.1289096  46.1018122
  46.7757354  89.0655739  44.7268013  46.6368440  88.6974524  45.5993951
  45.9871951  89.5803379  44.5551971  47.3705506  94.1664836  36.0693550
  47.5457262  93.6952879  36.8839173  46.6838294  94.7930602  36.2974811
  48.3262570  88.4437342  42.1156851  47.9912402  88.4038112  43.0114501
  47.8266515  87.7782058  41.6427261  42.3006813  83.8504972  47.6409432
  42.1626611  83.1185211  48.2420971  43.2111737  83.7613872  47.3593620
  51.2621761  85.7893376  32.3893911  50.6450932  85.0640204  32.2926963
  50.7938250  86.5502737  32.0460985  44.9289114  83.5624931  47.1293112
  45.6388733  82.9218124  47.0879730  44.8858422  83.8137826  48.0519293
  43.6418048  80.5490149  48.9488751  43.1055405  80.0980888  49.6010348
  43.0534757  80.6836058  48.2059216  41.9366592  97.3154199  42.8433410
  42.1763190  97.9472723  43.5212429  41.0935788  96.9642239  43.1298769
  43.0520307  80.0078801  31.5115215  42.1749773  79.8867601  31.1477462
  43.5278060  79.2164879  31.2594104  52.9193300  88.4631869  48.2813671
  52.0320079  88.1257790  48.4040070  53.4891851  87.7314900  48.5182436
  34.5722447  84.7955960  41.6056722  35.2593487  84.4817690  41.0177737
  34.4170576  85.6997325  41.3323974  39.3757169  79.6846157  46.0341746
  39.2915358  79.0771826  45.2992156  38.5539876  80.1755175  46.0351242
  46.4494454  93.1233321  45.2474914  46.3764625  93.9288292  45.7594219
  46.0071847  93.3225287  44.4222935  46.2384233  92.3605091  38.7577736
  45.4551755  92.9026771  38.8515960  46.9376978  92.8779071  39.1571977
  49.5480883  78.1699720  41.4011941  50.0449583  77.4169683  41.0813011
  48.7767865  78.2064037  40.8355150  48.9093137  93.0220155  47.4033073
  49.6221109  93.6567620  47.3308974  48.4183166  93.1184021  46.5873074
  50.6310664  86.9271408  38.9750364  49.6966943  87.0472870  38.8055069
  50.8087332  86.0243874  38.7110374  46.1315852  80.3117103  41.1283626
  45.7613640  79.7588144  41.8164531  46.6274944  79.7075237  40.5758626
  54.0183215  82.7688727  39.5100398  54.4843667  83.6016719  39.4360701
  54.4690716  82.3033709  40.2145657  43.9605051  90.7714598  48.2238643
  44.6614510  91.4051081  48.3768038  43.4900166  91.1129330  47.4634283
  52.0859446  89.1132548  36.5086551  52.3619290  88.9989143  37.4180425
  51.2163945  88.7150033  36.4698724  51.7606337  83.3259206  46.0491194
  51.1077787  83.5735113  45.3943647  52.1386716  82.5123344  45.7153671
  48.7213510  93.3618899  40.1519364  48.9035905  92.5440555  40.6147116
  49.5446496  93.5786591  39.7144254  49.0555676  92.2887084  37.4134413
  49.5843442  91.7779539  36.8004575  49.3183895  91.9729614  38.2779946
  39.5572769  90.3050953  45.1569746  40.1426205  89.5594641  45.2897650
  39.3597607  90.6154910  46.0406410  42.4111424  93.3402201  40.1732189
  41.7421799  93.8248329  39.6896229  42.2724294  93.5871421  41.0875567
  34.1490423  82.8756554  43.8774189  34.1874523  82.3420144  44.6711307
  33.6430716  82.3491759  43.2585166  46.5516692  95.3745944  46.7714847
  47.1035000  95.5377566  47.5363932  46.8922886  95.9650382  46.0994872
  41.5281186  77.7221094  47.3736732  41.5922512  78.5835925  46.9614129
  41.4648306  77.1095096  46.6409090  41.0033458  79.7944227  51.0209766
  41.6305497  79.4121304  51.6347290  40.1461377  79.5758429  51.3865458
  37.7799001  81.6020656  36.9528121  38.0752442  80.6931334  36.8995174
  36.8787037  81.5808395  36.6309123  49.6885080  93.3227920  43.7578529
  49.5636219  92.5217660  43.2489475  50.3464171  93.8174113  43.2692499
  41.3093248  79.6776652  42.9355669  40.5879834  80.2912620  42.7963143
  42.0986504  80.2134417  42.8572315  51.7519988  91.1236940  45.3858079
  50.8050324  91.0042291  45.3136406  52.1002761  90.2359438  45.4684341
  44.1119561  77.0131079  49.2096321  44.6353963  77.2593375  49.9722630
  43.8931895  77.8451114  48.7899458  39.5086843  79.2834754  37.0767446
  39.1799549  78.4032132  36.8942552  39.8626213  79.2282422  37.9643835
  48.7566421  90.9189656  41.5862431  48.6091384  89.9906364  41.7670001
  49.5819915  90.9409747  41.1019507  42.6228666  79.5707723  37.4442924
  42.9624738  80.0993645  36.7221532  43.0700786  79.9088129  38.2201490
  52.3600543  91.7418215  42.6727304  53.2847091  91.5361076  42.5351755
  52.1915847  91.4934616  43.5816646  45.3172107  77.9544774  46.8945992
  44.9768927  77.1552587  47.2966671  44.6111113  78.2546485  46.3222825
  45.9688578  75.0394086  45.3473315  46.7914648  74.5654565  45.2252205
  46.2126642  75.8184570  45.8472001  44.6096813  78.0682345  35.6436216
  45.3305175  78.4463598  35.1399933  43.9862117  78.7871222  35.7471194
  48.7527936  78.7727494  36.5794549  48.9691550  79.6552132  36.2783377
  48.2722003  78.3813707  35.8500191  43.4927157  81.7313207  43.1565293
  43.3471738  82.0453510  44.0489575  43.0152361  82.3498107  42.6036192
  45.3523540  78.7215755  43.2046183  45.3385109  77.8256848  42.8678481
  46.0695968  78.7286419  43.8384469  47.2049671  79.1553095  45.2499310
  46.9467449  80.0770166  45.2483641  46.6734711  78.7583530  45.9399774
  52.1495859  92.2603882  38.0289396  52.3232737  91.6950305  37.2763248
  52.6424751  93.0604777  37.8468886  37.9672819  84.2718551  46.0952954
  37.4226287  85.0478359  46.2273229  38.8452169  84.6189356  45.9372076
  44.7560436  77.6030135  38.4733753  44.8776347  76.6746782  38.6724640
  44.4662478  77.6168821  37.5612068  47.6251626  75.2885046  41.6100473
  47.6473323  75.3524379  40.6552452  48.0419685  74.4489554  41.8040979
  53.1371032  91.5770647  35.1286294  53.8321937  92.1977339  35.3473609
  53.4794182  90.7265998  35.4038672  38.7538841  83.3988448  48.9883111
  38.0120577  83.5471083  49.5747742  38.4331585  83.6596713  48.1249861
  55.0362455  89.0270352  36.6573625  55.5613779  89.3657625  35.9322945
  54.9484808  88.0917368  36.4736759  46.6982504  92.9404426  48.7863501
  47.0069630  92.6953573  49.6586201  47.4957986  93.1451064  48.2982372
  46.7203116  95.0942336  41.0168878  46.2808106  94.6018714  41.7101735
  47.4711233  94.5515303  40.7760953  39.1995455  91.2853876  41.0193506
  40.0253475  90.9857648  40.6392149  38.8489507  90.5161499  41.4683295
  44.1676988  90.6380345  43.0891180  43.5456997  89.9751050  42.7893407
  44.8381855  90.6641477  42.4064827  37.4004060  89.2040203  41.9782440
  36.5635968  88.7762377  41.7966441  37.3727705  89.3972646  42.9153231
  44.2401515  79.1162133  52.6823686  44.2889671  79.9924256  52.3001455
  44.7824030  78.5739526  52.1095329  54.8454236  86.5095722  49.2757551
  54.8952241  86.3445730  50.2173074  54.7368160  85.6422981  48.8855432
  43.7290495  89.1884268  36.5649640  43.8778615  89.8719732  35.9116313
  44.5356938  89.1689358  37.0799096  46.4700804  79.8693505  49.4370044
  45.6004113  80.1627071  49.1652633  46.7060284  80.4533950  50.1577308
  41.4843128  85.2149446  37.5710709  41.2389170  84.3111776  37.7690919
  41.6539042  85.2166596  36.6290187  49.1739838  76.0873122  46.9535465
  49.6921782  76.8234149  46.6281953  48.8194970  76.3937115  47.7882224
  40.7538775  80.9477803  35.0696870  40.0608020  81.0222158  34.4136906
  40.5090527  80.1838147  35.5918387  49.4252432  72.5073405  42.4736361
  49.7054186  71.8396594  43.0996788  50.2103039  72.7002500  41.9611025
  47.2285900  91.6832398  34.0361387  46.6559867  92.3022586  33.5831859
  47.8018694  92.2331760  34.5701309  53.2961290  80.9291039  46.2207936
  54.2478713  81.0289136  46.2420160  53.1264741  80.1369307  46.7306021
  50.4483160  91.9669549  35.1669970  51.3813833  91.9015110  35.3702845
  50.3606373  92.8025815  34.7084502  53.0771177  91.2835419  32.1273917
  52.9984808  90.9495283  33.0209675  53.8980844  91.7757187  32.1265390
  47.6132699  83.0193211  31.3777440  48.5591804  82.8899419  31.4465858
  47.2346944  82.2807873  31.8546868  45.7975616  80.9443188  31.3132325
  44.8907071  80.6476300  31.3895039  46.0751597  80.6473006  30.4466611
  36.7153556  82.2649551  41.7631372  36.3956341  81.4114859  41.4705746
  36.1686985  82.4798129  42.5189339  40.4933464  84.9811992  45.4800878
  40.7119474  85.9129100  45.4988912  40.9059238  84.6219966  46.2655682
  47.4137682  75.4880077  37.4676566  46.6038410  75.1427162  37.8431813
  48.1022099  75.1787621  38.0564178  49.3428230  74.5658124  39.0900863
  49.8959269  74.9853578  39.7490886  49.5798316  73.6393872  39.1323819
  44.5674401  77.8030123  31.4544304  45.4293565  78.1285021  31.7140122
  44.7524745  77.0161619  30.9417370  36.5841816  85.8852463  43.7324493
  35.8905288  85.4706415  43.2194448  37.3314807  85.9272999  43.1357912
  51.1710604  76.0763707  40.8000848  51.6710382  76.1880242  39.9915167
  51.8146211  75.7724760  41.4401656  38.4978559  85.8170716  41.6090508
  38.4749247  85.9158404  40.6572391  38.8079195  86.6635867  41.9307674
  41.1565937  87.8746871  45.7237122  42.1109190  87.8430814  45.6567054
  40.9578460  87.4137495  46.5387348  41.7465319  86.4447987  48.2907920
  42.5658208  86.9392066  48.3142757  42.0202127  85.5279956  48.2625488
  51.5031915  78.8358740  37.6535876  50.6157770  79.1208390  37.4356070
  51.9185904  78.6752503  36.8063153  39.5116166  93.4166491  42.7407320
  39.3770634  92.6566892  42.1745318  39.0948228  94.1407391  42.2736109
  50.6475129  88.6003414  31.7483896  51.3510979  88.8053417  32.3641551
  49.9237777  89.1680176  32.0132979  51.4772939  84.3513276  37.8686166
  51.4208140  84.8081827  37.0293798  52.0301281  83.5903960  37.6909009
  42.6685291  94.3135808  42.9525763  42.5517676  95.2581240  42.8504453
  41.8477738  94.0109369  43.3411562  52.5561826  89.0385944  33.7982356
  53.3907430  88.6067142  33.6159830  52.3946169  88.8667957  34.7259250
  52.2107718  85.5418057  35.1638695  52.1556522  85.3762328  34.2227139
  51.5853773  86.2494090  35.3200885  37.0000233  80.7786121  48.9900117
  37.6459097  80.2685075  49.4787342  36.7917384  81.5154803  49.5643542
  45.5203844  75.0426166  34.7424013  45.5082513  75.9868006  34.8992284
  46.4127266  74.8596311  34.4483475  43.6939806  94.9664070  46.1681691
  44.5967052  94.9987680  46.4848186  43.4677176  94.0364521  46.1828027
  45.4493408  93.7195056  42.8291770  44.4989039  93.7196918  42.7156142
  45.7525894  92.9727791  42.3127805  41.3397724  77.9253738  53.0875131
  42.2029186  77.5690543  53.2978456  40.7663135  77.5867633  53.7750536
  57.9935807  99.5083023  43.8299057  57.6554319  99.3924087  42.9419592
  58.8625576  99.1074188  43.8100063  53.8522623 101.3618499  39.8195948
  53.2887488 101.2708436  39.0512236  53.7375018 100.5418404  40.2998441
  58.4755590 100.6617875  49.7885263  58.4644231 100.2670673  48.9165766
  58.6376230  99.9283947  50.3819034  51.3987055 102.8569691  42.6580169
  52.1908347 102.5160515  42.2426468  51.6383705 102.9664666  43.5782322
  59.4322182 105.0289467  35.1310413  58.7810162 105.6143547  34.7444427
  60.2266545 105.5595662  35.1905450  53.3577809 102.1178604  35.5297547
  54.1308685 101.5707591  35.3910423  53.7103208 102.9822853  35.7412009
  55.1962852 103.4454986  48.7364447  54.9052718 104.3500617  48.6211113
  55.8319836 103.4871514  49.4508516  56.1219058 100.8231835  45.3265806
  56.7182631 100.5987857  44.6122769  56.1794030 100.0816580  45.9291254
  55.6944087  98.2771270  33.1615997  55.9469607  97.7552791  32.3999460
  54.7568646  98.1137416  33.2642681  60.9097447 102.7179899  35.6679397
  60.2743280 102.7914525  36.3800302  60.5794853 103.3073498  34.9898477
  55.4140376 100.1799376  35.3640372  55.2976634  99.5044280  36.0321457
  55.5242635  99.6931750  34.5472525  57.3977403  94.6699423  34.0648410
  57.5651806  95.5379659  34.4318881  57.2074573  94.8326705  33.1409699
  60.1552737 103.1316402  45.7314240  59.8553460 104.0341441  45.6230048
  59.8103796 102.8648585  46.5835393  53.6065218  99.5830199  41.7650945
  52.6815715  99.4506413  41.9728637  53.8549631 100.3624418  42.2620887
  57.3766624  97.1257080  35.0495077  57.2566250  97.5714131  35.8880557
  56.6819213  97.4742398  34.4908615  50.9674029  99.2263472  42.5994734
  51.0966410  99.4797951  43.5134146  50.2871480  99.8191180  42.2799389
  55.1373516 109.8960722  38.6985208  55.0597546 110.8468547  38.7773689
  54.5335160 109.5506595  39.3560134  55.8837118  99.8774041  50.9164542
  56.6251803 100.4159085  50.6399366  55.1774104 100.5040330  51.0736094
  57.2349235 102.3178780  40.5339077  57.6987580 102.5966483  39.7443700
  56.9706033 101.4162225  40.3512168  54.1273316 101.8650262  43.4718841
  54.6974673 102.2937530  42.8336325  54.7181428 101.5832846  44.1703026
  56.1718121  98.4401933  37.3428643  56.8742164  98.8922976  37.8102569
  55.8398749  97.7985751  37.9708536  49.9143455  96.6985485  42.6445776
  49.1242509  96.9543014  42.1685887  50.4054702  97.5133823  42.7497817
  51.8658200  97.0630064  39.6029253  51.0689363  97.1748759  40.1212748
  51.6383792  97.4016717  38.7370143  57.6963868 103.5874768  47.5511767
  57.7608300 104.0495175  48.3869939  56.9874792 102.9572133  47.6794077
  48.1981158  96.9515976  45.0760767  48.4489196  97.8362986  45.3418343
  48.7340706  96.7720577  44.3035859  57.4111885 105.2542875  37.4190748
  57.2757560 106.0994411  37.8475596  57.9521698 105.4562153  36.6556682
  50.8641283 102.7718313  37.9918673  51.3765803 103.5661563  38.1424238
  51.5163996 102.0744604  37.9252274  52.6736167 105.8884069  40.0741426
  52.8502796 106.8102034  39.8862410  53.4693001 105.5742489  40.5035806
  51.9588524  97.9348701  49.9503589  51.8442039  97.0333959  50.2510688
  51.1033042  98.1812398  49.5988406  59.0380362 105.8766442  51.5491090
  58.5944216 105.0902820  51.2311994  59.6997575 106.0645592  50.8834981
  53.7967483 107.4062243  46.0751768  54.3474908 107.2779307  45.3028762
  52.9578959 107.7057132  45.7246661  61.1361600 106.1569242  49.5772491
  61.1180075 106.9778123  49.0852760  62.0581520 106.0323317  49.8022632
  57.5934654 103.6713371  50.4195999  58.1262991 102.9101659  50.1895307
  57.0648735 103.3787023  51.1620154  48.8290200 101.1006967  38.7678243
  49.6665422 101.5103976  38.5511951  49.0068467 100.1606410  38.7378437
  60.7254632  98.7682048  34.4562076  60.2101255  99.5386653  34.6950464
  60.4531940  98.0947184  35.0795138  65.6988906 101.5214403  36.3915250
  64.9218349 101.1825562  35.9470412  66.3780387 101.5267026  35.7170215
  58.9587367 102.7999364  37.9314811  58.4308728 102.0652123  37.6188049
  58.4574869 103.5774040  37.6854780  53.6906094  93.4619030  40.2921423
  54.2649846  93.2394211  39.5594616  54.2777077  93.5307724  41.0450024
  54.0175681  95.4923491  34.3117308  53.1812994  95.8298177  34.6326583
  53.8780451  95.3572471  33.3744445  57.1039967 100.6179574  30.9349784
  56.1967029 100.3868827  31.1340933  57.6010999  99.8217193  31.1223766
  60.0108046 109.3277081  33.8546471  59.3369744 109.6308778  34.4631428
  60.3973868 110.1306161  33.5051928  58.2828200 100.7192169  35.4573775
  57.3739420 100.4351201  35.5546244  58.3123284 101.1391247  34.5977081
  63.5147468 104.3298758  39.2264942  63.0609795 103.4889668  39.2830133
  62.8841434 104.9660157  39.5639722  61.9580407 106.1675255  40.1614760
  62.2503381 106.7280312  39.4427126  62.4679027 106.4603816  40.9167919
  48.8516371  98.4397683  39.4388977  48.6540770  97.8467043  38.7140043
  48.2963035  98.1349893  40.1564916  57.9804288 102.2600912  32.7961853
  57.5423718 101.5436771  32.3367491  58.7214729 102.4877027  32.2346945
  54.7705454  96.9497849  39.3173949  53.9573320  97.2492020  39.7239141
  55.2664448  96.5553538  40.0348431  56.9214032 106.9455606  41.2508214
  56.8790211 107.1716452  40.3216746  57.8376731 106.7118981  41.3994015
  54.2619529  94.5216205  44.9335184  54.9018908  94.3804964  44.2358147
  53.4297060  94.2350718  44.5573786  55.0379833 103.8218635  41.0470176
  55.8320431 103.3268955  40.8452751  54.3271525 103.2936498  40.6837882
  59.8574677 106.2036730  45.3982544  59.9111700 106.7727667  46.1660260
  58.9889459 106.3738616  45.0336581  51.3462596  97.9661717  37.1229929
  50.4160184  97.9046172  37.3399891  51.4420068  97.4437669  36.3266570
  51.2648145  94.4916530  39.7108171  51.5254963  95.4061863  39.6017331
  52.0865318  94.0240972  39.8604783  52.7373071  95.9054287  46.8806995
  53.4096124  95.6971649  46.2319644  51.9102857  95.7076373  46.4412227
  57.6151109 104.3947657  44.7268013  57.4762195 104.0266441  45.5993951
  56.8265705 104.9095296  44.5551971  58.2099261 109.4956753  36.0693550
  58.3851017 109.0244797  36.8839173  57.5232049 110.1222520  36.2974811
  59.1656324 103.7729260  42.1156851  58.8306157 103.7330030  43.0114501
  58.6660270 103.1073976  41.6427261  53.1400568  99.1796890  47.6409432
  53.0020366  98.4477128  48.2420971  54.0505491  99.0905790  47.3593620
  62.1015516 101.1185294  32.3893911  61.4844686 100.3932122  32.2926963
  61.6332004 101.8794654  32.0460985  55.7682869  98.8916849  47.1293112
  56.4782487  98.2510041  47.0879730  55.7252177  99.1429744  48.0519293
  52.7760346 112.6446116  42.8433410  53.0156944 113.2764640  43.5212429
  51.9329543 112.2934156  43.1298769  53.8914062  95.3370718  31.5115215
  53.0143528  95.2159519  31.1477462  54.3671815  94.5456797  31.2594104
  45.4116202 100.1247878  41.6056722  46.0987242  99.8109608  41.0177737
  45.2564330 101.0289243  41.3323974  50.2150924  95.0138075  46.0341746
  50.1309113  94.4063744  45.2992156  49.3933630  95.5047093  46.0351242
  57.2888208 108.4525239  45.2474914  57.2158379 109.2580210  45.7594219
  56.8465601 108.6517204  44.4222935  57.0777988 107.6897009  38.7577736
  56.2945510 108.2318689  38.8515960  57.7770733 108.2070988  39.1571977
  59.7486892 108.3512073  47.4033073  60.4614864 108.9859537  47.3308974
  59.2576920 108.4475939  46.5873074  61.4704418 102.2563325  38.9750364
  60.5360697 102.3764788  38.8055069  61.6481087 101.3535792  38.7110374
  54.7998805 106.1006516  48.2238643  55.5008265 106.7342999  48.3768038
  54.3293920 106.4421248  47.4634283  62.9253201 104.4424466  36.5086551
  63.2013045 104.3281060  37.4180425  62.0557700 104.0441951  36.4698724
  59.5607265 108.6910817  40.1519364  59.7429659 107.8732473  40.6147116
  60.3840251 108.9078509  39.7144254  59.8949430 107.6179002  37.4134413
  60.4237197 107.1071456  36.8004575  60.1577650 107.3021532  38.2779946
  50.3966523 105.6342871  45.1569746  50.9819960 104.8886559  45.2897650
  50.1991362 105.9446828  46.0406410  53.2505178 108.6694119  40.1732189
  52.5815554 109.1540246  39.6896229  53.1118048 108.9163339  41.0875567
  44.9884178  98.2048471  43.8774189  45.0268277  97.6712062  44.6711307
  44.4824471  97.6783677  43.2585166  57.3910447 110.7037862  46.7714847
  57.9428755 110.8669484  47.5363932  57.7316640 111.2942300  46.0994872
  52.3674940  93.0513012  47.3736732  52.4316267  93.9127843  46.9614129
  52.3042060  92.4387014  46.6409090  51.8427213  95.1236144  51.0209766
  52.4699251  94.7413222  51.6347290  50.9855132  94.9050346  51.3865458
  62.2421321 105.5299120  52.6263501  62.7861225 106.1429078  52.1318456
  61.6608166 106.0878698  53.1430514  48.6192755  96.9312574  36.9528121
  48.9146197  96.0223252  36.8995174  47.7180791  96.9100313  36.6309123
  60.5278834 108.6519838  43.7578529  60.4029974 107.8509577  43.2489475
  61.1857925 109.1466031  43.2692499  52.1487002  95.0068570  42.9355669
  51.4273588  95.6204538  42.7963143  52.9380258  95.5426335  42.8572315
  62.5913743 106.4528858  45.3858079  61.6444078 106.3334209  45.3136406
  62.9396516 105.5651356  45.4684341  50.3480597  94.6126671  37.0767446
  50.0193303  93.7324050  36.8942552  50.7019968  94.5574340  37.9643835
  59.5960176 106.2481574  41.5862431  59.4485138 105.3198281  41.7670001
  60.4213669 106.2701665  41.1019507  53.4622420  94.8999641  37.4442924
  53.8018493  95.4285562  36.7221532  53.9094541  95.2380047  38.2201490
  63.1994298 107.0710133  42.6727304  64.1240845 106.8652994  42.5351755
  63.0309601 106.8226534  43.5816646  55.4490567  93.3974263  35.6436216
  56.1698930  93.7755515  35.1399933  54.8255871  94.1163139  35.7471194
  54.3320912  97.0605125  43.1565293  54.1865492  97.3745428  44.0489575
  53.8546115  97.6790025  42.6036192  56.1917294  94.0507673  43.2046183
  56.1778863  93.1548766  42.8678481  56.9089723  94.0578336  43.8384469
  62.9889614 107.5895800  38.0289396  63.1626491 107.0242223  37.2763248
  63.4818505 108.3896695  37.8468886  48.8066574  99.6010469  46.0952954
  48.2620042 100.3770277  46.2273229  49.6845924  99.9481274  45.9372076
  63.9764786 106.9062564  35.1286294  64.6715691 107.5269257  35.3473609
  64.3187937 106.0557916  35.4038672  49.5932596  98.7280365  48.9883111
  48.8514332  98.8763001  49.5747742  49.2725340  98.9888631  48.1249861
  65.8756210 104.3562270  36.6573625  66.4007534 104.6949543  35.9322945
  65.7878562 103.4209285  36.4736759  57.5376258 108.2696344  48.7863501
  57.8463385 108.0245490  49.6586201  58.3351740 108.4742982  48.2982372
  57.5596870 110.4234253  41.0168878  57.1201861 109.9310632  41.7101735
  58.3104987 109.8807221  40.7760953  50.0389209 106.6145794  41.0193506
  50.8647229 106.3149566  40.6392149  49.6883261 105.8453417  41.4683295
  55.0070742 105.9672262  43.0891180  54.3850752 105.3042967  42.7893407
  55.6775609 105.9933394  42.4064827  48.2397814 104.5332121  41.9782440
  47.4029723 104.1054295  41.7966441  48.2121460 104.7264564  42.9153231
  54.5684249 104.5176186  36.5649640  54.7172370 105.2011650  35.9116313
  55.3750693 104.4981276  37.0799096  52.3236882 100.5441363  37.5710709
  52.0782924  99.6403693  37.7690919  52.4932797 100.5458514  36.6290187
  51.5932530  96.2769721  35.0696870  50.9001775  96.3514076  34.4136906
  51.3484282  95.5130065  35.5918387  58.0679655 107.0124316  34.0361387
  57.4953622 107.6314503  33.5831859  58.6412449 107.5623678  34.5701309
  61.2876915 107.2961466  35.1669970  62.2207588 107.2307028  35.3702845
  61.2000127 108.1317733  34.7084502  63.9164931 106.6127337  32.1273917
  63.8378563 106.2787200  33.0209675  64.7374598 107.1049105  32.1265390
  58.4526453  98.3485129  31.3777440  59.3985558  98.2191337  31.4465858
  58.0740698  97.6099791  31.8546868  58.3365146 102.4002875  52.8378097
  59.2568155 102.5781474  53.0318143  58.3014729 101.4558920  52.6857796
  56.6369371  96.2735105  31.3132325  55.7300826  95.9768218  31.3895039
  56.9145352  95.9764923  30.4466611  47.5547311  97.5941469  41.7631372
  47.2350095  96.7406777  41.4705746  47.0080739  97.8090047  42.5189339
  51.3327218 100.3103910  45.4800878  51.5513228 101.2421018  45.4988912
  51.7452992  99.9511884  46.2655682  55.4068155  93.1322041  31.4544304
  56.2687319  93.4576939  31.7140122  55.5918499  92.3453536  30.9417370
  47.4235571 101.2144380  43.7324493  46.7299042 100.7998333  43.2194448
  48.1708562 101.2564917  43.1357912  56.0686354  99.3134254  53.6868689
  55.5853436 100.1134614  53.8932578  56.1547293  99.3242199  52.7336133
  49.3372313 101.1462634  41.6090508  49.3143002 101.2450321  40.6572391
  49.6472950 101.9927785  41.9307674  51.9959691 103.2038789  45.7237122
  52.9502945 103.1722731  45.6567054  51.7972215 102.7429413  46.5387348
  52.5859073 101.7739905  48.2907920  53.4051962 102.2683984  48.3142757
  52.8595881 100.8571873  48.2625488  50.3509920 108.7458409  42.7407320
  50.2164388 107.9858809  42.1745318  49.9341982 109.4699308  42.2736109
  61.4868883 103.9295332  31.7483896  62.1904733 104.1345335  32.3641551
  60.7631532 104.4972094  32.0132979  62.3166693  99.6805193  37.8686166
  62.2601895 100.1373745  37.0293798  62.8695036  98.9195878  37.6909009
  53.5079046 109.6427726  42.9525763  53.3911430 110.5873158  42.8504453
  52.6871492 109.3401287  43.3411562  63.3955581 104.3677861  33.7982356
  64.2301184 103.9359060  33.6159830  63.2339923 104.1959875  34.7259250
  63.0501473 100.8709975  35.1638695  62.9950276 100.7054246  34.2227139
  62.4247528 101.5786007  35.3200885  47.8393988  96.1078039  48.9900117
  48.4852851  95.5976993  49.4787342  47.6311139  96.8446721  49.5643542
  60.3647380 103.1758886  54.4892258  61.2338540 103.3499539  54.1278893
  59.8854131 103.9953303  54.3667987  56.3597598  90.3718084  34.7424013
  56.3476268  91.3159923  34.8992284  57.2521020  90.1888229  34.4483475
  54.5333560 110.2955987  46.1681691  55.4360807 110.3279598  46.4848186
  54.3070930 109.3656438  46.1828027  56.2887162 109.0486974  42.8291770
  55.3382793 109.0488836  42.7156142  56.5919648 108.3019709  42.3127805
  72.0239856 114.8847512  43.8937532  72.6618266 114.7654260  43.1900873
  71.9060698 115.8328356  43.9525485  68.8329562 114.8374940  43.8299057
  68.4948073 114.7216005  42.9419592  69.7019330 114.4366106  43.8100063
  64.6916378 116.6910417  39.8195948  64.1281243 116.6000354  39.0512236
  64.5768773 115.8710321  40.2998441  69.3149345 115.9909792  49.7885263
  69.3037986 115.5962590  48.9165766  69.4769984 115.2575865  50.3819034
  62.2380810 118.1861608  42.6580169  63.0302101 117.8452433  42.2426468
  62.4777460 118.2956584  43.5782322  70.2715936 120.3581385  35.1310413
  69.6203916 120.9435465  34.7444427  71.0660299 120.8887579  35.1905450
  64.1971563 117.4470522  35.5297547  64.9702439 116.8999509  35.3910423
  64.5496962 118.3114771  35.7412009  66.0356606 118.7746904  48.7364447
  65.7446472 119.6792535  48.6211113  66.6713590 118.8163432  49.4508516
  66.9612813 116.1523753  45.3265806  67.5576385 115.9279775  44.6122769
  67.0187784 115.4108498  45.9291254  66.5337841 113.6063188  33.1615997
  66.7863362 113.0844709  32.3999460  65.5962400 113.4429333  33.2642681
  71.5781124 112.6098966  40.9690740  72.3644213 112.1918389  40.6181157
  71.8419828 113.5145058  41.1372389  71.7491201 118.0471817  35.6679397
  71.1137034 118.1206443  36.3800302  71.4188608 118.6365415  34.9898477
  76.9789551 112.5474199  41.8723719  77.7114723 111.9773416  42.1061548
  76.2228907 112.1595800  42.3130225  66.2534130 115.5091294  35.3640372
  66.1370388 114.8336197  36.0321457  66.3636390 115.0223668  34.5472525
  68.5965671 114.9701441  39.0687061  68.2323878 114.4432062  39.7799983
  69.4532787 114.5799910  38.8953547  68.2371158 109.9991341  34.0648410
  68.4045560 110.8671577  34.4318881  68.0468327 110.1618622  33.1409699
  70.9946491 118.4608320  45.7314240  70.6947214 119.3633358  45.6230048
  70.6497551 118.1940503  46.5835393  64.4458973 114.9122116  41.7650945
  63.5209469 114.7798330  41.9728637  64.6943386 115.6916336  42.2620887
  74.3943635 110.9790860  43.4111678  73.4860512 110.9106268  43.1170439
  74.3431231 111.4562805  44.2393503  68.2160379 112.4548998  35.0495077
  68.0960004 112.9006049  35.8880557  67.5212967 112.8034316  34.4908615
  61.8067784 114.5555390  42.5994734  61.9360165 114.8089869  43.5134146
  61.1265235 115.1483098  42.2799389  65.9767271 125.2252640  38.6985208
  65.8991301 126.1760465  38.7773689  65.3728914 124.8798512  39.3560134
  68.4684501 112.3980505  51.3546575  67.6917835 112.9574425  51.3449440
  69.1075064 112.8837288  51.8761445  76.2605281 109.1807298  45.1889552
  75.6179662 109.4739831  44.5429346  75.7560210 109.0660218  45.9942748
  73.9145445 112.9270471  35.8775411  74.8263301 113.1597858  35.7023108
  73.4055092 113.5107515  35.3150489  66.7230873 115.2065959  50.9164542
  67.4645557 115.7451003  50.6399366  66.0167858 115.8332247  51.0736094
  72.1986213 117.3495099  49.5136703  72.6069569 116.9077510  48.7691336
  71.4763474 116.7747727  49.7670896  68.5517283 112.2867706  46.8870260
  69.3978478 112.7107119  47.0304909  68.4915920 111.6301330  47.5808823
  72.5215027 117.9096290  43.2688992  71.8923890 118.0742004  42.5665060
  72.1340689 118.3237899  44.0399956  76.4004259 118.8450728  40.6233356
  75.7155297 119.2249629  40.0730389  76.4848108 119.4546054  41.3565304
  71.7016728 109.9472074  48.5451434  71.4577660 110.7014135  48.0085710
  71.9776659 110.3257422  49.3798681  73.6555191 116.4910687  47.2228700
  73.8672086 117.1342446  46.5463081  73.6084939 115.6573003  46.7550630
  71.2581420 109.1028507  44.1265272  70.3965899 109.4009761  44.4182009
  71.2843854 109.3198906  43.1946304  68.0742989 117.6470698  40.5339077
  68.5381335 117.9258401  39.7443700  67.8099787 116.7454142  40.3512168
  64.9667070 117.1942179  43.4718841  65.5368427 117.6229448  42.8336325
  65.5575182 116.9124764  44.1703026  67.0111875 113.7693850  37.3428643
  67.7135919 114.2214894  37.8102569  66.6792504 113.1277669  37.9708536
  65.4592237 112.3605607  51.7179852  64.8290897 113.0421888  51.9515249
  65.3528325 112.2488688  50.7732990  60.7537209 112.0277403  42.6445776
  59.9636263 112.2834931  42.1685887  61.2448457 112.8425741  42.7497817
  74.7701019 119.3682642  45.3951057  75.5918462 118.9662829  45.1133739
  74.7663422 119.2650876  46.3467173  62.7051955 112.3921982  39.6029253
  61.9083118 112.5040676  40.1212748  62.4777547 112.7308634  38.7370143
  68.5357622 118.9166685  47.5511767  68.6002055 119.3787093  48.3869939
  67.8268546 118.2864050  47.6794077  59.0374912 112.2807893  45.0760767
  59.2882951 113.1654903  45.3418343  59.5734461 112.1012495  44.3035859
  82.8607012 115.7121391  41.7436028  82.1070720 115.1428789  41.5880033
  82.9954553 115.6784055  42.6906663  68.2505640 120.5834793  37.4190748
  68.1151315 121.4286329  37.8475596  68.7915452 120.7854070  36.6556682
  61.7035037 118.1010231  37.9918673  62.2159558 118.8953481  38.1424238
  62.3557750 117.4036521  37.9252274  63.5129922 121.2175987  40.0741426
  63.6896550 122.1393952  39.8862410  64.3086755 120.9034406  40.5035806
  62.7982278 113.2640619  49.9503589  62.6835794 112.3625876  50.2510688
  61.9426796 113.5104316  49.5988406  69.8774116 121.2058359  51.5491090
  69.4337970 120.4194738  51.2311994  70.5391330 121.3937510  50.8834981
  64.6361237 122.7354161  46.0751768  65.1868662 122.6071224  45.3028762
  63.7972713 123.0349050  45.7246661  71.9755354 121.4861159  49.5772491
  71.9573830 122.3070040  49.0852760  72.8975274 121.3615234  49.8022632
  68.4328408 119.0005289  50.4195999  68.9656745 118.2393577  50.1895307
  67.9042490 118.7078941  51.1620154  59.6683954 116.4298885  38.7678243
  60.5059176 116.8395894  38.5511951  59.8462222 115.4898327  38.7378437
  71.5648386 114.0973966  34.4562076  71.0495010 114.8678570  34.6950464
  71.2925695 113.4239102  35.0795138  69.1495497 108.9423667  39.5147315
  68.2937093 108.5530517  39.3352953  69.5622449 109.0215627  38.6547100
  70.6794644 106.4770010  43.9138874  70.1759439 106.4400145  43.1006680
  70.9725251 107.3862753  43.9735531  76.5382660 116.8506320  36.3915250
  75.7612103 116.5117480  35.9470412  77.2174141 116.8558944  35.7170215
  71.3534689 111.9701058  36.2821857  71.0484825 112.2847207  37.1332001
  72.3065131 112.0482478  36.3249190  69.7981121 118.1291281  37.9314811
  69.2702483 117.3944041  37.6188049  69.2968624 118.9065958  37.6854780
  74.7773967 116.3240302  43.0481858  74.1197642 117.0139563  43.1361986
  75.5814366 116.7136734  43.3915844  64.5299849 108.7910947  40.2921423
  65.1043601 108.5686129  39.5594616  65.1170831 108.8599642  41.0450024
  73.5879426 114.6784674  41.0985800  74.1011308 115.3114666  41.6007509
  74.2380650 114.0785870  40.7329160  64.8569436 110.8215409  34.3117308
  64.0206748 111.1590095  34.6326583  64.7174205 110.6864388  33.3744445
  66.8322516 105.6652196  39.0196492  66.1786929 105.3501214  38.3953107
  66.7902991 105.0427937  39.7456315  67.9433721 115.9471491  30.9349784
  67.0360783 115.7160745  31.1340933  68.4404753 115.1509111  31.1223766
  70.8501800 124.6568999  33.8546471  70.1763499 124.9600695  34.4631428
  71.2367622 125.4598079  33.5051928  70.0660257 112.1534130  43.3444140
  69.1482818 112.3749077  43.1865828  70.4820400 112.2280440  42.4855847
  70.8495305 113.5525546  38.4746820  71.5967124 114.0646943  38.1653942
  71.1186894 113.2309598  39.3351214  69.1221955 116.0484086  35.4573775
  68.2133174 115.7643119  35.5546244  69.1517039 116.4683165  34.5977081
  74.3541222 119.6590676  39.2264942  73.9003549 118.8181586  39.2830133
  73.7235189 120.2952074  39.5639722  73.2974142 110.5882662  40.4565610
  72.5596899 110.0760048  40.7875852  73.5500915 110.1483043  39.6448886
  72.7974161 121.4967173  40.1614760  73.0897136 122.0572230  39.4427126
  73.3072782 121.7895734  40.9167919  59.6910125 113.7689600  39.4388977
  59.4934525 113.1758961  38.7140043  59.1356789 113.4641811  40.1564916
  67.6706849 113.6612707  41.5583570  67.7255459 112.7086543  41.4826047
  66.8598051 113.8172146  42.0424868  68.8198043 117.5892830  32.7961853
  68.3817472 116.8728689  32.3367491  69.5608483 117.8168945  32.2346945
  65.6099209 112.2789767  39.3173949  64.7967074 112.5783937  39.7239141
  66.1058203 111.8845455  40.0348431  67.7607787 122.2747524  41.2508214
  67.7183965 122.5008370  40.3216746  68.6770485 122.0410898  41.3994015
  71.2073420 112.7431591  48.1488843  71.5622808 112.9703064  49.0083308
  71.8545552 113.0749968  47.5266098  76.9371157 115.8650027  38.8538172
  76.7989056 116.0551623  37.9259361  76.5807376 116.6269410  39.3106223
  65.1013283 109.8508122  44.9335184  65.7412663 109.7096881  44.2358147
  64.2690814 109.5642636  44.5573786  76.9640537 117.9326554  43.8649443
  77.3977044 117.8401843  44.7132497  77.6772118 117.9084055  43.2269459
  65.8773587 119.1510553  41.0470176  66.6714186 118.6560873  40.8452751
  65.1665280 118.6228416  40.6837882  70.6968432 121.5328648  45.3982544
  70.7505454 122.1019584  46.1660260  69.8283213 121.7030533  45.0336581
  62.1856351 113.2953634  37.1229929  61.2553939 113.2338090  37.3399891
  62.2813823 112.7729587  36.3266570  62.1041900 109.8208447  39.7108171
  62.3648717 110.7353780  39.6017331  62.9259072 109.3532890  39.8604783
  63.5766825 111.2346204  46.8806995  64.2489879 111.0263567  46.2319644
  62.7496612 111.0368290  46.4412227  77.8256087 117.9750255  46.3982329
  78.0191977 118.8796065  46.6441604  77.7256705 117.5157674  47.2320914
  72.8871195 118.1256997  51.9723209  72.7356702 117.8967549  51.0553293
  72.8775875 119.0827599  51.9854554  69.6556532 115.6988910  46.9569476
  70.5848592 115.8500070  46.7838443  69.2347562 115.7872931  46.1018122
  68.4544863 119.7239575  44.7268013  68.3155949 119.3558359  45.5993951
  67.6659460 120.2387214  44.5551971  69.0493015 124.8248671  36.0693550
  69.2244771 124.3536714  36.8839173  68.3625803 125.4514437  36.2974811
  70.0050079 119.1021177  42.1156851  69.6699911 119.0621947  43.0114501
  69.5054024 118.4365893  41.6427261  63.9794322 114.5088807  47.6409432
  63.8414120 113.7769046  48.2420971  64.8899246 114.4197707  47.3593620
  72.9409270 116.4477212  32.3893911  72.3238441 115.7224040  32.2926963
  72.4725759 117.2086572  32.0460985  66.6076623 114.2208767  47.1293112
  67.3176242 113.5801959  47.0879730  66.5645931 114.4721662  48.0519293
  74.5963402 121.1576120  50.0499691  74.5375948 120.4735340  49.3830274
  74.9982920 121.8995110  49.5980317  65.3205557 111.2073985  48.9488751
  64.7842914 110.7564723  49.6010348  64.7322266 111.3419893  48.2059216
  63.6154101 127.9738034  42.8433410  63.8550699 128.6056558  43.5212429
  62.7723297 127.6226074  43.1298769  64.7307816 110.6662636  31.5115215
  63.8537282 110.5451437  31.1477462  65.2065569 109.8748714  31.2594104
  74.5980809 119.1215704  48.2813671  73.7107588 118.7841626  48.4040070
  75.1679360 118.3898735  48.5182436  56.2509956 115.4539796  41.6056722
  56.9380996 115.1401526  41.0177737  56.0958085 116.3581160  41.3323974
  61.0544678 110.3429992  46.0341746  60.9702867 109.7355662  45.2992156
  60.2327385 110.8339011  46.0351242  68.1281962 123.7817156  45.2474914
  68.0552134 124.5872128  45.7594219  67.6859356 123.9809122  44.4222935
  67.9171742 123.0188926  38.7577736  67.1339264 123.5610607  38.8515960
  68.6164487 123.5362906  39.1571977  71.2268392 108.8283556  41.4011941
  71.7237092 108.0753518  41.0813011  70.4555374 108.8647872  40.8355150
  79.0798150 114.5323921  43.0430232  79.0688026 115.4148637  42.6724166
  78.2115529 114.1795472  42.8484769  70.5880646 123.6803990  47.4033073
  71.3008618 124.3151455  47.3308974  70.0970675 123.7767856  46.5873074
  72.3098173 117.5855243  38.9750364  71.3754452 117.7056705  38.8055069
  72.4874841 116.6827710  38.7110374  67.8103361 110.9700939  41.1283626
  67.4401148 110.4171979  41.8164531  68.3062453 110.3659072  40.5758626
  75.6970724 113.4272562  39.5100398  76.1631176 114.2600554  39.4360701
  76.1478225 112.9617544  40.2145657  65.6392560 121.4298434  48.2238643
  66.3402019 122.0634917  48.3768038  65.1687675 121.7713165  47.4634283
  73.7646955 119.7716384  36.5086551  74.0406799 119.6572978  37.4180425
  72.8951454 119.3733868  36.4698724  73.4393846 113.9843041  46.0491194
  72.7865296 114.2318949  45.3943647  73.8174225 113.1707179  45.7153671
  70.4001019 124.0202734  40.1519364  70.5823414 123.2024390  40.6147116
  71.2234005 124.2370427  39.7144254  70.7343185 122.9470920  37.4134413
  71.2630951 122.4363374  36.8004575  70.9971404 122.6313450  38.2779946
  69.4881419 114.7262852  52.5357231  68.8122056 114.6256982  53.2059606
  70.3109052 114.5702066  52.9993228  61.2360278 120.9634789  45.1569746
  61.8213714 120.2178477  45.2897650  61.0385116 121.2738746  46.0406410
  64.0898933 123.9986036  40.1732189  63.4209308 124.4832164  39.6896229
  63.9511803 124.2455257  41.0875567  55.8277932 113.5340389  43.8774189
  55.8662032 113.0003980  44.6711307  55.3218225 113.0075595  43.2585166
  68.2304201 126.0329780  46.7714847  68.7822509 126.1961401  47.5363932
  68.5710395 126.6234218  46.0994872  63.2068695 108.3804930  47.3736732
  63.2710021 109.2419760  46.9614129  63.1435815 107.7678931  46.6409090
  62.6820967 110.4528062  51.0209766  63.3093006 110.0705139  51.6347290
  61.8248886 110.2342264  51.3865458  73.0815076 120.8591037  52.6263501
  73.6254980 121.4720996  52.1318456  72.5001921 121.4170616  53.1430514
  59.4586510 112.2604491  36.9528121  59.7539951 111.3515170  36.8995174
  58.5574546 112.2392231  36.6309123  71.3672589 123.9811755  43.7578529
  71.2423728 123.1801495  43.2489475  72.0251680 124.4757949  43.2692499
  62.9880757 110.3360488  42.9355669  62.2667343 110.9496455  42.7963143
  63.7774013 110.8718253  42.8572315  73.4307497 121.7820775  45.3858079
  72.4837833 121.6626127  45.3136406  73.7790270 120.8943273  45.4684341
  65.7907070 107.6714914  49.2096321  66.3141472 107.9177211  49.9722630
  65.5719404 108.5034949  48.7899458  61.1874352 109.9418589  37.0767446
  60.8587058 109.0615968  36.8942552  61.5413722 109.8866258  37.9643835
  70.4353930 121.5773492  41.5862431  70.2878893 120.6490199  41.7670001
  71.2607424 121.5993582  41.1019507  64.3016175 110.2291559  37.4442924
  64.6412247 110.7577480  36.7221532  64.7488295 110.5671965  38.2201490
  74.0388052 122.4002050  42.6727304  74.9634600 122.1944912  42.5351755
  73.8703356 122.1518451  43.5816646  66.9959615 108.6128609  46.8945992
  66.6556436 107.8136422  47.2966671  66.2898622 108.9130320  46.3222825
  66.2884322 108.7266180  35.6436216  67.0092684 109.1047433  35.1399933
  65.6649626 109.4455057  35.7471194  70.4315445 109.4311329  36.5794549
  70.6479059 110.3135967  36.2783377  69.9509512 109.0397543  35.8500191
  65.1714666 112.3897042  43.1565293  65.0259247 112.7037346  44.0489575
  64.6939870 113.0081943  42.6036192  67.0311049 109.3799590  43.2046183
  67.0172618 108.4840684  42.8678481  67.7483477 109.3870254  43.8384469
  68.8837180 109.8136931  45.2499310  68.6254957 110.7354001  45.2483641
  68.3522220 109.4167365  45.9399774  73.8283368 122.9187718  38.0289396
  74.0020246 122.3534140  37.2763248  74.3212260 123.7188613  37.8468886
  59.6460328 114.9302387  46.0952954  59.1013796 115.7062195  46.2273229
  60.5239678 115.2773191  45.9372076  66.4347945 108.2613971  38.4733753
  66.5563856 107.3330617  38.6724640  66.1449987 108.2752657  37.5612068
  79.6822760 115.6824141  39.6479695  80.1253906 114.9331466  39.2498819
  78.8049270 115.6734277  39.2653427  74.8158541 122.2354482  35.1286294
  75.5109446 122.8561175  35.3473609  75.1581691 121.3849833  35.4038672
  60.4326350 114.0572283  48.9883111  59.6908086 114.2054918  49.5747742
  60.1119094 114.3180549  48.1249861  76.7149964 119.6854188  36.6573625
  77.2401288 120.0241460  35.9322945  76.6272317 118.7501203  36.4736759
  68.3770013 123.5988261  48.7863501  68.6857139 123.3537408  49.6586201
  69.1745495 123.8034900  48.2982372  68.3990625 125.7526171  41.0168878
  67.9595615 125.2602550  41.7101735  69.1498742 125.2099139  40.7760953
  60.8782964 121.9437712  41.0193506  61.7040984 121.6441484  40.6392149
  60.5277016 121.1745334  41.4683295  65.8464497 121.2964180  43.0891180
  65.2244506 120.6334885  42.7893407  66.5169364 121.3225312  42.4064827
  59.0791569 119.8624038  41.9782440  58.2423477 119.4346213  41.7966441
  59.0515214 120.0556482  42.9153231  76.4043870 120.3187091  51.9624823
  75.6139414 120.3011230  51.4229322  76.1677225 120.8575385  52.7173859
  76.5241745 117.1679558  49.2757551  76.5739750 117.0029565  50.2173074
  76.4155668 116.3006817  48.8855432  65.4078004 119.8468103  36.5649640
  65.5566124 120.5303568  35.9116313  66.2144447 119.8273193  37.0799096
  73.8145508 113.1510486  50.5916858  74.7155370 113.0116951  50.3000856
  73.8893482 113.3164941  51.5315035  68.1488313 110.5277340  49.4370044
  67.2791622 110.8210907  49.1652633  68.3847793 111.1117785  50.1577308
  78.0259942 119.5876499  49.5199573  77.7344750 119.9506480  50.3563034
  77.4132073 118.8743508  49.3412905  79.2255624 117.1529379  42.0402143
  80.0602516 117.5919183  42.2039703  79.3614753 116.6768032  41.2210389
  76.2747130 114.7109114  47.9879631  76.7501252 114.9036760  47.1798482
  75.3512696 114.7668300  47.7423014  63.1630637 115.8733281  37.5710709
  62.9176679 114.9695611  37.7690919  63.3326551 115.8750431  36.6290187
  70.8527347 106.7456957  46.9535465  71.3709291 107.4817984  46.6281953
  70.4982479 107.0520951  47.7882224  62.4326284 111.6061639  35.0696870
  61.7395529 111.6805994  34.4136906  62.1878036 110.8421982  35.5918387
  68.9073409 122.3416234  34.0361387  68.3347376 122.9606421  33.5831859
  69.4806203 122.8915596  34.5701309  74.9748799 111.5874874  46.2207936
  75.9266222 111.6872972  46.2420160  74.8052250 110.7953142  46.7306021
  72.9963179 108.6730457  46.4067337  72.4013111 108.9535470  45.7113826
  72.7112875 109.1624358  47.1784078  72.1270669 122.6253384  35.1669970
  73.0601342 122.5598946  35.3702845  72.0393882 123.4609651  34.7084502
  74.7558686 121.9419254  32.1273917  74.6772317 121.6079118  33.0209675
  75.5768353 122.4341022  32.1265390  77.4536877 114.8080994  45.3350236
  77.4213197 113.8696994  45.5209920  78.0637501 114.8865030  44.6016061
  69.2920208 113.6777047  31.3777440  70.2379313 113.5483255  31.4465858
  68.9134453 112.9391709  31.8546868  77.6031365 111.5992037  45.3808519
  77.0870414 110.8150494  45.1938448  78.4871314 111.2710754  45.5455039
  75.2642092 105.3433053  41.3404332  75.0666914 105.0348141  42.2247664
  75.8741798 106.0694692  41.4702262  83.2713427 115.8697000  44.4756273
  84.0016815 115.6082289  45.0363976  82.6620372 115.1325722  44.5158341
  81.3528724 114.0104863  45.0730724  80.6261888 113.8760828  44.4647216
  80.9376011 114.3181692  45.8787442  69.1758900 117.7294793  52.8378097
  70.0961910 117.9073392  53.0318143  69.1408483 116.7850838  52.6857796
  67.4763125 111.6027023  31.3132325  66.5694580 111.3060136  31.3895039
  67.7539106 111.3056841  30.4466611  58.3941065 112.9233386  41.7631372
  58.0743850 112.0698695  41.4705746  57.8474494 113.1381965  42.5189339
  62.1720973 115.6395827  45.4800878  62.3906983 116.5712935  45.4988912
  62.5846747 115.2803802  46.2655682  69.0925191 106.1463913  37.4676566
  68.2825919 105.8010998  37.8431813  69.7809608 105.8371456  38.0564178
  71.0215739 105.2241960  39.0900863  71.5746778 105.6437413  39.7490886
  71.2585825 104.2977708  39.1323819  66.2461910 108.4613958  31.4544304
  67.1081074 108.7868857  31.7140122  66.4312254 107.6745454  30.9417370
  58.2629325 116.5436298  43.7324493  57.5692797 116.1290251  43.2194448
  59.0102316 116.5856834  43.1357912  74.3994546 107.3342485  38.5979527
  73.8193215 107.9927289  38.2157580  74.1330479 106.5119829  38.1866945
  72.8498112 106.7347542  40.8000848  73.3497891 106.8464077  39.9915167
  73.4933720 106.4308595  41.4401656  66.9080108 114.6426172  53.6868689
  66.4247190 115.4426532  53.8932578  66.9941047 114.6534117  52.7336133
  60.1766068 116.4754552  41.6090508  60.1536756 116.5742239  40.6572391
  60.4866704 117.3219702  41.9307674  62.8353446 118.5330707  45.7237122
  63.7896699 118.5014649  45.6567054  62.6365969 118.0721330  46.5387348
  63.4252828 117.1031823  48.2907920  64.2445717 117.5975901  48.3142757
  63.6989636 116.1863791  48.2625488  73.1819424 109.4942575  37.6535876
  72.2945279 109.7792226  37.4356070  73.5973413 109.3336338  36.8063153
  76.5333960 109.5189096  41.3690215  77.3094350 110.0085548  41.6414832
  75.8082094 109.9447150  41.8262084  78.9706519 110.2316715  42.4264156
  79.5651010 109.9912451  41.7157464  79.0433103 109.5123846  43.0537692
  61.1903675 124.0750326  42.7407320  61.0558143 123.3150727  42.1745318
  60.7735737 124.7991226  42.2736109  72.3262638 119.2587250  31.7483896
  73.0298488 119.4637252  32.3641551  71.6025286 119.8264012  32.0132979
  73.1560448 115.0097111  37.8686166  73.0995649 115.4665662  37.0293798
  73.7088790 114.2487796  37.6909009  76.9665254 110.7986843  38.6936285
  76.7102188 110.3983479  39.5244493  76.3418122 111.5130637  38.5686424
  81.2777592 113.5382916  41.2007577  80.7177150 113.6076105  41.9739139
  80.6721095 113.3623901  40.4807073  64.3472800 124.9719643  42.9525763
  64.2305185 125.9165076  42.8504453  63.5265247 124.6693205  43.3411562
  74.2349335 119.6969779  33.7982356  75.0694939 119.2650977  33.6159830
  74.0733678 119.5251793  34.7259250  73.8895227 116.2001892  35.1638695
  73.8344031 116.0346164  34.2227139  73.2641282 116.9077925  35.3200885
  58.6787742 111.4369957  48.9900117  59.3246606 110.9268911  49.4787342
  58.4704893 112.1738638  49.5643542  71.2041134 118.5050804  54.4892258
  72.0732294 118.6791456  54.1278893  70.7247886 119.3245221  54.3667987
  67.1991353 105.7010001  34.7424013  67.1870022 106.6451841  34.8992284
  68.0914775 105.5180147  34.4483475  65.3727315 125.6247905  46.1681691
  66.2754561 125.6571515  46.4848186  65.1464685 124.6948356  46.1828027
  67.1280917 124.3778892  42.8291770  66.1776548 124.3780753  42.7156142
  67.4313403 123.6311626  42.3127805  63.0185233 108.5837574  53.0875131
  63.8816695 108.2274379  53.2978456  62.4450644 108.2451469  53.7750536
  82.8633610 130.2139430  43.8937532  83.5012020 130.0946177  43.1900873
  82.7454453 131.1620274  43.9525485  79.6723316 130.1666858  43.8299057
  79.3341828 130.0507923  42.9419592  80.5413085 129.7658023  43.8100063
  75.5310132 132.0202335  39.8195948  74.9674997 131.9292271  39.0512236
  75.4162527 131.2002239  40.2998441  80.1543099 131.3201710  49.7885263
  80.1431740 130.9254508  48.9165766  80.3163739 130.5867782  50.3819034
  73.0774564 133.5153526  42.6580169  73.8695856 133.1744351  42.2426468
  73.3171214 133.6248501  43.5782322  81.1109691 135.6873302  35.1310413
  80.4597671 136.2727383  34.7444427  81.9054054 136.2179497  35.1905450
  75.0365318 132.7762439  35.5297547  75.8096194 132.2291426  35.3910423
  75.3890717 133.6406689  35.7412009  76.8750361 134.1038822  48.7364447
  76.5840226 135.0084453  48.6211113  77.5107345 134.1455349  49.4508516
  77.8006567 131.4815670  45.3265806  78.3970140 131.2571693  44.6122769
  77.8581539 130.7400416  45.9291254  77.3731596 128.9355106  33.1615997
  77.6257116 128.4136627  32.3999460  76.4356155 128.7721251  33.2642681
  82.4174879 127.9390884  40.9690740  83.2037968 127.5210307  40.6181157
  82.6813583 128.8436976  41.1372389  82.5884956 133.3763734  35.6679397
  81.9530789 133.4498361  36.3800302  82.2582362 133.9657333  34.9898477
  87.8183306 127.8766117  41.8723719  88.5508478 127.3065334  42.1061548
  87.0622661 127.4887718  42.3130225  77.0927885 130.8383211  35.3640372
  76.9764143 130.1628115  36.0321457  77.2030144 130.3515585  34.5472525
  79.4359425 130.2993359  39.0687061  79.0717633 129.7723980  39.7799983
  80.2926541 129.9091828  38.8953547  85.3408726 121.5887691  46.3318328
  85.0092051 122.4583102  46.1079543  84.7454339 121.2723975  47.0112358
  79.0764912 125.3283258  34.0648410  79.2439315 126.1963495  34.4318881
  78.8862081 125.4910540  33.1409699  81.8340246 133.7900237  45.7314240
  81.5340969 134.6925276  45.6230048  81.4891305 133.5232420  46.5835393
  75.2852727 130.2414034  41.7650945  74.3603224 130.1090248  41.9728637
  75.5337140 131.0208253  42.2620887  85.2337389 126.3082777  43.4111678
  84.3254267 126.2398186  43.1170439  85.1824985 126.7854722  44.2393503
  79.0554133 127.7840916  35.0495077  78.9353758 128.2297967  35.8880557
  78.3606722 128.1326233  34.4908615  72.6461538 129.8847308  42.5994734
  72.7753919 130.1381787  43.5134146  71.9658989 130.4775016  42.2799389
  76.8161025 140.5544558  38.6985208  76.7385055 141.5052383  38.7773689
  76.2122669 140.2090430  39.3560134  79.3078255 127.7272423  51.3546575
  78.5311589 128.2866343  51.3449440  79.9468818 128.2129206  51.8761445
  87.0999036 124.5099216  45.1889552  86.4573416 124.8031749  44.5429346
  86.5953964 124.3952136  45.9942748  84.7539199 128.2562389  35.8775411
  85.6657056 128.4889776  35.7023108  84.2448847 128.8399433  35.3150489
  77.5624627 130.5357876  50.9164542  78.3039312 131.0742920  50.6399366
  76.8561613 131.1624165  51.0736094  83.0379967 132.6787017  49.5136703
  83.4463323 132.2369427  48.7691336  82.3157229 132.1039644  49.7670896
  79.3911037 127.6159624  46.8870260  80.2372232 128.0399037  47.0304909
  79.3309675 126.9593248  47.5808823  83.3608782 133.2388207  43.2688992
  82.7317644 133.4033922  42.5665060  82.9734444 133.6529817  44.0399956
  87.2398014 134.1742645  40.6233356  86.5549052 134.5541547  40.0730389
  87.3241863 134.7837972  41.3565304  82.5410482 125.2763992  48.5451434
  82.2971414 126.0306052  48.0085710  82.8170413 125.6549340  49.3798681
  84.4948945 131.8202604  47.2228700  84.7065840 132.4634364  46.5463081
  84.4478694 130.9864921  46.7550630  82.0975174 124.4320425  44.1265272
  81.2359653 124.7301678  44.4182009  82.1237609 124.6490824  43.1946304
  78.9136744 132.9762615  40.5339077  79.3775089 133.2550318  39.7443700
  78.6493542 132.0746060  40.3512168  75.8060825 132.5234097  43.4718841
  76.3762182 132.9521365  42.8336325  76.3968937 132.2416682  44.1703026
  77.8505630 129.0985768  37.3428643  78.5529673 129.5506812  37.8102569
  77.5186258 128.4569587  37.9708536  76.2985991 127.6897524  51.7179852
  75.6684652 128.3713805  51.9515249  76.1922079 127.5780606  50.7732990
  71.5930964 127.3569321  42.6445776  70.8030018 127.6126849  42.1685887
  72.0842211 128.1717658  42.7497817  85.6094773 134.6974560  45.3951057
  86.4312217 134.2954747  45.1133739  85.6057176 134.5942794  46.3467173
  73.5445709 127.7213900  39.6029253  72.7476872 127.8332594  40.1212748
  73.3171301 128.0600552  38.7370143  79.3751377 134.2458603  47.5511767
  79.4395809 134.7079010  48.3869939  78.6662301 133.6155968  47.6794077
  69.8768667 127.6099811  45.0760767  70.1276705 128.4946821  45.3418343
  70.4128215 127.4304413  44.3035859  93.7000766 131.0413308  41.7436028
  92.9464475 130.4720706  41.5880033  93.8348307 131.0075973  42.6906663
  79.0899394 135.9126710  37.4190748  78.9545069 136.7578246  37.8475596
  79.6309207 136.1145988  36.6556682  75.5766734 121.9918290  54.0805103
  75.1833680 121.4384489  54.7552747  76.3932874 122.3028869  54.4711620
  72.5428792 133.4302149  37.9918673  73.0553312 134.2245399  38.1424238
  73.1951505 132.7328439  37.9252274  74.3523676 136.5467905  40.0741426
  74.5290305 137.4685870  39.8862410  75.1480510 136.2326324  40.5035806
  78.4934695 123.4076169  51.6725360  79.2344408 124.0083323  51.5929822
  78.7252618 122.6653807  51.1143402  73.6376033 128.5932537  49.9503589
  73.5229548 127.6917794  50.2510688  72.7820551 128.8396233  49.5988406
  80.7167871 136.5350277  51.5491090  80.2731725 135.7486656  51.2311994
  81.3785084 136.7229428  50.8834981  75.4754992 138.0646079  46.0751768
  76.0262417 137.9363142  45.3028762  74.6366468 138.3640968  45.7246661
  82.8149109 136.8153077  49.5772491  82.7967584 137.6361958  49.0852760
  83.7369029 136.6907152  49.8022632  79.2722163 134.3297206  50.4195999
  79.8050500 133.5685495  50.1895307  78.7436244 134.0370858  51.1620154
  82.4391858 119.4357272  45.9489641  82.0956127 120.3258914  45.8728752
  82.8070820 119.2458930  45.0859226  70.5077708 131.7590803  38.7678243
  71.3452930 132.1687811  38.5511951  70.6855976 130.8190245  38.7378437
  82.4042141 129.4265883  34.4562076  81.8888764 130.1970488  34.6950464
  82.1319449 128.7531020  35.0795138  79.9889252 124.2715584  39.5147315
  79.1330848 123.8822435  39.3352953  80.4016203 124.3507545  38.6547100
  81.5188398 121.8061928  43.9138874  81.0153194 121.7692063  43.1006680
  81.8119005 122.7154670  43.9735531  77.7631284 121.8900657  42.9205056
  78.6284281 121.6943466  42.5610946  77.8308793 121.6611009  43.8474413
  87.3776415 132.1798238  36.3915250  86.6005857 131.8409398  35.9470412
  88.0567896 132.1850861  35.7170215  82.1928444 127.2992976  36.2821857
  81.8878579 127.6139125  37.1332001  83.1458886 127.3774395  36.3249190
  80.6374876 133.4583199  37.9314811  80.1096237 132.7235958  37.6188049
  80.1362378 134.2357875  37.6854780  85.6167722 131.6532219  43.0481858
  84.9591396 132.3431481  43.1361986  86.4208121 132.0428651  43.3915844
  75.3693603 124.1202865  40.2921423  75.9437355 123.8978047  39.5594616
  75.9564586 124.1891560  41.0450024  84.4273180 130.0076592  41.0985800
  84.9405062 130.6406584  41.6007509  85.0774404 129.4077788  40.7329160
  75.6963190 126.1507326  34.3117308  74.8600503 126.4882013  34.6326583
  75.5567960 126.0156306  33.3744445  77.6716271 120.9944114  39.0196492
  77.0180683 120.6793131  38.3953107  77.6296745 120.3719855  39.7456315
  78.7827476 131.2763409  30.9349784  77.8754538 131.0452663  31.1340933
  79.2798508 130.4801028  31.1223766  81.6895555 139.9860916  33.8546471
  81.0157253 140.2892613  34.4631428  82.0761377 140.7889997  33.5051928
  80.9054011 127.4826048  43.3444140  79.9876573 127.7040995  43.1865828
  81.3214155 127.5572358  42.4855847  81.6889059 128.8817463  38.4746820
  82.4360878 129.3938861  38.1653942  81.9580649 128.5601516  39.3351214
  79.9615709 131.3776004  35.4573775  79.0526928 131.0935037  35.5546244
  79.9910793 131.7975083  34.5977081  85.1934977 134.9882594  39.2264942
  84.7397304 134.1473503  39.2830133  84.5628943 135.6243992  39.5639722
  84.1367896 125.9174580  40.4565610  83.3990653 125.4051966  40.7875852
  84.3894670 125.4774961  39.6448886  83.6367916 136.8259090  40.1614760
  83.9290890 137.3864147  39.4427126  84.1466536 137.1187651  40.9167919
  84.2379524 118.6950832  41.0507379  84.5438400 117.8348195  40.7633294
  84.9632128 119.2868452  40.8506373  70.5303880 129.0981518  39.4388977
  70.3328279 128.5050879  38.7140043  69.9750544 128.7933728  40.1564916
  78.5100603 128.9904625  41.5583570  78.5649213 128.0378461  41.4826047
  77.6991805 129.1464064  42.0424868  79.6591797 132.9184748  32.7961853
  79.2211227 132.2020607  32.3367491  80.4002238 133.1460863  32.2346945
  76.4492963 127.6081684  39.3173949  75.6360829 127.9075855  39.7239141
  76.9451957 127.2137373  40.0348431  78.6001541 137.6039441  41.2508214
  78.5577720 137.8300288  40.3216746  79.5164240 137.3702816  41.3994015
  82.0467175 128.0723509  48.1488843  82.4016563 128.2994982  49.0083308
  82.6939306 128.4041886  47.5266098  87.7764912 131.1941945  38.8538172
  87.6382810 131.3843541  37.9259361  87.4201131 131.9561328  39.3106223
  75.9407038 125.1800040  44.9335184  76.5806417 125.0388799  44.2358147
  75.1084569 124.8934553  44.5573786  87.8034291 133.2618472  43.8649443
  88.2370798 133.1693761  44.7132497  88.5165872 133.2375972  43.2269459
  76.7167342 134.4802470  41.0470176  77.5107940 133.9852790  40.8452751
  76.0059034 133.9520333  40.6837882  81.5362186 136.8620566  45.3982544
  81.5899209 137.4311502  46.1660260  80.6676968 137.0322451  45.0336581
  73.0250105 128.6245552  37.1229929  72.0947693 128.5630008  37.3399891
  73.1207577 128.1021505  36.3266570  72.9435654 125.1500365  39.7108171
  73.2042472 126.0645698  39.6017331  73.7652827 124.6824807  39.8604783
  74.4160580 126.5638122  46.8806995  75.0883633 126.3555484  46.2319644
  73.5890366 126.3660208  46.4412227  88.6649841 133.3042172  46.3982329
  88.8585731 134.2087983  46.6441604  88.5650459 132.8449591  47.2320914
  80.3186152 123.1900063  48.8972656  79.6714067 123.8890013  48.8037132
  81.0887167 123.6236207  49.2648904  83.7264950 133.4548915  51.9723209
  83.5750456 133.2259467  51.0553293  83.7169629 134.4119517  51.9854554
  80.4950286 131.0280828  46.9569476  81.4242346 131.1791987  46.7838443
  80.0741316 131.1164849  46.1018122  79.2938618 135.0531492  44.7268013
  79.1549704 134.6850277  45.5993951  78.5053214 135.5679132  44.5551971
  79.8886770 140.1540589  36.0693550  80.0638526 139.6828632  36.8839173
  79.2019558 140.7806355  36.2974811  80.8443833 134.4313095  42.1156851
  80.5093666 134.3913865  43.0114501  80.3447779 133.7657811  41.6427261
  74.8188077 129.8380725  47.6409432  74.6807875 129.1060964  48.2420971
  75.7293000 129.7489625  47.3593620  83.7803025 131.7769129  32.3893911
  83.1632195 131.0515957  32.2926963  83.3119513 132.5378490  32.0460985
  77.4470378 129.5500684  47.1293112  78.1569996 128.9093877  47.0879730
  77.4039686 129.8013579  48.0519293  85.4357156 136.4868038  50.0499691
  85.3769702 135.8027258  49.3830274  85.8376675 137.2287028  49.5980317
  76.1599312 126.5365902  48.9488751  75.6236669 126.0856641  49.6010348
  75.5716020 126.6711811  48.2059216  75.5701571 125.9954554  31.5115215
  74.6931037 125.8743354  31.1477462  76.0459324 125.2040632  31.2594104
  85.4374564 134.4507622  48.2813671  84.5501342 134.1133543  48.4040070
  86.0073115 133.7190653  48.5182436  67.0903711 130.7831713  41.6056722
  67.7774751 130.4693443  41.0177737  66.9351839 131.6873078  41.3323974
  71.8938433 125.6721910  46.0341746  71.8096622 125.0647579  45.2992156
  71.0721139 126.1630928  46.0351242  78.9675717 139.1109074  45.2474914
  78.8945888 139.9164045  45.7594219  78.5253110 139.3101040  44.4222935
  78.7565497 138.3480844  38.7577736  77.9733018 138.8902524  38.8515960
  79.4558242 138.8654824  39.1571977  82.0662147 124.1575473  41.4011941
  82.5630846 123.4045436  41.0813011  81.2949128 124.1939790  40.8355150
  89.9191904 129.8615839  43.0430232  89.9081780 130.7440554  42.6724166
  89.0509284 129.5087390  42.8484769  81.4274400 139.0095908  47.4033073
  82.1402373 139.6443373  47.3308974  80.9364429 139.1059774  46.5873074
  83.1491927 132.9147161  38.9750364  82.2148206 133.0348623  38.8055069
  83.3268596 132.0119627  38.7110374  78.6497115 126.2992856  41.1283626
  78.2794903 125.7463897  41.8164531  79.1456208 125.6950990  40.5758626
  86.5364479 128.7564480  39.5100398  87.0024931 129.5892472  39.4360701
  86.9871979 128.2909462  40.2145657  76.4786314 136.7590351  48.2238643
  77.1795774 137.3926834  48.3768038  76.0081429 137.1005083  47.4634283
  84.6040710 135.1008301  36.5086551  84.8800554 134.9864896  37.4180425
  83.7345209 134.7025786  36.4698724  84.5081141 121.1245067  43.5491300
  83.5944221 121.3549294  43.7173507  84.9374243 121.2083511  44.4005332
  84.2787600 129.3134959  46.0491194  83.6259050 129.5610866  45.3943647
  84.6567980 128.4999097  45.7153671  81.2394774 139.3494652  40.1519364
  81.4217168 138.5316308  40.6147116  82.0627760 139.5662344  39.7144254
  81.5736939 138.2762837  37.4134413  82.1024706 137.7655292  36.8004575
  81.8365159 137.9605367  38.2779946  80.3275173 130.0554770  52.5357231
  79.6515810 129.9548899  53.2059606  81.1502807 129.8993984  52.9993228
  72.0754032 136.2926707  45.1569746  72.6607469 135.5470394  45.2897650
  71.8778871 136.6030663  46.0406410  74.9292687 139.3277954  40.1732189
  74.2603063 139.8124082  39.6896229  74.7905557 139.5747174  41.0875567
  66.6671687 128.8632307  43.8774189  66.7055786 128.3295897  44.6711307
  66.1611980 128.3367512  43.2585166  79.0697956 141.3621697  46.7714847
  79.6216264 141.5253319  47.5363932  79.4104149 141.9526135  46.0994872
  74.0462449 123.7096847  47.3736732  74.1103776 124.5711678  46.9614129
  73.9829569 123.0970849  46.6409090  73.5214722 125.7819980  51.0209766
  74.1486760 125.3997057  51.6347290  72.6642641 125.5634182  51.3865458
  83.9208830 136.1882955  52.6263501  84.4648734 136.8012913  52.1318456
  83.3395675 136.7462533  53.1430514  70.2980264 127.5896409  36.9528121
  70.5933705 126.6807087  36.8995174  69.3968300 127.5684148  36.6309123
  82.2066343 139.3103673  43.7578529  82.0817483 138.5093413  43.2489475
  82.8645434 139.8049866  43.2692499  73.8274511 125.6652405  42.9355669
  73.1061097 126.2788373  42.7963143  74.6167767 126.2010170  42.8572315
  84.2701252 137.1112693  45.3858079  83.3231587 136.9918044  45.3136406
  84.6184025 136.2235191  45.4684341  76.6300825 123.0006832  49.2096321
  77.1535227 123.2469128  49.9722630  76.4113158 123.8326867  48.7899458
  72.0268106 125.2710507  37.0767446  71.6980812 124.3907885  36.8942552
  72.3807477 125.2158175  37.9643835  81.2747685 136.9065409  41.5862431
  81.1272647 135.9782117  41.7670001  82.1001178 136.9285500  41.1019507
  75.1409929 125.5583476  37.4442924  75.4806002 126.0869398  36.7221532
  75.5882050 125.8963882  38.2201490  84.8781807 137.7293968  42.6727304
  85.8028354 137.5236829  42.5351755  84.7097110 137.4810369  43.5816646
  77.8353370 123.9420527  46.8945992  77.4950190 123.1428340  47.2966671
  77.1292376 124.2422238  46.3222825  78.4869842 121.0269839  45.3473315
  79.3095911 120.5530318  45.2252205  78.7307905 121.8060323  45.8472001
  77.1278076 124.0558098  35.6436216  77.8486439 124.4339351  35.1399933
  76.5043380 124.7746975  35.7471194  81.2709199 124.7603247  36.5794549
  81.4872814 125.6427885  36.2783377  80.7903266 124.3689460  35.8500191
  76.0108421 127.7188960  43.1565293  75.8653001 128.0329263  44.0489575
  75.5333624 128.3373860  42.6036192  77.8704803 124.7091508  43.2046183
  77.8566372 123.8132601  42.8678481  78.5877232 124.7162172  43.8384469
  79.7230934 125.1428848  45.2499310  79.4648712 126.0645919  45.2483641
  79.1915975 124.7459283  45.9399774  84.6677123 138.2479635  38.0289396
  84.8414000 137.6826058  37.2763248  85.1606014 139.0480530  37.8468886
  70.4854083 130.2594305  46.0952954  69.9407551 131.0354112  46.2273229
  71.3633433 130.6065109  45.9372076  77.2741699 123.5905888  38.4733753
  77.3957611 122.6622535  38.6724640  76.9843742 123.6044574  37.5612068
  80.1432890 121.2760799  41.6100473  80.1654587 121.3400132  40.6552452
  80.5600949 120.4365307  41.8040979  90.5216514 131.0116058  39.6479695
  90.9647660 130.2623384  39.2498819  89.6443024 131.0026195  39.2653427
  85.6552295 137.5646400  35.1286294  86.3503200 138.1853093  35.3473609
  85.9975446 136.7141751  35.4038672  71.2720105 129.3864201  48.9883111
  70.5301841 129.5346836  49.5747742  70.9512849 129.6472466  48.1249861
  87.5543719 135.0146105  36.6573625  88.0795043 135.3533378  35.9322945
  87.4666071 134.0793121  36.4736759  79.2163767 138.9280179  48.7863501
  79.5250894 138.6829326  49.6586201  80.0139249 139.1326817  48.2982372
  79.2384379 141.0818089  41.0168878  78.7989370 140.5894467  41.7101735
  79.9892496 140.5391056  40.7760953  71.7176718 137.2729630  41.0193506
  72.5434738 136.9733401  40.6392149  71.3670770 136.5037252  41.4683295
  76.6858251 136.6256098  43.0891180  76.0638261 135.9626803  42.7893407
  77.3563118 136.6517230  42.4064827  69.9185323 135.1915956  41.9782440
  69.0817232 134.7638130  41.7966441  69.8908969 135.3848399  42.9153231
  76.7582779 125.1037886  52.6823686  76.8070934 125.9800009  52.3001455
  77.3005293 124.5615279  52.1095329  87.2437625 135.6479009  51.9624823
  86.4533168 135.6303148  51.4229322  87.0070979 136.1867303  52.7173859
  87.3635500 132.4971475  49.2757551  87.4133505 132.3321483  50.2173074
  87.2549423 131.6298734  48.8855432  76.2471758 135.1760021  36.5649640
  76.3959879 135.8595485  35.9116313  77.0538202 135.1565111  37.0799096
  84.6539262 128.4802403  50.5916858  85.5549125 128.3408868  50.3000856
  84.7287237 128.6456858  51.5315035  78.9882067 125.8569258  49.4370044
  78.1185377 126.1502824  49.1652633  79.2241548 126.4409703  50.1577308
  88.8653696 134.9168417  49.5199573  88.5738505 135.2798397  50.3563034
  88.2525828 134.2035425  49.3412905  90.0649379 132.4821297  42.0402143
  90.8996270 132.9211101  42.2039703  90.2008508 132.0059950  41.2210389
  87.1140885 130.0401032  47.9879631  87.5895006 130.2328678  47.1798482
  86.1906450 130.0960217  47.7423014  74.0024391 131.2025199  37.5710709
  73.7570433 130.2987529  37.7690919  74.1720306 131.2042349  36.6290187
  81.6921101 122.0748875  46.9535465  82.2103045 122.8109902  46.6281953
  81.3376234 122.3812868  47.7882224  73.2720039 126.9353556  35.0696870
  72.5789284 127.0097911  34.4136906  73.0271791 126.1713900  35.5918387
  81.9433695 118.4949158  42.4736361  82.2235449 117.8272347  43.0996788
  82.7284302 118.6878253  41.9611025  79.7467164 137.6708152  34.0361387
  79.1741131 138.2898339  33.5831859  80.3199958 138.2207513  34.5701309
  85.8142554 126.9166792  46.2207936  86.7659977 127.0164889  46.2420160
  85.6446004 126.1245060  46.7306021  83.8356933 124.0022375  46.4067337
  83.2406865 124.2827388  45.7113826  83.5506630 124.4916276  47.1784078
  82.9664424 137.9545302  35.1669970  83.8995097 137.8890863  35.3702845
  82.8787636 138.7901569  34.7084502  85.5952440 137.2711172  32.1273917
  85.5166072 136.9371036  33.0209675  86.4162107 137.7632940  32.1265390
  88.2930631 130.1372911  45.3350236  88.2606952 129.1988912  45.5209920
  88.9031255 130.2156948  44.6016061  80.1313962 129.0068964  31.3777440
  81.0773067 128.8775172  31.4465858  79.7528207 128.2683626  31.8546868
  88.4425120 126.9283955  45.3808519  87.9264169 126.1442411  45.1938448
  89.3265068 126.6002671  45.5455039  86.1035847 120.6724970  41.3404332
  85.9060668 120.3640058  42.2247664  86.7135552 121.3986609  41.4702262
  94.1107181 131.1988918  44.4756273  94.8410570 130.9374206  45.0363976
  93.5014127 130.4617640  44.5158341  92.1922478 129.3396781  45.0730724
  91.4655642 129.2052746  44.4647216  91.7769765 129.6473609  45.8787442
  80.0152655 133.0586710  52.8378097  80.9355664 133.2365309  53.0318143
  79.9802238 132.1142756  52.6857796  78.3156880 126.9318941  31.3132325
  77.4088335 126.6352053  31.3895039  78.5932861 126.6348759  30.4466611
  69.2334820 128.2525304  41.7631372  68.9137604 127.3990612  41.4705746
  68.6868248 128.4673882  42.5189339  73.0114727 130.9687745  45.4800878
  73.2300737 131.9004853  45.4988912  73.4240501 130.6095719  46.2655682
  79.9318945 121.4755830  37.4676566  79.1219674 121.1302915  37.8431813
  80.6203362 121.1663374  38.0564178  81.8609494 120.5533877  39.0900863
  82.4140532 120.9729331  39.7490886  82.0979580 119.6269625  39.1323819
  77.8842593 126.5420951  54.8703627  77.7839320 127.4915308  54.8015718
  77.6664135 126.2139190  53.9979697  77.0855664 123.7905876  31.4544304
  77.9474828 124.1160774  31.7140122  77.2706008 123.0037372  30.9417370
  69.1023080 131.8728216  43.7324493  68.4086551 131.4582168  43.2194448
  69.8496071 131.9148752  43.1357912  85.2388301 122.6634402  38.5979527
  84.6586970 123.3219206  38.2157580  84.9724233 121.8411747  38.1866945
  83.6891867 122.0639460  40.8000848  84.1891645 122.1755995  39.9915167
  84.3327475 121.7600513  41.4401656  77.7473863 129.9718090  53.6868689
  77.2640945 130.7718450  53.8932578  77.8334802 129.9826035  52.7336133
  71.0159822 131.8046469  41.6090508  70.9930511 131.9034157  40.6572391
  71.3260459 132.6511620  41.9307674  73.6747200 133.8622624  45.7237122
  74.6290454 133.8306567  45.6567054  73.4759724 133.4013248  46.5387348
  74.2646582 132.4323740  48.2907920  75.0839471 132.9267819  48.3142757
  74.5383390 131.5155709  48.2625488  84.0213179 124.8234493  37.6535876
  83.1339034 125.1084143  37.4356070  84.4367168 124.6628256  36.8063153
  87.3727715 124.8481014  41.3690215  88.1488105 125.3377466  41.6414832
  86.6475849 125.2739068  41.8262084  89.8100273 125.5608633  42.4264156
  90.4044764 125.3204369  41.7157464  89.8826857 124.8415763  43.0537692
  72.0297429 139.4042244  42.7407320  71.8951897 138.6442645  42.1745318
  71.6129491 140.1283144  42.2736109  83.1656392 134.5879167  31.7483896
  83.8692242 134.7929170  32.3641551  82.4419041 135.1555929  32.0132979
  83.9954202 130.3389029  37.8686166  83.9389404 130.7957580  37.0293798
  84.5482545 129.5779713  37.6909009  87.8059008 126.1278761  38.6936285
  87.5495943 125.7275396  39.5244493  87.1811876 126.8422554  38.5686424
  92.1171346 128.8674834  41.2007577  91.5570904 128.9368023  41.9739139
  91.5114849 128.6915818  40.4807073  75.1866555 140.3011561  42.9525763
  75.0698939 141.2456993  42.8504453  74.3659001 139.9985122  43.3411562
  85.0743089 135.0261697  33.7982356  85.9088693 134.5942895  33.6159830
  84.9127432 134.8543710  34.7259250  84.7288982 131.5293810  35.1638695
  84.6737785 131.3638081  34.2227139  84.1035037 132.2369843  35.3200885
  69.5181497 126.7661874  48.9900117  70.1640360 126.2560828  49.4787342
  69.3098648 127.5030556  49.5643542  82.0434889 133.8342722  54.4892258
  82.9126048 134.0083374  54.1278893  81.5641640 134.6537139  54.3667987
  78.0385107 121.0301919  34.7424013  78.0263777 121.9743759  34.8992284
  78.9308529 120.8472064  34.4483475  76.2121069 140.9539823  46.1681691
  77.1148316 140.9863433  46.4848186  75.9858439 140.0240274  46.1828027
  77.9674671 139.7070809  42.8291770  77.0170302 139.7072671  42.7156142
  78.2707157 138.9603544  42.3127805  81.8537227 117.6244696  38.9969950
  81.0869622 117.0703182  39.1426633  82.2647932 117.6966564  39.8584102
  73.8578988 123.9129491  53.0875131  74.7210449 123.5566296  53.2978456
  73.2844398 123.5743386  53.7750536  93.7027365 145.5431348  43.8937532
  94.3405775 145.4238095  43.1900873  93.5848207 146.4912192  43.9525485
  90.5117071 145.4958776  43.8299057  90.1735582 145.3799841  42.9419592
  91.3806839 145.0949941  43.8100063  86.3703887 147.3494252  39.8195948
  85.8068752 147.2584189  39.0512236  86.2556282 146.5294157  40.2998441
  90.9936854 146.6493628  49.7885263  90.9825495 146.2546426  48.9165766
  91.1557493 145.9159700  50.3819034  88.6400322 146.8107588  45.3265806
  89.2363894 146.5863610  44.6122769  88.6975293 146.0692333  45.9291254
  93.2568633 143.2682802  40.9690740  94.0431722 142.8502225  40.6181157
  93.5207337 144.1728894  41.1372389  98.6577060 143.2058035  41.8723719
  99.3902232 142.6357252  42.1061548  97.9016416 142.8179635  42.3130225
  90.2753180 145.6285276  39.0687061  89.9111387 145.1015897  39.7799983
  91.1320296 145.2383745  38.8953547  96.1802481 136.9179609  46.3318328
  95.8485805 137.7875020  46.1079543  95.5848094 136.6015893  47.0112358
  86.1246482 145.5705952  41.7650945  85.1996978 145.4382166  41.9728637
  86.3730895 146.3500171  42.2620887  96.0731144 141.6374695  43.4111678
  95.1648021 141.5690103  43.1170439  96.0218740 142.1146640  44.2393503
  83.4855293 145.2139225  42.5994734  83.6147674 145.4673704  43.5134146
  82.8052744 145.8066933  42.2799389  90.1472010 143.0564341  51.3546575
  89.3705344 143.6158261  51.3449440  90.7862573 143.5421124  51.8761445
  97.9392790 139.8391133  45.1889552  97.2967171 140.1323667  44.5429346
  97.4347719 139.7244054  45.9942748  88.4018382 145.8649794  50.9164542
  89.1433066 146.4034838  50.6399366  87.6955367 146.4916083  51.0736094
  93.8773722 148.0078934  49.5136703  94.2857078 147.5661345  48.7691336
  93.1550983 147.4331562  49.7670896  90.2304792 142.9451541  46.8870260
  91.0765987 143.3690955  47.0304909  90.1703429 142.2885166  47.5808823
  93.3804237 140.6055910  48.5451434  93.1365169 141.3597970  48.0085710
  93.6564167 140.9841257  49.3798681  92.9368929 139.7612343  44.1265272
  92.0753408 140.0593596  44.4182009  92.9631363 139.9782742  43.1946304
  89.7530498 148.3054533  40.5339077  90.2168844 148.5842236  39.7443700
  89.4887296 147.4037978  40.3512168  88.6899384 144.4277686  37.3428643
  89.3923428 144.8798729  37.8102569  88.3580013 143.7861504  37.9708536
  87.1379746 143.0189442  51.7179852  86.5078406 143.7005723  51.9515249
  87.0315834 142.9072524  50.7732990  82.4324718 142.6861238  42.6445776
  81.6423772 142.9418767  42.1685887  82.9235966 143.5009576  42.7497817
  84.3839464 143.0505817  39.6029253  83.5870627 143.1624512  40.1212748
  84.1565056 143.3892470  38.7370143  80.7162421 142.9391729  45.0760767
  80.9670460 143.8238739  45.3418343  81.2521970 142.7596330  44.3035859
  86.4160488 137.3210208  54.0805103  86.0227434 136.7676407  54.7552747
  87.2326629 137.6320786  54.4711620  89.3328449 138.7368087  51.6725360
  90.0738163 139.3375240  51.5929822  89.5646372 137.9945725  51.1143402
  84.4769787 143.9224454  49.9503589  84.3623303 143.0209712  50.2510688
  83.6214305 144.1688151  49.5988406  93.2785612 134.7649190  45.9489641
  92.9349882 135.6550832  45.8728752  93.6464575 134.5750848  45.0859226
  90.8283006 139.6007502  39.5147315  89.9724602 139.2114352  39.3352953
  91.2409958 139.6799463  38.6547100  92.3582153 137.1353845  43.9138874
  91.8546948 137.0983980  43.1006680  92.6512760 138.0446588  43.9735531
  88.6025039 137.2192575  42.9205056  89.4678035 137.0235384  42.5610946
  88.6702548 136.9902927  43.8474413  86.2087358 139.4494783  40.2921423
  86.7831110 139.2269964  39.5594616  86.7958340 139.5183477  41.0450024
  95.2666935 145.3368510  41.0985800  95.7798817 145.9698502  41.6007509
  95.9168159 144.7369705  40.7329160  88.5110025 136.3236032  39.0196492
  87.8574438 136.0085049  38.3953107  88.4690500 135.7011772  39.7456315
  91.7447766 142.8117965  43.3444140  90.8270327 143.0332912  43.1865828
  92.1607909 142.8864276  42.4855847  94.9761651 141.2466497  40.4565610
  94.2384407 140.7343883  40.7875852  95.2288424 140.8066879  39.6448886
  95.0773278 134.0242749  41.0507379  95.3832155 133.1640113  40.7633294
  95.8025883 134.6160369  40.8506373  81.3697634 144.4273436  39.4388977
  81.1722034 143.8342797  38.7140043  80.8144298 144.1225646  40.1564916
  89.3494358 144.3196542  41.5583570  89.4042968 143.3670379  41.4826047
  88.5385560 144.4755981  42.0424868  87.2886718 142.9373602  39.3173949
  86.4754583 143.2367773  39.7239141  87.7845712 142.5429291  40.0348431
  92.8860929 143.4015427  48.1488843  93.2410317 143.6286900  49.0083308
  93.5333061 143.7333803  47.5266098  86.7800792 140.5091958  44.9335184
  87.4200172 140.3680717  44.2358147  85.9478323 140.2226471  44.5573786
  83.8643860 143.9537470  37.1229929  82.9341448 143.8921925  37.3399891
  83.9601332 143.4313422  36.3266570  83.7829409 140.4792283  39.7108171
  84.0436226 141.3937616  39.6017331  84.6046581 140.0116725  39.8604783
  85.2554334 141.8930040  46.8806995  85.9277388 141.6847402  46.2319644
  84.4284121 141.6952126  46.4412227  91.1579906 138.5191981  48.8972656
  90.5107821 139.2181930  48.8037132  91.9280922 138.9528125  49.2648904
  91.3344041 146.3572746  46.9569476  92.2636101 146.5083905  46.7838443
  90.9135071 146.4456766  46.1018122  85.6581831 145.1672643  47.6409432
  85.5201629 144.4352882  48.2420971  86.5686755 145.0781543  47.3593620
  88.2864132 144.8792602  47.1293112  88.9963751 144.2385794  47.0879730
  88.2433440 145.1305497  48.0519293  86.9993066 141.8657820  48.9488751
  86.4630423 141.4148558  49.6010348  86.4109775 142.0003729  48.2059216
  82.7332187 141.0013828  46.0341746  82.6490376 140.3939497  45.2992156
  81.9114894 141.4922846  46.0351242  92.9055901 139.4867391  41.4011941
  93.4024601 138.7337353  41.0813011  92.1342883 139.5231708  40.8355150
  89.4890870 141.6284774  41.1283626  89.1188657 141.0755815  41.8164531
  89.9849962 141.0242908  40.5758626  95.3474896 136.4536985  43.5491300
  94.4337976 136.6841211  43.7173507  95.7767997 136.5375429  44.4005332
  95.1181354 144.6426877  46.0491194  94.4652805 144.8902784  45.3943647
  95.4961734 143.8291015  45.7153671  91.1668928 145.3846688  52.5357231
  90.4909565 145.2840817  53.2059606  91.9896561 145.2285901  52.9993228
  77.5065441 144.1924224  43.8774189  77.5449541 143.6587815  44.6711307
  77.0005734 143.6659430  43.2585166  84.8856204 139.0388765  47.3736732
  84.9497530 139.9003596  46.9614129  84.8223324 138.4262767  46.6409090
  84.3608476 141.1111897  51.0209766  84.9880515 140.7288975  51.6347290
  83.5036395 140.8926099  51.3865458  81.1374019 142.9188327  36.9528121
  81.4327460 142.0099005  36.8995174  80.2362055 142.8976066  36.6309123
  84.6668266 140.9944323  42.9355669  83.9454852 141.6080291  42.7963143
  85.4561522 141.5302088  42.8572315  87.4694579 138.3298750  49.2096321
  87.9928981 138.5761046  49.9722630  87.2506913 139.1618784  48.7899458
  82.8661860 140.6002424  37.0767446  82.5374567 139.7199803  36.8942552
  83.2201231 140.5450093  37.9643835  85.9803684 140.8875394  37.4442924
  86.3199756 141.4161315  36.7221532  86.4275804 141.2255800  38.2201490
  88.6747124 139.2712445  46.8945992  88.3343945 138.4720258  47.2966671
  87.9686131 139.5714156  46.3222825  89.3263596 136.3561757  45.3473315
  90.1489666 135.8822235  45.2252205  89.5701660 137.1352241  45.8472001
  87.9671831 139.3850016  35.6436216  88.6880193 139.7631268  35.1399933
  87.3437135 140.1038892  35.7471194  92.1102954 140.0895165  36.5794549
  92.3266568 140.9719802  36.2783377  91.6297021 139.6981378  35.8500191
  86.8502175 143.0480878  43.1565293  86.7046756 143.3621181  44.0489575
  86.3727379 143.6665778  42.6036192  88.7098558 140.0383426  43.2046183
  88.6960127 139.1424519  42.8678481  89.4270986 140.0454090  43.8384469
  90.5624689 140.4720766  45.2499310  90.3042466 141.3937837  45.2483641
  90.0309729 140.0751201  45.9399774  88.1135454 138.9197806  38.4733753
  88.2351365 137.9914452  38.6724640  87.8237496 138.9336492  37.5612068
  90.9826644 136.6052717  41.6100473  91.0048341 136.6692050  40.6552452
  91.3994703 135.7657225  41.8040979  82.1113859 144.7156118  48.9883111
  81.3695595 144.8638754  49.5747742  81.7906603 144.9764384  48.1249861
  87.5976533 140.4329803  52.6823686  87.6464689 141.3091926  52.3001455
  88.1399048 139.8907196  52.1095329  95.4933017 143.8094321  50.5916858
  96.3942879 143.6700786  50.3000856  95.5680991 143.9748776  51.5315035
  89.8275822 141.1861176  49.4370044  88.9579131 141.4794742  49.1652633
  90.0635302 141.7701621  50.1577308  84.8418146 146.5317116  37.5710709
  84.5964188 145.6279446  37.7690919  85.0114060 146.5334267  36.6290187
  92.5314856 137.4040793  46.9535465  93.0496800 138.1401820  46.6281953
  92.1769988 137.7104786  47.7882224  84.1113793 142.2645474  35.0696870
  83.4183038 142.3389829  34.4136906  83.8665545 141.5005818  35.5918387
  92.7827450 133.8241075  42.4736361  93.0629204 133.1564264  43.0996788
  93.5678057 134.0170171  41.9611025  96.6536308 142.2458709  46.2207936
  97.6053731 142.3456807  46.2420160  96.4839759 141.4536978  46.7306021
  94.6750688 139.3314293  46.4067337  94.0800620 139.6119305  45.7113826
  94.3900384 139.8208193  47.1784078  99.2818874 142.2575872  45.3808519
  98.7657923 141.4734329  45.1938448 100.1658823 141.9294589  45.5455039
  96.9429601 136.0016888  41.3404332  96.7454423 135.6931976  42.2247664
  97.5529307 136.7278527  41.4702262  90.8546409 148.3878628  52.8378097
  91.7749419 148.5657227  53.0318143  90.8195992 147.4434673  52.6857796
  80.0728574 143.5817222  41.7631372  79.7531359 142.7282530  41.4705746
  79.5262003 143.7965800  42.5189339  90.7712700 136.8047748  37.4676566
  89.9613428 136.4594833  37.8431813  91.4597117 136.4955292  38.0564178
  92.7003248 135.8825795  39.0900863  93.2534287 136.3021248  39.7490886
  92.9373334 134.9561543  39.1323819  88.7236347 141.8712869  54.8703627
  88.6233074 142.8207225  54.8015718  88.5057889 141.5431107  53.9979697
  96.0782055 137.9926320  38.5979527  95.4980724 138.6511124  38.2157580
  95.8117988 137.1703665  38.1866945  94.5285621 137.3931378  40.8000848
  95.0285400 137.5047912  39.9915167  95.1721229 137.0892431  41.4401656
  88.5867617 145.3010007  53.6868689  88.1034699 146.1010367  53.8932578
  88.6728556 145.3117952  52.7336133  94.8606933 140.1526410  37.6535876
  93.9732788 140.4376061  37.4356070  95.2760922 139.9920174  36.8063153
  98.2121469 140.1772931  41.3690215  98.9881859 140.6669384  41.6414832
  97.4869603 140.6030986  41.8262084 100.6494028 140.8900551  42.4264156
 101.2438519 140.6496287  41.7157464 100.7220612 140.1707681  43.0537692
  80.3575251 142.0953792  48.9900117  81.0034115 141.5852746  49.4787342
  80.1492402 142.8322474  49.5643542  88.8778862 136.3593837  34.7424013
  88.8657531 137.3035677  34.8992284  89.7702283 136.1763982  34.4483475
  92.6930981 132.9536613  38.9969950  91.9263377 132.3995100  39.1426633
  93.1041686 133.0258482  39.8584102  84.6972742 139.2421409  53.0875131
  85.5604204 138.8858214  53.2978456  84.1238153 138.9035304  53.7750536
  15.6805345  21.5660894  38.2736396  15.2369199  20.7797272  37.9557301
  16.3422559  21.7540044  37.6080287  17.7786583  21.8463693  36.3017798
  17.7605058  22.6672575  35.8098067  18.7006503  21.7217769  36.5267939
  14.2359637  19.3607823  37.1441306  14.7687974  18.5996111  36.9140614
  13.7073718  19.0681475  37.8865461  23.6287315  18.3352789  33.1227635
  23.8223205  19.2398599  33.3686910  23.5287933  17.8760208  33.9566220
  18.6902424  18.4859532  38.6968516  18.5387930  18.2570083  37.7798600
  18.6807103  19.4430133  38.7099861  20.3994631  21.5178654  36.7744998
  20.3407177  20.8337874  36.1075581  20.8014149  22.2597644  36.3225624
  20.4012038  19.4818238  35.0058977  19.5138817  19.1444160  35.1285376
  20.9710589  18.7501269  35.2427743  16.3911875  24.0406525  34.1278379
  17.1039847  24.6753989  34.0554281  15.9001903  24.1370391  33.3118381
  15.2912647  15.0865387  39.2602538  14.6153284  14.9859516  39.9304913
  16.1140281  14.9304600  39.7238535  14.0335430  26.3932314  33.4960154
  14.5853738  26.5563935  34.2609239  14.3741624  26.9836752  32.8240178
  18.8846305  21.2193571  39.3508808  19.4286209  21.8323530  38.8563763
  18.3033149  21.7773150  39.8675821  14.1801242  23.9590796  35.5108808
  14.4888368  23.7139942  36.3831508  14.9776724  24.1637434  35.0227678
  22.2075099  20.6789626  38.6870129  21.4170643  20.6613764  38.1474629
  21.9708453  21.2177919  39.4419166  22.3272974  17.5282092  36.0002858
  22.3770979  17.3632099  36.9418381  22.2186897  16.6609351  35.6100739
  19.6176736  13.5113020  37.3162164  20.5186599  13.3719485  37.0246162
  19.6924711  13.6767475  38.2560342  23.8291171  19.9479033  36.2444879
  23.5375979  20.3109014  37.0808340  23.2163302  19.2346042  36.0658211
  14.9790129  18.0897327  39.5623404  15.8993139  18.2675926  39.7563450
  14.9439712  17.1453372  39.4103103  12.7111337  15.0028706  40.4113995
  12.2278419  15.8029066  40.6177884  12.7972276  15.0136651  39.4581439
  17.0072363  18.8653338  41.2137564  17.8763523  19.0393991  40.8524199
  16.5279115  19.6847755  41.0913294  28.6664839  30.5741964  30.6182839
  29.3043249  30.4548712  29.9146179  28.5485682  31.5222808  30.6770791
  25.4754545  30.5269392  30.5544364  25.1373057  30.4110457  29.6664899
  26.3444313  30.1260557  30.5345370  25.9574328  31.6804244  36.5130569
  25.9462969  31.2857042  35.6411073  26.1194968  30.9470317  37.1064341
  18.8805793  33.8756060  29.3825475  19.6727085  33.5346885  28.9671774
  19.1202443  33.9851035  30.3027628  26.9140920  36.0475836  21.8555720
  26.2628899  36.6329917  21.4689733  27.7085282  36.5782031  21.9150757
  22.6781589  34.4641356  35.4609753  22.3871455  35.3686987  35.3456420
  23.3138574  34.5057883  36.1753823  23.6037796  31.8418204  32.0511113
  24.2001368  31.6174227  31.3368076  23.6612768  31.1002950  32.6536561
  28.2206107  28.2993418  27.6936047  29.0069197  27.8812841  27.3426464
  28.4844812  29.2039510  27.8617695  33.6214535  28.2368651  28.5969026
  34.3539706  27.6667868  28.8306855  32.8653890  27.8490252  29.0375531
  25.2390654  30.6595893  25.7932368  24.8748861  30.1326514  26.5045290
  26.0957770  30.2694362  25.6198853  31.1439955  21.9490225  33.0563634
  30.8123280  22.8185636  32.8324849  30.5485568  21.6326509  33.7357665
  27.6371474  34.1502771  32.4559547  27.3372197  35.0527810  32.3475354
  27.2922534  33.8834955  33.3080700  21.0883956  30.6016568  28.4896251
  20.1634452  30.4692782  28.6973943  21.3368369  31.3810787  28.9866194
  31.0368618  26.6685312  30.1356984  30.1285496  26.6000720  29.8415745
  30.9856214  27.1457257  30.9638810  18.4492767  30.2449842  29.3240040
  18.5785148  30.4984321  30.2379452  17.7690218  30.8377550  29.0044696
  22.6192254  40.9147092  25.4230515  22.5416284  41.8654917  25.5018995
  22.0153898  40.5692964  26.0805441  25.1109484  28.0874957  38.0791882
  24.3342818  28.6468877  38.0694746  25.7500047  28.5731740  38.6006752
  32.9030265  24.8701750  31.9134858  32.2604645  25.1634283  31.2674653
  32.3985193  24.7554670  32.7188055  23.3655856  30.8960411  37.6409849
  24.1070541  31.4345454  37.3644672  22.6592842  31.5226699  37.7981400
  28.8411196  33.0389551  36.2382010  29.2494552  32.5971962  35.4936642
  28.1188457  32.4642179  36.4916203  25.1942266  27.9762158  33.6115567
  26.0403461  28.4001571  33.7550216  25.1340904  27.3195782  34.3054130
  29.1640011  33.5990742  29.9934299  28.5348873  33.7636456  29.2910367
  28.7765673  34.0132351  30.7645263  33.0429242  34.5345179  27.3478663
  32.3580281  34.9144081  26.7975696  33.1273092  35.1440506  28.0810610
  28.3441711  25.6366526  35.2696741  28.1002643  26.3908587  34.7331016
  28.6201642  26.0151874  36.1043988  30.2980174  32.1805138  33.9474006
  30.5097069  32.8236898  33.2708387  30.2509922  31.3467455  33.4795936
  27.9006403  24.7922959  30.8510578  27.0390882  25.0904213  31.1427316
  27.9268838  25.0093358  29.9191611  24.7167972  33.3365150  27.2584384
  25.1806318  33.6152853  26.4689007  24.4524771  32.4348594  27.0757475
  21.6092054  32.8836631  30.1964147  22.1793411  33.3123900  29.5581632
  22.2000165  32.6019216  30.8948333  22.1017220  28.0500059  38.4425159
  21.4715881  28.7316340  38.6760555  21.9953308  27.9383140  37.4978297
  31.4126002  35.0577094  32.1196364  32.2343446  34.6557281  31.8379045
  31.4088405  34.9545328  33.0712479  25.1782605  34.6061137  34.2757074
  25.2427038  35.0681544  35.1115246  24.4693529  33.9758502  34.4039384
  15.6799895  27.9702345  31.8006074  15.9307934  28.8549355  32.0663649
  16.2159444  27.7906947  31.0281165  39.5031995  31.4015842  28.4681335
  38.7495703  30.8323240  28.3125339  39.6379536  31.3678507  29.4151970
  24.8930623  36.2729245  24.1436054  24.7576298  37.1180780  24.5720902
  25.4340436  36.4748522  23.3801988  21.3797963  22.3520825  40.8050410
  20.9864908  21.7987023  41.4798054  22.1964103  22.6631403  41.1956927
  20.1554905  36.9070439  26.7986733  20.3321534  37.8288404  26.6107717
  20.9511739  36.5928858  27.2281112  24.2965924  23.7678704  38.3970666
  25.0375637  24.3685857  38.3175129  24.5283847  23.0256341  37.8388709
  19.4407262  28.9535071  36.6748896  19.3260777  28.0520328  36.9755995
  18.5851780  29.1998768  36.3233712  26.5199099  36.8952811  38.2736396
  26.0762954  36.1089190  37.9557301  27.1816313  37.0831962  37.6080287
  21.2786221  38.4248613  32.7997075  21.8293646  38.2965676  32.0274069
  20.4397697  38.7243502  32.4491968  28.6180338  37.1755611  36.3017798
  28.5998813  37.9964492  35.8098067  29.5400258  37.0509686  36.5267939
  25.0753392  34.6899741  37.1441306  25.6081729  33.9288029  36.9140614
  24.5467473  34.3973392  37.8865461  28.2423087  19.7959807  32.6734948
  27.8987356  20.6861448  32.5974058  28.6102049  19.6061464  31.8104533
  27.3219627  22.1664462  30.6384181  26.8184423  22.1294597  29.8251986
  27.6150234  23.0757204  30.6980838  33.1807644  32.5400772  23.1160556
  32.4037086  32.2011932  22.6715719  33.8599125  32.5453395  22.4415521
  26.4406104  33.8185733  24.6560118  25.9127466  33.0838493  24.3433356
  25.9393607  34.5960409  24.4100086  31.4198950  32.0134754  29.7727164
  30.7622625  32.7034015  29.8607293  32.2239350  32.4031186  30.1161151
  30.2304409  30.3679126  27.8231106  30.7436291  31.0009118  28.3252816
  30.8805633  29.7680322  27.4574466  27.4926783  40.3463451  20.5791777
  26.8188482  40.6495147  21.1876735  27.8792605  41.1492531  20.2297234
  26.7085240  27.8428582  30.0689447  25.7907801  28.0643529  29.9111135
  27.1245384  27.9174892  29.2101154  27.4920288  29.2419998  25.1992127
  28.2392107  29.7541395  24.8899249  27.7611877  28.9204050  26.0596521
  30.9966205  35.3485128  25.9510249  30.5428533  34.5076038  26.0075439
  30.3660172  35.9846526  26.2885029  29.9399125  26.2777114  27.1810916
  29.2021882  25.7654500  27.5121159  30.1925899  25.8377495  26.3694193
  29.4399145  37.1861624  26.8860067  29.7322119  37.7466682  26.1672433
  29.9497765  37.4790185  27.6413226  24.3131832  29.3507159  28.2828877
  24.3680442  28.3980995  28.2071353  23.5023034  29.5066598  28.7670175
  24.4032770  37.9641976  27.9753520  24.3608949  38.1902822  27.0462052
  25.3195469  37.7305350  28.1239321  27.8498404  28.4326043  34.8734149
  28.2047791  28.6597516  35.7328615  28.4970535  28.7644420  34.2511405
  33.5796141  31.5544479  25.5783478  33.4414039  31.7446075  24.6504668
  33.2232359  32.3163862  26.0351530  21.7438267  25.5402574  31.6580490
  22.3837646  25.3991333  30.9603454  20.9115797  25.2537087  31.2819092
  33.6065520  33.6221006  30.5894750  34.0402027  33.5296295  31.4377804
  34.3197101  33.5978506  29.9514766  22.5198571  34.8405005  27.7715483
  23.3139169  34.3455325  27.5698058  21.8090263  34.3122868  27.4083188
  27.3393415  37.2223100  32.1227850  27.3930437  37.7914036  32.8905566
  26.4708197  37.3924985  31.7581888  20.2191809  26.9240656  33.6052302
  20.8914862  26.7158018  32.9564951  19.3921595  26.7262742  33.1657534
  34.4681070  33.6644707  33.1227635  34.6616960  34.5690517  33.3686910
  34.3681688  33.2052126  33.9566220  26.1217381  23.5502597  35.6217963
  25.4745296  24.2492547  35.5282439  26.8918396  23.9838741  35.9894211
  29.5296178  33.8151449  38.6968516  29.3781685  33.5862001  37.7798600
  29.5200858  34.7722051  38.7099861  26.2981515  31.3883362  33.6814782
  27.2273575  31.5394522  33.5083750  25.8772545  31.4767383  32.8263429
  25.0969847  35.4134027  31.4513320  24.9580932  35.0452811  32.3239258
  24.3084443  35.9281666  31.2797278  25.6917999  40.5143123  22.7938856
  25.8669754  40.0431166  23.6084479  25.0050787  41.1408889  23.0220117
  26.6475062  34.7915629  28.8402158  26.3124894  34.7516399  29.7359808
  26.1479007  34.1260345  28.3672568  20.6219306  30.1983259  34.3654739
  20.4839104  29.4663498  34.9666278  21.5324229  30.1092159  34.0838927
  23.2501606  29.9103219  33.8538419  23.9601225  29.2696411  33.8125037
  23.2070915  30.1616113  34.7764599  31.2388385  36.8470572  36.7744998
  31.1800931  36.1629792  36.1075581  31.6407903  37.5889562  36.3225624
  21.9630540  26.8968436  35.6734058  21.4267897  26.4459175  36.3255654
  21.3747249  27.0314345  34.9304522  20.2579084  43.6632486  29.5678717
  20.4975682  44.2951010  30.2457735  19.4148280  43.3120526  29.8544076
  31.2405792  34.8110156  35.0058977  30.3532571  34.4736078  35.1285376
  31.8104343  34.0793187  35.2427743  17.6969662  26.0324444  32.7587053
  17.6127850  25.4250114  32.0237462  16.8752368  26.5233462  32.7596549
  24.7706946  39.4711608  31.9720221  24.6977117  40.2766580  32.4839525
  24.3284339  39.6703574  31.1468242  24.5596725  38.7083378  25.4823042
  23.7764247  39.2505058  25.5761267  25.2589471  39.2257358  25.8817283
  35.7223133  30.2218373  29.7675539  35.7113009  31.1043089  29.3969472
  34.8540512  29.8689924  29.5730076  27.2305629  39.3698442  34.1278379
  27.9433602  40.0045907  34.0554281  26.7395658  39.4662308  33.3118381
  28.9523156  33.2749695  25.6995671  28.0179435  33.3951157  25.5300375
  29.1299825  32.3722162  25.4355681  32.3395708  29.1167014  26.2345705
  32.8056160  29.9495006  26.1606008  32.7903208  28.6511996  26.9390964
  22.2817543  37.1192886  34.9483950  22.9827002  37.7529369  35.1013344
  21.8112658  37.4607617  34.1879589  30.4071939  35.4610835  23.2331857
  30.6831783  35.3467430  24.1425731  29.5376437  35.0628320  23.1944030
  30.3112370  21.4847601  30.2736606  29.3975450  21.7151828  30.4418813
  30.7405472  21.5686045  31.1250639  30.0818829  29.6737493  32.7736500
  29.4290279  29.9213401  32.1188953  30.4599209  28.8601631  32.4398978
  27.0426003  39.7097186  26.8764671  27.2248397  38.8918842  27.3392423
  27.8658989  39.9264879  26.4389561  27.3768168  38.6365371  24.1379719
  27.9055935  38.1257826  23.5249881  27.6396388  38.3207902  25.0025252
  26.1306402  30.4157304  39.2602538  25.4547039  30.3151434  39.9304913
  26.9534036  30.2596518  39.7238535  17.8785261  36.6529241  31.8815053
  18.4638698  35.9072929  32.0142957  17.6810099  36.9633197  32.7651717
  20.7323916  39.6880488  26.8977495  20.0634291  40.1726616  26.4141535
  20.5936786  39.9349709  27.8120874  24.8729185  41.7224232  33.4960154
  25.4247493  41.8855853  34.2609239  25.2135378  42.3128669  32.8240178
  19.8493678  24.0699381  34.0982038  19.9135004  24.9314212  33.6859436
  19.7860798  23.4573383  33.3654397  19.3245950  26.1422514  37.7455073
  19.9517989  25.7599591  38.3592597  18.4673869  25.9236716  38.1110765
  29.7240059  36.5485489  39.3508808  30.2679963  37.1615447  38.8563763
  29.1426904  37.1065068  39.8675821  28.0097572  39.6706207  30.4823836
  27.8848711  38.8695947  29.9734781  28.6676663  40.1652401  29.9937806
  30.0732480  37.4715227  32.1103386  29.1262816  37.3520578  32.0381713
  30.4215253  36.5837725  32.1929647  22.4332054  23.3609366  35.9341628
  22.9566456  23.6071663  36.6967937  22.2144387  24.1929401  35.5144765
  27.0778914  37.2667943  28.3107738  26.9303876  36.3384651  28.4915308
  27.9032407  37.2888034  27.8264813  30.6813036  38.0896502  29.3972611
  31.6059583  37.8839364  29.2597062  30.5128339  37.8412903  30.3061952
  23.6384599  24.3023061  33.6191298  23.2981419  23.5030874  34.0211978
  22.9323605  24.6024772  33.0468131  24.2901071  21.3872374  32.0718621
  25.1127140  20.9132852  31.9497512  24.5339134  22.1662857  32.5717308
  21.8139649  28.0791494  29.8810600  21.6684230  28.3931797  30.7734881
  21.3364853  28.6976395  29.3281499  23.6736032  25.0694042  29.9291489
  23.6597601  24.1735136  29.5923787  24.3908460  25.0764706  30.5629775
  25.5262163  25.5031383  31.9744617  25.2679941  26.4248453  31.9728947
  24.9947203  25.1061817  32.6645081  30.4708352  38.6082170  24.7534702
  30.6445229  38.0428592  24.0008555  30.9637243  39.4083065  24.5714192
  16.2885312  30.6196839  32.8198261  15.7438780  31.3956647  32.9518535
  17.1664661  30.9667643  32.6617382  36.3247743  31.3718593  26.3725002
  36.7678889  30.6225918  25.9744125  35.4474253  31.3628729  25.9898734
  31.4583524  37.9248934  21.8531601  32.1534429  38.5455627  22.0718915
  31.8006674  37.0744285  22.1283978  17.0751333  29.7466735  35.7128418
  16.3333069  29.8949370  36.2993048  16.7544078  30.0075001  34.8495167
  33.3574947  35.3748640  23.3818931  33.8826271  35.7135912  22.6568251
  33.2697300  34.4395655  23.1982066  25.0194996  39.2882713  35.5108808
  25.3282122  39.0431860  36.3831508  25.8170478  39.4929352  35.0227678
  25.0415608  41.4420623  27.7414184  24.6020598  40.9497002  28.4347041
  25.7923725  40.8993591  27.5006260  17.5207947  37.6332164  27.7438813
  18.3465967  37.3335936  27.3637456  17.1701999  36.8639786  28.1928601
  22.4889480  36.9858632  29.8136486  21.8669490  36.3229337  29.5138714
  23.1594347  37.0119764  29.1310134  15.7216552  35.5518490  28.7027746
  14.8848460  35.1240665  28.5211747  15.6940198  35.7450934  29.6398537
  22.5614008  25.4640420  39.4068992  22.6102163  26.3402543  39.0246762
  23.1036522  24.9217813  38.8340635  33.0468853  36.0081543  38.6870129
  32.2564397  35.9905682  38.1474629  32.8102208  36.5469837  39.4419166
  33.1666728  32.8574010  36.0002858  33.2164733  32.6924017  36.9418381
  33.0580652  31.9901269  35.6100739  30.4570491  28.8404938  37.3162164
  31.3580354  28.7011402  37.0246162  30.5318465  29.0059392  38.2560342
  24.7913296  26.2171792  36.1615351  23.9216606  26.5105358  35.8897939
  25.0272777  26.8012237  36.8822614  34.6684925  35.2770951  36.2444879
  34.3769734  35.6400932  37.0808340  34.0557057  34.5637959  36.0658211
  35.8680608  32.8423831  28.7647450  36.7027499  33.2813635  28.9285010
  36.0039736  32.3662484  27.9455695  32.9172114  30.4003566  34.7124937
  33.3926235  30.5931212  33.9043789  31.9937679  30.4562752  34.4668321
  27.4952330  22.4351409  33.6780771  28.0134274  23.1712436  33.3527260
  27.1407463  22.7415403  34.5127530  31.6173783  27.2769326  32.9453243
  32.5691205  27.3767423  32.9665467  31.4477233  26.4847594  33.4551327
  29.6388162  24.3624909  33.1312644  29.0438094  24.6429922  32.4359132
  29.3537859  24.8518810  33.9029385  28.7695652  38.3147836  21.8915276
  29.7026326  38.2493398  22.0948152  28.6818865  39.1504103  21.4329809
  31.3983669  37.6313706  18.8519224  31.3197301  37.2973570  19.7454982
  32.2193336  38.1235474  18.8510696  34.0961860  30.4975446  32.0595543
  34.0638180  29.5591446  32.2455226  34.7062484  30.5759482  31.3261367
  34.2456349  27.2886489  32.1053826  33.7295397  26.5044946  31.9183755
  35.1296297  26.9605206  32.2700345  31.9067076  21.0327505  28.0649638
  31.7091897  20.7242593  28.9492970  32.5166781  21.7589143  28.1947568
  39.9138410  31.5591452  31.2001579  40.6441799  31.2976740  31.7609283
  39.3045356  30.8220174  31.2403647  37.9953707  29.6999315  31.7976031
  37.2686871  29.5655280  31.1892522  37.5800994  30.0076144  32.6032749
  25.8183884  33.4189245  39.5623404  26.7386893  33.5967844  39.7563450
  25.7833467  32.4745290  39.4103103  18.8145956  31.3290279  32.2046185
  19.0331966  32.2607387  32.2234219  19.2271730  30.9698254  32.9900989
  23.6873822  26.9023485  41.5948934  23.5870548  27.8517842  41.5261025
  23.4695364  26.5741724  40.7225004  14.9054309  32.2330750  30.4569800
  14.2117780  31.8184703  29.9439754  15.6527300  32.2751286  29.8603219
  23.5505092  30.3320624  40.4113995  23.0672173  31.1320984  40.6177884
  23.6366031  30.3428569  39.4581439  19.4778429  34.2225159  32.4482429
  20.4321683  34.1909101  32.3812361  19.2790953  33.7615782  33.2632655
  20.0677811  32.7926275  35.0153227  20.8870700  33.2870353  35.0388064
  20.3414619  31.8758243  34.9870794  33.1758944  25.2083548  28.0935522
  33.9519334  25.6980000  28.3660138  32.4507078  25.6341602  28.5507391
  35.6131502  25.9211167  29.1509462  36.2075993  25.6806903  28.4402770
  35.6858086  25.2018298  29.7782998  17.8328658  39.7644778  29.4652627
  17.6983126  39.0045179  28.8990625  17.4160720  40.4885678  28.9981416
  29.7985431  30.6991563  24.5931472  29.7420633  31.1560114  23.7539105
  30.3513774  29.9382247  24.4154315  33.6090237  26.4881295  25.4181592
  33.3527171  26.0877930  26.2489800  32.9843105  27.2025089  25.2931731
  37.9202575  29.2277368  27.9252883  37.3602133  29.2970557  28.6984445
  37.3146078  29.0518353  27.2052380  20.9897784  40.6614095  29.6771070
  20.8730168  41.6059528  29.5749760  20.1690230  40.3587657  30.0656869
  30.8774318  35.3864231  20.5227662  31.7119922  34.9545429  20.3405137
  30.7158661  35.2146245  21.4504557  15.3212725  27.1264409  35.7145424
  15.9671589  26.6163362  36.2032649  15.1129877  27.8633090  36.2888849
  27.8466118  34.1945256  41.2137564  28.7157277  34.3685908  40.8524199
  27.3672869  35.0139673  41.0913294  22.0152298  41.3142357  32.8926998
  22.9179545  41.3465967  33.2093493  21.7889668  40.3842808  32.9073334
  23.7705900  40.0673344  29.5537077  22.8201531  40.0675205  29.4401449
  24.0738386  39.3206078  29.0373111  19.6610216  24.2732026  39.8120438
  20.5241678  23.9168830  40.0223763  19.0875627  23.9345920  40.4995842
  39.5058593  45.9033882  30.6182839  40.1437003  45.7840629  29.9146179
  39.3879436  46.8514726  30.6770791  36.3148300  45.8561310  30.5544364
  35.9766811  45.7402375  29.6664899  37.1838068  45.4552475  30.5345370
  32.1735115  47.7096786  26.5441255  31.6099981  47.6186723  25.7757542
  32.0587510  46.8896691  27.0243747  36.7968083  47.0096162  36.5130569
  36.7856723  46.6148960  35.6411073  36.9588722  46.2762234  37.1064341
  29.7199547  49.2047978  29.3825475  30.5120839  48.8638803  28.9671774
  29.9596197  49.3142953  30.3027628  37.7534674  51.3767754  21.8555720
  37.1022654  51.9621835  21.4689733  38.5479037  51.9073949  21.9150757
  31.6790301  48.4656891  22.2542854  32.4521177  47.9185878  22.1155730
  32.0315700  49.3301141  22.4657315  33.5175344  49.7933274  35.4609753
  33.2265210  50.6978904  35.3456420  34.1532328  49.8349801  36.1753823
  34.4431551  47.1710122  32.0511113  35.0395123  46.9466144  31.3368076
  34.5006522  46.4294868  32.6536561  34.0156579  44.6249557  19.8861304
  34.2682100  44.1031079  19.1244767  33.0781138  44.4615703  19.9887987
  39.0599862  43.6285336  27.6936047  39.8462951  43.2104759  27.3426464
  39.3238566  44.5331428  27.8617695  39.2309939  49.0658186  22.3924704
  38.5955772  49.1392813  23.1045609  38.9007346  49.6551785  21.7143783
  44.4608289  43.5660569  28.5969026  45.1933461  42.9959786  28.8306855
  43.7047645  43.1782169  29.0375531  33.7352868  46.5277663  22.0885679
  33.6189126  45.8522567  22.7566763  33.8455128  46.0410037  21.2717832
  36.0784409  45.9887810  25.7932368  35.7142616  45.4618431  26.5045290
  36.9351525  45.5986280  25.6198853  41.9833709  37.2782143  33.0563634
  41.6517034  38.1477554  32.8324849  41.3879323  36.9618427  33.7357665
  35.7189896  41.0177710  20.7893717  35.8864298  41.8857947  21.1564188
  35.5287065  41.1804992  19.8655006  38.4765229  49.4794689  32.4559547
  38.1765952  50.3819728  32.3475354  38.1316288  49.2126872  33.3080700
  31.9277710  45.9308486  28.4896251  31.0028207  45.7984700  28.6973943
  32.1762124  46.7102705  28.9866194  41.8762373  41.9977229  30.1356984
  40.9679250  41.9292638  29.8415745  41.8249968  42.4749174  30.9638810
  35.6979117  43.4735368  21.7740383  35.5778742  43.9192418  22.6125864
  35.0031705  43.8220685  21.2153922  29.2886521  45.5741759  29.3240040
  29.4178903  45.8276238  30.2379452  28.6083973  46.1669467  29.0044696
  33.4586009  56.2439009  25.4230515  33.3810038  57.1946835  25.5018995
  32.8547652  55.8984882  26.0805441  35.9503238  43.4166875  38.0791882
  35.1736573  43.9760795  38.0694746  36.5893802  43.9023658  38.6006752
  43.7424019  40.1993668  31.9134858  43.0998399  40.4926201  31.2674653
  43.2378948  40.0846588  32.7188055  41.3964183  43.9456841  22.6020717
  42.3082039  44.1784228  22.4268415  40.8873830  44.5293885  22.0395796
  34.2049611  46.2252328  37.6409849  34.9464295  46.7637372  37.3644672
  33.4986596  46.8518617  37.7981400  39.6804950  48.3681469  36.2382010
  40.0888306  47.9263879  35.4936642  38.9582212  47.7934096  36.4916203
  36.0336020  43.3054075  33.6115567  36.8797216  43.7293489  33.7550216
  35.9734658  42.6487700  34.3054130  40.0033765  48.9282659  29.9934299
  39.3742627  49.0928373  29.2910367  39.6159427  49.3424269  30.7645263
  43.8822997  49.8637097  27.3478663  43.1974035  50.2435999  26.7975696
  43.9666846  50.4732424  28.0810610  39.1835466  40.9658444  35.2696741
  38.9396398  41.7200504  34.7331016  39.4595396  41.3443791  36.1043988
  41.1373929  47.5097056  33.9474006  41.3490824  48.1528816  33.2708387
  41.0903677  46.6759373  33.4795936  38.7400158  40.1214877  30.8510578
  37.8784637  40.4196130  31.1427316  38.7662592  40.3385276  29.9191611
  35.5561727  48.6657067  27.2584384  36.0200072  48.9444770  26.4689007
  35.2918525  47.7640512  27.0757475  32.4485808  48.2128549  30.1964147
  33.0187165  48.6415817  29.5581632  33.0393920  47.9311134  30.8948333
  34.4930613  44.7880220  24.0673949  35.1954656  45.2401263  24.5347876
  34.1611241  44.1464039  24.6953842  32.9410975  43.3791976  38.4425159
  32.3109635  44.0608257  38.6760555  32.8347062  43.2675058  37.4978297
  28.2355947  43.0463772  29.3691083  27.4455001  43.3021301  28.8931193
  28.7267194  43.8612110  29.4743123  42.2519757  50.3869012  32.1196364
  43.0737200  49.9849199  31.8379045  42.2482159  50.2837246  33.0712479
  30.1870692  43.4108352  26.3274559  29.3901856  43.5227046  26.8458055
  29.9596285  43.7495004  25.4615450  36.0176360  49.9353055  34.2757074
  36.0820792  50.3973462  35.1115246  35.3087284  49.3050420  34.4039384
  26.5193650  43.2994263  31.8006074  26.7701688  44.1841273  32.0663649
  27.0553198  43.1198864  31.0281165  50.3425750  46.7307760  28.4681335
  49.5889458  46.1615158  28.3125339  50.4773291  46.6970425  29.4151970
  35.7324378  51.6021162  24.1436054  35.5970052  52.4472698  24.5720902
  36.2734190  51.8040440  23.3801988  32.2191717  37.6812742  40.8050410
  31.8258663  37.1278941  41.4798054  33.0357858  37.9923321  41.1956927
  29.1853775  49.1196600  24.7163979  29.6978296  49.9139851  24.8669544
  29.8376488  48.4222891  24.6497581  30.9948660  52.2362357  26.7986733
  31.1715288  53.1580321  26.6107717  31.7905493  51.9220776  27.2281112
  35.1359678  39.0970621  38.3970666  35.8769392  39.6977774  38.3175129
  35.3677601  38.3548259  37.8388709  30.2801016  44.2826989  36.6748896
  30.1654531  43.3812246  36.9755995  29.4245534  44.5290685  36.3233712
  37.3592854  52.2244729  38.2736396  36.9156708  51.4381107  37.9557301
  38.0210068  52.4123879  37.6080287  32.1179975  53.7540530  32.7997075
  32.6687400  53.6257594  32.0274069  31.2791451  54.0535419  32.4491968
  39.4574092  52.5047529  36.3017798  39.4392567  53.3256410  35.8098067
  40.3794012  52.3801604  36.5267939  35.9147146  50.0191658  37.1441306
  36.4475483  49.2579946  36.9140614  35.3861227  49.7265310  37.8865461
  39.0816841  35.1251724  32.6734948  38.7381111  36.0153366  32.5974058
  39.4495804  34.9353382  31.8104533  27.1502692  47.4485255  25.4923550
  27.9877914  47.8582263  25.2757258  27.3280959  46.5084697  25.4623744
  39.0467124  45.1160335  21.1807383  38.5313747  45.8864940  21.4195770
  38.7744432  44.4425472  21.8040444  36.6314235  39.9610036  26.2392621
  35.7755831  39.5716887  26.0598260  37.0441187  40.0401997  25.3792407
  38.1613382  37.4956379  30.6384181  37.6578177  37.4586515  29.8251986
  38.4543988  38.4049122  30.6980838  34.4056267  37.5795109  29.6450363
  35.2709264  37.3837918  29.2856252  34.4733776  37.3505461  30.5719720
  44.0201398  47.8692690  23.1160556  43.2430841  47.5303850  22.6715719
  44.6992879  47.8745313  22.4415521  38.8353427  42.9887427  23.0067164
  38.5303563  43.3033577  23.8577307  39.7883869  43.0668847  23.0494497
  37.2799859  49.1477651  24.6560118  36.7521220  48.4130410  24.3433356
  36.7787362  49.9252327  24.4100086  42.2592705  47.3426671  29.7727164
  41.6016379  48.0325933  29.8607293  43.0633104  47.7323103  30.1161151
  32.0118587  39.8097317  27.0166730  32.5862338  39.5872499  26.2839923
  32.5989569  39.8786012  27.7695331  41.0698164  45.6971044  27.8231106
  41.5830045  46.3301036  28.3252816  41.7199388  45.0972239  27.4574466
  32.3388174  41.8401778  21.0362615  31.5025486  42.1776465  21.3571890
  32.1992943  41.7050758  20.0989752  34.3141254  36.6838566  25.7441799
  33.6605667  36.3687583  25.1198414  34.2721728  36.0614306  26.4701622
  35.4252459  46.9657861  17.6595091  34.5179521  46.7347114  17.8586240
  35.9223491  46.1695480  17.8469073  38.3320538  55.6755368  20.5791777
  37.6582237  55.9787065  21.1876735  38.7186360  56.4784449  20.2297234
  37.5478995  43.1720500  30.0689447  36.6301556  43.3935447  29.9111135
  37.9639138  43.2466810  29.2101154  38.3314042  44.5711915  25.1992127
  39.0785861  45.0833312  24.8899249  38.6005632  44.2495968  26.0596521
  36.6040693  47.0670456  22.1819081  35.6951912  46.7829489  22.2791551
  36.6335776  47.4869534  21.3222388  41.8359960  50.6777045  25.9510249
  41.3822287  49.8367955  26.0075439  41.2053927  51.3138444  26.2885029
  40.7792880  41.6069031  27.1810916  40.0415636  41.0946418  27.5121159
  41.0319653  41.1669413  26.3694193  40.2792899  52.5153542  26.8860067
  40.5715874  53.0758599  26.1672433  40.7891520  52.8082103  27.6413226
  40.8804507  34.3845283  27.7752686  41.1863384  33.5242647  27.4878601
  41.6057112  34.9762904  27.5751679  27.1728863  44.7875970  26.1634283
  26.9753263  44.1945331  25.4385350  26.6175527  44.4828180  26.8810222
  35.1525587  44.6799077  28.2828877  35.2074196  43.7272913  28.2071353
  34.3416789  44.8358516  28.7670175  36.3016780  48.6079200  19.5207160
  35.8636210  47.8915059  19.0612797  37.0427221  48.8355314  18.9592251
  33.0917946  43.2976136  26.0419255  32.2785812  43.5970307  26.4484448
  33.5876941  42.9031825  26.7593738  35.2426524  53.2933893  27.9753520
  35.2002703  53.5194739  27.0462052  36.1589223  53.0597268  28.1239321
  38.6892158  43.7617961  34.8734149  39.0441546  43.9889434  35.7328615
  39.3364289  44.0936338  34.2511405  44.4189895  46.8836397  25.5783478
  44.2807794  47.0737993  24.6504668  44.0626114  47.6455779  26.0351530
  32.5832021  40.8694492  31.6580490  33.2231401  40.7283251  30.9603454
  31.7509552  40.5829005  31.2819092  44.4459275  48.9512924  30.5894750
  44.8795781  48.8588213  31.4377804  45.1590855  48.9270424  29.9514766
  33.3592325  50.1696922  27.7715483  34.1532924  49.6747242  27.5698058
  32.6484018  49.6414785  27.4083188  38.1787170  52.5515018  32.1227850
  38.2324192  53.1205954  32.8905566  37.3101951  52.7216903  31.7581888
  29.6675089  44.3140004  23.8475236  28.7372677  44.2524459  24.0645198
  29.7632561  43.7915957  23.0511877  29.5860638  40.8394817  26.4353477
  29.8467455  41.7540150  26.3262638  30.4077810  40.3719259  26.5850090
  31.0585563  42.2532574  33.6052302  31.7308616  42.0449936  32.9564951
  30.2315350  42.0554660  33.1657534  45.3074824  48.9936624  33.1227635
  45.5010714  49.8982435  33.3686910  45.2075442  48.5344043  33.9566220
  36.9611135  38.8794515  35.6217963  36.3139050  39.5784465  35.5282439
  37.7312150  39.3130659  35.9894211  40.3689933  49.1443367  38.6968516
  40.2175439  48.9153919  37.7798600  40.3594612  50.1013968  38.7099861
  37.1375269  46.7175280  33.6814782  38.0667329  46.8686439  33.5083750
  36.7166299  46.8059301  32.8263429  35.9363601  50.7425944  31.4513320
  35.7974687  50.3744729  32.3239258  35.1478197  51.2573584  31.2797278
  36.5311753  55.8435041  22.7938856  36.7063509  55.3723084  23.6084479
  35.8444541  56.4700807  23.0220117  37.4868816  50.1207547  28.8402158
  37.1518649  50.0808317  29.7359808  36.9872762  49.4552263  28.3672568
  31.4613060  45.5275177  34.3654739  31.3232858  44.7955416  34.9666278
  32.3717984  45.4384077  34.0838927  40.4228008  47.4663581  19.1139217
  39.8057179  46.7410409  19.0172270  39.9544496  48.2272941  18.7706292
  34.0895361  45.2395136  33.8538419  34.7994979  44.5988328  33.8125037
  34.0464669  45.4908031  34.7764599  42.0782140  52.1762490  36.7744998
  42.0194686  51.4921710  36.1075581  42.4801658  52.9181480  36.3225624
  32.8024295  42.2260354  35.6734058  32.2661652  41.7751093  36.3255654
  32.2141003  42.3606263  34.9304522  31.0972838  58.9924403  29.5678717
  31.3369437  59.6242928  30.2457735  30.2542035  58.6412443  29.8544076
  32.2126554  41.6849006  18.2360522  31.3356020  41.5637806  17.8722768
  32.6884307  40.8935084  17.9839410  42.0799547  50.1402074  35.0058977
  41.1926326  49.8027995  35.1285376  42.6498098  49.4085105  35.2427743
  23.7328694  46.4726165  28.3302029  24.4199734  46.1587895  27.7423044
  23.5776823  47.3767530  28.0569280  28.5363416  41.3616362  32.7587053
  28.4521605  40.7542031  32.0237462  27.7146123  41.8525380  32.7596549
  35.6100700  54.8003526  31.9720221  35.5370872  55.6058497  32.4839525
  35.1678093  54.9995492  31.1468242  35.3990480  54.0375296  25.4823042
  34.6158002  54.5796976  25.5761267  36.0983225  54.5549276  25.8817283
  38.7087130  39.8469925  28.1257248  39.2055830  39.0939888  27.8058318
  37.9374112  39.8834242  27.5600457  46.5616887  45.5510291  29.7675539
  46.5506764  46.4335006  29.3969472  45.6934267  45.1981842  29.5730076
  38.0699384  54.6990360  34.1278379  38.7827356  55.3337825  34.0554281
  37.5789412  54.7954226  33.3118381  39.7916911  48.6041613  25.6995671
  38.8573189  48.7243075  25.5300375  39.9693579  47.7014079  25.4355681
  35.2922099  41.9887308  27.8528932  34.9219886  41.4358349  28.5409838
  35.7881191  41.3845442  27.3003932  43.1789462  44.4458932  26.2345705
  43.6449914  45.2786923  26.1606008  43.6296963  43.9803913  26.9390964
  33.1211297  52.4484803  34.9483950  33.8220757  53.0821286  35.1013344
  32.6506412  52.7899535  34.1879589  41.2465693  50.7902753  23.2331857
  41.5225537  50.6759348  24.1425731  40.3770192  50.3920238  23.1944030
  41.1506125  36.8139519  30.2736606  40.2369205  37.0443746  30.4418813
  41.5799226  36.8977963  31.1250639  40.9212583  45.0029411  32.7736500
  40.2684034  45.2505318  32.1188953  41.2992963  44.1893549  32.4398978
  37.8819757  55.0389104  26.8764671  38.0642152  54.2210760  27.3392423
  38.7052743  55.2556796  26.4389561  38.2161923  53.9657289  24.1379719
  38.7449689  53.4549744  23.5249881  38.4790142  53.6499819  25.0025252
  36.9700156  45.7449222  39.2602538  36.2940793  45.6443351  39.9304913
  37.7927790  45.5888436  39.7238535  28.7179015  51.9821158  31.8815053
  29.3032452  51.2364846  32.0142957  28.5203854  52.2925115  32.7651717
  31.5717671  55.0172406  26.8977495  30.9028046  55.5018533  26.4141535
  31.4330540  55.2641626  27.8120874  23.3096670  44.5526759  30.6019496
  23.3480770  44.0190349  31.3956614  22.8036963  44.0261964  29.9830473
  35.7122939  57.0516149  33.4960154  36.2641247  57.2147771  34.2609239
  36.0529133  57.6420587  32.8240178  30.6887432  39.3991299  34.0982038
  30.7528759  40.2606130  33.6859436  30.6254553  38.7865301  33.3654397
  30.1639705  41.4714432  37.7455073  30.7911744  41.0891509  38.3592597
  29.3067624  41.2528634  38.1110765  40.5633814  51.8777407  39.3508808
  41.1073717  52.4907365  38.8563763  39.9820658  52.4356985  39.8675821
  26.9405248  43.2790861  23.6773427  27.2358689  42.3701539  23.6240481
  26.0393283  43.2578600  23.3554430  38.8491326  54.9998125  30.4823836
  38.7242466  54.1987865  29.9734781  39.5070418  55.4944318  29.9937806
  30.4699495  41.3546857  29.6600976  29.7486080  41.9682825  29.5208449
  31.2592750  41.8904622  29.5817622  40.9126235  52.8007145  32.1103386
  39.9656570  52.6812496  32.0381713  41.2609008  51.9129643  32.1929647
  33.2725808  38.6901284  35.9341628  33.7960210  38.9363580  36.6967937
  33.0538141  39.5221319  35.5144765  28.6693089  40.9604958  23.8012752
  28.3405795  40.0802337  23.6187858  29.0232460  40.9052627  24.6889142
  37.9172668  52.5959861  28.3107738  37.7697631  51.6676569  28.4915308
  38.7426162  52.6179952  27.8264813  31.7834912  41.2477928  24.1688230
  32.1230985  41.7763849  23.4466839  32.2307033  41.5858334  24.9446797
  41.5206790  53.4188420  29.3972611  42.4453337  53.2131281  29.2597062
  41.3522093  53.1704821  30.3061952  34.4778353  39.6314979  33.6191298
  34.1375174  38.8322792  34.0211978  33.7717360  39.9316690  33.0468131
  35.1294825  36.7164291  32.0718621  35.9520894  36.2424770  31.9497512
  35.3732889  37.4954775  32.5717308  33.7703060  39.7452550  22.3681523
  34.4911422  40.1233803  21.8645240  33.1468364  40.4641427  22.4716501
  37.9134182  40.4497699  23.3039855  38.1297797  41.3322337  23.0028683
  37.4328250  40.0583912  22.5745497  32.6533404  43.4083412  29.8810600
  32.5077985  43.7223715  30.7734881  32.1758607  44.0268312  29.3281499
  34.5129787  40.3985960  29.9291489  34.4991355  39.5027053  29.5923787
  35.2302215  40.4056624  30.5629775  36.3655917  40.8323300  31.9744617
  36.1073695  41.7540371  31.9728947  35.8340958  40.4353735  32.6645081
  41.3102106  53.9374087  24.7534702  41.4838984  53.3720510  24.0008555
  41.8030997  54.7374982  24.5714192  27.1279066  45.9488756  32.8198261
  26.5832534  46.7248564  32.9518535  28.0058416  46.2959561  32.6617382
  33.9166683  39.2800340  25.1979060  34.0382594  38.3516986  25.3969947
  33.6268725  39.2939026  24.2857375  36.7857873  36.9655251  28.3345779
  36.8079570  37.0294584  27.3797759  37.2025932  36.1259759  28.5286286
  47.1641497  46.7010510  26.3725002  47.6072643  45.9517835  25.9744125
  46.2868008  46.6920647  25.9898734  42.2977279  53.2540852  21.8531601
  42.9928183  53.8747544  22.0718915  42.6400429  52.4036203  22.1283978
  27.9145088  45.0758653  35.7128418  27.1726824  45.2241288  36.2993048
  27.5937832  45.3366918  34.8495167  44.1968702  50.7040557  23.3818931
  44.7220026  51.0427830  22.6568251  44.1091054  49.7687573  23.1982066
  35.8588751  54.6174631  35.5108808  36.1675877  54.3723778  36.3831508
  36.6564233  54.8221269  35.0227678  35.8809363  56.7712541  27.7414184
  35.4414353  56.2788919  28.4347041  36.6317480  56.2285508  27.5006260
  28.3601702  52.9624081  27.7438813  29.1859721  52.6627853  27.3637456
  28.0095754  52.1931704  28.1928601  33.3283235  52.3150550  29.8136486
  32.7063244  51.6521255  29.5138714  33.9988102  52.3411682  29.1310134
  26.5610307  50.8810408  28.7027746  25.7242215  50.4532582  28.5211747
  26.5333952  51.0742851  29.6398537  33.4007762  40.7932338  39.4068992
  33.4495918  41.6694460  39.0246762  33.9430276  40.2509731  38.8340635
  43.8862608  51.3373461  38.6870129  43.0958152  51.3197600  38.1474629
  43.6495962  51.8761755  39.4419166  44.0060483  48.1865927  36.0002858
  44.0558488  48.0215935  36.9418381  43.8974406  47.3193186  35.6100739
  32.8896742  50.8654473  23.2894947  33.0384862  51.5489937  22.6361619
  33.6963185  50.8459563  23.8044402  41.2964245  44.1696855  37.3162164
  42.1974108  44.0303320  37.0246162  41.3712220  44.3351310  38.2560342
  35.6307051  41.5463710  36.1615351  34.7610360  41.8397276  35.8897939
  35.8666531  42.1304155  36.8822614  45.5078680  50.6062869  36.2444879
  45.2163488  50.9692849  37.0808340  44.8950811  49.8929877  36.0658211
  46.7074362  48.1715749  28.7647450  47.5421253  48.6105553  28.9285010
  46.8433491  47.6954402  27.9455695  43.7565868  45.7295483  34.7124937
  44.2319990  45.9223130  33.9043789  42.8331433  45.7854669  34.4668321
  30.6449375  46.8919651  24.2956016  30.3995417  45.9881981  24.4936226
  30.8145289  46.8936801  23.3535494  38.3346084  37.7643327  33.6780771
  38.8528028  38.5004354  33.3527260  37.9801217  38.0707320  34.5127530
  29.9145022  42.6248008  21.7942177  29.2214267  42.6992363  21.1382213
  29.6696774  41.8608352  22.3163694  38.5858679  34.1843610  29.1981668
  38.8660432  33.5166799  29.8242094  39.3709286  34.3772705  28.6856332
  36.3892147  53.3602603  20.7606694  35.8166114  53.9792791  20.3077166
  36.9624941  53.9101965  21.2946616  42.4567537  42.6061244  32.9453243
  43.4084960  42.7059341  32.9665467  42.2870987  41.8139512  33.4551327
  40.4781916  39.6916827  33.1312644  39.8831849  39.9721839  32.4359132
  40.1931613  40.1810728  33.9029385  39.6089407  53.6439754  21.8915276
  40.5420080  53.5785315  22.0948152  39.5212620  54.4796020  21.4329809
  42.2377424  52.9605624  18.8519224  42.1591055  52.6265487  19.7454982
  43.0587090  53.4527392  18.8510696  44.9355615  45.8267363  32.0595543
  44.9031935  44.8883364  32.2455226  45.5456238  45.9051400  31.3261367
  36.7738946  44.6963416  18.1022747  37.7198050  44.5669624  18.1711165
  36.3953191  43.9578078  18.5792175  45.0850103  42.6178407  32.1053826
  44.5689152  41.8336863  31.9183755  45.9690052  42.2897123  32.2700345
  42.7460830  36.3619422  28.0649638  42.5485651  36.0534510  28.9492970
  43.3560536  37.0881061  28.1947568  50.7532165  46.8883370  31.2001579
  51.4835553  46.6268658  31.7609283  50.1439110  46.1512092  31.2403647
  48.8347462  45.0291233  31.7976031  48.1080625  44.8947198  31.1892522
  48.4194749  45.3368061  32.6032749  36.6577638  48.7481162  39.5623404
  37.5780648  48.9259761  39.7563450  36.6227221  47.8037208  39.4103103
  34.9581863  42.6213393  18.0377632  34.0513318  42.3246505  18.1140345
  35.2357844  42.3243211  17.1711918  25.8759803  43.9419756  28.4876678
  25.5562588  43.0885064  28.1951052  25.3293231  44.1568334  29.2434646
  29.6539711  46.6582197  32.2046185  29.8725721  47.5899305  32.2234219
  30.0665485  46.2990171  32.9900989  36.5743929  37.1650282  24.1921873
  35.7644657  36.8197367  24.5677119  37.2628345  36.8557826  24.7809485
  38.5034477  36.2428329  25.8146170  39.0565515  36.6623782  26.4736193
  38.7404563  35.3164077  25.8569126  34.5267576  42.2315403  41.5948934
  34.4264303  43.1809760  41.5261025  34.3089118  41.9033642  40.7225004
  33.7280647  39.4800328  18.1789611  34.5899811  39.8055226  18.4385428
  33.9130992  38.6931824  17.6662677  25.7448063  47.5622667  30.4569800
  25.0511535  47.1476620  29.9439754  26.4921054  47.6043204  29.8603219
  41.8813284  38.3528854  25.3224834  41.3011953  39.0113658  24.9402886
  41.6149217  37.5306199  24.9112252  40.3316850  37.7533912  27.5246154
  40.8316629  37.8650446  26.7160473  40.9752458  37.4494965  28.1646963
  34.3898846  45.6612542  40.4113995  33.9065928  46.4612902  40.6177884
  34.4759785  45.6720486  39.4581439  27.6584806  47.4940921  28.3335815
  27.6355494  47.5928609  27.3817698  27.9685442  48.3406072  28.6552981
  30.3172184  49.5517076  32.4482429  31.2715437  49.5201019  32.3812361
  30.1184707  49.0907700  33.2632655  30.9071566  48.1218192  35.0153227
  31.7264455  48.6162271  35.0388064  31.1808373  47.2050160  34.9870794
  40.6638162  40.5128945  24.3781182  39.7764017  40.7978595  24.1601377
  41.0792151  40.3522708  23.5308459  44.0152698  40.5375466  28.0935522
  44.7913088  41.0271918  28.3660138  43.2900832  40.9633520  28.5507391
  46.4525257  41.2503085  29.1509462  47.0469747  41.0098821  28.4402770
  46.5251840  40.5310215  29.7782998  28.6722412  55.0936696  29.4652627
  28.5376880  54.3337097  28.8990625  28.2554475  55.8177596  28.9981416
  39.8081375  50.2773619  18.4729202  40.5117226  50.4823622  19.0886858
  39.0844024  50.8450381  18.7378286  40.6379186  46.0283481  24.5931472
  40.5814387  46.4852032  23.7539105  41.1907528  45.2674165  24.4154315
  44.4483992  41.8173212  25.4181592  44.1920926  41.4169848  26.2489800
  43.8236860  42.5317006  25.2931731  48.7596329  44.5569286  27.9252883
  48.1995887  44.6262475  28.6984445  48.1539833  44.3810270  27.2052380
  31.8291538  55.9906013  29.6771070  31.7123922  56.9351445  29.5749760
  31.0083985  55.6879574  30.0656869  41.7168073  50.7156148  20.5227662
  42.5513677  50.2837347  20.3405137  41.5552416  50.5438162  21.4504557
  41.3713965  47.2188262  21.8884002  41.3162769  47.0532533  20.9472446
  40.7460020  47.9264295  22.0446191  26.1606480  42.4556326  35.7145424
  26.8065344  41.9455280  36.2032649  25.9523631  43.1925008  36.2888849
  38.6859872  49.5237174  41.2137564  39.5551032  49.6977826  40.8524199
  38.2066624  50.3431590  41.0913294  34.6810090  36.7196371  21.4669320
  34.6688760  37.6638211  21.6237591  35.5733512  36.5366516  21.1728781
  32.8546052  56.6434275  32.8926998  33.7573299  56.6757885  33.2093493
  32.6283422  55.7134726  32.9073334  34.6099654  55.3965261  29.5537077
  33.6595285  55.3967123  29.4401449  34.9132141  54.6497996  29.0373111
  38.4962210  33.3139147  25.7215257  37.7294606  32.7597634  25.8671939
  38.9072915  33.3861016  26.5829408  30.5003971  39.6023943  39.8120438
  31.3635433  39.2460748  40.0223763  29.9269382  39.2637838  40.4995842
  50.3452348  61.2325800  30.6182839  50.9830758  61.1132547  29.9146179
  50.2273191  62.1806644  30.6770791  47.1542054  61.1853228  30.5544364
  46.8160566  61.0694292  29.6664899  48.0231822  60.7844393  30.5345370
  43.0128870  63.0388704  26.5441255  42.4493735  62.9478641  25.7757542
  42.8981265  62.2188609  27.0243747  47.6361837  62.3388079  36.5130569
  47.6250478  61.9440878  35.6411073  47.7982477  61.6054152  37.1064341
  40.5593302  64.5339896  29.3825475  41.3514594  64.1930720  28.9671774
  40.7989952  64.6434871  30.3027628  48.5928429  66.7059672  21.8555720
  47.9416408  67.2913752  21.4689733  49.3872791  67.2365867  21.9150757
  42.5184056  63.7948809  22.2542854  43.2914932  63.2477796  22.1155730
  42.8709455  64.6593058  22.4657315  44.3569098  65.1225191  35.4609753
  44.0658964  66.0270822  35.3456420  44.9926083  65.1641719  36.1753823
  45.2825305  62.5002040  32.0511113  45.8788877  62.2758062  31.3368076
  45.3400277  61.7586785  32.6536561  44.8550334  59.9541475  19.8861304
  45.1075854  59.4322996  19.1244767  43.9174893  59.7907621  19.9887987
  49.8993616  58.9577253  27.6936047  50.6856706  58.5396677  27.3426464
  50.1632321  59.8623346  27.8617695  50.0703694  64.3950104  22.3924704
  49.4349527  64.4684730  23.1045609  49.7401100  64.9843703  21.7143783
  55.3002044  58.8952487  28.5969026  56.0327215  58.3251703  28.8306855
  54.5441399  58.5074087  29.0375531  44.5746622  61.8569581  22.0885679
  44.4582880  61.1814484  22.7566763  44.6848882  61.3701955  21.2717832
  46.9178163  61.3179728  25.7932368  46.5536370  60.7910349  26.5045290
  47.7745279  60.9278197  25.6198853  52.8227464  52.6074061  33.0563634
  52.4910789  53.4769472  32.8324849  52.2273077  52.2910345  33.7357665
  46.5583650  56.3469628  20.7893717  46.7258053  57.2149864  21.1564188
  46.3680819  56.5096910  19.8655006  49.3158983  64.8086607  32.4559547
  49.0159706  65.7111646  32.3475354  48.9710043  64.5418790  33.3080700
  42.7671465  61.2600404  28.4896251  41.8421961  61.1276618  28.6973943
  43.0155878  62.0394623  28.9866194  52.7156127  57.3269147  30.1356984
  51.8073005  57.2584555  29.8415745  52.6643723  57.8041092  30.9638810
  46.5372871  58.8027285  21.7740383  46.4172496  59.2484336  22.6125864
  45.8425459  59.1512603  21.2153922  40.1280276  60.9033677  29.3240040
  40.2572657  61.1568156  30.2379452  39.4477727  61.4961385  29.0044696
  44.2979763  71.5730927  25.4230515  44.2203793  72.5238752  25.5018995
  43.6941407  71.2276800  26.0805441  46.7896993  58.7458793  38.0791882
  46.0130327  59.3052713  38.0694746  47.4287556  59.2315576  38.6006752
  54.5817774  55.5285585  31.9134858  53.9392154  55.8218118  31.2674653
  54.0772702  55.4138506  32.7188055  52.2357937  59.2748759  22.6020717
  53.1475793  59.5076145  22.4268415  51.7267584  59.8585803  22.0395796
  45.0443365  61.5544246  37.6409849  45.7858050  62.0929290  37.3644672
  44.3380351  62.1810535  37.7981400  50.5198705  63.6973386  36.2382010
  50.9282061  63.2555797  35.4936642  49.7975966  63.1226014  36.4916203
  46.8729775  58.6345993  33.6115567  47.7190970  59.0585407  33.7550216
  46.8128413  57.9779617  34.3054130  50.8427520  64.2574577  29.9934299
  50.2136382  64.4220291  29.2910367  50.4553182  64.6716187  30.7645263
  54.7216751  65.1929015  27.3478663  54.0367790  65.5727916  26.7975696
  54.8060601  65.8024341  28.0810610  50.0229220  56.2950361  35.2696741
  49.7790152  57.0492422  34.7331016  50.2989151  56.6735709  36.1043988
  51.9767683  62.8388974  33.9474006  52.1884578  63.4820734  33.2708387
  51.9297431  62.0051290  33.4795936  49.5793912  55.4506794  30.8510578
  48.7178391  55.7488048  31.1427316  49.6056347  55.6677193  29.9191611
  46.3955481  63.9948985  27.2584384  46.8593827  64.2736688  26.4689007
  46.1312280  63.0932430  27.0757475  43.2879562  63.5420467  30.1964147
  43.8580920  63.9707735  29.5581632  43.8787674  63.2603051  30.8948333
  45.3324367  60.1172137  24.0673949  46.0348411  60.5693181  24.5347876
  45.0004996  59.4755956  24.6953842  43.7804729  58.7083894  38.4425159
  43.1503390  59.3900175  38.6760555  43.6740817  58.5966976  37.4978297
  39.0749701  58.3755690  29.3691083  38.2848755  58.6313219  28.8931193
  39.5660949  59.1904028  29.4743123  53.0913511  65.7160929  32.1196364
  53.9130955  65.3141117  31.8379045  53.0875914  65.6129163  33.0712479
  41.0264447  58.7400269  26.3274559  40.2295610  58.8518964  26.8458055
  40.7990039  59.0786922  25.4615450  46.8570114  65.2644973  34.2757074
  46.9214547  65.7265380  35.1115246  46.1481038  64.6342337  34.4039384
  37.3587404  58.6286181  31.8006074  37.6095443  59.5133190  32.0663649
  37.8946953  58.4490782  31.0281165  61.1819504  62.0599678  28.4681335
  60.4283212  61.4907076  28.3125339  61.3167045  62.0262342  29.4151970
  46.5718132  66.9313080  24.1436054  46.4363807  67.7764616  24.5720902
  47.1127945  67.1332358  23.3801988  43.0585472  53.0104660  40.8050410
  42.6652417  52.4570858  41.4798054  43.8751612  53.3215238  41.1956927
  40.0247529  64.4488518  24.7163979  40.5372050  65.2431768  24.8669544
  40.6770242  63.7514809  24.6497581  41.8342414  67.5654274  26.7986733
  42.0109043  68.4872239  26.6107717  42.6299248  67.2512694  27.2281112
  45.9753433  54.4262539  38.3970666  46.7163146  55.0269692  38.3175129
  46.2071356  53.6840177  37.8388709  41.1194771  59.6118906  36.6748896
  41.0048286  58.7104163  36.9755995  40.2639288  59.8582603  36.3233712
  48.1986608  67.5536647  38.2736396  47.7550463  66.7673025  37.9557301
  48.8603822  67.7415797  37.6080287  42.9573730  69.0832448  32.7997075
  43.5081155  68.9549512  32.0274069  42.1185206  69.3827337  32.4491968
  50.2967847  67.8339446  36.3017798  50.2786322  68.6548328  35.8098067
  51.2187767  67.7093522  36.5267939  46.7540901  65.3483576  37.1441306
  47.2869237  64.5871864  36.9140614  46.2254982  65.0557228  37.8865461
  49.9210596  50.4543642  32.6734948  49.5774865  51.3445284  32.5974058
  50.2889558  50.2645300  31.8104533  37.9896446  62.7777172  25.4923550
  38.8271668  63.1874181  25.2757258  38.1674714  61.8376615  25.4623744
  49.8860878  60.4452253  21.1807383  49.3707502  61.2156858  21.4195770
  49.6138187  59.7717389  21.8040444  47.4707989  55.2901954  26.2392621
  46.6149586  54.9008804  26.0598260  47.8834941  55.3693915  25.3792407
  49.0007136  52.8248297  30.6384181  48.4971932  52.7878432  29.8251986
  49.2937743  53.7341040  30.6980838  45.2450022  52.9087027  29.6450363
  46.1103019  52.7129835  29.2856252  45.3127531  52.6797379  30.5719720
  54.8595153  63.1984608  23.1160556  54.0824595  62.8595767  22.6715719
  55.5386633  63.2037231  22.4415521  49.6747182  58.3179345  23.0067164
  49.3697317  58.6325494  23.8577307  50.6277624  58.3960765  23.0494497
  48.1193613  64.4769568  24.6560118  47.5914975  63.7422328  24.3433356
  47.6181116  65.2544245  24.4100086  53.0986459  62.6718589  29.7727164
  52.4410134  63.3617850  29.8607293  53.9026859  63.0615021  30.1161151
  42.8512341  55.1389235  27.0166730  43.4256093  54.9164416  26.2839923
  43.4383323  55.2077929  27.7695331  51.9091918  61.0262962  27.8231106
  52.4223800  61.6592953  28.3252816  52.5593142  60.4264157  27.4574466
  43.1781928  57.1693696  21.0362615  42.3419240  57.5068382  21.3571890
  43.0386698  57.0342676  20.0989752  45.1535009  52.0130484  25.7441799
  44.4999421  51.6979501  25.1198414  45.1115483  51.3906224  26.4701622
  46.2646214  62.2949779  17.6595091  45.3573275  62.0639032  17.8586240
  46.7617246  61.4987398  17.8469073  49.1714292  71.0047286  20.5791777
  48.4975991  71.3078983  21.1876735  49.5580114  71.8076366  20.2297234
  48.3872749  58.5012417  30.0689447  47.4695310  58.7227364  29.9111135
  48.8032893  58.5758728  29.2101154  49.1707797  59.9003833  25.1992127
  49.9179616  60.4125230  24.8899249  49.4399386  59.5787886  26.0596521
  47.4434447  62.3962374  22.1819081  46.5345666  62.1121406  22.2791551
  47.4729531  62.8161452  21.3222388  52.6753714  66.0068963  25.9510249
  52.2216042  65.1659873  26.0075439  52.0447681  66.6430361  26.2885029
  51.6186634  56.9360949  27.1810916  50.8809391  56.4238335  27.5121159
  51.8713408  56.4961331  26.3694193  51.1186654  67.8445460  26.8860067
  51.4109628  68.4050517  26.1672433  51.6285274  68.1374021  27.6413226
  51.7198261  49.7137201  27.7752686  52.0257138  48.8534565  27.4878601
  52.4450866  50.3054821  27.5751679  38.0122617  60.1167888  26.1634283
  37.8147017  59.5237248  25.4385350  37.4569281  59.8120098  26.8810222
  45.9919341  60.0090994  28.2828877  46.0467951  59.0564831  28.2071353
  45.1810543  60.1650433  28.7670175  47.1410535  63.9371117  19.5207160
  46.7029965  63.2206976  19.0612797  47.8820976  64.1647232  18.9592251
  43.9311701  58.6268054  26.0419255  43.1179567  58.9262224  26.4484448
  44.4270695  58.2323743  26.7593738  46.0820279  68.6225811  27.9753520
  46.0396458  68.8486657  27.0462052  46.9982978  68.3889185  28.1239321
  49.5285913  59.0909878  34.8734149  49.8835300  59.3181352  35.7328615
  50.1758044  59.4228255  34.2511405  55.2583650  62.2128314  25.5783478
  55.1201548  62.4029910  24.6504668  54.9019868  62.9747697  26.0351530
  43.4225776  56.1986409  31.6580490  44.0625155  56.0575169  30.9603454
  42.5903306  55.9120923  31.2819092  55.2853029  64.2804841  30.5894750
  55.7189536  64.1880130  31.4377804  55.9984610  64.2562342  29.9514766
  44.1986080  65.4988840  27.7715483  44.9926678  65.0039160  27.5698058
  43.4877772  64.9706703  27.4083188  49.0180924  67.8806935  32.1227850
  49.0717946  68.4497872  32.8905566  48.1495705  68.0508820  31.7581888
  40.5068843  59.6431922  23.8475236  39.5766431  59.5816377  24.0645198
  40.6026315  59.1207874  23.0511877  40.4254392  56.1686734  26.4353477
  40.6861209  57.0832068  26.3262638  41.2471564  55.7011177  26.5850090
  41.8979317  57.5824492  33.6052302  42.5702371  57.3741854  32.9564951
  41.0709104  57.3846578  33.1657534  56.1468579  64.3228542  33.1227635
  56.3404469  65.2274352  33.3686910  56.0469197  63.8635961  33.9566220
  47.8004890  54.2086433  35.6217963  47.1532805  54.9076382  35.5282439
  48.5705905  54.6422576  35.9894211  51.2083687  64.4735285  38.6968516
  51.0569194  64.2445836  37.7798600  51.1988367  65.4305886  38.7099861
  47.9769024  62.0467197  33.6814782  48.9061084  62.1978357  33.5083750
  47.5560054  62.1351218  32.8263429  46.7757356  66.0717862  31.4513320
  46.6368441  65.7036646  32.3239258  45.9871952  66.5865501  31.2797278
  47.3705508  71.1726958  22.7938856  47.5457263  70.7015002  23.6084479
  46.6838296  71.7992725  23.0220117  48.3262571  65.4499465  28.8402158
  47.9912403  65.4100235  29.7359808  47.8266516  64.7844180  28.3672568
  42.3006815  60.8567095  34.3654739  42.1626613  60.1247333  34.9666278
  43.2111738  60.7675995  34.0838927  51.2621762  62.7955499  19.1139217
  50.6450933  62.0702327  19.0172270  50.7938251  63.5564859  18.7706292
  44.9289115  60.5687054  33.8538419  45.6388734  59.9280246  33.8125037
  44.8858424  60.8199949  34.7764599  43.6418049  57.5552272  35.6734058
  43.1055406  57.1043010  36.3255654  43.0534758  57.6898181  34.9304522
  41.9366593  74.3216321  29.5678717  42.1763191  74.9534845  30.2457735
  41.0935789  73.9704361  29.8544076  43.0520308  57.0140923  18.2360522
  42.1749775  56.8929724  17.8722768  43.5278061  56.2227002  17.9839410
  52.9193301  65.4693991  35.0058977  52.0320080  65.1319913  35.1285376
  53.4891852  64.7377022  35.2427743  34.5722448  61.8018083  28.3302029
  35.2593488  61.4879813  27.7423044  34.4170577  62.7059448  28.0569280
  39.3757171  56.6908279  32.7587053  39.2915359  56.0833949  32.0237462
  38.5539877  57.1817298  32.7596549  46.4494455  70.1295444  31.9720221
  46.3764626  70.9350415  32.4839525  46.0071848  70.3287409  31.1468242
  46.2384234  69.3667214  25.4823042  45.4551756  69.9088894  25.5761267
  46.9376980  69.8841193  25.8817283  49.5480884  55.1761843  28.1257248
  50.0449584  54.4231805  27.8058318  48.7767866  55.2126160  27.5600457
  57.4010642  60.8802209  29.7675539  57.3900518  61.7626924  29.3969472
  56.5328021  60.5273759  29.5730076  48.9093138  70.0282278  34.1278379
  49.6221110  70.6629742  34.0554281  48.4183167  70.1246144  33.3118381
  50.6310665  63.9333530  25.6995671  49.6966944  64.0534993  25.5300375
  50.8087334  63.0305997  25.4355681  46.1315853  57.3179226  27.8528932
  45.7613641  56.7650266  28.5409838  46.6274946  56.7137359  27.3003932
  54.0183217  59.7750850  26.2345705  54.4843669  60.6078841  26.1606008
  54.4690717  59.3095831  26.9390964  43.9605052  67.7776721  34.9483950
  44.6614511  68.4113204  35.1013344  43.4900167  68.1191453  34.1879589
  52.0859448  66.1194671  23.2331857  52.3619292  66.0051265  24.1425731
  51.2163946  65.7212156  23.1944030  51.9899879  52.1431437  30.2736606
  51.0762959  52.3735663  30.4418813  52.4192981  52.2269881  31.1250639
  51.7606338  60.3321328  32.7736500  51.1077788  60.5797236  32.1188953
  52.1386718  59.5185467  32.4398978  48.7213512  70.3681022  26.8764671
  48.9035906  69.5502678  27.3392423  49.5446498  70.5848714  26.4389561
  49.0555677  69.2949207  24.1379719  49.5843444  68.7841661  23.5249881
  49.3183897  68.9791737  25.0025252  47.8093911  61.0741140  39.2602538
  47.1334548  60.9735269  39.9304913  48.6321545  60.9180353  39.7238535
  39.5572770  67.3113076  31.8815053  40.1426207  66.5656764  32.0142957
  39.3597608  67.6217033  32.7651717  42.4111425  70.3464323  26.8977495
  41.7421800  70.8310451  26.4141535  42.2724295  70.5933544  27.8120874
  34.1490425  59.8818676  30.6019496  34.1874524  59.3482267  31.3956614
  33.6430717  59.3553882  29.9830473  46.5516694  72.3808067  33.4960154
  47.1035002  72.5439688  34.2609239  46.8922887  72.9712505  32.8240178
  41.5281187  54.7283217  34.0982038  41.5922513  55.5898048  33.6859436
  41.4648307  54.1157218  33.3654397  41.0033459  56.8006349  37.7455073
  41.6305498  56.4183427  38.3592597  40.1461378  56.5820551  38.1110765
  37.7799002  58.6082778  23.6773427  38.0752443  57.6993457  23.6240481
  36.8787038  58.5870518  23.3554430  49.6885081  70.3290043  30.4823836
  49.5636220  69.5279782  29.9734781  50.3464172  70.8236236  29.9937806
  41.3093249  56.6838775  29.6600976  40.5879835  57.2974743  29.5208449
  42.0986505  57.2196540  29.5817622  51.7519989  68.1299063  32.1103386
  50.8050325  68.0104414  32.0381713  52.1002762  67.2421561  32.1929647
  44.1119563  54.0193202  35.9341628  44.6353965  54.2655498  36.6967937
  43.8931896  54.8513236  35.5144765  39.5086844  56.2896876  23.8012752
  39.1799550  55.4094255  23.6187858  39.8626214  56.2344545  24.6889142
  48.7566423  67.9251779  28.3107738  48.6091385  66.9968486  28.4915308
  49.5819916  67.9471870  27.8264813  42.6228667  56.5769846  24.1688230
  42.9624739  57.1055767  23.4466839  43.0700787  56.9150252  24.9446797
  52.3600544  68.7480338  29.3972611  53.2847092  68.5423199  29.2597062
  52.1915848  68.4996739  30.3061952  45.3172108  54.9606897  33.6191298
  44.9768928  54.1614710  34.0211978  44.6111114  55.2608607  33.0468131
  45.9688580  52.0456209  32.0718621  46.7914649  51.5716687  31.9497512
  46.2126643  52.8246693  32.5717308  44.6096814  55.0744467  22.3681523
  45.3305177  55.4525720  21.8645240  43.9862118  55.7933344  22.4716501
  48.7527937  55.7789616  23.3039855  48.9691551  56.6614254  23.0028683
  48.2722004  55.3875830  22.5745497  43.4927158  58.7375330  29.8810600
  43.3471739  59.0515633  30.7734881  43.0152362  59.3560230  29.3281499
  45.3523541  55.7277878  29.9291489  45.3385110  54.8318971  29.5923787
  46.0695969  55.7348541  30.5629775  47.2049672  56.1615218  31.9744617
  46.9467450  57.0832289  31.9728947  46.6734712  55.7645652  32.6645081
  52.1495861  69.2666005  24.7534702  52.3232738  68.7012427  24.0008555
  52.6424752  70.0666900  24.5714192  37.9672820  61.2780674  32.8198261
  37.4226289  62.0540482  32.9518535  38.8452170  61.6251479  32.6617382
  44.7560437  54.6092258  25.1979060  44.8776348  53.6808904  25.3969947
  44.4662480  54.6230944  24.2857375  47.6251628  52.2947168  28.3345779
  47.6473324  52.3586501  27.3797759  48.0419687  51.4551677  28.5286286
  58.0035252  62.0302428  26.3725002  58.4466398  61.2809753  25.9744125
  57.1261762  62.0212564  25.9898734  53.1371033  68.5832769  21.8531601
  53.8321938  69.2039462  22.0718915  53.4794183  67.7328121  22.1283978
  38.7538842  60.4050570  35.7128418  38.0120578  60.5533206  36.2993048
  38.4331587  60.6658836  34.8495167  55.0362456  66.0332475  23.3818931
  55.5613780  66.3719748  22.6568251  54.9484809  65.0979490  23.1982066
  46.6982505  69.9466549  35.5108808  47.0069631  69.7015695  36.3831508
  47.4957987  70.1513187  35.0227678  46.7203117  72.1004458  27.7414184
  46.2808107  71.6080837  28.4347041  47.4711234  71.5577426  27.5006260
  39.1995456  68.2915999  27.7438813  40.0253476  67.9919771  27.3637456
  38.8489508  67.5223622  28.1928601  44.1676989  67.6442467  29.8136486
  43.5456998  66.9813172  29.5138714  44.8381856  67.6703599  29.1310134
  37.4004061  66.2102326  28.7027746  36.5635969  65.7824500  28.5211747
  37.3727707  66.4034769  29.6398537  44.2401517  56.1224255  39.4068992
  44.2889672  56.9986378  39.0246762  44.7824031  55.5801648  38.8340635
  54.8454237  63.5157845  36.0002858  54.8952242  63.3507852  36.9418381
  54.7368161  62.6485104  35.6100739  43.7290496  66.1946391  23.2894947
  43.8778616  66.8781855  22.6361619  44.5356940  66.1751481  23.8044402
  52.1358000  59.4988773  37.3162164  53.0367863  59.3595238  37.0246162
  52.2105974  59.6643228  38.2560342  46.4700805  56.8755628  36.1615351
  45.6004115  57.1689194  35.8897939  46.7060285  57.4596073  36.8822614
  56.3472434  65.9354786  36.2444879  56.0557243  66.2984767  37.0808340
  55.7344566  65.2221795  36.0658211  57.5468117  63.5007666  28.7647450
  58.3815008  63.9397470  28.9285010  57.6827245  63.0246319  27.9455695
  54.5959622  61.0587401  34.7124937  55.0713744  61.2515047  33.9043789
  53.6725188  61.1146587  34.4668321  41.4843129  62.2211568  24.2956016
  41.2389171  61.3173898  24.4936226  41.6539044  62.2228719  23.3535494
  49.1739839  53.0935245  33.6780771  49.6921783  53.8296272  33.3527260
  48.8194972  53.3999238  34.5127530  40.7538777  57.9539926  21.7942177
  40.0608022  58.0284281  21.1382213  40.5090529  57.1900269  22.3163694
  49.4252433  49.5135527  29.1981668  49.7054187  48.8458716  29.8242094
  50.2103040  49.7064623  28.6856332  47.2285902  68.6894521  20.7606694
  46.6559869  69.3084708  20.3077166  47.8018695  69.2393883  21.2946616
  53.2961291  57.9353161  32.9453243  54.2478714  58.0351259  32.9665467
  53.1264742  57.1431430  33.4551327  51.3175671  55.0208744  33.1312644
  50.7225603  55.3013757  32.4359132  51.0325368  55.5102645  33.9029385
  50.4483161  68.9731671  21.8915276  51.3813835  68.9077233  22.0948152
  50.3606374  69.8087938  21.4329809  53.0771178  68.2897542  18.8519224
  52.9984810  67.9557405  19.7454982  53.8980845  68.7819309  18.8510696
  55.7749369  61.1559281  32.0595543  55.7425689  60.2175282  32.2455226
  56.3849993  61.2343318  31.3261367  47.6132700  60.0255334  18.1022747
  48.5591805  59.8961542  18.1711165  47.2346945  59.2869996  18.5792175
  55.9243858  57.9470324  32.1053826  55.4082906  57.1628781  31.9183755
  56.8083806  57.6189041  32.2700345  53.5854585  51.6911340  28.0649638
  53.3879406  51.3826428  28.9492970  54.1954290  52.4172979  28.1947568
  61.5925919  62.2175288  31.2001579  62.3229308  61.9560576  31.7609283
  60.9832865  61.4804010  31.2403647  59.6741216  60.3583150  31.7976031
  58.9474380  60.2239115  31.1892522  59.2588503  60.6659979  32.6032749
  47.4971393  64.0773080  39.5623404  48.4174402  64.2551679  39.7563450
  47.4620976  63.1329125  39.4103103  45.7975617  57.9505310  18.0377632
  44.8907073  57.6538423  18.1140345  46.0751598  57.6535128  17.1711918
  36.7153558  59.2711674  28.4876678  36.3956342  58.4176982  28.1951052
  36.1686986  59.4860252  29.2434646  40.4933465  61.9874115  32.2046185
  40.7119475  62.9191222  32.2234219  40.9059239  61.6282089  32.9900989
  47.4137683  52.4942200  24.1921873  46.6038411  52.1489285  24.5677119
  48.1022100  52.1849744  24.7809485  49.3428231  51.5720247  25.8146170
  49.8959270  51.9915700  26.4736193  49.5798318  50.6455995  25.8569126
  45.3661331  57.5607320  41.5948934  45.2658057  58.5101677  41.5261025
  45.1482873  57.2325559  40.7225004  44.5674402  54.8092245  18.1789611
  45.4293566  55.1347144  18.4385428  44.7524746  54.0223741  17.6662677
  36.5841818  62.8914585  30.4569800  35.8905289  62.4768538  29.9439754
  37.3314809  62.9335122  29.8603219  52.7207038  53.6820772  25.3224834
  52.1405707  54.3405576  24.9402886  52.4542971  52.8598117  24.9112252
  51.1710605  53.0825830  27.5246154  51.6710383  53.1942364  26.7160473
  51.8146213  52.7786882  28.1646963  45.2292601  60.9904459  40.4113995
  44.7459682  61.7904819  40.6177884  45.3153540  61.0012404  39.4581439
  38.4978560  62.8232839  28.3335815  38.4749248  62.9220526  27.3817698
  38.8079197  63.6697990  28.6552981  41.1565938  64.8808994  32.4482429
  42.1109192  64.8492936  32.3812361  40.9578462  64.4199618  33.2632655
  41.7465320  63.4510110  35.0153227  42.5658209  63.9454189  35.0388064
  42.0202128  62.5342078  34.9870794  51.5031916  55.8420862  24.3781182
  50.6157771  56.1270513  24.1601377  51.9185905  55.6814626  23.5308459
  54.8546453  55.8667383  28.0935522  55.6306843  56.3563836  28.3660138
  54.1294587  56.2925437  28.5507391  57.2919011  56.5795002  29.1509462
  57.8863502  56.3390738  28.4402770  57.3645595  55.8602133  29.7782998
  39.5116167  70.4228613  29.4652627  39.3770635  69.6629014  28.8990625
  39.0948229  71.1469513  28.9981416  50.6475130  65.6065537  18.4729202
  51.3510980  65.8115539  19.0886858  49.9237779  66.1742299  18.7378286
  51.4772940  61.3575398  24.5931472  51.4208142  61.8143950  23.7539105
  52.0301283  60.5966083  24.4154315  55.2877746  57.1465130  25.4181592
  55.0314680  56.7461766  26.2489800  54.6630614  57.8608924  25.2931731
  59.5990084  59.8861203  27.9252883  59.0389642  59.9554393  28.6984445
  58.9933587  59.7102188  27.2052380  42.6685293  71.3197930  29.6771070
  42.5517677  72.2643363  29.5749760  41.8477739  71.0171492  30.0656869
  52.5561827  66.0448066  20.5227662  53.3907431  65.6129265  20.3405137
  52.3946170  65.8730080  21.4504557  52.2107719  62.5480179  21.8884002
  52.1556523  62.3824451  20.9472446  51.5853775  63.2556212  22.0446191
  37.0000234  57.7848244  35.7145424  37.6459098  57.2747198  36.2032649
  36.7917386  58.5216925  36.2888849  49.5253627  64.8529091  41.2137564
  50.3944786  65.0269744  40.8524199  49.0460378  65.6723508  41.0913294
  45.5203845  52.0488288  21.4669320  45.5082515  52.9930128  21.6237591
  46.4127267  51.8658434  21.1728781  43.6939807  71.9726192  32.8926998
  44.5967054  72.0049803  33.2093493  43.4677177  71.0426643  32.9073334
  45.4493409  70.7257179  29.5537077  44.4989040  70.7259040  29.4401449
  45.7525895  69.9789913  29.0373111  49.3355964  48.6431065  25.7215257
  48.5688360  48.0889552  25.8671939  49.7466669  48.7152934  26.5829408
  41.3397725  54.9315861  39.8120438  42.2029187  54.5752666  40.0223763
  40.7663136  54.5929756  40.4995842  61.1846102  76.5617717  30.6182839
  61.8224512  76.4424465  29.9146179  61.0666945  77.5098561  30.6770791
  57.9935809  76.5145145  30.5544364  57.6554320  76.3986210  29.6664899
  58.8625577  76.1136310  30.5345370  53.8522624  78.3680622  26.5441255
  53.2887489  78.2770559  25.7757542  53.7375019  77.5480526  27.0243747
  51.3987056  79.8631813  29.3825475  52.1908348  79.5222638  28.9671774
  51.6383706  79.9726788  30.3027628  59.4322183  82.0351589  21.8555720
  58.7810163  82.6205670  21.4689733  60.2266546  82.5657784  21.9150757
  53.3577810  79.1240727  22.2542854  54.1308686  78.5769714  22.1155730
  53.7103209  79.9884976  22.4657315  56.1219060  77.8293957  32.0511113
  56.7182632  77.6049980  31.3368076  56.1794031  77.0878703  32.6536561
  55.6944088  75.2833393  19.8861304  55.9469609  74.7614914  19.1244767
  54.7568647  75.1199538  19.9887987  60.7387371  74.2869171  27.6936047
  61.5250460  73.8688594  27.3426464  61.0026075  75.1915263  27.8617695
  60.9097448  79.7242021  22.3924704  60.2743281  79.7976648  23.1045609
  60.5794855  80.3135620  21.7143783  55.4140377  77.1861499  22.0885679
  55.2976635  76.5106402  22.7566763  55.5242637  76.6993873  21.2717832
  57.7571918  76.6471646  25.7932368  57.3930125  76.1202267  26.5045290
  58.6139034  76.2570115  25.6198853  57.3977405  71.6761546  20.7893717
  57.5651807  72.5441782  21.1564188  57.2074574  71.8388827  19.8655006
  60.1552738  80.1378524  32.4559547  59.8553461  81.0403563  32.3475354
  59.8103797  79.8710708  33.3080700  53.6065219  76.5892321  28.4896251
  52.6815716  76.4568535  28.6973943  53.8549633  77.3686541  28.9866194
  63.5549882  72.6561065  30.1356984  62.6466759  72.5876473  29.8415745
  63.5037477  73.1333010  30.9638810  57.3766626  74.1319203  21.7740383
  57.2566251  74.5776254  22.6125864  56.6819214  74.4804521  21.2153922
  50.9674030  76.2325595  29.3240040  51.0966412  76.4860074  30.2379452
  50.2871482  76.8253303  29.0044696  55.1373518  86.9022845  25.4230515
  55.0597547  87.8530670  25.5018995  54.5335161  86.5568717  26.0805441
  63.0751692  74.6040676  22.6020717  63.9869548  74.8368063  22.4268415
  62.5661339  75.1877720  22.0395796  61.6821274  79.5866495  29.9934299
  61.0530136  79.7512209  29.2910367  61.2946936  80.0008104  30.7645263
  65.5610506  80.5220932  27.3478663  64.8761544  80.9019834  26.7975696
  65.6454355  81.1316259  28.0810610  60.4187666  70.7798712  30.8510578
  59.5572146  71.0779966  31.1427316  60.4450101  70.9969111  29.9191611
  57.2349236  79.3240903  27.2584384  57.6987581  79.6028606  26.4689007
  56.9706034  78.4224347  27.0757475  54.1273317  78.8712384  30.1964147
  54.6974674  79.2999653  29.5581632  54.7181429  78.5894969  30.8948333
  56.1718122  75.4464055  24.0673949  56.8742165  75.8985099  24.5347876
  55.8398750  74.8047874  24.6953842  49.9143456  73.7047608  29.3691083
  49.1242510  73.9605136  28.8931193  50.4054703  74.5195946  29.4743123
  51.8658201  74.0692187  26.3274559  51.0689365  74.1810881  26.8458055
  51.6383794  74.4078839  25.4615450  57.6963869  80.5936890  34.2757074
  57.7608301  81.0557297  35.1115246  56.9874793  79.9634255  34.4039384
  48.1981159  73.9578098  31.8006074  48.4489197  74.8425108  32.0663649
  48.7340707  73.7782700  31.0281165  72.0213259  77.3891595  28.4681335
  71.2676967  76.8198993  28.3125339  72.1560800  77.3554260  29.4151970
  57.4111887  82.2604998  24.1436054  57.2757561  83.1056533  24.5720902
  57.9521699  82.4624275  23.3801988  50.8641284  79.7780436  24.7163979
  51.3765805  80.5723686  24.8669544  51.5163997  79.0806726  24.6497581
  52.6736169  82.8946192  26.7986733  52.8502797  83.8164157  26.6107717
  53.4693002  82.5804611  27.2281112  51.9588525  74.9410824  36.6748896
  51.8442040  74.0396081  36.9755995  51.1033043  75.1874521  36.3233712
  53.7967484  84.4124366  32.7997075  54.3474909  84.2841429  32.0274069
  52.9578960  84.7119255  32.4491968  48.8290201  78.1069090  25.4923550
  49.6665423  78.5166098  25.2757258  49.0068468  77.1668532  25.4623744
  60.7254633  75.7744171  21.1807383  60.2101256  76.5448775  21.4195770
  60.4531941  75.1009307  21.8040444  58.3101744  70.6193871  26.2392621
  57.4543340  70.2300722  26.0598260  58.7228696  70.6985832  25.3792407
  59.8400891  68.1540215  30.6384181  59.3365686  68.1170350  29.8251986
  60.1331497  69.0632957  30.6980838  56.0843776  68.2378944  29.6450363
  56.9496773  68.0421753  29.2856252  56.1521285  68.0089296  30.5719720
  65.6988907  78.5276525  23.1160556  64.9218350  78.1887685  22.6715719
  66.3780388  78.5329149  22.4415521  60.5140936  73.6471263  23.0067164
  60.2091072  73.9617412  23.8577307  61.4671378  73.7252683  23.0494497
  58.9587368  79.8061486  24.6560118  58.4308729  79.0714246  24.3433356
  58.4574871  80.5836162  24.4100086  63.9380214  78.0010507  29.7727164
  63.2803888  78.6909768  29.8607293  64.7420613  78.3906939  30.1161151
  53.6906096  70.4681152  27.0166730  54.2649847  70.2456334  26.2839923
  54.2777078  70.5369847  27.7695331  62.7485673  76.3554879  27.8231106
  63.2617554  76.9884871  28.3252816  63.3986897  75.7556075  27.4574466
  54.0175683  72.4985613  21.0362615  53.1812995  72.8360300  21.3571890
  53.8780452  72.3634593  20.0989752  55.9928763  67.3422401  25.7441799
  55.3393176  67.0271418  25.1198414  55.9509237  66.7198142  26.4701622
  57.1039968  77.6241696  17.6595091  56.1967030  77.3930950  17.8586240
  57.6011000  76.8279316  17.8469073  60.0108047  86.3339204  20.5791777
  59.3369746  86.6370900  21.1876735  60.3973869  87.1368284  20.2297234
  59.2266504  73.8304335  30.0689447  58.3089065  74.0519282  29.9111135
  59.6426647  73.9050645  29.2101154  60.0101551  75.2295751  25.1992127
  60.7573370  75.7417148  24.8899249  60.2793141  74.9079803  26.0596521
  58.2828202  77.7254291  22.1819081  57.3739421  77.4413324  22.2791551
  58.3123285  78.1453370  21.3222388  63.5147469  81.3360881  25.9510249
  63.0609796  80.4951791  26.0075439  62.8841436  81.9722279  26.2885029
  62.4580388  72.2652867  27.1810916  61.7203145  71.7530253  27.5121159
  62.7107162  71.8253248  26.3694193  61.9580408  83.1737377  26.8860067
  62.2503383  83.7342435  26.1672433  62.4679029  83.4665938  27.6413226
  62.5592016  65.0429119  27.7752686  62.8650893  64.1826482  27.4878601
  63.2844621  65.6346739  27.5751679  48.8516372  75.4459805  26.1634283
  48.6540772  74.8529166  25.4385350  48.2963036  75.1412016  26.8810222
  56.8313096  75.3382912  28.2828877  56.8861705  74.3856748  28.2071353
  56.0204298  75.4942351  28.7670175  57.9804289  79.2663035  19.5207160
  57.5423719  78.5498894  19.0612797  58.7214730  79.4939150  18.9592251
  54.7705455  73.9559972  26.0419255  53.9573321  74.2554142  26.4484448
  55.2664450  73.5615660  26.7593738  56.9214033  83.9517729  27.9753520
  56.8790212  84.1778575  27.0462052  57.8376732  83.7181103  28.1239321
  66.0977404  77.5420232  25.5783478  65.9595303  77.7321828  24.6504668
  65.7413623  78.3039615  26.0351530  54.2619530  71.5278327  31.6580490
  54.9018910  71.3867086  30.9603454  53.4297061  71.2412841  31.2819092
  66.1246784  79.6096759  30.5894750  66.5583290  79.5172048  31.4377804
  66.8378364  79.5854259  29.9514766  55.0379834  80.8280758  27.7715483
  55.8320433  80.3331078  27.5698058  54.3271527  80.2998621  27.4083188
  59.8574679  83.2098853  32.1227850  59.9111701  83.7789789  32.8905566
  58.9889460  83.3800738  31.7581888  51.3462598  74.9723839  23.8475236
  50.4160186  74.9108295  24.0645198  51.4420070  74.4499792  23.0511877
  51.2648147  71.4978652  26.4353477  51.5254964  72.4123985  26.3262638
  52.0865319  71.0303095  26.5850090  52.7373072  72.9116409  33.6052302
  53.4096125  72.7033771  32.9564951  51.9102859  72.7138495  33.1657534
  58.8162778  77.3759115  33.6814782  59.7454838  77.5270275  33.5083750
  58.3953808  77.4643136  32.8263429  57.6151110  81.4009780  31.4513320
  57.4762196  81.0328564  32.3239258  56.8265706  81.9157419  31.2797278
  58.2099262  86.5018876  22.7938856  58.3851018  86.0306919  23.6084479
  57.5232050  87.1284642  23.0220117  59.1656325  80.7791382  28.8402158
  58.8306158  80.7392152  29.7359808  58.6660271  80.1136098  28.3672568
  53.1400569  76.1859012  34.3654739  53.0020367  75.4539251  34.9666278
  54.0505493  76.0967912  34.0838927  62.1015517  78.1247417  19.1139217
  61.4844688  77.3994245  19.0172270  61.6332005  78.8856777  18.7706292
  55.7682870  75.8978972  33.8538419  56.4782488  75.2572164  33.8125037
  55.7252178  76.1491866  34.7764599  52.7760347  89.6508239  29.5678717
  53.0156946  90.2826763  30.2457735  51.9329544  89.2996279  29.8544076
  53.8914063  72.3432841  18.2360522  53.0143529  72.2221642  17.8722768
  54.3671816  71.5518919  17.9839410  45.4116203  77.1310001  28.3302029
  46.0987243  76.8171731  27.7423044  45.2564332  78.0351365  28.0569280
  50.2150925  72.0200197  32.7587053  50.1309114  71.4125867  32.0237462
  49.3933632  72.5109215  32.7596549  57.2888209  85.4587361  31.9720221
  57.2158381  86.2642333  32.4839525  56.8465602  85.6579327  31.1468242
  57.0777989  84.6959131  25.4823042  56.2945511  85.2380811  25.5761267
  57.7770734  85.2133111  25.8817283  60.3874639  70.5053761  28.1257248
  60.8843339  69.7523723  27.8058318  59.6161620  70.5418077  27.5600457
  59.7486893  85.3574195  34.1278379  60.4614865  85.9921660  34.0554281
  59.2576921  85.4538061  33.3118381  61.4704420  79.2625448  25.6995671
  60.5360698  79.3826910  25.5300375  61.6481088  78.3597915  25.4355681
  56.9709608  72.6471144  27.8528932  56.6007395  72.0942184  28.5409838
  57.4668700  72.0429277  27.3003932  64.8576971  75.1042767  26.2345705
  65.3237423  75.9370759  26.1606008  65.3084472  74.6387749  26.9390964
  54.7998806  83.1068639  34.9483950  55.5008266  83.7405122  35.1013344
  54.3293921  83.4483370  34.1879589  62.9253202  81.4486588  23.2331857
  63.2013046  81.3343183  24.1425731  62.0557701  81.0504073  23.1944030
  62.8293634  67.4723354  30.2736606  61.9156714  67.7027581  30.4418813
  63.2586735  67.5561798  31.1250639  59.5607266  85.6972939  26.8764671
  59.7429661  84.8794595  27.3392423  60.3840252  85.9140632  26.4389561
  59.8949432  84.6241124  24.1379719  60.4237198  84.1133579  23.5249881
  60.1577651  84.3083655  25.0025252  50.3966524  82.6404994  31.8815053
  50.9819961  81.8948682  32.0142957  50.1991363  82.9508950  32.7651717
  53.2505180  85.6756241  26.8977495  52.5815555  86.1602369  26.4141535
  53.1118049  85.9225462  27.8120874  44.9884179  75.2110594  30.6019496
  45.0268279  74.6774185  31.3956614  44.4824472  74.6845799  29.9830473
  57.3910448  87.7099985  33.4960154  57.9428756  87.8731606  34.2609239
  57.7316642  88.3004422  32.8240178  52.3674941  70.0575134  34.0982038
  52.4316268  70.9189965  33.6859436  52.3042062  69.4449136  33.3654397
  48.6192757  73.9374696  23.6773427  48.9146198  73.0285375  23.6240481
  47.7180792  73.9162436  23.3554430  60.5278835  85.6581960  30.4823836
  60.4029975  84.8571700  29.9734781  61.1857927  86.1528154  29.9937806
  52.1487004  72.0130693  29.6600976  51.4273589  72.6266660  29.5208449
  52.9380259  72.5488458  29.5817622  62.5913744  83.4590980  32.1103386
  61.6444079  83.3396331  32.0381713  62.9396517  82.5713478  32.1929647
  50.3480598  71.6188794  23.8012752  50.0193304  70.7386173  23.6187858
  50.7019969  71.5636462  24.6889142  59.5960177  83.2543696  28.3107738
  59.4485140  82.3260404  28.4915308  60.4213671  83.2763787  27.8264813
  53.4622421  71.9061764  24.1688230  53.8018494  72.4347685  23.4466839
  53.9094542  72.2442170  24.9446797  63.1994299  84.0772255  29.3972611
  64.1240846  83.8715117  29.2597062  63.0309602  83.8288656  30.3061952
  56.1565862  70.2898814  33.6191298  55.8162683  69.4906627  34.0211978
  55.4504869  70.5900525  33.0468131  56.8082334  67.3748127  32.0718621
  57.6308403  66.9008605  31.9497512  57.0520398  68.1538610  32.5717308
  55.4490569  70.4036385  22.3681523  56.1698931  70.7817638  21.8645240
  54.8255873  71.1225262  22.4716501  59.5921691  71.1081534  23.3039855
  59.8085306  71.9906172  23.0028683  59.1115759  70.7167748  22.5745497
  54.3320913  74.0667247  29.8810600  54.1865494  74.3807550  30.7734881
  53.8546116  74.6852148  29.3281499  56.1917296  71.0569795  29.9291489
  56.1778864  70.1610889  29.5923787  56.9089724  71.0640459  30.5629775
  58.0443426  71.4907136  31.9744617  57.7861204  72.4124206  31.9728947
  57.5128467  71.0937570  32.6645081  62.9889615  84.5957923  24.7534702
  63.1626493  84.0304345  24.0008555  63.4818506  85.3958818  24.5714192
  48.8066575  76.6072592  32.8198261  48.2620043  77.3832400  32.9518535
  49.6845925  76.9543396  32.6617382  55.5954192  69.9384176  25.1979060
  55.7170103  69.0100822  25.3969947  55.3056234  69.9522862  24.2857375
  58.4645382  67.6239086  28.3345779  58.4867079  67.6878419  27.3797759
  58.8813441  66.7843595  28.5286286  68.8429006  77.3594346  26.3725002
  69.2860152  76.6101671  25.9744125  67.9655517  77.3504482  25.9898734
  63.9764788  83.9124687  21.8531601  64.6715692  84.5331380  22.0718915
  64.3187938  83.0620038  22.1283978  49.5932597  75.7342488  35.7128418
  48.8514333  75.8825123  36.2993048  49.2725341  75.9950754  34.8495167
  65.8756211  81.3624393  23.3818931  66.4007535  81.7011665  22.6568251
  65.7878563  80.4271408  23.1982066  57.5376259  85.2758466  35.5108808
  57.8463386  85.0307613  36.3831508  58.3351742  85.4805105  35.0227678
  57.5596872  87.4296376  27.7414184  57.1201862  86.9372755  28.4347041
  58.3104988  86.8869344  27.5006260  50.0389211  83.6207917  27.7438813
  50.8647230  83.3211689  27.3637456  49.6883263  82.8515539  28.1928601
  55.0070744  82.9734385  29.8136486  54.3850753  82.3105090  29.5138714
  55.6775611  82.9995517  29.1310134  48.2397816  81.5394243  28.7027746
  47.4029724  81.1116418  28.5211747  48.2121461  81.7326687  29.6398537
  54.5684251  81.5238308  23.2894947  54.7172371  82.2073773  22.6361619
  55.3750694  81.5043398  23.8044402  68.3861871  78.8299584  28.7647450
  69.2208762  79.2689388  28.9285010  68.5221000  78.3538237  27.9455695
  52.3236884  77.5503486  24.2956016  52.0782926  76.6465816  24.4936226
  52.4932798  77.5520636  23.3535494  51.5932531  73.2831844  21.7942177
  50.9001776  73.3576199  21.1382213  51.3484283  72.5192187  22.3163694
  60.2646188  64.8427445  29.1981668  60.5447941  64.1750634  29.8242094
  61.0496795  65.0356540  28.6856332  58.0679656  84.0186439  20.7606694
  57.4953623  84.6376626  20.3077166  58.6412450  84.5685800  21.2946616
  61.2876916  84.3023589  21.8915276  62.2207589  84.2369151  22.0948152
  61.2000129  85.1379856  21.4329809  63.9164933  83.6189459  18.8519224
  63.8378564  83.2849323  19.7454982  64.7374599  84.1111227  18.8510696
  58.4526455  75.3547252  18.1022747  59.3985559  75.2253460  18.1711165
  58.0740700  74.6161913  18.5792175  64.4248339  67.0203258  28.0649638
  64.2273160  66.7118346  28.9492970  65.0348045  67.7464896  28.1947568
  72.4319674  77.5467205  31.2001579  73.1623062  77.2852494  31.7609283
  71.8226619  76.8095927  31.2403647  56.6369372  73.2797228  18.0377632
  55.7300827  72.9830341  18.1140345  56.9145353  72.9827046  17.1711918
  47.5547312  74.6003591  28.4876678  47.2350097  73.7468900  28.1951052
  47.0080740  74.8152169  29.2434646  51.3327220  77.3166032  32.2046185
  51.5513229  78.2483140  32.2234219  51.7452994  76.9574007  32.9900989
  58.2531438  67.8234118  24.1921873  57.4432166  67.4781203  24.5677119
  58.9415854  67.5141661  24.7809485  60.1821986  66.9012164  25.8146170
  60.7353024  67.3207618  26.4736193  60.4192072  65.9747913  25.8569126
  55.4068156  70.1384163  18.1789611  56.2687320  70.4639061  18.4385428
  55.5918501  69.3515659  17.6662677  47.4235572  78.2206503  30.4569800
  46.7299044  77.8060456  29.9439754  48.1708563  78.2627039  29.8603219
  63.5600793  69.0112690  25.3224834  62.9799462  69.6697494  24.9402886
  63.2936726  68.1890034  24.9112252  62.0104359  68.4117747  27.5246154
  62.5104138  68.5234282  26.7160473  62.6539967  68.1078800  28.1646963
  49.3372315  78.1524757  28.3335815  49.3143003  78.2512444  27.3817698
  49.6472951  78.9989907  28.6552981  51.9959693  80.2100912  32.4482429
  52.9502946  80.1784854  32.3812361  51.7972216  79.7491535  33.2632655
  52.5859075  78.7802028  35.0153227  53.4051964  79.2746106  35.0388064
  52.8595882  77.8633996  34.9870794  62.3425671  71.1712780  24.3781182
  61.4551526  71.4562431  24.1601377  62.7579660  71.0106543  23.5308459
  65.6940207  71.1959301  28.0935522  66.4700597  71.6855753  28.3660138
  64.9688341  71.6217355  28.5507391  68.1312766  71.9086920  29.1509462
  68.7257256  71.6682656  28.4402770  68.2039349  71.1894051  29.7782998
  50.3509921  85.7520531  29.4652627  50.2164389  84.9920932  28.8990625
  49.9341984  86.4761431  28.9981416  61.4868884  80.9357455  18.4729202
  62.1904734  81.1407457  19.0886858  60.7631533  81.5034217  18.7378286
  62.3166695  76.6867316  24.5931472  62.2601896  77.1435867  23.7539105
  62.8695037  75.9258001  24.4154315  66.1271501  72.4757048  25.4181592
  65.8708435  72.0753683  26.2489800  65.5024369  73.1900842  25.2931731
  70.4383838  75.2153121  27.9252883  69.8783396  75.2846310  28.6984445
  69.8327342  75.0394106  27.2052380  53.5079047  86.6489848  29.6771070
  53.3911431  87.5935281  29.5749760  52.6871493  86.3463410  30.0656869
  63.3955582  81.3739984  20.5227662  64.2301186  80.9421182  20.3405137
  63.2339925  81.2021998  21.4504557  63.0501474  77.8772097  21.8884002
  62.9950278  77.7116369  20.9472446  62.4247529  78.5848130  22.0446191
  47.8393989  73.1140162  35.7145424  48.4852853  72.6039116  36.2032649
  47.6311140  73.8508843  36.2888849  56.3597599  67.3780206  21.4669320
  56.3476269  68.3222046  21.6237591  57.2521021  67.1950352  21.1728781
  54.5333561  87.3018110  32.8926998  55.4360808  87.3341720  33.2093493
  54.3070931  86.3718561  32.9073334  56.2887163  86.0549097  29.5537077
  55.3382794  86.0550958  29.4401449  56.5919650  85.3081831  29.0373111
  60.1749719  63.9722983  25.7215257  59.4082115  63.4181469  25.8671939
  60.5860424  64.0444852  26.5829408  72.0239857  91.8909635  30.6182839
  72.6618267  91.7716382  29.9146179  71.9060700  92.8390479  30.6770791
  68.8329563  91.8437063  30.5544364  68.4948075  91.7278128  29.6664899
  69.7019331  91.4428228  30.5345370  64.6916379  93.6972539  26.5441255
  64.1281244  93.6062476  25.7757542  64.5768774  92.8772444  27.0243747
  62.2380811  95.1923731  29.3825475  63.0302103  94.8514556  28.9671774
  62.4777461  95.3018706  30.3027628  70.2715938  97.3643507  21.8555720
  69.6203917  97.9497588  21.4689733  71.0660300  97.8949702  21.9150757
  64.1971565  94.4532644  22.2542854  64.9702441  93.9061631  22.1155730
  64.5496964  95.3176894  22.4657315  66.9612814  93.1585875  32.0511113
  67.5576386  92.9341898  31.3368076  67.0187786  92.4170621  32.6536561
  66.5337843  90.6125310  19.8861304  66.7863363  90.0906832  19.1244767
  65.5962402  90.4491456  19.9887987  71.5781125  89.6161089  27.6936047
  72.3644215  89.1980512  27.3426464  71.8419830  90.5207181  27.8617695
  71.7491203  95.0533939  22.3924704  71.1137036  95.1268566  23.1045609
  71.4188609  95.6427538  21.7143783  76.9789552  89.5536322  28.5969026
  77.7114724  88.9835539  28.8306855  76.2228908  89.1657922  29.0375531
  66.2534131  92.5153416  22.0885679  66.1370389  91.8398320  22.7566763
  66.3636391  92.0285790  21.2717832  68.5965672  91.9763563  25.7932368
  68.2323879  91.4494184  26.5045290  69.4532788  91.5862033  25.6198853
  68.2371159  87.0053463  20.7893717  68.4045562  87.8733700  21.1564188
  68.0468328  87.1680745  19.8655006  70.9946492  95.4670442  32.4559547
  70.6947215  96.3695481  32.3475354  70.6497552  95.2002625  33.3080700
  64.4458974  91.9184239  28.4896251  63.5209470  91.7860453  28.6973943
  64.6943387  92.6978458  28.9866194  74.3943636  87.9852982  30.1356984
  73.4860513  87.9168391  29.8415745  74.3431232  88.4624927  30.9638810
  68.2160380  89.4611121  21.7740383  68.0960005  89.9068171  22.6125864
  67.5212968  89.8096438  21.2153922  65.9767272 102.2314762  25.4230515
  65.8991302 103.1822588  25.5018995  65.3728916 101.8860635  26.0805441
  76.2605283  86.1869421  31.9134858  75.6179663  86.4801954  31.2674653
  75.7560211  86.0722341  32.7188055  73.9145446  89.9332594  22.6020717
  74.8263302  90.1659981  22.4268415  73.4055093  90.5169638  22.0395796
  72.1986214  94.3557222  36.2382010  72.6069570  93.9139632  35.4936642
  71.4763475  93.7809849  36.4916203  68.5517284  89.2929828  33.6115567
  69.3978479  89.7169242  33.7550216  68.4915922  88.6363453  34.3054130
  72.5215029  94.9158412  29.9934299  71.8923891  95.0804126  29.2910367
  72.1340691  95.3300022  30.7645263  76.4004260  95.8512850  27.3478663
  75.7155299  96.2311752  26.7975696  76.4848110  96.4608177  28.0810610
  73.6555192  93.4972809  33.9474006  73.8672087  94.1404569  33.2708387
  73.6084940  92.6635126  33.4795936  71.2581421  86.1090630  30.8510578
  70.3965900  86.4071883  31.1427316  71.2843856  86.3261029  29.9191611
  68.0742990  94.6532820  27.2584384  68.5381336  94.9320523  26.4689007
  67.8099789  93.7516265  27.0757475  64.9667071  94.2004302  30.1964147
  65.5368429  94.6291570  29.5581632  65.5575183  93.9186887  30.8948333
  67.0111876  90.7755973  24.0673949  67.7135920  91.2277016  24.5347876
  66.6792505  90.1339792  24.6953842  60.7537210  89.0339525  29.3691083
  59.9636264  89.2897054  28.8931193  61.2448458  89.8487863  29.4743123
  74.7701020  96.3744765  32.1196364  75.5918464  95.9724952  31.8379045
  74.7663423  96.2712999  33.0712479  62.7051956  89.3984105  26.3274559
  61.9083119  89.5102799  26.8458055  62.4777548  89.7370757  25.4615450
  68.5357623  95.9228808  34.2757074  68.6002056  96.3849215  35.1115246
  67.8268547  95.2926173  34.4039384  82.8607013  92.7183513  28.4681335
  82.1070721  92.1490911  28.3125339  82.9954554  92.6846178  29.4151970
  68.2505641  97.5896915  24.1436054  68.1151316  98.4348451  24.5720902
  68.7915454  97.7916193  23.3801988  61.7035038  95.1072353  24.7163979
  62.2159559  95.9015604  24.8669544  62.3557751  94.4098644  24.6497581
  63.5129923  98.2238110  26.7986733  63.6896552  99.1456074  26.6107717
  64.3086757  97.9096529  27.2281112  64.6361239  99.7416284  32.7997075
  65.1868664  99.6133347  32.0274069  63.7972715 100.0411173  32.4491968
  71.9755356  98.4923282  36.3017798  71.9573831  99.3132163  35.8098067
  72.8975276  98.3677357  36.5267939  59.6683955  93.4361008  25.4923550
  60.5059177  93.8458016  25.2757258  59.8462223  92.4960450  25.4623744
  71.5648387  91.1036088  21.1807383  71.0495011  91.8740693  21.4195770
  71.2925696  90.4301225  21.8040444  69.1495498  85.9485789  26.2392621
  68.2937095  85.5592640  26.0598260  69.5622450  86.0277750  25.3792407
  70.6794645  83.4832132  30.6384181  70.1759441  83.4462268  29.8251986
  70.9725252  84.3924875  30.6980838  66.9237531  83.5670862  29.6450363
  67.7890528  83.3713671  29.2856252  66.9915040  83.3381214  30.5719720
  76.5382661  93.8568443  23.1160556  75.7612104  93.5179603  22.6715719
  77.2174142  93.8621066  22.4415521  71.3534691  88.9763180  23.0067164
  71.0484826  89.2909330  23.8577307  72.3065133  89.0544600  23.0494497
  69.7981122  95.1353404  24.6560118  69.2702484  94.4006163  24.3433356
  69.2968625  95.9128080  24.4100086  74.7773968  93.3302424  29.7727164
  74.1197643  94.0201686  29.8607293  75.5814368  93.7198856  30.1161151
  64.5299850  85.7973070  27.0166730  65.1043602  85.5748252  26.2839923
  65.1170832  85.8661765  27.7695331  73.5879427  91.6846797  27.8231106
  74.1011309  92.3176789  28.3252816  74.2380651  91.0847992  27.4574466
  64.8569437  87.8277531  21.0362615  64.0206749  88.1652218  21.3571890
  64.7174207  87.6926511  20.0989752  66.8322518  82.6714319  25.7441799
  66.1786930  82.3563336  25.1198414  66.7902992  82.0490059  26.4701622
  67.9433723  92.9533614  17.6595091  67.0360784  92.7222868  17.8586240
  68.4404755  92.1571233  17.8469073  70.8501801 101.6631121  20.5791777
  70.1763500 101.9662818  21.1876735  71.2367623 102.4660202  20.2297234
  70.0660258  89.1596253  30.0689447  69.1482819  89.3811200  29.9111135
  70.4820402  89.2342563  29.2101154  70.8495306  90.5587668  25.1992127
  71.5967125  91.0709065  24.8899249  71.1186895  90.2371721  26.0596521
  69.1221956  93.0546209  22.1819081  68.2133175  92.7705242  22.2791551
  69.1517040  93.4745287  21.3222388  74.3541223  96.6652798  25.9510249
  73.9003551  95.8243708  26.0075439  73.7235190  97.3014197  26.2885029
  73.2974143  87.5944784  27.1810916  72.5596900  87.0822171  27.5121159
  73.5500917  87.1545166  26.3694193  72.7974163  98.5029295  26.8860067
  73.0897137  99.0634352  26.1672433  73.3072783  98.7957856  27.6413226
  73.3985770  80.3721036  27.7752686  73.7044647  79.5118400  27.4878601
  74.1238375  80.9638657  27.5751679  59.6910126  90.7751723  26.1634283
  59.4934526  90.1821084  25.4385350  59.1356790  90.4703933  26.8810222
  67.6706850  90.6674830  28.2828877  67.7255460  89.7148666  28.2071353
  66.8598052  90.8234269  28.7670175  68.8198044  94.5954953  19.5207160
  68.3817474  93.8790812  19.0612797  69.5608485  94.8231067  18.9592251
  65.6099210  89.2851889  26.0419255  64.7967075  89.5846060  26.4484448
  66.1058204  88.8907578  26.7593738  67.7607788  99.2809646  27.9753520
  67.7183967  99.5070493  27.0462052  68.6770487  99.0473021  28.1239321
  76.9371159  92.8712150  25.5783478  76.7989057  93.0613746  24.6504668
  76.5807377  93.6331532  26.0351530  65.1013285  86.8570245  31.6580490
  65.7412664  86.7159004  30.9603454  64.2690815  86.5704758  31.2819092
  76.9640538  94.9388677  30.5894750  77.3977045  94.8463966  31.4377804
  77.6772119  94.9146177  29.9514766  65.8773589  96.1572675  27.7715483
  66.6714187  95.6622995  27.5698058  65.1665281  95.6290538  27.4083188
  70.6968433  98.5390771  32.1227850  70.7505455  99.1081707  32.8905566
  69.8283214  98.7092656  31.7581888  62.1856352  90.3015757  23.8475236
  61.2553940  90.2400212  24.0645198  62.2813824  89.7791710  23.0511877
  62.1041901  86.8270570  26.4353477  62.3648718  87.7415903  26.3262638
  62.9259073  86.3595012  26.5850090  77.8256088  94.9812377  33.1227635
  78.0191978  95.8858188  33.3686910  77.7256706  94.5219796  33.9566220
  69.6556533  92.7051033  33.6814782  70.5848593  92.8562192  33.5083750
  69.2347563  92.7935054  32.8263429  68.4544865  96.7301697  31.4513320
  68.3155950  96.3620482  32.3239258  67.6659461  97.2449337  31.2797278
  69.0493017 101.8310794  22.7938856  69.2244772 101.3598837  23.6084479
  68.3625805 102.4576560  23.0220117  70.0050080  96.1083300  28.8402158
  69.6699912  96.0684070  29.7359808  69.5054025  95.4428016  28.3672568
  72.9409271  93.4539334  19.1139217  72.3238442  92.7286162  19.0172270
  72.4725760  94.2148695  18.7706292  74.5963403  98.1638243  36.7744998
  74.5375949  97.4797463  36.1075581  74.9982921  98.9057233  36.3225624
  63.6154102 104.9800156  29.5678717  63.8550700 105.6118681  30.2457735
  62.7723298 104.6288196  29.8544076  64.7307817  87.6724759  18.2360522
  63.8537284  87.5513559  17.8722768  65.2065570  86.8810837  17.9839410
  74.5980810  96.1277827  35.0058977  73.7107589  95.7903748  35.1285376
  75.1679361  95.3960858  35.2427743  56.2509957  92.4601918  28.3302029
  56.9380997  92.1463648  27.7423044  56.0958086  93.3643283  28.0569280
  68.1281964 100.7879279  31.9720221  68.0552135 101.5934250  32.4839525
  67.6859357 100.9871245  31.1468242  67.9171743 100.0251049  25.4823042
  67.1339265 100.5672729  25.5761267  68.6164489 100.5425029  25.8817283
  71.2268393  85.8345678  28.1257248  71.7237093  85.0815641  27.8058318
  70.4555375  85.8709995  27.5600457  79.0798151  91.5386044  29.7675539
  79.0688027  92.4210759  29.3969472  78.2115530  91.1857595  29.5730076
  70.5880647 100.6866113  34.1278379  71.3008619 101.3213578  34.0554281
  70.0970676 100.7829979  33.3118381  72.3098174  94.5917366  25.6995671
  71.3754453  94.7118828  25.5300375  72.4874843  93.6889832  25.4355681
  67.8103362  87.9763061  27.8528932  67.4401150  87.4234102  28.5409838
  68.3062455  87.3721195  27.3003932  75.6970726  90.4334685  26.2345705
  76.1631178  91.2662676  26.1606008  76.1478226  89.9679666  26.9390964
  65.6392561  98.4360556  34.9483950  66.3402020  99.0697039  35.1013344
  65.1687676  98.7775288  34.1879589  73.7646957  96.7778506  23.2331857
  74.0406801  96.6635101  24.1425731  72.8951455  96.3795991  23.1944030
  73.6687388  82.8015272  30.2736606  72.7550468  83.0319499  30.4418813
  74.0980490  82.8853716  31.1250639  70.4001021 101.0264857  26.8764671
  70.5823415 100.2086513  27.3392423  71.2234007 101.2432549  26.4389561
  70.7343186  99.9533042  24.1379719  71.2630953  99.4425497  23.5249881
  70.9971406  99.6375572  25.0025252  61.2360279  97.9696911  31.8815053
  61.8213716  97.2240599  32.0142957  61.0385117  98.2800868  32.7651717
  64.0898934 101.0048159  26.8977495  63.4209309 101.4894286  26.4141535
  63.9511804 101.2517379  27.8120874  55.8277934  90.5402512  30.6019496
  55.8662033  90.0066102  31.3956614  55.3218226  90.0137717  29.9830473
  68.2304203 103.0391902  33.4960154  68.7822511 103.2023524  34.2609239
  68.5710396 103.6296340  32.8240178  59.4586511  89.2666614  23.6773427
  59.7539952  88.3577292  23.6240481  58.5574547  89.2454353  23.3554430
  71.3672590 100.9873878  30.4823836  71.2423729 100.1863618  29.9734781
  72.0251681 101.4820071  29.9937806  62.9880758  87.3422610  29.6600976
  62.2667344  87.9558578  29.5208449  63.7774014  87.8780375  29.5817622
  73.4307498  98.7882898  32.1103386  72.4837834  98.6688249  32.0381713
  73.7790271  97.9005396  32.1929647  61.1874353  86.9480711  23.8012752
  60.8587059  86.0678090  23.6187858  61.5413723  86.8928380  24.6889142
  70.4353932  98.5835614  28.3107738  70.2878894  97.6552322  28.4915308
  71.2607425  98.6055705  27.8264813  64.3016176  87.2353681  24.1688230
  64.6412248  87.7639603  23.4466839  64.7488296  87.5734087  24.9446797
  74.0388053  99.4064173  29.3972611  74.9634601  99.2007034  29.2597062
  73.8703357  99.1580574  30.3061952  66.9959617  85.6190732  33.6191298
  66.6556437  84.8198545  34.0211978  66.2898623  85.9192443  33.0468131
  67.6476089  82.7040044  32.0718621  68.4702158  82.2300523  31.9497512
  67.8914152  83.4830528  32.5717308  66.2884323  85.7328303  22.3681523
  67.0092686  86.1109556  21.8645240  65.6649627  86.4517180  22.4716501
  70.4315446  86.4373452  23.3039855  70.6479060  87.3198090  23.0028683
  69.9509513  86.0459665  22.5745497  65.1714667  89.3959165  29.8810600
  65.0259248  89.7099468  30.7734881  64.6939871  90.0144065  29.3281499
  67.0311050  86.3861713  29.9291489  67.0172619  85.4902806  29.5923787
  67.7483478  86.3932377  30.5629775  68.8837181  86.8199053  31.9744617
  68.6254959  87.7416124  31.9728947  68.3522221  86.4229488  32.6645081
  73.8283370  99.9249840  24.7534702  74.0020247  99.3596263  24.0008555
  74.3212261 100.7250735  24.5714192  66.4347946  85.2676093  25.1979060
  66.5563857  84.3392739  25.3969947  66.1449989  85.2814779  24.2857375
  69.3039137  82.9531004  28.3345779  69.3260833  83.0170337  27.3797759
  69.7207196  82.1135512  28.5286286  79.6822761  92.6886263  26.3725002
  80.1253907  91.9393588  25.9744125  78.8049271  92.6796400  25.9898734
  74.8158542  99.2416605  21.8531601  75.5109447  99.8623297  22.0718915
  75.1581692  98.3911956  22.1283978  76.7149965  96.6916310  23.3818931
  77.2401289  97.0303583  22.6568251  76.6272318  95.7563326  23.1982066
  68.3770014 100.6050384  35.5108808  68.6857140 100.3599531  36.3831508
  69.1745496 100.8097022  35.0227678  68.3990626 102.7588294  27.7414184
  67.9595616 102.2664672  28.4347041  69.1498743 102.2161261  27.5006260
  60.8782965  98.9499834  27.7438813  61.7040985  98.6503606  27.3637456
  60.5277017  98.1807457  28.1928601  65.8464498  98.3026303  29.8136486
  65.2244507  97.6397008  29.5138714  66.5169365  98.3287435  29.1310134
  59.0791570  96.8686161  28.7027746  58.2423478  96.4408335  28.5211747
  59.0515215  97.0618604  29.6398537  65.4078005  96.8530226  23.2894947
  65.5566125  97.5365690  22.6361619  66.2144449  96.8335316  23.8044402
  79.2255626  94.1591502  28.7647450  80.0602517  94.5981306  28.9285010
  79.3614754  93.6830155  27.9455695  63.1630638  92.8795404  24.2956016
  62.9176680  91.9757734  24.4936226  63.3326553  92.8812554  23.3535494
  62.4326286  88.6123761  21.7942177  61.7395531  88.6868116  21.1382213
  62.1878038  87.8484105  22.3163694  71.1039942  80.1719363  29.1981668
  71.3841696  79.5042552  29.8242094  71.8890549  80.3648458  28.6856332
  68.9073411  99.3478356  20.7606694  68.3347378  99.9668544  20.3077166
  69.4806204  99.8977718  21.2946616  72.1270670  99.6315507  21.8915276
  73.0601344  99.5661068  22.0948152  72.0393883 100.4671773  21.4329809
  74.7558687  98.9481377  18.8519224  74.6772319  98.6141241  19.7454982
  75.5768354  99.4403145  18.8510696  69.2920209  90.6839169  18.1022747
  70.2379314  90.5545377  18.1711165  68.9134454  89.9453831  18.5792175
  75.2642094  82.3495175  28.0649638  75.0666915  82.0410263  28.9492970
  75.8741799  83.0756814  28.1947568  83.2713428  92.8759123  31.2001579
  84.0016817  92.6144411  31.7609283  82.6620374  92.1387845  31.2403647
  81.3528725  91.0166986  31.7976031  80.6261889  90.8822951  31.1892522
  80.9376012  91.3243814  32.6032749  67.4763126  88.6089146  18.0377632
  66.5694582  88.3122258  18.1140345  67.7539107  88.3118964  17.1711918
  58.3941067  89.9295509  28.4876678  58.0743851  89.0760817  28.1951052
  57.8474495  90.1444087  29.2434646  69.0925192  83.1526035  24.1921873
  68.2825920  82.8073120  24.5677119  69.7809609  82.8433579  24.7809485
  71.0215740  82.2304082  25.8146170  71.5746779  82.6499536  26.4736193
  71.2585827  81.3039830  25.8569126  66.2461911  85.4676081  18.1789611
  67.1081075  85.7930979  18.4385428  66.4312255  84.6807577  17.6662677
  58.2629327  93.5498420  30.4569800  57.5692798  93.1352373  29.9439754
  59.0102318  93.5918957  29.8603219  74.3994547  84.3404607  25.3224834
  73.8193216  84.9989411  24.9402886  74.1330480  83.5181952  24.9112252
  72.8498114  83.7409665  27.5246154  73.3497892  83.8526199  26.7160473
  73.4933722  83.4370718  28.1646963  60.1766069  93.4816674  28.3335815
  60.1536757  93.5804362  27.3817698  60.4866706  94.3281825  28.6552981
  73.1819425  86.5004698  24.3781182  72.2945280  86.7854348  24.1601377
  73.5973414  86.3398461  23.5308459  76.5333962  86.5251219  28.0935522
  77.3094352  87.0147671  28.3660138  75.8082096  86.9509273  28.5507391
  78.9706520  87.2378838  29.1509462  79.5651011  86.9974574  28.4402770
  79.0433104  86.5185968  29.7782998  61.1903676 101.0812449  29.4652627
  61.0558144 100.3212850  28.8990625  60.7735738 101.8053349  28.9981416
  72.3262639  96.2649372  18.4729202  73.0298489  96.4699375  19.0886858
  71.6025288  96.8326134  18.7378286  73.1560449  92.0159234  24.5931472
  73.0995651  92.4727785  23.7539105  73.7088792  91.2549918  24.4154315
  76.9665255  87.8048965  25.4181592  76.7102189  87.4045601  26.2489800
  76.3418123  88.5192759  25.2931731  81.2777593  90.5445039  27.9252883
  80.7177151  90.6138228  28.6984445  80.6721096  90.3686023  27.2052380
  64.3472802 101.9781766  29.6771070  64.2305186 102.9227198  29.5749760
  63.5265248 101.6755327  30.0656869  74.2349336  96.7031902  20.5227662
  75.0694940  96.2713100  20.3405137  74.0733679  96.5313915  21.4504557
  73.8895228  93.2064015  21.8884002  73.8344032  93.0408286  20.9472446
  73.2641284  93.9140048  22.0446191  67.1991354  82.7072124  21.4669320
  67.1870024  83.6513964  21.6237591  68.0914776  82.5242269  21.1728781
  65.3727316 102.6310028  32.8926998  66.2754563 102.6633638  33.2093493
  65.1464686 101.7010479  32.9073334  67.1280918 101.3841014  29.5537077
  66.1776549 101.3842876  29.4401449  67.4313404 100.6373749  29.0373111
  71.0143473  79.3014900  25.7215257  70.2475869  78.7473387  25.8671939
  71.4254178  79.3736769  26.5829408  82.8633611 107.2201553  30.6182839
  83.5012021 107.1008300  29.9146179  82.7454454 108.1682397  30.6770791
  79.6723318 107.1728981  30.5544364  79.3341829 107.0570045  29.6664899
  80.5413086 106.7720146  30.5345370  75.5310133 109.0264457  26.5441255
  74.9674998 108.9354394  25.7757542  75.4162528 108.2064362  27.0243747
  80.1543101 108.3263832  36.5130569  80.1431741 107.9316631  35.6411073
  80.3163740 107.5929905  37.1064341  73.0774565 110.5215649  29.3825475
  73.8695857 110.1806473  28.9671774  73.3171215 110.6310624  30.3027628
  81.1109692 112.6935425  21.8555720  80.4597672 113.2789505  21.4689733
  81.9054055 113.2241620  21.9150757  75.0365319 109.7824562  22.2542854
  75.8096195 109.2353549  22.1155730  75.3890718 110.6468811  22.4657315
  76.8750362 111.1100944  35.4609753  76.5840228 112.0146575  35.3456420
  77.5107346 111.1517472  36.1753823  77.8006569 108.4877793  32.0511113
  78.3970141 108.2633815  31.3368076  77.8581540 107.7462538  32.6536561
  77.3731597 105.9417228  19.8861304  77.6257118 105.4198749  19.1244767
  76.4356156 105.7783374  19.9887987  82.4174880 104.9453006  27.6936047
  83.2037969 104.5272430  27.3426464  82.6813584 105.8499099  27.8617695
  82.5884957 110.3825857  22.3924704  81.9530790 110.4560483  23.1045609
  82.2582364 110.9719456  21.7143783  87.8183307 104.8828240  28.5969026
  88.5508479 104.3127456  28.8306855  87.0622663 104.4949840  29.0375531
  77.0927886 107.8445334  22.0885679  76.9764144 107.1690237  22.7566763
  77.2030146 107.3577708  21.2717832  79.4359427 107.3055481  25.7932368
  79.0717634 106.7786102  26.5045290  80.2926543 106.9153950  25.6198853
  85.3408727  98.5949814  33.0563634  85.0092052  99.4645225  32.8324849
  84.7454341  98.2786098  33.7357665  79.0764914 102.3345381  20.7893717
  79.2439316 103.2025617  21.1564188  78.8862083 102.4972663  19.8655006
  81.8340247 110.7962360  32.4559547  81.5340970 111.6987399  32.3475354
  81.4891306 110.5294543  33.3080700  75.2852728 107.2476157  28.4896251
  74.3603225 107.1152371  28.6973943  75.5337142 108.0270376  28.9866194
  85.2337391 103.3144900  30.1356984  84.3254268 103.2460308  29.8415745
  85.1824986 103.7916845  30.9638810  79.0554135 104.7903038  21.7740383
  78.9353760 105.2360089  22.6125864  78.3606723 105.1388356  21.2153922
  72.6461539 106.8909430  29.3240040  72.7753921 107.1443909  30.2379452
  71.9658991 107.4837138  29.0044696  76.8161027 117.5606680  25.4230515
  76.7385056 118.5114505  25.5018995  76.2122670 117.2152553  26.0805441
  79.3078256 104.7334546  38.0791882  78.5311590 105.2928466  38.0694746
  79.9468819 105.2191329  38.6006752  87.0999037 101.5161338  31.9134858
  86.4573417 101.8093872  31.2674653  86.5953966 101.4014259  32.7188055
  84.7539201 105.2624512  22.6020717  85.6657057 105.4951898  22.4268415
  84.2448848 105.8461556  22.0395796  77.5624629 107.5419999  37.6409849
  78.3039313 108.0805043  37.3644672  76.8561614 108.1686288  37.7981400
  83.0379968 109.6849139  36.2382010  83.4463324 109.2431550  35.4936642
  82.3157230 109.1101767  36.4916203  79.3911038 104.6221746  33.6115567
  80.2372234 105.0461160  33.7550216  79.3309676 103.9655370  34.3054130
  83.3608783 110.2450330  29.9934299  82.7317645 110.4096044  29.2910367
  82.9734445 110.6591940  30.7645263  87.2398015 111.1804768  27.3478663
  86.5549053 111.5603669  26.7975696  87.3241864 111.7900095  28.0810610
  84.4948947 108.8264727  33.9474006  84.7065842 109.4696487  33.2708387
  84.4478695 107.9927043  33.4795936  82.0975175 101.4382548  30.8510578
  81.2359655 101.7363801  31.1427316  82.1237610 101.6552946  29.9191611
  78.9136745 109.9824738  27.2584384  79.3775090 110.2612441  26.4689007
  78.6493543 109.0808183  27.0757475  75.8060826 109.5296220  30.1964147
  76.3762183 109.9583488  29.5581632  76.3968938 109.2478804  30.8948333
  77.8505631 106.1047890  24.0673949  78.5529674 106.5568934  24.5347876
  77.5186259 105.4631709  24.6953842  76.2985992 104.6959647  38.4425159
  75.6684653 105.3775928  38.6760555  76.1922080 104.5842729  37.4978297
  71.5930965 104.3631443  29.3691083  70.8030019 104.6188972  28.8931193
  72.0842212 105.1779781  29.4743123  85.6094774 111.7036682  32.1196364
  86.4312218 111.3016870  31.8379045  85.6057177 111.6004916  33.0712479
  73.5445710 104.7276022  26.3274559  72.7476874 104.8394717  26.8458055
  73.3171302 105.0662675  25.4615450  79.3751378 111.2520726  34.2757074
  79.4395810 111.7141133  35.1115246  78.6662302 110.6218091  34.4039384
  69.8768668 104.6161934  31.8006074  70.1276706 105.5008943  32.0663649
  70.4128216 104.4366535  31.0281165  93.7000768 108.0475431  28.4681335
  92.9464476 107.4782829  28.3125339  93.8348309 108.0138095  29.4151970
  79.0899396 112.9188833  24.1436054  78.9545070 113.7640369  24.5720902
  79.6309208 113.1208111  23.3801988  72.5428793 110.4364271  24.7163979
  73.0553314 111.2307521  24.8669544  73.1951506 109.7390562  24.6497581
  74.3523678 113.5530027  26.7986733  74.5290306 114.4747992  26.6107717
  75.1480511 113.2388447  27.2281112  73.6376034 105.5994659  36.6748896
  73.5229549 104.6979917  36.9755995  72.7820552 105.8458356  36.3233712
  80.7167872 113.5412400  38.2736396  80.2731726 112.7548778  37.9557301
  81.3785086 113.7291550  37.6080287  75.4754993 115.0708201  32.7997075
  76.0262418 114.9425265  32.0274069  74.6366469 115.3703090  32.4491968
  82.8149110 113.8215200  36.3017798  82.7967585 114.6424081  35.8098067
  83.7369030 113.6969275  36.5267939  79.2722164 111.3359329  37.1441306
  79.8050501 110.5747617  36.9140614  78.7436245 111.0432981  37.8865461
  82.4391859  96.4419395  32.6734948  82.0956129  97.3321037  32.5974058
  82.8070822  96.2521053  31.8104533  70.5077710 108.7652925  25.4923550
  71.3452932 109.1749934  25.2757258  70.6855977 107.8252368  25.4623744
  82.4042142 106.4328006  21.1807383  81.8888765 107.2032611  21.4195770
  82.1319450 105.7593142  21.8040444  79.9889253 101.2777707  26.2392621
  79.1330849 100.8884557  26.0598260  80.4016205 101.3569668  25.3792407
  81.5188400  98.8124050  30.6384181  81.0153195  98.7754185  29.8251986
  81.8119006  99.7216793  30.6980838  77.7631285  98.8962780  29.6450363
  78.6284282  98.7005589  29.2856252  77.8308794  98.6673132  30.5719720
  87.3776416 109.1860361  23.1160556  86.6005859 108.8471520  22.6715719
  88.0567897 109.1912984  22.4415521  82.1928445 104.3055098  23.0067164
  81.8878581 104.6201247  23.8577307  83.1458887 104.3836518  23.0494497
  80.6374877 110.4645321  24.6560118  80.1096238 109.7298081  24.3433356
  80.1362380 111.2419998  24.4100086  85.6167723 108.6594342  29.7727164
  84.9591397 109.3493603  29.8607293  86.4208122 109.0490774  30.1161151
  75.3693604 101.1264988  27.0166730  75.9437356 100.9040169  26.2839923
  75.9564587 101.1953682  27.7695331  84.4273182 107.0138715  27.8231106
  84.9405063 107.6468706  28.3252816  85.0774406 106.4139910  27.4574466
  75.6963192 103.1569449  21.0362615  74.8600504 103.4944135  21.3571890
  75.5567961 103.0218429  20.0989752  77.6716272  98.0006237  25.7441799
  77.0180685  97.6855254  25.1198414  77.6296746  97.3781977  26.4701622
  78.7827477 108.2825532  17.6595091  77.8754539 108.0514785  17.8586240
  79.2798509 107.4863151  17.8469073  81.6895556 116.9923039  20.5791777
  81.0157255 117.2954736  21.1876735  82.0761378 117.7952119  20.2297234
  80.9054013 104.4888170  30.0689447  79.9876574 104.7103117  29.9111135
  81.3214156 104.5634481  29.2101154  81.6889060 105.8879586  25.1992127
  82.4360879 106.4000983  24.8899249  81.9580650 105.5663639  26.0596521
  79.9615710 108.3838127  22.1819081  79.0526930 108.0997159  22.2791551
  79.9910794 108.8037205  21.3222388  85.1934978 111.9944716  25.9510249
  84.7397305 111.1535626  26.0075439  84.5628945 112.6306114  26.2885029
  84.1367897 102.9236702  27.1810916  83.3990654 102.4114088  27.5121159
  84.3894671 102.4837084  26.3694193  83.6367917 113.8321213  26.8860067
  83.9290892 114.3926270  26.1672433  84.1466538 114.1249774  27.6413226
  84.2379525  95.7012954  27.7752686  84.5438402  94.8410318  27.4878601
  84.9632130  96.2930574  27.5751679  70.5303881 106.1043641  26.1634283
  70.3328281 105.5113001  25.4385350  69.9750545 105.7995851  26.8810222
  78.5100605 105.9966747  28.2828877  78.5649214 105.0440584  28.2071353
  77.6991807 106.1526186  28.7670175  79.6591798 109.9246870  19.5207160
  79.2211228 109.2082729  19.0612797  80.4002239 110.1522985  18.9592251
  76.4492964 104.6143807  26.0419255  75.6360830 104.9137978  26.4484448
  76.9451959 104.2199496  26.7593738  78.6001542 114.6101564  27.9753520
  78.5577721 114.8362410  27.0462052  79.5164241 114.3764938  28.1239321
  82.0467176 105.0785631  34.8734149  82.4016564 105.3057105  35.7328615
  82.6939307 105.4104008  34.2511405  87.7764913 108.2004067  25.5783478
  87.6382812 108.3905663  24.6504668  87.4201132 108.9623450  26.0351530
  75.9407039 102.1862162  31.6580490  76.5806419 102.0450922  30.9603454
  75.1084570 101.8996676  31.2819092  87.8034293 110.2680594  30.5894750
  88.2370799 110.1755883  31.4377804  88.5165873 110.2438095  29.9514766
  76.7167343 111.4864593  27.7715483  77.5107942 110.9914913  27.5698058
  76.0059035 110.9582456  27.4083188  81.5362188 113.8682688  32.1227850
  81.5899210 114.4373625  32.8905566  80.6676969 114.0384573  31.7581888
  73.0250107 105.6307675  23.8475236  72.0947695 105.5692130  24.0645198
  73.1207579 105.1083627  23.0511877  72.9435656 102.1562487  26.4353477
  73.2042473 103.0707821  26.3262638  73.7652828 101.6886930  26.5850090
  74.4160581 103.5700245  33.6052302  75.0883634 103.3617607  32.9564951
  73.5890367 103.3722331  33.1657534  88.6649842 110.3104295  33.1227635
  88.8585732 111.2150105  33.3686910  88.5650460 109.8511714  33.9566220
  83.7264951 110.4611038  38.6968516  83.5750457 110.2321589  37.7798600
  83.7169630 111.4181639  38.7099861  80.4950287 108.0342950  33.6814782
  81.4242347 108.1854110  33.5083750  80.0741317 108.1226971  32.8263429
  79.2938619 112.0593615  31.4513320  79.1549705 111.6912399  32.3239258
  78.5053215 112.5741254  31.2797278  79.8886771 117.1602711  22.7938856
  80.0638527 116.6890755  23.6084479  79.2019559 117.7868478  23.0220117
  80.8443834 111.4375218  28.8402158  80.5093667 111.3975988  29.7359808
  80.3447780 110.7719934  28.3672568  74.8188078 106.8442848  34.3654739
  74.6807876 106.1123086  34.9666278  75.7293002 106.7551748  34.0838927
  83.7803026 108.7831252  19.1139217  83.1632197 108.0578080  19.0172270
  83.3119514 109.5440612  18.7706292  77.4470379 106.5562807  33.8538419
  78.1569997 105.9155999  33.8125037  77.4039687 106.8075702  34.7764599
  85.4357158 113.4930160  36.7744998  85.3769704 112.8089380  36.1075581
  85.8376676 114.2349150  36.3225624  76.1599313 103.5428025  35.6734058
  75.6236670 103.0918763  36.3255654  75.5716021 103.6773934  34.9304522
  74.4547856 120.3092074  29.5678717  74.6944455 120.9410598  30.2457735
  73.6117053 119.9580114  29.8544076  75.5701572 103.0016676  18.2360522
  74.6931038 102.8805477  17.8722768  76.0459325 102.2102755  17.9839410
  85.4374565 111.4569744  35.0058977  84.5501344 111.1195666  35.1285376
  86.0073116 110.7252775  35.2427743  67.0903712 107.7893836  28.3302029
  67.7774752 107.4755566  27.7423044  66.9351841 108.6935201  28.0569280
  71.8938434 102.6784033  32.7587053  71.8096623 102.0709702  32.0237462
  71.0721140 103.1693051  32.7596549  78.9675718 116.1171197  31.9720221
  78.8945890 116.9226168  32.4839525  78.5253111 116.3163162  31.1468242
  78.7565498 115.3542967  25.4823042  77.9733020 115.8964647  25.5761267
  79.4558243 115.8716946  25.8817283  82.0662148 101.1637596  28.1257248
  82.5630848 100.4107558  27.8058318  81.2949129 101.2001913  27.5600457
  89.9191905 106.8677962  29.7675539  89.9081782 107.7502677  29.3969472
  89.0509285 106.5149512  29.5730076  81.4274402 116.0158031  34.1278379
  82.1402374 116.6505495  34.0554281  80.9364430 116.1121897  33.3118381
  83.1491929 109.9209283  25.6995671  82.2148207 110.0410746  25.5300375
  83.3268597 109.0181750  25.4355681  78.6497117 103.3054979  27.8528932
  78.2794904 102.7526019  28.5409838  79.1456209 102.7013113  27.3003932
  86.5364480 105.7626603  26.2345705  87.0024932 106.5954594  26.1606008
  86.9871981 105.2971584  26.9390964  76.4786315 113.7652474  34.9483950
  77.1795775 114.3988957  35.1013344  76.0081430 114.1067206  34.1879589
  84.6040711 112.1070424  23.2331857  84.8800555 111.9927018  24.1425731
  83.7345210 111.7087909  23.1944030  84.5081143  98.1307190  30.2736606
  83.5944223  98.3611416  30.4418813  84.9374244  98.2145634  31.1250639
  84.2787601 106.3197082  32.7736500  83.6259051 106.5672989  32.1188953
  84.6567981 105.5061220  32.4398978  81.2394775 116.3556775  26.8764671
  81.4217170 115.5378431  27.3392423  82.0627761 116.5724467  26.4389561
  81.5736941 115.2824960  24.1379719  82.1024707 114.7717414  23.5249881
  81.8365160 114.9667490  25.0025252  80.3275174 107.0616893  39.2602538
  79.6515811 106.9611022  39.9304913  81.1502808 106.9056106  39.7238535
  72.0754033 113.2988829  31.8815053  72.6607470 112.5532517  32.0142957
  71.8778872 113.6092786  32.7651717  74.9292689 116.3340077  26.8977495
  74.2603064 116.8186204  26.4141535  74.7905558 116.5809297  27.8120874
  66.6671688 105.8694429  30.6019496  66.7055788 105.3358020  31.3956614
  66.1611981 105.3429635  29.9830473  79.0697957 118.3683820  33.4960154
  79.6216265 118.5315442  34.2609239  79.4104151 118.9588258  32.8240178
  74.0462450 100.7158970  34.0982038  74.1103777 101.5773801  33.6859436
  73.9829571 100.1032971  33.3654397  73.5214723 102.7882102  37.7455073
  74.1486762 102.4059180  38.3592597  72.6642642 102.5696304  38.1110765
  83.9208831 113.1945078  39.3508808  84.4648735 113.8075036  38.8563763
  83.3395676 113.7524656  39.8675821  70.2980266 104.5958531  23.6773427
  70.5933707 103.6869210  23.6240481  69.3968301 104.5746271  23.3554430
  82.2066344 116.3165796  30.4823836  82.0817484 115.5155535  29.9734781
  82.8645436 116.8111989  29.9937806  73.8274513 102.6714528  29.6600976
  73.1061098 103.2850496  29.5208449  74.6167768 103.2072293  29.5817622
  84.2701253 114.1174816  32.1103386  83.3231588 113.9980167  32.0381713
  84.6184026 113.2297314  32.1929647  72.0268107 102.2772629  23.8012752
  71.6980813 101.3970008  23.6187858  72.3807478 102.2220298  24.6889142
  81.2747686 113.9127532  28.3107738  81.1272649 112.9844239  28.4915308
  82.1001180 113.9347623  27.8264813  75.1409930 102.5645599  24.1688230
  75.4806003 103.0931520  23.4466839  75.5882051 102.9026005  24.9446797
  84.8781808 114.7356091  29.3972611  85.8028355 114.5298952  29.2597062
  84.7097111 114.4872492  30.3061952  77.8353371 100.9482650  33.6191298
  77.4950192 100.1490463  34.0211978  77.1292377 101.2484360  33.0468131
  78.4869843  98.0331962  32.0718621  79.3095912  97.5592440  31.9497512
  78.7307907  98.8122446  32.5717308  77.1278078 101.0620221  22.3681523
  77.8486440 101.4401473  21.8645240  76.5043382 101.7809097  22.4716501
  81.2709200 101.7665369  23.3039855  81.4872815 102.6490007  23.0028683
  80.7903268 101.3751583  22.5745497  76.0108422 104.7251083  29.8810600
  75.8653003 105.0391386  30.7734881  75.5333625 105.3435983  29.3281499
  77.8704805 101.7153631  29.9291489  77.8566373 100.8194724  29.5923787
  78.5877233 101.7224294  30.5629775  79.7230935 102.1490971  31.9744617
  79.4648713 103.0708042  31.9728947  79.1915976 101.7521405  32.6645081
  84.6677124 115.2541758  24.7534702  84.8414002 114.6888181  24.0008555
  85.1606015 116.0542653  24.5714192  70.4854084 107.2656427  32.8198261
  69.9407552 108.0416235  32.9518535  71.3633434 107.6127232  32.6617382
  77.2741701 100.5968011  25.1979060  77.3957612  99.6684657  25.3969947
  76.9843743 100.6106697  24.2857375  80.1432891  98.2822921  28.3345779
  80.1654588  98.3462255  27.3797759  80.5600950  97.4427430  28.5286286
  90.5216515 108.0178181  26.3725002  90.9647661 107.2685506  25.9744125
  89.6443026 108.0088317  25.9898734  85.6552297 114.5708522  21.8531601
  86.3503201 115.1915215  22.0718915  85.9975447 113.7203874  22.1283978
  71.2720106 106.3926323  35.7128418  70.5301842 106.5408959  36.2993048
  70.9512850 106.6534589  34.8495167  87.5543720 112.0208228  23.3818931
  88.0795044 112.3595501  22.6568251  87.4666072 111.0855243  23.1982066
  79.2163768 115.9342302  35.5108808  79.5250895 115.6891448  36.3831508
  80.0139250 116.1388940  35.0227678  79.2384381 118.0880211  27.7414184
  78.7989371 117.5956590  28.4347041  79.9892497 117.5453179  27.5006260
  71.7176720 114.2791752  27.7438813  72.5434739 113.9795524  27.3637456
  71.3670771 113.5099375  28.1928601  76.6858253 113.6318220  29.8136486
  76.0638262 112.9688925  29.5138714  77.3563120 113.6579352  29.1310134
  69.9185325 112.1978079  28.7027746  69.0817233 111.7700253  28.5211747
  69.8908970 112.3910522  29.6398537  87.2437626 112.6541132  38.6870129
  86.4533170 112.6365270  38.1474629  87.0070980 113.1929425  39.4419166
  87.3635501 109.5033598  36.0002858  87.4133506 109.3383605  36.9418381
  87.2549424 108.6360857  35.6100739  76.2471760 112.1822144  23.2894947
  76.3959880 112.8657608  22.6361619  77.0538203 112.1627234  23.8044402
  84.6539263 105.4864526  37.3162164  85.5549126 105.3470991  37.0246162
  84.7287238 105.6518981  38.2560342  78.9882069 102.8631381  36.1615351
  78.1185378 103.1564947  35.8897939  79.2241549 103.4471826  36.8822614
  88.8653698 111.9230539  36.2444879  88.5738506 112.2860520  37.0808340
  88.2525829 111.2097548  36.0658211  90.0649380 109.4883419  28.7647450
  90.8996271 109.9273223  28.9285010  90.2008509 109.0122072  27.9455695
  87.1140886 107.0463154  34.7124937  87.5895008 107.2390800  33.9043789
  86.1906451 107.1022340  34.4668321  74.0024393 108.2087321  24.2956016
  73.7570435 107.3049651  24.4936226  74.1720307 108.2104472  23.3535494
  73.2720040 103.9415679  21.7942177  72.5789285 104.0160034  21.1382213
  73.0271792 103.1776023  22.3163694  81.9433697  95.5011280  29.1981668
  82.2235450  94.8334469  29.8242094  82.7284304  95.6940376  28.6856332
  79.7467165 114.6770274  20.7606694  79.1741132 115.2960461  20.3077166
  80.3199959 115.2269636  21.2946616  85.8142555 103.9228914  32.9453243
  86.7659978 104.0227012  32.9665467  85.6446005 103.1307183  33.4551327
  83.8356934 101.0084497  33.1312644  83.2406867 101.2889510  32.4359132
  83.5506631 101.4978398  33.9029385  82.9664425 114.9607424  21.8915276
  83.8995098 114.8952986  22.0948152  82.8787638 115.7963691  21.4329809
  85.5952442 114.2773295  18.8519224  85.5166073 113.9433158  19.7454982
  86.4162108 114.7695063  18.8510696  88.2930633 107.1435034  32.0595543
  88.2606953 106.2051035  32.2455226  88.9031256 107.2219071  31.3261367
  80.1313964 106.0131087  18.1022747  81.0773068 105.8837295  18.1711165
  79.7528209 105.2745749  18.5792175  88.4425121 103.9346077  32.1053826
  87.9264170 103.1504534  31.9183755  89.3265070 103.6064794  32.2700345
  86.1035848  97.6787093  28.0649638  85.9060669  97.3702181  28.9492970
  86.7135554  98.4048732  28.1947568  94.1107183 108.2051041  31.2001579
  94.8410571 107.9436329  31.7609283  93.5014128 107.4679763  31.2403647
  92.1922480 106.3458903  31.7976031  91.4655643 106.2114868  31.1892522
  91.7769767 106.6535732  32.6032749  80.0152656 110.0648833  39.5623404
  80.9355666 110.2427432  39.7563450  79.9802239 109.1204878  39.4103103
  78.3156881 103.9381063  18.0377632  77.4088336 103.6414176  18.1140345
  78.5932862 103.6410881  17.1711918  69.2334821 105.2587427  28.4876678
  68.9137605 104.4052735  28.1951052  68.6868249 105.4736005  29.2434646
  73.0114729 107.9749868  32.2046185  73.2300738 108.9066975  32.2234219
  73.4240503 107.6157842  32.9900989  79.9318946  98.4817953  24.1921873
  79.1219675  98.1365038  24.5677119  80.6203363  98.1725497  24.7809485
  81.8609495  97.5596000  25.8146170  82.4140533  97.9791453  26.4736193
  82.0979581  96.6331748  25.8569126  77.0855665 100.7967998  18.1789611
  77.9474829 101.1222897  18.4385428  77.2706010 100.0099494  17.6662677
  69.1023081 108.8790338  30.4569800  68.4086553 108.4644291  29.9439754
  69.8496072 108.9210875  29.8603219  85.2388302  99.6696525  25.3224834
  84.6586971 100.3281329  24.9402886  84.9724235  98.8473870  24.9112252
  83.6891868  99.0701583  27.5246154  84.1891647  99.1818117  26.7160473
  84.3327476  98.7662635  28.1646963  77.7473864 106.9780212  40.4113995
  77.2640946 107.7780572  40.6177884  77.8334803 106.9888157  39.4581439
  71.0159824 108.8108592  28.3335815  70.9930512 108.9096279  27.3817698
  71.3260460 109.6573743  28.6552981  73.6747202 110.8684747  32.4482429
  74.6290455 110.8368689  32.3812361  73.4759725 110.4075371  33.2632655
  74.2646584 109.4385863  35.0153227  75.0839473 109.9329942  35.0388064
  74.5383391 108.5217831  34.9870794  84.0213180 101.8296615  24.3781182
  83.1339035 102.1146266  24.1601377  84.4367169 101.6690379  23.5308459
  87.3727716 101.8543136  28.0935522  88.1488106 102.3439589  28.3660138
  86.6475850 102.2801190  28.5507391  89.8100275 102.5670756  29.1509462
  90.4044765 102.3266491  28.4402770  89.8826858 101.8477886  29.7782998
  72.0297430 116.4104366  29.4652627  71.8951898 115.6504767  28.8990625
  71.6129493 117.1345266  28.9981416  83.1656393 111.5941290  18.4729202
  83.8692243 111.7991292  19.0886858  82.4419042 112.1618052  18.7378286
  83.9954204 107.3451151  24.5931472  83.9389405 107.8019703  23.7539105
  84.5482546 106.5841836  24.4154315  87.8059010 103.1340883  25.4181592
  87.5495944 102.7337519  26.2489800  87.1811878 103.8484677  25.2931731
  92.1171347 105.8736956  27.9252883  91.5570905 105.9430146  28.6984445
  91.5114851 105.6977941  27.2052380  75.1866556 117.3073683  29.6771070
  75.0698940 118.2519116  29.5749760  74.3659002 117.0047245  30.0656869
  85.0743091 112.0323819  20.5227662  85.9088695 111.6005018  20.3405137
  84.9127434 111.8605833  21.4504557  84.7288983 108.5355933  21.8884002
  84.6737787 108.3700204  20.9472446  84.1035038 109.2431965  22.0446191
  69.5181498 103.7723997  35.7145424  70.1640362 103.2622951  36.2032649
  69.3098649 104.5092679  36.2888849  82.0434890 110.8404844  41.2137564
  82.9126050 111.0145497  40.8524199  81.5641642 111.6599261  41.0913294
  78.0385108  98.0364042  21.4669320  78.0263778  98.9805881  21.6237591
  78.9308530  97.8534187  21.1728781  76.2121070 117.9601945  32.8926998
  77.1148317 117.9925556  33.2093493  75.9858440 117.0302396  32.9073334
  77.9674672 116.7132932  29.5537077  77.0170303 116.7134794  29.4401449
  78.2707158 115.9665666  29.0373111  81.8537228  94.6306818  25.7215257
  81.0869624  94.0765305  25.8671939  82.2647933  94.7028687  26.5829408
  93.7027366 122.5493470  30.6182839  94.3405776 122.4300218  29.9146179
  93.5848209 123.4974314  30.6770791  90.5117072 122.5020898  30.5544364
  90.1735584 122.3861963  29.6664899  91.3806840 122.1012063  30.5345370
  86.3703888 124.3556375  26.5441255  85.8068753 124.2646312  25.7757542
  86.2556283 123.5356279  27.0243747  90.9936855 123.6555750  36.5130569
  90.9825496 123.2608548  35.6411073  91.1557495 122.9221823  37.1064341
  83.9168320 125.8507566  29.3825475  84.7089612 125.5098391  28.9671774
  84.1564970 125.9602541  30.3027628  87.7144116 126.4392862  35.4609753
  87.4233982 127.3438493  35.3456420  88.3501101 126.4809390  36.1753823
  88.6400323 123.8169710  32.0511113  89.2363895 123.5925733  31.3368076
  88.6975295 123.0754456  32.6536561  93.2568634 120.2744924  27.6936047
  94.0431724 119.8564347  27.3426464  93.5207339 121.1791016  27.8617695
  98.6577061 120.2120157  28.5969026  99.3902233 119.6419374  28.8306855
  97.9016417 119.8241758  29.0375531  90.2753181 122.6347399  25.7932368
  89.9111388 122.1078020  26.5045290  91.1320297 122.2445868  25.6198853
  96.1802482 113.9241731  33.0563634  95.8485807 114.7937142  32.8324849
  95.5848095 113.6078015  33.7357665  92.6734001 126.1254277  32.4559547
  92.3734724 127.0279316  32.3475354  92.3285061 125.8586461  33.3080700
  86.1246483 122.5768074  28.4896251  85.1996979 122.4444288  28.6973943
  86.3730896 123.3562294  28.9866194  96.0731145 118.6436818  30.1356984
  95.1648022 118.5752226  29.8415745  96.0218741 119.1208763  30.9638810
  83.4855294 122.2201348  29.3240040  83.6147675 122.4735827  30.2379452
  82.8052745 122.8129056  29.0044696  90.1472011 120.0626463  38.0791882
  89.3705345 120.6220383  38.0694746  90.7862574 120.5483246  38.6006752
  97.9392792 116.8453256  31.9134858  97.2967172 117.1385789  31.2674653
  97.4347720 116.7306176  32.7188055  88.4018383 122.8711917  37.6409849
  89.1433068 123.4096961  37.3644672  87.6955369 123.4978205  37.7981400
  93.8773723 125.0141057  36.2382010  94.2857079 124.5723468  35.4936642
  93.1550984 124.4393685  36.4916203  90.2304793 119.9513664  33.6115567
  91.0765988 120.3753077  33.7550216  90.1703431 119.2947288  34.3054130
  94.2002538 125.5742248  29.9934299  93.5711400 125.7387962  29.2910367
  93.8128200 125.9883857  30.7645263  93.3804238 117.6118032  35.2696741
  93.1365170 118.3660093  34.7331016  93.6564169 117.9903380  36.1043988
  95.3342701 124.1556645  33.9474006  95.5459596 124.7988404  33.2708387
  95.2872449 123.3218961  33.4795936  92.9368930 116.7674465  30.8510578
  92.0753409 117.0655719  31.1427316  92.9631365 116.9844864  29.9191611
  89.7530499 125.3116656  27.2584384  90.2168845 125.5904359  26.4689007
  89.4887297 124.4100100  27.0757475  86.6454580 124.8588137  30.1964147
  87.2155938 125.2875406  29.5581632  87.2362692 124.5770722  30.8948333
  88.6899385 121.4339808  24.0673949  89.3923429 121.8860852  24.5347876
  88.3580014 120.7923627  24.6953842  87.1379747 120.0251565  38.4425159
  86.5078408 120.7067846  38.6760555  87.0315835 119.9134646  37.4978297
  82.4324719 119.6923361  29.3691083  81.6423773 119.9480889  28.8931193
  82.9235967 120.5071699  29.4743123  96.4488529 127.0328600  32.1196364
  97.2705973 126.6308787  31.8379045  96.4450932 126.9296834  33.0712479
  84.3839465 120.0567940  26.3274559  83.5870628 120.1686634  26.8458055
  84.1565057 120.3954592  25.4615450  90.2145132 126.5812643  34.2757074
  90.2789565 127.0433051  35.1115246  89.5056056 125.9510008  34.4039384
  80.7162422 119.9453851  31.8006074  80.9670461 120.8300861  32.0663649
  81.2521971 119.7658453  31.0281165  86.4160490 114.3272331  40.8050410
  86.0227435 113.7738529  41.4798054  87.2326630 114.6382909  41.1956927
  83.3822547 125.7656189  24.7163979  83.8947068 126.5599439  24.8669544
  84.0345260 125.0682479  24.6497581  89.3328451 115.7430210  38.3970666
  90.0738164 116.3437363  38.3175129  89.5646374 115.0007847  37.8388709
  84.4769789 120.9286577  36.6748896  84.3623304 120.0271834  36.9755995
  83.6214306 121.1750274  36.3233712  91.5561626 128.8704317  38.2736396
  91.1125481 128.0840696  37.9557301  92.2178840 129.0583468  37.6080287
  86.3148748 130.4000119  32.7997075  86.8656173 130.2717182  32.0274069
  85.4760224 130.6995008  32.4491968  93.6542864 129.1507117  36.3017798
  93.6361340 129.9715998  35.8098067  94.5762785 129.0261192  36.5267939
  90.1115919 126.6651247  37.1441306  90.6444255 125.9039535  36.9140614
  89.5830000 126.3724898  37.8865461  93.2785614 111.7711313  32.6734948
  92.9349883 112.6612954  32.5974058  93.6464576 111.5812970  31.8104533
  81.3471464 124.0944843  25.4923550  82.1846686 124.5041851  25.2757258
  81.5249732 123.1544285  25.4623744  90.8283007 116.6069625  26.2392621
  89.9724604 116.2176475  26.0598260  91.2409959 116.6861585  25.3792407
  92.3582154 114.1415968  30.6384181  91.8546950 114.1046103  29.8251986
  92.6512761 115.0508711  30.6980838  88.6025040 114.2254698  29.6450363
  89.4678037 114.0297506  29.2856252  88.6702549 113.9965049  30.5719720
  96.4561477 123.9886260  29.7727164  95.7985152 124.6785521  29.8607293
  97.2601877 124.3782692  30.1161151  86.2087359 116.4556905  27.0166730
  86.7831111 116.2332087  26.2839923  86.7958341 116.5245600  27.7695331
  95.2666936 122.3430632  27.8231106  95.7798818 122.9760624  28.3252816
  95.9168160 121.7431828  27.4574466  88.5110027 113.3298154  25.7441799
  87.8574439 113.0147172  25.1198414  88.4690501 112.7073895  26.4701622
  91.7447767 119.8180088  30.0689447  90.8270328 120.0395035  29.9111135
  92.1607911 119.8926398  29.2101154  94.9761652 118.2528620  27.1810916
  94.2384409 117.7406006  27.5121159  95.2288425 117.8129001  26.3694193
  95.0773279 111.0304872  27.7752686  95.3832156 110.1702235  27.4878601
  95.8025884 111.6222492  27.5751679  81.3697635 121.4335558  26.1634283
  81.1722035 120.8404919  25.4385350  80.8144299 121.1287769  26.8810222
  89.3494359 121.3258665  28.2828877  89.4042969 120.3732501  28.2071353
  88.5385561 121.4818104  28.7670175  87.2886719 119.9435725  26.0419255
  86.4754584 120.2429895  26.4484448  87.7845713 119.5491413  26.7593738
  92.8860931 120.4077549  34.8734149  93.2410318 120.6349022  35.7328615
  93.5333062 120.7395926  34.2511405  86.7800794 117.5154080  31.6580490
  87.4200173 117.3742839  30.9603454  85.9478324 117.2288594  31.2819092
  87.5561098 126.8156511  27.7715483  88.3501696 126.3206831  27.5698058
  86.8452790 126.2874374  27.4083188  92.3755942 129.1974606  32.1227850
  92.4292964 129.7665542  32.8905566  91.5070723 129.3676491  31.7581888
  83.8643861 120.9599592  23.8475236  82.9341449 120.8984048  24.0645198
  83.9601333 120.4375545  23.0511877  83.7829410 117.4854405  26.4353477
  84.0436227 118.3999738  26.3262638  84.6046582 117.0178848  26.5850090
  85.2554335 118.8992162  33.6052302  85.9277389 118.6909524  32.9564951
  84.4284122 118.7014248  33.1657534  99.5043597 125.6396213  33.1227635
  99.6979487 126.5442023  33.3686910  99.4044215 125.1803632  33.9566220
  91.1579907 115.5254103  35.6217963  90.5107823 116.2244053  35.5282439
  91.9280923 115.9590247  35.9894211  94.5658705 125.7902955  38.6968516
  94.4144212 125.5613507  37.7798600  94.5563385 126.7473557  38.7099861
  91.3344042 123.3634868  33.6814782  92.2636102 123.5146028  33.5083750
  90.9135072 123.4518889  32.8263429  90.1332374 127.3885533  31.4513320
  89.9943459 127.0204317  32.3239258  89.3446970 127.9033172  31.2797278
  91.6837589 126.7667135  28.8402158  91.3487421 126.7267905  29.7359808
  91.1841534 126.1011851  28.3672568  85.6581833 122.1734765  34.3654739
  85.5201631 121.4415004  34.9666278  86.5686756 122.0843665  34.0838927
  88.2864133 121.8854725  33.8538419  88.9963752 121.2447917  33.8125037
  88.2433442 122.1367619  34.7764599  96.2750912 128.8222078  36.7744998
  96.2163458 128.1381298  36.1075581  96.6770430 129.5641068  36.3225624
  86.9993067 118.8719943  35.6734058  86.4630424 118.4210681  36.3255654
  86.4109776 119.0065851  34.9304522  96.2768319 126.7861662  35.0058977
  95.3895098 126.4487584  35.1285376  96.8466870 126.0544693  35.2427743
  77.9297466 123.1185754  28.3302029  78.6168506 122.8047484  27.7423044
  77.7745595 124.0227118  28.0569280  82.7332189 118.0075950  32.7587053
  82.6490377 117.4001620  32.0237462  81.9114895 118.4984969  32.7596549
  89.8069473 131.4463114  31.9720221  89.7339644 132.2518086  32.4839525
  89.3646866 131.6455080  31.1468242  92.9055902 116.4929514  28.1257248
  93.4024602 115.7399476  27.8058318  92.1342884 116.5293830  27.5600457
 100.7585660 122.1969879  29.7675539 100.7475536 123.0794595  29.3969472
  99.8903039 121.8441430  29.5730076  92.2668156 131.3449948  34.1278379
  92.9796128 131.9797413  34.0554281  91.7758185 131.4413814  33.3118381
  89.4890871 118.6346897  27.8528932  89.1188659 118.0817937  28.5409838
  89.9849964 118.0305030  27.3003932  87.3180070 129.0944392  34.9483950
  88.0189529 129.7280875  35.1013344  86.8475185 129.4359123  34.1879589
  95.3474897 113.4599107  30.2736606  94.4337977 113.6903334  30.4418813
  95.7767999 113.5437551  31.1250639  95.1181356 121.6488999  32.7736500
  94.4652806 121.8964907  32.1188953  95.4961736 120.8353137  32.4398978
  91.1668929 122.3908810  39.2602538  90.4909566 122.2902940  39.9304913
  91.9896563 122.2348024  39.7238535  82.9147788 128.6280747  31.8815053
  83.5001225 127.8824435  32.0142957  82.7172626 128.9384703  32.7651717
  77.5065443 121.1986347  30.6019496  77.5449542 120.6649938  31.3956614
  77.0005735 120.6721553  29.9830473  89.9091712 133.6975738  33.4960154
  90.4610020 133.8607359  34.2609239  90.2497905 134.2880176  32.8240178
  84.8856205 116.0450888  34.0982038  84.9497531 116.9065718  33.6859436
  84.8223325 115.4324889  33.3654397  84.3608477 118.1174020  37.7455073
  84.9880516 117.7351097  38.3592597  83.5036396 117.8988222  38.1110765
  94.7602586 128.5236995  39.3508808  95.3042490 129.1366953  38.8563763
  94.1789431 129.0816574  39.8675821  81.1374020 119.9250449  23.6773427
  81.4327461 119.0161128  23.6240481  80.2362056 119.9038189  23.3554430
  84.6668267 118.0006446  29.6600976  83.9454853 118.6142413  29.5208449
  85.4561523 118.5364211  29.5817622  95.1095007 129.4466733  32.1103386
  94.1625343 129.3272084  32.0381713  95.4577780 128.5589231  32.1929647
  87.4694581 115.3360872  35.9341628  87.9928982 115.5823169  36.6967937
  87.2506914 116.1680907  35.5144765  82.8661862 117.6064547  23.8012752
  82.5374568 116.7261926  23.6187858  83.2201232 117.5512216  24.6889142
  85.9803685 117.8937517  24.1688230  86.3199757 118.4223438  23.4466839
  86.4275805 118.2317923  24.9446797  88.6747126 116.2774567  33.6191298
  88.3343946 115.4782380  34.0211978  87.9686132 116.5776278  33.0468131
  89.3263598 113.3623880  32.0718621  90.1489667 112.8884358  31.9497512
  89.5701661 114.1414364  32.5717308  87.9671832 116.3912138  22.3681523
  88.6880195 116.7693391  21.8645240  87.3437136 117.1101015  22.4716501
  92.1102955 117.0957287  23.3039855  92.3266569 117.9781925  23.0028683
  91.6297022 116.7043501  22.5745497  86.8502176 120.0543000  29.8810600
  86.7046757 120.3683303  30.7734881  86.3727380 120.6727901  29.3281499
  88.7098559 117.0445548  29.9291489  88.6960128 116.1486642  29.5923787
  89.4270987 117.0516212  30.5629775  90.5624690 117.4782889  31.9744617
  90.3042468 118.3999959  31.9728947  90.0309730 117.0813323  32.6645081
  81.3247838 122.5948345  32.8198261  80.7801307 123.3708153  32.9518535
  82.2027188 122.9419149  32.6617382  88.1135455 115.9259929  25.1979060
  88.2351366 114.9976575  25.3969947  87.8237497 115.9398615  24.2857375
  90.9826645 113.6114839  28.3345779  91.0048342 113.6754172  27.3797759
  91.3994705 112.7719348  28.5286286  82.1113860 121.7218241  35.7128418
  81.3695596 121.8700876  36.2993048  81.7906605 121.9826507  34.8495167
  90.0557523 131.2634219  35.5108808  90.3644649 131.0183366  36.3831508
  90.8533005 131.4680858  35.0227678  82.5570474 129.6083670  27.7438813
  83.3828494 129.3087442  27.3637456  82.2064526 128.8391292  28.1928601
  87.5252007 128.9610138  29.8136486  86.9032016 128.2980843  29.5138714
  88.1956874 128.9871270  29.1310134  80.7579079 127.5269996  28.7027746
  79.9210987 127.0992171  28.5211747  80.7302724 127.7202440  29.6398537
  87.5976535 117.4391926  39.4068992  87.6464690 118.3154049  39.0246762
  88.1399049 116.8969319  38.8340635  98.0831380 127.9833049  38.6870129
  97.2926924 127.9657188  38.1474629  97.8464735 128.5221343  39.4419166
  98.2029255 124.8325516  36.0002858  98.2527260 124.6675523  36.9418381
  98.0943179 123.9652775  35.6100739  95.4933018 120.8156444  37.3162164
  96.3942881 120.6762909  37.0246162  95.5680992 120.9810899  38.2560342
  89.8275823 118.1923298  36.1615351  88.9579133 118.4856864  35.8897939
  90.0635303 118.7763743  36.8822614  99.7047452 127.2522457  36.2444879
  99.4132261 127.6152438  37.0808340  99.0919583 126.5389465  36.0658211
  97.9534640 122.3755072  34.7124937  98.4288762 122.5682718  33.9043789
  97.0300206 122.4314258  34.4668321  84.8418147 123.5379239  24.2956016
  84.5964189 122.6341569  24.4936226  85.0114062 123.5396389  23.3535494
  92.5314857 114.4102915  33.6780771  93.0496801 115.1463942  33.3527260
  92.1769990 114.7166909  34.5127530  84.1113795 119.2707597  21.7942177
  83.4183040 119.3451952  21.1382213  83.8665546 118.5067940  22.3163694
  92.7827451 110.8303198  29.1981668  93.0629205 110.1626387  29.8242094
  93.5678058 111.0232294  28.6856332  96.6536309 119.2520832  32.9453243
  97.6053732 119.3518930  32.9665467  96.4839760 118.4599100  33.4551327
  94.6750689 116.3376415  33.1312644  94.0800621 116.6181428  32.4359132
  94.3900386 116.8270316  33.9029385  99.1324387 122.4726952  32.0595543
  99.1000707 121.5342952  32.2455226  99.7425011 122.5510988  31.3261367
  99.2818876 119.2637995  32.1053826  98.7657924 118.4796452  31.9183755
 100.1658824 118.9356712  32.2700345  96.9429603 113.0079011  28.0649638
  96.7454424 112.6994099  28.9492970  97.5529308 113.7340649  28.1947568
 104.9500937 123.5342958  31.2001579 105.6804326 123.2728247  31.7609283
 104.3407883 122.7971680  31.2403647 103.0316234 121.6750821  31.7976031
 102.3049398 121.5406786  31.1892522 102.6163521 121.9827650  32.6032749
  90.8546411 125.3940751  39.5623404  91.7749420 125.5719350  39.7563450
  90.8195994 124.4496796  39.4103103  80.0728576 120.5879344  28.4876678
  79.7531360 119.7344653  28.1951052  79.5262004 120.8027922  29.2434646
  83.8508483 123.3041785  32.2046185  84.0694493 124.2358893  32.2234219
  84.2634257 122.9449760  32.9900989  90.7712701 113.8109871  24.1921873
  89.9613429 113.4656956  24.5677119  91.4597118 113.5017414  24.7809485
  92.7003249 112.8887917  25.8146170  93.2534288 113.3083371  26.4736193
  92.9373336 111.9623666  25.8569126  88.7236348 118.8774991  41.5948934
  88.6233075 119.8269348  41.5261025  88.5057891 118.5493230  40.7225004
  79.9416836 124.2082256  30.4569800  79.2480307 123.7936209  29.9439754
  80.6889827 124.2502792  29.8603219  96.0782056 114.9988443  25.3224834
  95.4980725 115.6573247  24.9402886  95.8117989 114.1765787  24.9112252
  94.5285623 114.3993500  27.5246154  95.0285401 114.5110035  26.7160473
  95.1721231 114.0954553  28.1646963  88.5867619 122.3072130  40.4113995
  88.1034700 123.1072490  40.6177884  88.6728558 122.3180075  39.4581439
  81.8553578 124.1400510  28.3335815  81.8324266 124.2388197  27.3817698
  82.1654215 124.9865660  28.6552981  84.5140956 126.1976665  32.4482429
  85.4684210 126.1660607  32.3812361  84.3153480 125.7367288  33.2632655
  85.1040338 124.7677781  35.0153227  85.9233227 125.2621859  35.0388064
  85.3777146 123.8509749  34.9870794  94.8606934 117.1588533  24.3781182
  93.9732789 117.4438184  24.1601377  95.2760923 116.9982296  23.5308459
  98.2121471 117.1835054  28.0935522  98.9881861 117.6731506  28.3660138
  97.4869605 117.6093108  28.5507391 100.6494029 117.8962673  29.1509462
 101.2438520 117.6558409  28.4402770 100.7220613 117.1769804  29.7782998
  82.8691185 131.7396284  29.4652627  82.7345653 130.9796685  28.8990625
  82.4523247 132.4637184  28.9981416  86.0260311 132.6365601  29.6771070
  85.9092695 133.5811034  29.5749760  85.2052757 132.3339163  30.0656869
  80.3575252 119.1015915  35.7145424  81.0034116 118.5914869  36.2032649
  80.1492404 119.8384596  36.2888849  92.8828645 126.1696762  41.2137564
  93.7519804 126.3437414  40.8524199  92.4035396 126.9891179  41.0913294
  88.8778863 113.3655959  21.4669320  88.8657533 114.3097799  21.6237591
  89.7702285 113.1826105  21.1728781  87.0514825 133.2893863  32.8926998
  87.9542072 133.3217473  33.2093493  86.8252195 132.3594314  32.9073334
  92.6930982 109.9598736  25.7215257  91.9263378 109.4057223  25.8671939
  93.1041687 110.0320605  26.5829408  84.6972743 116.2483532  39.8120438
  85.5604205 115.8920336  40.0223763  84.1238154 115.9097426  40.4995842
 100.9865765 135.3918381  38.0791882 100.2099099 135.9512301  38.0694746
 101.6256328 135.8775164  38.6006752  97.9773501 135.3543482  38.4425159
  97.3472162 136.0359763  38.6760555  97.8709589 135.2426564  37.4978297
  97.2554244 129.6564248  40.8050410  96.8621190 129.1030447  41.4798054
  98.0720385 129.9674827  41.1956927 100.1722205 131.0722127  38.3970666
 100.9131919 131.6729281  38.3175129 100.4040128 130.3299765  37.8388709
  95.3163543 136.2578495  36.6748896  95.2017058 135.3563752  36.9755995
  94.4608061 136.5042191  36.3233712 101.9973662 130.8546021  35.6217963
 101.3501577 131.5535971  35.5282439 102.7674677 131.2882165  35.9894211
  97.8386822 134.2011860  35.6734058  97.3024179 133.7502599  36.3255654
  97.2503530 134.3357769  34.9304522  93.5725943 133.3367868  32.7587053
  93.4884132 132.7293537  32.0237462  92.7508649 133.8276886  32.7596549
 102.0062683 137.7200728  39.2602538 101.3303320 137.6194857  39.9304913
 102.8290317 137.5639942  39.7238535  95.7249959 131.3742805  34.0982038
  95.7891286 132.2357636  33.6859436  95.6617080 130.7616807  33.3654397
  95.2002232 133.4465938  37.7455073  95.8274271 133.0643015  38.3592597
  94.3430151 133.2280140  38.1110765  98.3088335 130.6652790  35.9341628
  98.8322737 130.9115086  36.6967937  98.0900668 131.4972825  35.5144765
  92.9507615 137.0510159  35.7128418  92.2089351 137.1992794  36.2993048
  92.6300359 137.3118424  34.8495167  98.4370289 132.7683844  39.4068992
  98.4858445 133.6445967  39.0246762  98.9792803 132.2261237  38.8340635
 100.6669578 133.5215216  36.1615351  99.7972887 133.8148782  35.8897939
 100.9029058 134.1055661  36.8822614  99.5630103 134.2066909  41.5948934
  99.4626830 135.1561266  41.5261025  99.3451645 133.8785148  40.7225004
  99.4261373 137.6364048  40.4113995  98.9428455 138.4364408  40.6177884
  99.5122312 137.6471992  39.4581439  91.1969007 134.4307832  35.7145424
  91.8427871 133.9206786  36.2032649  90.9886158 135.1676514  36.2888849
  95.5366498 131.5775449  39.8120438  96.3997959 131.2212254  40.0223763
  94.9631909 131.2389344  40.4995842  37.3592855  29.2306851  24.9981703
  36.9156709  28.4443230  24.6802608  38.0210069  29.4186002  24.3325594
  39.4574093  29.5109651  23.0263104  39.4392569  30.3318532  22.5343374
  40.3794013  29.3863727  23.2513246  35.9147147  27.0253781  23.8686613
  36.4475484  26.2642069  23.6385921  35.3861229  26.7327433  24.6110767
  45.3074826  25.9998747  19.8472942  45.5010716  26.9044557  20.0932217
  45.2075444  25.5406166  20.6811527  40.3689934  26.1505490  25.4213823
  40.2175441  25.9216041  24.5043906  40.3594614  27.1076091  25.4345168
  42.0782141  29.1824612  23.4990304  42.0194687  28.4983832  22.8320887
  42.4801659  29.9243602  23.0470930  42.0799548  27.1464196  21.7304284
  41.1926327  26.8090118  21.8530683  42.6498099  26.4147227  21.9673049
  38.0699385  31.7052482  20.8523686  38.7827357  32.3399947  20.7799587
  37.5789414  31.8016348  20.0363688  36.9700158  22.7511344  25.9847844
  36.2940795  22.6505474  26.6550219  37.7927791  22.5950558  26.4483841
  35.7122940  34.0578272  20.2205460  36.2641248  34.2209893  20.9854545
  36.0529134  34.6482710  19.5485485  40.5633815  28.8839529  26.0754115
  41.1073719  29.4969488  25.5809069  39.9820660  29.4419108  26.5921128
  35.8588752  31.6236754  22.2354115  36.1675878  31.3785900  23.1076814
  36.6564234  31.8283392  21.7472985  43.8862609  28.3435583  25.4115436
  43.0958153  28.3259722  24.8719935  43.6495964  28.8823877  26.1664472
  44.0060484  25.1928050  22.7248164  44.0558489  25.0278057  23.6663687
  43.8974408  24.3255309  22.3346045  41.2964247  21.1758978  24.0407471
  42.1974109  21.0365443  23.7491469  41.3712221  21.3413433  24.9805649
  45.5078681  27.6124991  22.9690186  45.2163489  27.9754972  23.8053647
  44.8950812  26.8992000  22.7903518  36.6577639  25.7543285  26.2868710
  37.5780649  25.9321884  26.4808757  36.6227222  24.8099330  26.1348409
  34.3898847  22.6674664  27.1359302  33.9065929  23.4675024  27.3423191
  34.4759786  22.6782609  26.1826746  38.6859873  26.5299296  27.9382871
  39.5551033  26.7039949  27.5769506  38.2066625  27.3493713  27.8158600
  50.3452349  38.2387922  17.3428146  50.9830759  38.1194670  16.6391486
  50.2273192  39.1868766  17.4016098  47.1542055  38.1915350  17.2789670
  46.8160567  38.0756415  16.3910205  48.0231824  37.7906515  17.2590677
  47.6361838  39.3450202  23.2375876  47.6250479  38.9503000  22.3656380
  47.7982478  38.6116275  23.8309647  40.5593303  41.5402018  16.1070782
  41.3514595  41.1992843  15.6917081  40.7989953  41.6496993  17.0272935
  48.5928430  43.7121794   8.5801026  47.9416410  44.2975875   8.1935040
  49.3872793  44.2427989   8.6396064  44.3569100  42.1287314  22.1855060
  44.0658966  43.0332945  22.0701726  44.9926084  42.1703841  22.8999129
  45.2825306  39.5064162  18.7756420  45.8788879  39.2820185  18.0613382
  45.3400278  38.7648908  19.3781867  49.8993618  35.9639376  14.4181354
  50.6856707  35.5458799  14.0671771  50.1632322  36.8685468  14.5863002
  55.3002045  35.9014609  15.3214332  56.0327217  35.3313826  15.5552162
  54.5441400  35.5136210  15.7620838  46.9178164  38.3241851  12.5177675
  46.5536372  37.7972472  13.2290596  47.7745280  37.9340320  12.3444160
  52.8227465  29.6136183  19.7808941  52.4910790  30.4831594  19.5570156
  52.2273078  29.2972467  20.4602971  49.3158985  41.8148729  19.1804854
  49.0159708  42.7173768  19.0720661  48.9710044  41.5480913  20.0326006
  42.7671466  38.2662526  15.2141558  41.8421963  38.1338740  15.4219250
  43.0155879  39.0456745  15.7111500  52.7156128  34.3331270  16.8602291
  51.8073006  34.2646678  16.5661052  52.6643724  34.8103214  17.6884116
  40.1280277  37.9095800  16.0485347  40.2572658  38.1630279  16.9624759
  39.4477728  38.5023508  15.7290002  44.2979764  48.5793050  12.1475821
  44.2203794  49.5300875  12.2264302  43.6941408  48.2338922  12.8050748
  46.7896994  35.7520915  24.8037188  46.0130328  36.3114835  24.7940053
  47.4287557  36.2377698  25.3252058  54.5817775  32.5347708  18.6380165
  53.9392155  32.8280241  17.9919959  54.0772703  32.4200628  19.4433361
  45.0443367  38.5606368  24.3655155  45.7858051  39.0991412  24.0889979
  44.3380352  39.1872657  24.5226707  50.5198706  40.7035509  22.9627317
  50.9282062  40.2617919  22.2181949  49.7975968  40.1288136  23.2161510
  46.8729776  35.6408116  20.3360874  47.7190971  36.0647529  20.4795523
  46.8128414  34.9841740  21.0299437  50.8427521  41.2636700  16.7179606
  50.2136383  41.4282414  16.0155673  50.4553183  41.6778309  17.4890570
  54.7216753  42.1991137  14.0723969  54.0367791  42.5790039  13.5221003
  54.8060602  42.8086464  14.8055917  50.0229222  33.3012484  21.9942047
  49.7790153  34.0554545  21.4576323  50.2989152  33.6797832  22.8289294
  51.9767684  39.8451096  20.6719313  52.1884580  40.4882856  19.9953694
  51.9297433  39.0113413  20.2041243  49.5793913  32.4568917  17.5755885
  48.7178392  32.7550171  17.8672623  49.6056348  32.6739316  16.6436918
  46.3955483  41.0011108  13.9829691  46.8593828  41.2798811  13.1934313
  46.1312281  40.0994552  13.8002781  43.2879564  40.5482589  16.9209454
  43.8580921  40.9769858  16.2826938  43.8787676  40.2665174  17.6193640
  43.7804730  35.7146017  25.1670465  43.1503391  36.3962298  25.4005862
  43.6740818  35.6029098  24.2223603  53.0913512  42.7223052  18.8441670
  53.9130956  42.3203239  18.5624352  53.0875915  42.6191286  19.7957786
  46.8570116  42.2707095  21.0002381  46.9214548  42.7327502  21.8360553
  46.1481040  41.6404460  21.1284691  37.3587406  35.6348303  18.5251380
  37.6095444  36.5195313  18.7908956  37.8946954  35.4552905  17.7526472
  61.1819505  39.0661800  15.1926642  60.4283214  38.4969198  15.0370646
  61.3167047  39.0324465  16.1397276  46.5718133  43.9375203  10.8681361
  46.4363808  44.7826738  11.2966209  47.1127946  44.1394480  10.1047295
  43.0585473  30.0166783  27.5295716  42.6652419  29.4632981  28.2043360
  43.8751613  30.3277361  27.9202234  41.8342415  44.5716397  13.5232039
  42.0109044  45.4934362  13.3353023  42.6299249  44.2574816  13.9526419
  45.9753434  31.4324662  25.1215973  46.7163147  32.0331815  25.0420435
  46.2071357  30.6902299  24.5634015  41.1194772  36.6181029  23.3994202
  41.0048287  35.7166286  23.7001301  40.2639290  36.8644726  23.0479019
  48.1986610  44.5598769  24.9981703  47.7550464  43.7735148  24.6802608
  48.8603823  44.7477920  24.3325594  42.9573731  46.0894571  19.5242382
  43.5081156  45.9611634  18.7519376  42.1185207  46.3889460  19.1737274
  50.2967848  44.8401569  23.0263104  50.2786323  45.6610450  22.5343374
  51.2187768  44.7155644  23.2513246  46.7540902  42.3545699  23.8686613
  47.2869239  41.5933987  23.6385921  46.2254983  42.0619350  24.6110767
  49.9210597  27.4605765  19.3980254  49.5774866  28.3507406  19.3219365
  50.2889560  27.2707422  18.5349839  49.0007137  29.8310420  17.3629488
  48.4971933  29.7940555  16.5497293  49.2937744  30.7403162  17.4226144
  54.8595154  40.2046730   9.8405863  54.0824597  39.8657890   9.3961025
  55.5386635  40.2099353   9.1660828  48.1193615  41.4831691  11.3805425
  47.5914976  40.7484451  11.0678662  47.6181117  42.2606367  11.1345393
  53.0986461  39.6780712  16.4972471  52.4410135  40.3679973  16.5852600
  53.9026860  40.0677143  16.8406457  51.9091919  38.0325084  14.5476413
  52.4223801  38.6655076  15.0498123  52.5593143  37.4326280  14.1819773
  49.1714294  48.0109409   7.3037084  48.4975992  48.3141105   7.9122042
  49.5580116  48.8138489   6.9542541  48.3872750  35.5074540  16.7934753
  47.4695312  35.7289487  16.6356441  48.8032894  35.5820850  15.9346461
  49.1707798  36.9065955  11.9237434  49.9179617  37.4187353  11.6144556
  49.4399388  36.5850008  12.7841827  52.6753716  43.0131086  12.6755555
  52.2216043  42.1721996  12.7320746  52.0447682  43.6492484  13.0130336
  51.6186635  33.9423072  13.9056223  50.8809392  33.4300458  14.2366465
  51.8713409  33.5023453  13.0939500  51.1186655  44.8507582  13.6105374
  51.4109629  45.4112639  12.8917739  51.6285276  45.1436143  14.3658533
  45.9919342  37.0153117  15.0074183  46.0467952  36.0626953  14.9316660
  45.1810544  37.1712556  15.4915482  46.0820280  45.6287933  14.6998827
  46.0396459  45.8548780  13.7707359  46.9982979  45.3951308  14.8484628
  49.5285914  36.0972001  21.5979456  49.8835302  36.3243474  22.4573922
  50.1758045  36.4290378  20.9756711  55.2583651  39.2190437  12.3028785
  55.1201549  39.4092033  11.3749974  54.9019870  39.9809820  12.7596836
  43.4225777  33.2048532  18.3825797  44.0625156  33.0637291  17.6848760
  42.5903308  32.9183045  18.0064399  55.2853030  41.2866964  17.3140057
  55.7189537  41.1942253  18.1623111  55.9984611  41.2624464  16.6760073
  44.1986081  42.5050962  14.4960790  44.9926679  42.0101283  14.2943364
  43.4877773  41.9768826  14.1328495  49.0180925  44.8869058  18.8473157
  49.0717948  45.4559994  19.6150873  48.1495707  45.0570943  18.4827194
  41.8979319  34.5886614  20.3297608  42.5702372  34.3803976  19.6810257
  41.0709105  34.3908700  19.8902841  56.1468580  41.3290665  19.8472942
  56.3404470  42.2336475  20.0932217  56.0469198  40.8698084  20.6811527
  47.8004891  31.2148555  22.3463269  47.1532806  31.9138505  22.2527746
  48.5705906  31.6484699  22.7139517  51.2083689  41.4797407  25.4213823
  51.0569195  41.2507959  24.5043906  51.1988368  42.4368009  25.4345168
  47.9769025  39.0529320  20.4060089  48.9061085  39.2040480  20.2329056
  47.5560055  39.1413341  19.5508735  46.7757357  43.0779984  18.1758627
  46.6368443  42.7098769  19.0484565  45.9871953  43.5927624  18.0042584
  47.3705509  48.1789081   9.5184163  47.5457265  47.7077124  10.3329786
  46.6838297  48.8054847   9.7465424  48.3262572  42.4561587  15.5647464
  47.9912405  42.4162357  16.4605114  47.8266518  41.7906303  15.0917875
  42.3006816  37.8629217  21.0900046  42.1626614  37.1309456  21.6911585
  43.2111739  37.7738117  20.8084233  44.9289117  37.5749177  20.5783725
  45.6388735  36.9342369  20.5370344  44.8858425  37.8262071  21.5009906
  52.9175895  44.5116530  23.4990304  52.8588442  43.8275750  22.8320887
  53.3195414  45.2535520  23.0470930  43.6418051  34.5614394  22.3979365
  43.1055408  34.1105133  23.0500961  43.0534759  34.6960303  21.6549829
  41.9366594  51.3278444  16.2924023  42.1763192  51.9596968  16.9703042
  41.0935791  50.9766484  16.5789383  52.9193303  42.4756114  21.7304284
  52.0320081  42.1382036  21.8530683  53.4891854  41.7439145  21.9673049
  39.3757172  33.6970402  19.4832359  39.2915361  33.0896072  18.7482769
  38.5539878  34.1879420  19.4841855  46.4494456  47.1357566  18.6965527
  46.3764627  47.9412538  19.2084832  46.0071849  47.3349532  17.8713549
  46.2384236  46.3729336  12.2068349  45.4551758  46.9151016  12.3006573
  46.9376981  46.8903316  12.6062590  57.4010643  37.8864331  16.4920846
  57.3900519  38.7689047  16.1214779  56.5328023  37.5335882  16.2975383
  48.9093140  47.0344400  20.8523686  49.6221112  47.6691865  20.7799587
  48.4183168  47.1308266  20.0363688  50.6310666  40.9395653  12.4240978
  49.6966945  41.0597115  12.2545682  50.8087335  40.0368120  12.1600987
  54.0183218  36.7812972  12.9591012  54.4843670  37.6140964  12.8851314
  54.4690718  36.3157954  13.6636270  43.9605053  44.7838844  21.6729257
  44.6614513  45.4175327  21.8258651  43.4900168  45.1253575  20.9124896
  52.0859449  43.1256793   9.9577164  52.3619293  43.0113388  10.8671038
  51.2163948  42.7274278   9.9189337  51.9899881  29.1493559  16.9981913
  51.0762960  29.3797786  17.1664120  52.4192982  29.2332003  17.8495945
  51.7606339  37.3383451  19.4981807  51.1077789  37.5859359  18.8434260
  52.1386719  36.5247589  19.1644284  48.7213513  47.3743144  13.6009977
  48.9035907  46.5564800  14.0637730  49.5446499  47.5910837  13.1634867
  49.0555678  46.3011329  10.8625026  49.5843445  45.7903784  10.2495188
  49.3183898  45.9853860  11.7270559  47.8093912  38.0803262  25.9847844
  47.1334549  37.9797391  26.6550219  48.6321546  37.9242476  26.4483841
  39.5572771  44.3175199  18.6060359  40.1426208  43.5718887  18.7388264
  39.3597610  44.6279155  19.4897023  42.4111426  47.3526446  13.6222802
  41.7421802  47.8372574  13.1386842  42.2724296  47.5995667  14.5366180
  46.5516695  49.3870190  20.2205460  47.1035003  49.5501811  20.9854545
  46.8922888  49.9774627  19.5485485  41.5281188  31.7345339  20.8227345
  41.5922515  32.5960170  20.4104743  41.4648308  31.1219341  20.0899703
  41.0033461  33.8068472  24.4700379  41.6305500  33.4245549  25.0837903
  40.1461380  33.5882674  24.8356072  51.4027569  44.2131447  26.0754115
  51.9467473  44.8261405  25.5809069  50.8214414  44.7711026  26.5921128
  49.6885082  47.3352165  17.2069142  49.5636222  46.5341905  16.6980088
  50.3464173  47.8298358  16.7183112  51.7519991  45.1361185  18.8348692
  50.8050326  45.0166536  18.7627019  52.1002764  44.2483683  18.9174954
  44.1119564  31.0255324  22.6586934  44.6353966  31.2717621  23.4213244
  43.8931897  31.8575359  22.2390072  48.7566424  44.9313901  15.0353045
  48.6091386  44.0030609  15.2160615  49.5819917  44.9533992  14.5510120
  52.3600546  45.7542460  16.1217917  53.2847093  45.5485321  15.9842369
  52.1915849  45.5058861  17.0307259  45.3172109  31.9669019  20.3436605
  44.9768929  31.1676832  20.7457285  44.6111115  32.2670730  19.7713438
  45.9688581  29.0518332  18.7963928  46.7914650  28.5778810  18.6742818
  46.2126644  29.8308815  19.2962614  43.4927160  35.7437452  16.6055906
  43.3471740  36.0577755  17.4980188  43.0152363  36.3622353  16.0526805
  45.3523542  32.7340000  16.6536796  45.3385111  31.8381094  16.3169094
  46.0695971  32.7410664  17.2875082  47.2049673  33.1677340  18.6989923
  46.9467451  34.0894411  18.6974254  46.6734714  32.7707775  19.3890388
  52.1495862  46.2728128  11.4780009  52.3232739  45.7074550  10.7253861
  52.6424753  47.0729022  11.2959499  37.9672822  38.2842797  19.5443568
  37.4226290  39.0602605  19.6763842  38.8452172  38.6313601  19.3862689
  58.0035253  39.0364551  13.0970309  58.4466399  38.2871876  12.6989432
  57.1261763  39.0274687  12.7144041  53.1371034  45.5894892   8.5776907
  53.8321939  46.2101585   8.7964222  53.4794185  44.7390243   8.8529285
  38.7538844  37.4112693  22.4373725  38.0120580  37.5595328  23.0238355
  38.4331588  37.6720959  21.5740474  55.0362458  43.0394598  10.1064238
  55.5613782  43.3781870   9.3813558  54.9484810  42.1041613   9.9227373
  46.6982506  46.9528671  22.2354115  47.0069633  46.7077818  23.1076814
  47.4957988  47.1575310  21.7472985  46.7203118  49.1066581  14.4659491
  46.2808109  48.6142960  15.1592348  47.4711235  48.5639548  14.2251566
  39.1995457  45.2978122  14.4684119  40.0253477  44.9981894  14.0882763
  38.8489509  44.5285744  14.9173908  44.1676990  44.6504590  16.5381793
  43.5457000  43.9875295  16.2384021  44.8381857  44.6765722  15.8555441
  37.4004062  43.2164448  15.4273053  36.5635971  42.7886622  15.2457054
  37.3727708  43.4096891  16.3643844  44.2401518  33.1286378  26.1314299
  44.2889673  34.0048501  25.7492068  44.7824032  32.5863771  25.5585942
  54.7256364  43.6727501  25.4115436  53.9351907  43.6551640  24.8719935
  54.4889718  44.2115795  26.1664472  54.8454239  40.5219968  22.7248164
  54.8952244  40.3569975  23.6663687  54.7368162  39.6547227  22.3346045
  52.1358001  36.5050896  24.0407471  53.0367864  36.3657360  23.7491469
  52.2105976  36.6705350  24.9805649  46.4700806  33.8817750  22.8860657
  45.6004116  34.1751316  22.6143246  46.7060287  34.4658195  23.6067921
  56.3472436  42.9416909  22.9690186  56.0557244  43.3046890  23.8053647
  55.7344567  42.2283917  22.7903518  57.5468118  40.5069789  15.4892756
  58.3815009  40.9459593  15.6530317  57.6827247  40.0308442  14.6701002
  54.5959624  38.0649524  21.4370244  55.0713745  38.2577170  20.6289095
  53.6725189  38.1208710  21.1913628  49.1739840  30.0997367  20.4026078
  49.6921784  30.8358394  20.0772566  48.8194973  30.4061361  21.2372837
  53.2961293  34.9415284  19.6698550  54.2478716  35.0413381  19.6910774
  53.1264743  34.1493552  20.1796634  51.3175672  32.0270867  19.8557950
  50.7225604  32.3075880  19.1604439  51.0325369  32.5164768  20.6274692
  50.4483163  45.9793794   8.6160583  51.3813836  45.9139355   8.8193459
  50.3606376  46.8150061   8.1575116  53.0771179  45.2959664   5.5764531
  52.9984811  44.9619528   6.4700288  53.8980846  45.7881432   5.5756003
  55.7749371  38.1621403  18.7840849  55.7425691  37.2237404  18.9700533
  56.3849994  38.2405440  18.0506674  55.9243859  34.9532447  18.8299132
  55.4082908  34.1690904  18.6429061  56.8083808  34.6251164  18.9945652
  53.5854586  28.6973462  14.7894945  53.3879407  28.3888551  15.6738277
  54.1954292  29.4235101  14.9192875  61.5925920  39.2237410  17.9246886
  62.3229309  38.9622698  18.4854589  60.9832866  38.4866132  17.9648954
  59.6741218  37.3645273  18.5221337  58.9474381  37.2301238  17.9137829
  59.2588504  37.6722102  19.3278055  47.4971394  41.0835203  26.2868710
  48.4174403  41.2613802  26.4808757  47.4620977  40.1391248  26.1348409
  40.4933466  38.9936237  18.9291491  40.7119476  39.9253345  18.9479525
  40.9059240  38.6344212  19.7146295  45.3661332  34.5669443  28.3194240
  45.2658059  35.5163800  28.2506331  45.1482874  34.2387682  27.4470310
  36.5841819  39.8976708  17.1815106  35.8905290  39.4830661  16.6685061
  37.3314810  39.9397244  16.5848525  45.2292602  37.9966582  27.1359302
  44.7459684  38.7966942  27.3423191  45.3153541  38.0074527  26.1826746
  41.1565939  41.8871117  19.1727736  42.1109193  41.8555059  19.1057667
  40.9578463  41.4261740  19.9877962  41.7465321  40.4572233  21.7398533
  42.5658210  40.9516311  21.7633371  42.0202129  39.5404201  21.7116101
  54.8546454  32.8729506  14.8180828  55.6306844  33.3625958  15.0905445
  54.1294588  33.2987560  15.2752698  57.2919012  33.5857125  15.8754769
  57.8863503  33.3452861  15.1648077  57.3645596  32.8664256  16.5028305
  39.5116168  47.4290736  16.1897934  39.3770636  46.6691137  15.6235932
  39.0948230  48.1531636  15.7226722  51.4772941  38.3637521  11.3176779
  51.4208143  38.8206072  10.4784411  52.0301284  37.6028205  11.1399622
  55.2877747  34.1527253  12.1426899  55.0314682  33.7523888  12.9735106
  54.6630615  34.8671047  12.0177038  59.5990085  36.8923326  14.6498190
  59.0389643  36.9616515  15.4229752  58.9933589  36.7164311  13.9297686
  42.6685294  48.3260053  16.4016376  42.5517678  49.2705486  16.2995067
  41.8477740  48.0233615  16.7902175  52.5561829  43.0510189   7.2472969
  53.3907432  42.6191387   7.0650444  52.3946171  42.8792202   8.1749863
  37.0000236  34.7910366  22.4390730  37.6459099  34.2809320  22.9277956
  36.7917387  35.5279048  23.0134156  49.5253628  41.8591214  27.9382871
  50.3944788  42.0331866  27.5769506  49.0460379  42.6785631  27.8158600
  43.6939808  48.9788315  19.6172305  44.5967055  49.0111925  19.9338800
  43.4677178  48.0488766  19.6318640  45.4493410  47.7319301  16.2782383
  44.4989041  47.7321163  16.1646756  45.7525896  46.9852036  15.7618418
  41.3397727  31.9377984  26.5365745  42.2029188  31.5814788  26.7469069
  40.7663137  31.5991878  27.2241149  61.1846104  53.5679840  17.3428146
  61.8224514  53.4486587  16.6391486  61.0666947  54.5160684  17.4016098
  57.9935810  53.5207268  17.2789670  57.6554321  53.4048333  16.3910205
  58.8625578  53.1198433  17.2590677  53.8522626  55.3742744  13.2686561
  53.2887491  55.2832681  12.5002849  53.7375021  54.5542649  13.7489054
  58.4755593  54.6742120  23.2375876  58.4644234  54.2794918  22.3656380
  58.6376232  53.9408192  23.8309647  51.3987058  56.8693936  16.1070782
  52.1908349  56.5284761  15.6917081  51.6383708  56.9788911  17.0272935
  59.4322184  59.0413712   8.5801026  58.7810164  59.6267793   8.1935040
  60.2266547  59.5719907   8.6396064  53.3577811  56.1302849   8.9788161
  54.1308687  55.5831836   8.8401036  53.7103210  56.9947099   9.1902622
  55.1962854  57.4579232  22.1855060  54.9052720  58.3624862  22.0701726
  55.8319838  57.4995759  22.8999129  56.1219061  54.8356080  18.7756420
  56.7182633  54.6112102  18.0613382  56.1794032  54.0940826  19.3781867
  55.6944089  52.2895515   6.6106611  55.9469610  51.7677037   5.8490074
  54.7568648  52.1261661   6.7133294  60.7387372  51.2931294  14.4181354
  61.5250461  50.8750717  14.0671771  61.0026076  52.1977386  14.5863002
  60.9097449  56.7304144   9.1170011  60.2743282  56.8038771   9.8290915
  60.5794856  57.3197743   8.4389090  66.1395799  51.2306527  15.3214332
  66.8720971  50.6605744  15.5552162  65.3835155  50.8428127  15.7620838
  55.4140378  54.1923621   8.8130985  55.2976636  53.5168525   9.4812070
  55.5242638  53.7055995   7.9963139  57.7571919  53.6533768  12.5177675
  57.3930126  53.1264389  13.2290596  58.6139035  53.2632237  12.3444160
  63.6621220  44.9428101  19.7808941  63.3304544  45.8123512  19.5570156
  63.0666833  44.6264385  20.4602971  57.3977406  48.6823668   7.5139023
  57.5651808  49.5503905   7.8809494  57.2074575  48.8450950   6.5900312
  60.1552739  57.1440647  19.1804854  59.8553462  58.0465686  19.0720661
  59.8103799  56.8772830  20.0326006  53.6065221  53.5954444  15.2141558
  52.6815717  53.4630658  15.4219250  53.8549634  54.3748663  15.7111500
  63.5549883  49.6623187  16.8602291  62.6466760  49.5938596  16.5661052
  63.5037479  50.1395132  17.6884116  57.3766627  51.1381326   8.4985690
  57.2566252  51.5838376   9.3371170  56.6819215  51.4866643   7.9399228
  50.9674032  53.2387717  16.0485347  51.0966413  53.4922196  16.9624759
  50.2871483  53.8315425  15.7290002  55.1373519  63.9084967  12.1475821
  55.0597549  64.8592792  12.2264302  54.5335163  63.5630840  12.8050748
  57.6290749  51.0812833  24.8037188  56.8524083  51.6406753  24.7940053
  58.2681312  51.5669616  25.3252058  65.4211529  47.8639626  18.6380165
  64.7785910  48.1572159  17.9919959  64.9166458  47.7492546  19.4433361
  63.0751693  51.6102799   9.3266024  63.9869549  51.8430186   9.1513722
  62.5661340  52.1939843   8.7641103  55.8837121  53.8898286  24.3655155
  56.6251805  54.4283330  24.0889979  55.1774106  54.5164575  24.5226707
  61.3592461  56.0327427  22.9627317  61.7675817  55.5909837  22.2181949
  60.6369722  55.4580054  23.2161510  57.7123531  50.9700033  20.3360874
  58.5584726  51.3939447  20.4795523  57.6522168  50.3133658  21.0299437
  61.6821275  56.5928617  16.7179606  61.0530138  56.7574331  16.0155673
  61.2946937  57.0070227  17.4890570  65.5610507  57.5283055  14.0723969
  64.8761545  57.9081956  13.5221003  65.6454356  58.1378382  14.8055917
  60.8622976  48.6304402  21.9942047  60.6183908  49.3846462  21.4576323
  61.1382907  49.0089749  22.8289294  62.8161439  55.1743014  20.6719313
  63.0278334  55.8174774  19.9953694  62.7691187  54.3405331  20.2041243
  60.4187668  47.7860835  17.5755885  59.5572147  48.0842088  17.8672623
  60.4450102  48.0031234  16.6436918  57.2349237  56.3303025  13.9829691
  57.6987583  56.6090728  13.1934313  56.9706035  55.4286470  13.8002781
  54.1273318  55.8774507  16.9209454  54.6974675  56.3061775  16.2826938
  54.7181430  55.5957092  17.6193640  56.1718123  52.4526178  10.7919256
  56.8742167  52.9047221  11.2593182  55.8398752  51.8109997  11.4199149
  54.6198485  51.0437934  25.1670465  53.9897145  51.7254215  25.4005862
  54.5134573  50.9321016  24.2223603  49.9143457  50.7109730  16.0936389
  49.1242511  50.9667259  15.6176500  50.4054705  51.5258068  16.1988430
  63.9307267  58.0514970  18.8441670  64.7524710  57.6495157  18.5624352
  63.9269670  57.9483204  19.7957786  51.8658203  51.0754310  13.0519866
  51.0689366  51.1873004  13.5703362  51.6383795  51.4140962  12.1860757
  57.6963870  57.5999013  21.0002381  57.7608303  58.0619420  21.8360553
  56.9874794  56.9696378  21.1284691  48.1981160  50.9640221  18.5251380
  48.4489199  51.8487231  18.7908956  48.7340709  50.7844822  17.7526472
  72.0213260  54.3953718  15.1926642  71.2676968  53.8261116  15.0370646
  72.1560801  54.3616383  16.1397276  57.4111888  59.2667120  10.8681361
  57.2757563  60.1118656  11.2966209  57.9521700  59.4686398  10.1047295
  53.8979227  45.3458700  27.5295716  53.5046173  44.7924899  28.2043360
  54.7145368  45.6569279  27.9202234  50.8641285  56.7842558  11.4409286
  51.3765806  57.5785809  11.5914851  51.5163998  56.0868849  11.3742888
  52.6736170  59.9008315  13.5232039  52.8502798  60.8226279  13.3353023
  53.4693003  59.5866734  13.9526419  56.8147188  46.7616579  25.1215973
  57.5556902  47.3623732  25.0420435  57.0465111  46.0194217  24.5634015
  51.9588526  51.9472947  23.3994202  51.8442042  51.0458204  23.7001301
  51.1033044  52.1936643  23.0479019  59.0380364  59.8890687  24.9981703
  58.5944218  59.1027065  24.6802608  59.6997578  60.0769837  24.3325594
  53.7967485  61.4186488  19.5242382  54.3474911  61.2903552  18.7519376
  52.9578961  61.7181377  19.1737274  61.1361602  60.1693487  23.0263104
  61.1180078  60.9902368  22.5343374  62.0581522  60.0447562  23.2513246
  57.5934656  57.6837616  23.8686613  58.1262993  56.9225904  23.6385921
  57.0648738  57.3911268  24.6110767  60.7604351  42.7897682  19.3980254
  60.4168621  43.6799324  19.3219365  61.1283314  42.5999340  18.5349839
  48.8290202  55.1131213  12.2168857  49.6665424  55.5228221  12.0002564
  49.0068470  54.1730655  12.1869051  60.7254634  52.7806293   7.9052690
  60.2101258  53.5510898   8.1441077  60.4531943  52.1071429   8.5285751
  58.3101745  47.6255994  12.9637928  57.4543342  47.2362844  12.7843567
  58.7228697  47.7047955  12.1037713  59.8400892  45.1602337  17.3629488
  59.3365687  45.1232473  16.5497293  60.1331499  46.0695080  17.4226144
  56.0843778  45.2441067  16.3695669  56.9496774  45.0483876  16.0101559
  56.1521287  45.0151419  17.2965026  65.6988908  55.5338648   9.8405863
  64.9218351  55.1949807   9.3961025  66.3780389  55.5391271   9.1660828
  60.5140937  50.6533385   9.7312471  60.2091073  50.9679535  10.5822614
  61.4671379  50.7314805   9.7739804  58.9587369  56.8123609  11.3805425
  58.4308731  56.0776368  11.0678662  58.4574872  57.5898285  11.1345393
  63.9380215  55.0072629  16.4972471  63.2803890  55.6971891  16.5852600
  64.7420614  55.3969061  16.8406457  53.6906097  47.4743275  13.7412036
  54.2649849  47.2518457  13.0085229  54.2777079  47.5431970  14.4940638
  62.7485674  53.3617002  14.5476413  63.2617556  53.9946994  15.0498123
  63.3986898  52.7618197  14.1819773  54.0175684  49.5047736   7.7607922
  53.1812996  49.8422423   8.0817196  53.8780454  49.3696716   6.8235059
  55.9928764  44.3484524  12.4687106  55.3393177  44.0333541  11.8443720
  55.9509239  43.7260264  13.1946929  57.1039969  54.6303819   4.3840398
  56.1967031  54.3993072   4.5831547  57.6011001  53.8341438   4.5714379
  60.0108048  63.3401326   7.3037084  59.3369747  63.6433023   7.9122042
  60.3973870  64.1430407   6.9542541  59.2266505  50.8366457  16.7934753
  58.3089066  51.0581404  16.6356441  59.6426648  50.9112768  15.9346461
  60.0101553  52.2357873  11.9237434  60.7573372  52.7479270  11.6144556
  60.2793142  51.9141926  12.7841827  58.2828203  54.7316414   8.9064388
  57.3739422  54.4475447   9.0036858  58.3123287  55.1515492   8.0467695
  63.5147470  58.3423003  12.6755555  63.0609797  57.5013913  12.7320746
  62.8841437  58.9784402  13.0130336  62.4580390  49.2714989  13.9056223
  61.7203147  48.7592376  14.2366465  62.7107163  48.8315371  13.0939500
  61.9580409  60.1799500  13.6105374  62.2503384  60.7404557  12.8917739
  62.4679030  60.4728061  14.3658533  62.5592017  42.0491241  14.4997992
  62.8650894  41.1888605  14.2123907  63.2844622  42.6408862  14.2996986
  48.8516373  52.4521928  12.8879590  48.6540773  51.8591289  12.1630657
  48.2963037  52.1474138  13.6055529  56.8313097  52.3445034  15.0074183
  56.8861707  51.3918871  14.9316660  56.0204299  52.5004474  15.4915482
  57.9804291  56.2725158   6.2452466  57.5423720  55.5561016   5.7858104
  58.7214731  56.5001272   5.6837558  54.7705457  50.9622094  12.7664562
  53.9573322  51.2616265  13.1729754  55.2664451  50.5677783  13.4839044
  56.9214035  60.9579851  14.6998827  56.8790213  61.1840697  13.7707359
  57.8376733  60.7243226  14.8484628  60.3679668  51.4263919  21.5979456
  60.7229056  51.6535392  22.4573922  61.0151800  51.7582295  20.9756711
  66.0977405  54.5482355  12.3028785  65.9595304  54.7383951  11.3749974
  65.7413624  55.3101737  12.7596836  54.2619531  48.5340450  18.3825797
  54.9018911  48.3929209  17.6848760  53.4297062  48.2474963  18.0064399
  66.1246785  56.6158882  17.3140057  66.5583292  56.5234171  18.1623111
  66.8378366  56.5916382  16.6760073  55.0379835  57.8342880  14.4960790
  55.8320434  57.3393200  14.2943364  54.3271528  57.3060743  14.1328495
  59.8574680  60.2160976  18.8473157  59.9111702  60.7851912  19.6150873
  58.9889461  60.3862861  18.4827194  51.3462599  51.9785962  10.5720542
  50.4160187  51.9170417  10.7890504  51.4420071  51.4561915   9.7757183
  51.2648148  48.5040775  13.1598784  51.5254965  49.4186108  13.0507944
  52.0865320  48.0365217  13.3095397  52.7373073  49.9178532  20.3297608
  53.4096127  49.7095894  19.6810257  51.9102860  49.7200618  19.8902841
  66.9862335  56.6582582  19.8472942  67.1798225  57.5628393  20.0932217
  66.8862953  56.1990001  20.6811527  58.6398645  46.5440473  22.3463269
  57.9926560  47.2430422  22.2527746  59.4099661  46.9776617  22.7139517
  62.0477443  56.8089325  25.4213823  61.8962950  56.5799877  24.5043906
  62.0382123  57.7659926  25.4345168  58.8162780  54.3821238  20.4060089
  59.7454840  54.5332397  20.2329056  58.3953810  54.4705259  19.5508735
  57.6151111  58.4071902  18.1758627  57.4762197  58.0390687  19.0484565
  56.8265708  58.9219542  18.0042584  58.2099263  63.5080999   9.5184163
  58.3851019  63.0369042  10.3329786  57.5232051  64.1346765   9.7465424
  59.1656327  57.7853505  15.5647464  58.8306159  57.7454275  16.4605114
  58.6660272  57.1198221  15.0917875  53.1400570  53.1921135  21.0900046
  53.0020368  52.4601374  21.6911585  54.0505494  53.1030035  20.8084233
  62.1015518  55.1309539   5.8384524  61.4844689  54.4056367   5.7417577
  61.6332007  55.8918899   5.4951598  55.7682871  52.9041094  20.5783725
  56.4782490  52.2634286  20.5370344  55.7252179  53.1553989  21.5009906
  63.7569650  59.8408448  23.4990304  63.6982196  59.1567668  22.8320887
  64.1589168  60.5827438  23.0470930  54.4811805  49.8906312  22.3979365
  53.9449162  49.4397051  23.0500961  53.8928514  50.0252221  21.6549829
  52.7760349  66.6570361  16.2924023  53.0156947  67.2888886  16.9703042
  51.9329545  66.3058401  16.5789383  53.8914064  49.3494963   4.9605828
  53.0143530  49.2283764   4.5968075  54.3671817  48.5581042   4.7084717
  63.7587057  57.8048031  21.7304284  62.8713836  57.4673953  21.8530683
  64.3285608  57.0731063  21.9673049  45.4116204  54.1372123  15.0547335
  46.0987244  53.8233853  14.4668351  45.2564333  55.0413488  14.7814587
  50.2150926  49.0262320  19.4832359  50.1309115  48.4187989  18.7482769
  49.3933633  49.5171338  19.4841855  57.2888211  62.4649484  18.6965527
  57.2158382  63.2704455  19.2084832  56.8465604  62.6641450  17.8713549
  57.0777990  61.7021254  12.2068349  56.2945512  62.2442934  12.3006573
  57.7770735  62.2195233  12.6062590  60.3874640  47.5115883  14.8502554
  60.8843340  46.7585846  14.5303624  59.6161622  47.5480200  14.2845764
  68.2404398  53.2156249  16.4920846  68.2294274  54.0980964  16.1214779
  67.3721777  52.8627800  16.2975383  59.7486894  62.3636318  20.8523686
  60.4614866  62.9983783  20.7799587  59.2576923  62.4600184  20.0363688
  61.4704421  56.2687571  12.4240978  60.5360700  56.3889033  12.2545682
  61.6481089  55.3660037  12.1600987  56.9709609  49.6533266  14.5774239
  56.6007397  49.1004307  15.2655144  57.4668701  49.0491400  14.0249239
  64.8576972  52.1104890  12.9591012  65.3237424  52.9432881  12.8851314
  65.3084473  51.6449871  13.6636270  54.7998808  60.1130761  21.6729257
  55.5008267  60.7467244  21.8258651  54.3293923  60.4545493  20.9124896
  62.9253203  58.4548711   9.9577164  63.2013047  58.3405306  10.8671038
  62.0557702  58.0566196   9.9189337  62.8293635  44.4785477  16.9981913
  61.9156715  44.7089704  17.1664120  63.2586736  44.5623921  17.8495945
  62.6000094  52.6675369  19.4981807  61.9471544  52.9151276  18.8434260
  62.9780473  51.8539507  19.1644284  59.5607267  62.7035062  13.6009977
  59.7429662  61.8856718  14.0637730  60.3840253  62.9202754  13.1634867
  59.8949433  61.6303247  10.8625026  60.4237199  61.1195702  10.2495188
  60.1577652  61.3145777  11.7270559  58.6487667  53.4095180  25.9847844
  57.9728304  53.3089309  26.6550219  59.4715300  53.2534394  26.4483841
  50.3966526  59.6467116  18.6060359  50.9819962  58.9010804  18.7388264
  50.1991364  59.9571073  19.4897023  53.2505181  62.6818364  13.6222802
  52.5815556  63.1664491  13.1386842  53.1118051  62.9287584  14.5366180
  44.9884180  52.2172717  17.3264803  45.0268280  51.6836307  18.1201921
  44.4824473  51.6907922  16.7075780  57.3910449  64.7162107  20.2205460
  57.9428757  64.8793729  20.9854545  57.7316643  65.3066545  19.5485485
  52.3674943  47.0637257  20.8227345  52.4316269  47.9252088  20.4104743
  52.3042063  46.4511259  20.0899703  51.8427215  49.1360390  24.4700379
  52.4699254  48.7537467  25.0837903  50.9855134  48.9174592  24.8356072
  62.2421324  59.5423365  26.0754115  62.7861228  60.1553323  25.5809069
  61.6608169  60.1002943  26.5921128  48.6192758  50.9436819  10.4018734
  48.9146199  50.0347497  10.3485788  47.7180794  50.9224558  10.0799736
  60.5278837  62.6644083  17.2069142  60.4029976  61.8633823  16.6980088
  61.1857928  63.1590276  16.7183112  52.1487005  49.0192815  16.3846283
  51.4273591  49.6328783  16.2453756  52.9380261  49.5550580  16.3062929
  62.5913745  60.4653103  18.8348692  61.6444081  60.3458454  18.7627019
  62.9396518  59.5775601  18.9174954  54.9513318  46.3547242  22.6586934
  55.4747720  46.6009538  23.4213244  54.7325652  47.1867277  22.2390072
  50.3480600  48.6250916  10.5258059  50.0193306  47.7448295  10.3433165
  50.7019970  48.5698585  11.4134448  59.5960178  60.2605819  15.0353045
  59.4485141  59.3322527  15.2160615  60.4213672  60.2825910  14.5510120
  53.4622423  48.9123886  10.8933537  53.8018495  49.4409807  10.1712145
  53.9094543  49.2504292  11.6692103  63.1994300  61.0834378  16.1217917
  64.1240848  60.8777239  15.9842369  63.0309604  60.8350779  17.0307259
  56.1565864  47.2960937  20.3436605  55.8162684  46.4968750  20.7457285
  55.4504870  47.5962648  19.7713438  56.8082335  44.3810249  18.7963928
  57.6308405  43.9070728  18.6742818  57.0520399  45.1600733  19.2962614
  55.4490570  47.4098508   9.0926830  56.1698932  47.7879761   8.5890546
  54.8255874  48.1287385   9.1961808  59.5921693  48.1143657  10.0285162
  59.8085307  48.9968295   9.7273990  59.1115760  47.7229870   9.2990804
  54.3320914  51.0729370  16.6055906  54.1865495  51.3869673  17.4980188
  53.8546118  51.6914270  16.0526805  56.1917297  48.0631918  16.6536796
  56.1778866  47.1673011  16.3169094  56.9089725  48.0702582  17.2875082
  58.0443428  48.4969258  18.6989923  57.7861206  49.4186329  18.6974254
  57.5128468  48.0999693  19.3890388  62.9889616  61.6020045  11.4780009
  63.1626494  61.0366468  10.7253861  63.4818508  62.4020940  11.2959499
  48.8066576  53.6134714  19.5443568  48.2620044  54.3894522  19.6763842
  49.6845926  53.9605519  19.3862689  55.5954193  46.9446298  11.9224366
  55.7170104  46.0162944  12.1215254  55.3056235  46.9584984  11.0102682
  58.4645383  44.6301209  15.0591086  58.4867080  44.6940542  14.1043066
  58.8813442  43.7905717  15.2531592  68.8429008  54.3656468  13.0970309
  69.2860154  53.6163793  12.6989432  67.9655518  54.3566605  12.7144041
  63.9764789  60.9186810   8.5776907  64.6715694  61.5393502   8.7964222
  64.3187939  60.0682161   8.8529285  49.5932598  52.7404611  22.4373725
  48.8514334  52.8887246  23.0238355  49.2725342  53.0012876  21.5740474
  65.8756212  58.3686515  10.1064238  66.4007536  58.7073788   9.3813558
  65.7878565  57.4333531   9.9227373  57.5376261  62.2820589  22.2354115
  57.8463387  62.0369736  23.1076814  58.3351743  62.4867227  21.7472985
  57.5596873  64.4358498  14.4659491  57.1201863  63.9434877  15.1592348
  58.3104990  63.8931466  14.2251566  50.0389212  60.6270039  14.4684119
  50.8647232  60.3273811  14.0882763  49.6883264  59.8577662  14.9173908
  55.0070745  59.9796508  16.5381793  54.3850754  59.3167213  16.2384021
  55.6775612  60.0057639  15.8555441  48.2397817  58.5456366  15.4273053
  47.4029725  58.1178540  15.2457054  48.2121462  58.7388809  16.3643844
  55.0795272  48.4578296  26.1314299  55.1283428  49.3340418  25.7492068
  55.6217787  47.9155689  25.5585942  65.5650118  59.0019419  25.4115436
  64.7745662  58.9843558  24.8719935  65.3283473  59.5407713  26.1664472
  65.6847993  55.8511885  22.7248164  65.7345998  55.6861893  23.6663687
  65.5761917  54.9839144  22.3346045  54.5684252  58.5300431  10.0140253
  54.7172372  59.2135895   9.3606926  55.3750695  58.5105521  10.5289709
  62.9751756  51.8342813  24.0407471  63.8761618  51.6949278  23.7491469
  63.0499730  51.9997268  24.9805649  57.3094561  49.2109668  22.8860657
  56.4397870  49.5043234  22.6143246  57.5454041  49.7950113  23.6067921
  67.1866190  58.2708827  22.9690186  66.8950998  58.6338807  23.8053647
  66.5738321  57.5575835  22.7903518  68.3861872  55.8361707  15.4892756
  69.2208764  56.2751511  15.6530317  68.5221001  55.3600360  14.6701002
  65.4353378  53.3941441  21.4370244  65.9107500  53.5869088  20.6289095
  64.5118944  53.4500627  21.1913628  52.3236885  54.5565609  11.0201322
  52.0782927  53.6527939  11.2181532  52.4932799  54.5582759  10.0780800
  60.0133595  45.4289285  20.4026078  60.5315539  46.1650312  20.0772566
  59.6588727  45.7353278  21.2372837  51.5932532  50.2893966   8.5187484
  50.9001777  50.3638321   7.8627520  51.3484284  49.5254310   9.0409001
  60.2646189  41.8489567  15.9226974  60.5447943  41.1812757  16.5487401
  61.0496796  42.0418663  15.4101638  58.0679657  61.0248561   7.4852001
  57.4953624  61.6438748   7.0322473  58.6412451  61.5747923   8.0191923
  64.1355047  50.2707201  19.6698550  65.0872470  50.3705299  19.6910774
  63.9658498  49.4785470  20.1796634  62.1569427  47.3562785  19.8557950
  61.5619359  47.6367797  19.1604439  61.8719123  47.8456686  20.6274692
  61.2876917  61.3085711   8.6160583  62.2207590  61.2431273   8.8193459
  61.2000130  62.1441978   8.1575116  63.9164934  60.6251582   5.5764531
  63.8378565  60.2911445   6.4700288  64.7374601  61.1173350   5.5756003
  66.6143125  53.4913321  18.7840849  66.5819445  52.5529322  18.9700533
  67.2243749  53.5697358  18.0506674  58.4526456  52.3609374   4.8268053
  59.3985561  52.2315582   4.8956471  58.0740701  51.6224036   5.3037481
  66.7637614  50.2824365  18.8299132  66.2476662  49.4982821  18.6429061
  67.6477562  49.9543081  18.9945652  64.4248340  44.0265380  14.7894945
  64.2273162  43.7180468  15.6738277  65.0348046  44.7527019  14.9192875
  72.4319675  54.5529328  17.9246886  73.1623063  54.2914616  18.4854589
  71.8226620  53.8158050  17.9648954  70.5134972  52.6937191  18.5221337
  69.7868136  52.5593156  17.9137829  70.0982259  53.0014019  19.3278055
  58.3365148  56.4127120  26.2868710  59.2568158  56.5905719  26.4808757
  58.3014731  55.4683166  26.1348409  56.6369373  50.2859351   4.7622938
  55.7300828  49.9892463   4.8385652  56.9145354  49.9889169   3.8957225
  47.5547313  51.6065714  15.2121985  47.2350098  50.7531022  14.9196359
  47.0080742  51.8214292  15.9679952  51.3327221  54.3228155  18.9291491
  51.5513231  55.2545263  18.9479525  51.7452995  53.9636129  19.7146295
  58.2531439  44.8296240  10.9167180  57.4432167  44.4843325  11.2922426
  58.9415856  44.5203784  11.5054791  60.1821987  43.9074287  12.5391476
  60.7353026  44.3269740  13.1981499  60.4192073  42.9810035  12.5814432
  56.2055086  49.8961361  28.3194240  56.1051813  50.8455718  28.2506331
  55.9876628  49.5679600  27.4470310  55.4068158  47.1446286   4.9034918
  56.2687322  47.4701184   5.1630735  55.5918502  46.3577782   4.3907983
  47.4235573  55.2268625  17.1815106  46.7299045  54.8122578  16.6685061
  48.1708564  55.2689162  16.5848525  63.5600794  46.0174812  12.0470141
  62.9799463  46.6759616  11.6648193  63.2936727  45.1952157  11.6357558
  62.0104361  45.4179870  14.2491461  62.5104139  45.5296404  13.4405780
  62.6539968  45.1140923  14.8892269  56.0686356  53.3258500  27.1359302
  55.5853438  54.1258860  27.3423191  56.1547295  53.3366444  26.1826746
  49.3372316  55.1586879  15.0581121  49.3143004  55.2574566  14.1063004
  49.6472952  56.0052030  15.3798287  51.9959694  57.2163034  19.1727736
  52.9502947  57.1846977  19.1057667  51.7972217  56.7553658  19.9877962
  52.5859076  55.7864150  21.7398533  53.4051965  56.2808229  21.7633371
  52.8595884  54.8696118  21.7116101  62.3425672  48.1774903  11.1026489
  61.4551527  48.4624553  10.8846684  62.7579661  48.0168666  10.2553766
  65.6940208  48.2021424  14.8180828  66.4700598  48.6917876  15.0905445
  64.9688342  48.6279478  15.2752698  68.1312767  48.9149043  15.8754769
  68.7257258  48.6744779  15.1648077  68.2039351  48.1956173  16.5028305
  50.3509923  62.7582654  16.1897934  50.2164391  61.9983055  15.6235932
  49.9341985  63.4823554  15.7226722  61.4868886  57.9419577   5.1974509
  62.1904736  58.1469580   5.8132165  60.7631534  58.5096339   5.4623592
  62.3166696  53.6929438  11.3176779  62.2601897  54.1497990  10.4784411
  62.8695038  52.9320123  11.1399622  66.1271502  49.4819170  12.1426899
  65.8708436  49.0815806  12.9735106  65.5024370  50.1962964  12.0177038
  70.4383840  52.2215244  14.6498190  69.8783398  52.2908433  15.4229752
  69.8327343  52.0456228  13.9297686  53.5079048  63.6551971  16.4016376
  53.3911433  64.5997403  16.2995067  52.6871495  63.3525532  16.7902175
  63.3955583  58.3802106   7.2472969  64.2301187  57.9483305   7.0650444
  63.2339926  58.2084120   8.1749863  63.0501475  54.8834220   8.6129308
  62.9950279  54.7178491   7.6717752  62.4247530  55.5910253   8.7691498
  47.8393990  50.1202284  22.4390730  48.4852854  49.6101238  22.9277956
  47.6311141  50.8570966  23.0134156  60.3647382  57.1883132  27.9382871
  61.2338542  57.3623784  27.5769506  59.8854134  58.0077548  27.8158600
  56.3597601  44.3842329   8.1914627  56.3476270  45.3284169   8.3482898
  57.2521023  44.2012474   7.8974088  54.5333563  64.3080233  19.6172305
  55.4360809  64.3403843  19.9338800  54.3070933  63.3780684  19.6318640
  56.2887165  63.0611219  16.2782383  55.3382796  63.0613081  16.1646756
  56.5919651  62.3143954  15.7618418  60.1749720  40.9785105  12.4460563
  59.4082116  40.4243592  12.5917246  60.5860425  41.0506974  13.3074715
  52.1791481  47.2669901  26.5365745  53.0422943  46.9106706  26.7469069
  51.6056892  46.9283796  27.2241149  72.0239858  68.8971758  17.3428146
  72.6618268  68.7778505  16.6391486  71.9060701  69.8452602  17.4016098
  68.8329564  68.8499186  17.2789670  68.4948076  68.7340250  16.3910205
  69.7019333  68.4490351  17.2590677  64.6916380  70.7034662  13.2686561
  64.1281245  70.6124599  12.5002849  64.5768775  69.8834567  13.7489054
  69.3149347  70.0034037  23.2375876  69.3037988  69.6086836  22.3656380
  69.4769987  69.2700110  23.8309647  62.2380812  72.1985854  16.1070782
  63.0302104  71.8576678  15.6917081  62.4777462  72.3080829  17.0272935
  70.2715939  74.3705630   8.5801026  69.6203919  74.9559710   8.1935040
  71.0660302  74.9011825   8.6396064  64.1971566  71.4594767   8.9788161
  64.9702442  70.9123754   8.8401036  64.5496965  72.3239016   9.1902622
  66.0356609  72.7871149  22.1855060  65.7446475  73.6916780  22.0701726
  66.6713593  72.8287677  22.8999129  66.9612815  70.1647998  18.7756420
  67.5576388  69.9404020  18.0613382  67.0187787  69.4232743  19.3781867
  66.5337844  67.6187433   6.6106611  66.7863364  67.0968954   5.8490074
  65.5962403  67.4553578   6.7133294  71.5781127  66.6223211  14.4181354
  72.3644216  66.2042635  14.0671771  71.8419831  67.5269304  14.5863002
  71.7491204  72.0596062   9.1170011  71.1137037  72.1330688   9.8290915
  71.4188610  72.6489661   8.4389090  76.9789554  66.5598445  15.3214332
  77.7114726  65.9897661  15.5552162  76.2228909  66.1720045  15.7620838
  66.2534133  69.5215539   8.8130985  66.1370391  68.8460442   9.4812070
  66.3636392  69.0347913   7.9963139  68.5965673  68.9825686  12.5177675
  68.2323881  68.4556307  13.2290596  69.4532789  68.5924155  12.3444160
  74.5014974  60.2720019  19.7808941  74.1698299  61.1415430  19.5570156
  73.9060587  59.9556303  20.4602971  68.2371160  64.0115586   7.5139023
  68.4045563  64.8795822   7.8809494  68.0468330  64.1742867   6.5900312
  70.9946494  72.4732565  19.1804854  70.6947217  73.3757604  19.0720661
  70.6497553  72.2064748  20.0326006  64.4458975  68.9246362  15.2141558
  63.5209472  68.7922576  15.4219250  64.6943388  69.7040581  15.7111500
  74.3943637  64.9915105  16.8602291  73.4860515  64.9230513  16.5661052
  74.3431233  65.4687050  17.6884116  68.2160381  66.4673243   8.4985690
  68.0960007  66.9130294   9.3371170  67.5212970  66.8158561   7.9399228
  61.8067786  68.5679635  16.0485347  61.9360167  68.8214114  16.9624759
  61.1265237  69.1607343  15.7290002  65.9767273  79.2376885  12.1475821
  65.8991303  80.1884710  12.2264302  65.3728917  78.8922758  12.8050748
  68.4684503  66.4104750  24.8037188  67.6917837  66.9698671  24.7940053
  69.1075066  66.8961533  25.3252058  76.2605284  63.1931543  18.6380165
  75.6179664  63.4864076  17.9919959  75.7560212  63.0784464  19.4433361
  73.9145447  66.9394716   9.3266024  74.8263304  67.1722103   9.1513722
  73.4055095  67.5231761   8.7641103  66.7230875  69.2190204  24.3655155
  67.4645560  69.7575248  24.0889979  66.0167861  69.8456493  24.5226707
  72.1986215  71.3619344  22.9627317  72.6069571  70.9201755  22.2181949
  71.4763477  70.7871972  23.2161510  68.5517285  66.2991951  20.3360874
  69.3978480  66.7231365  20.4795523  68.4915923  65.6425575  21.0299437
  72.5215030  71.9220535  16.7179606  71.8923892  72.0866249  16.0155673
  72.1340692  72.3362144  17.4890570  76.4004262  72.8574973  14.0723969
  75.7155300  73.2373874  13.5221003  76.4848111  73.4670299  14.8055917
  71.7016731  63.9596319  21.9942047  71.4577662  64.7138380  21.4576323
  71.9776661  64.3381667  22.8289294  73.6555193  70.5034932  20.6719313
  73.8672089  71.1466692  19.9953694  73.6084942  69.6697248  20.2041243
  71.2581422  63.1152752  17.5755885  70.3965901  63.4134006  17.8672623
  71.2843857  63.3323151  16.6436918  68.0742992  71.6594943  13.9829691
  68.5381337  71.9382646  13.1934313  67.8099790  70.7578388  13.8002781
  64.9667073  71.2066425  16.9209454  65.5368430  71.6353693  16.2826938
  65.5575185  70.9249009  17.6193640  67.0111878  67.7818095  10.7919256
  67.7135921  68.2339139  11.2593182  66.6792506  67.1401914  11.4199149
  65.4592239  66.3729852  25.1670465  64.8290900  67.0546133  25.4005862
  65.3528327  66.2612934  24.2223603  60.7537212  66.0401648  16.0936389
  59.9636266  66.2959177  15.6176500  61.2448459  66.8549986  16.1988430
  74.7701021  73.3806887  18.8441670  75.5918465  72.9787074  18.5624352
  74.7663424  73.2775121  19.7957786  62.7051957  66.4046227  13.0519866
  61.9083120  66.5164922  13.5703362  62.4777549  66.7432880  12.1860757
  68.5357625  72.9290931  21.0002381  68.6002057  73.3911338  21.8360553
  67.8268549  72.2988295  21.1284691  59.0374915  66.2932138  18.5251380
  59.2882953  67.1779148  18.7908956  59.5734463  66.1136740  17.7526472
  82.8607014  69.7245636  15.1926642  82.1070723  69.1553034  15.0370646
  82.9954555  69.6908300  16.1397276  68.2505642  74.5959038  10.8681361
  68.1151317  75.4410574  11.2966209  68.7915455  74.7978316  10.1047295
  64.7372982  60.6750618  27.5295716  64.3439928  60.1216816  28.2043360
  65.5539122  60.9861196  27.9202234  61.7035040  72.1134476  11.4409286
  62.2159560  72.9077726  11.5914851  62.3557753  71.4160766  11.3742888
  63.5129924  75.2300232  13.5232039  63.6896553  76.1518197  13.3353023
  64.3086758  74.9158652  13.9526419  67.6540943  62.0908497  25.1215973
  68.3950656  62.6915650  25.0420435  67.8858866  61.3486135  24.5634015
  62.7982281  67.2764864  23.3994202  62.6835796  66.3750121  23.7001301
  61.9426799  67.5228561  23.0479019  69.8774119  75.2182605  24.9981703
  69.4337973  74.4318983  24.6802608  70.5391332  75.4061755  24.3325594
  64.6361240  76.7478406  19.5242382  65.1868665  76.6195469  18.7519376
  63.7972716  77.0473295  19.1737274  71.9755357  75.4985404  23.0263104
  71.9573832  76.3194285  22.5343374  72.8975277  75.3739480  23.2513246
  68.4328411  73.0129534  23.8686613  68.9656748  72.2517822  23.6385921
  67.9042492  72.7203186  24.6110767  71.5998106  58.1189600  19.3980254
  71.2562375  59.0091242  19.3219365  71.9677069  57.9291258  18.5349839
  59.6683957  70.4423130  12.2168857  60.5059179  70.8520139  12.0002564
  59.8462224  69.5022573  12.1869051  71.5648389  68.1098211   7.9052690
  71.0495012  68.8802816   8.1441077  71.2925697  67.4363347   8.5285751
  69.1495500  62.9547912  12.9637928  68.2937096  62.5654762  12.7843567
  69.5622451  63.0339873  12.1037713  70.6794646  60.4894255  17.3629488
  70.1759442  60.4524390  16.5497293  70.9725253  61.3986998  17.4226144
  66.9237532  60.5732985  16.3695669  67.7890529  60.3775793  16.0101559
  66.9915041  60.3443337  17.2965026  76.5382663  70.8630566   9.8405863
  75.7612106  70.5241725   9.3961025  77.2174144  70.8683189   9.1660828
  71.3534692  65.9825303   9.7312471  71.0484827  66.2971452  10.5822614
  72.3065134  66.0606723   9.7739804  69.7981124  72.1415526  11.3805425
  69.2702485  71.4068286  11.0678662  69.2968626  72.9190203  11.1345393
  74.7773970  70.3364547  16.4972471  74.1197644  71.0263808  16.5852600
  75.5814369  70.7260979  16.8406457  64.5299851  62.8035193  13.7412036
  65.1043603  62.5810374  13.0085229  65.1170834  62.8723887  14.4940638
  73.5879428  68.6908920  14.5476413  74.1011310  69.3238911  15.0498123
  74.2380652  68.0910115  14.1819773  64.8569438  64.8339654   7.7607922
  64.0206751  65.1714340   8.0817196  64.7174208  64.6988634   6.8235059
  66.8322519  59.6776442  12.4687106  66.1786931  59.3625459  11.8443720
  66.7902993  59.0552182  13.1946929  67.9433724  69.9595737   4.3840398
  67.0360786  69.7284990   4.5831547  68.4404756  69.1633356   4.5714379
  70.8501803  78.6693244   7.3037084  70.1763501  78.9724941   7.9122042
  71.2367625  79.4722324   6.9542541  70.0660259  66.1658375  16.7934753
  69.1482821  66.3873322  16.6356441  70.4820403  66.2404686  15.9346461
  70.8495307  67.5649791  11.9237434  71.5967126  68.0771188  11.6144556
  71.1186897  67.2433844  12.7841827  69.1221957  70.0608332   8.9064388
  68.2133177  69.7767364   9.0036858  69.1517041  70.4807410   8.0467695
  74.3541225  73.6714921  12.6755555  73.9003552  72.8305831  12.7320746
  73.7235191  74.3076319  13.0130336  73.2974144  64.6006907  13.9056223
  72.5596901  64.0884293  14.2366465  73.5500918  64.1607289  13.0939500
  72.7974164  75.5091418  13.6105374  73.0897138  76.0696475  12.8917739
  73.3072784  75.8019979  14.3658533  73.3985772  57.3783159  14.4997992
  73.7044648  56.5180522  14.2123907  74.1238376  57.9700779  14.2996986
  59.6910128  67.7813846  12.8879590  59.4934527  67.1883206  12.1630657
  59.1356792  67.4766056  13.6055529  67.6706851  67.6736952  15.0074183
  67.7255461  66.7210789  14.9316660  66.8598053  67.8296391  15.4915482
  68.8198045  71.6017075   6.2452466  68.3817475  70.8852934   5.7858104
  69.5608486  71.8293190   5.6837558  65.6099211  66.2914012  12.7664562
  64.7967077  66.5908182  13.1729754  66.1058205  65.8969701  13.4839044
  67.7607789  76.2871769  14.6998827  67.7183968  76.5132615  13.7707359
  68.6770488  76.0535143  14.8484628  71.2073423  66.7555836  21.5979456
  71.5622811  66.9827309  22.4573922  71.8545554  67.0874213  20.9756711
  76.9371160  69.8774272  12.3028785  76.7989058  70.0675868  11.3749974
  76.5807379  70.6393655  12.7596836  65.1013286  63.8632367  18.3825797
  65.7412665  63.7221127  17.6848760  64.2690817  63.5766881  18.0064399
  76.9640539  71.9450799  17.3140057  77.3977046  71.8526088  18.1623111
  77.6772120  71.9208300  16.6760073  65.8773590  73.1634798  14.4960790
  66.6714188  72.6685118  14.2943364  65.1665282  72.6352661  14.1328495
  70.6968434  75.5452893  18.8473157  70.7505457  76.1143830  19.6150873
  69.8283216  75.7154778  18.4827194  62.1856353  67.3077880  10.5720542
  61.2553941  67.2462335  10.7890504  62.2813825  66.7853832   9.7757183
  62.1041902  63.8332692  13.1598784  62.3648720  64.7478026  13.0507944
  62.9259075  63.3657135  13.3095397  63.5766828  65.2470450  20.3297608
  64.2489881  65.0387812  19.6810257  62.7496614  65.0492536  19.8902841
  77.8256089  71.9874500  19.8472942  78.0191979  72.8920310  20.0932217
  77.7256707  71.5281919  20.6811527  69.4792400  61.8732390  22.3463269
  68.8320315  62.5722340  22.2527746  70.2493415  62.3068534  22.7139517
  72.8871198  72.1381243  25.4213823  72.7356704  71.9091794  24.5043906
  72.8775877  73.0951844  25.4345168  69.6556534  69.7113155  20.4060089
  70.5848594  69.8624315  20.2329056  69.2347564  69.7997176  19.5508735
  68.4544866  73.7363820  18.1758627  68.3155952  73.3682604  19.0484565
  67.6659462  74.2511459  18.0042584  69.0493018  78.8372916   9.5184163
  69.2244774  78.3660959  10.3329786  68.3625806  79.4638682   9.7465424
  70.0050081  73.1145423  15.5647464  69.6699914  73.0746192  16.4605114
  69.5054027  72.4490138  15.0917875  63.9794325  68.5213053  21.0900046
  63.8414123  67.7893291  21.6911585  64.8899248  68.4321953  20.8084233
  72.9409273  70.4601457   5.8384524  72.3238443  69.7348285   5.7417577
  72.4725761  71.2210817   5.4951598  66.6076626  68.2333012  20.5783725
  67.3176244  67.5926204  20.5370344  66.5645934  68.4845907  21.5009906
  74.5963404  75.1700365  23.4990304  74.5375950  74.4859585  22.8320887
  74.9982923  75.9119355  23.0470930  65.3205560  65.2198230  22.3979365
  64.7842917  64.7688968  23.0500961  64.7322268  65.3544139  21.6549829
  63.6154103  81.9862279  16.2924023  63.8550701  82.6180803  16.9703042
  62.7723300  81.6350319  16.5789383  64.7307819  64.6786881   4.9605828
  63.8537285  64.5575682   4.5968075  65.2065572  63.8872959   4.7084717
  74.5980812  73.1339949  21.7304284  73.7107590  72.7965871  21.8530683
  75.1679363  72.4022980  21.9673049  56.2509959  69.4664041  15.0547335
  56.9380999  69.1525771  14.4668351  56.0958087  70.3705406  14.7814587
  61.0544681  64.3554237  19.4832359  60.9702870  63.7479907  18.7482769
  60.2327387  64.8463256  19.4841855  68.1281965  77.7941401  18.6965527
  68.0552136  78.5996373  19.2084832  67.6859358  77.9933367  17.8713549
  67.9171745  77.0313172  12.2068349  67.1339267  77.5734852  12.3006573
  68.6164490  77.5487151  12.6062590  71.2268395  62.8407801  14.8502554
  71.7237094  62.0877763  14.5303624  70.4555376  62.8772118  14.2845764
  79.0798152  68.5448167  16.4920846  79.0688028  69.4272882  16.1214779
  78.2115532  68.1919717  16.2975383  70.5880649  77.6928236  20.8523686
  71.3008621  78.3275700  20.7799587  70.0970677  77.7892102  20.0363688
  72.3098175  71.5979488  12.4240978  71.3754454  71.7180951  12.2545682
  72.4874844  70.6951955  12.1600987  67.8103363  64.9825184  14.5774239
  67.4401151  64.4296224  15.2655144  68.3062456  64.3783317  14.0249239
  75.6970727  67.4396807  12.9591012  76.1631179  68.2724799  12.8851314
  76.1478227  66.9741789  13.6636270  65.6392562  75.4422679  21.6729257
  66.3402022  76.0759162  21.8258651  65.1687677  75.7837411  20.9124896
  73.7646958  73.7840629   9.9577164  74.0406802  73.6697223  10.8671038
  72.8951457  73.3858114   9.9189337  73.6687390  59.8077394  16.9981913
  72.7550469  60.0381621  17.1664120  74.0980491  59.8915839  17.8495945
  73.4393848  67.9967286  19.4981807  72.7865298  68.2443194  18.8434260
  73.8174228  67.1831425  19.1644284  70.4001022  78.0326980  13.6009977
  70.5823416  77.2148636  14.0637730  71.2234008  78.2494672  13.1634867
  70.7343187  76.9595165  10.8625026  71.2630954  76.4487619  10.2495188
  70.9971407  76.6437695  11.7270559  69.4881421  68.7387097  25.9847844
  68.8122058  68.6381227  26.6550219  70.3109055  68.5826311  26.4483841
  61.2360280  74.9759034  18.6060359  61.8213717  74.2302722  18.7388264
  61.0385119  75.2862991  19.4897023  64.0898935  78.0110281  13.6222802
  63.4209311  78.4956409  13.1386842  63.9511805  78.2579502  14.5366180
  55.8277935  67.5464634  17.3264803  55.8662034  67.0128225  18.1201921
  55.3218228  67.0199840  16.7075780  68.2304204  80.0454025  20.2205460
  68.7822512  80.2085646  20.9854545  68.5710397  80.6358463  19.5485485
  63.2068697  62.3929175  20.8227345  63.2710024  63.2544006  20.4104743
  63.1435817  61.7803176  20.0899703  62.6820970  64.4652307  24.4700379
  63.3093008  64.0829385  25.0837903  61.8248889  64.2466509  24.8356072
  73.0815078  74.8715282  26.0754115  73.6254982  75.4845241  25.5809069
  72.5001923  75.4294861  26.5921128  59.4586512  66.2728736  10.4018734
  59.7539954  65.3639415  10.3485788  58.5574548  66.2516476  10.0799736
  71.3672591  77.9936000  17.2069142  71.2423731  77.1925740  16.6980088
  72.0251682  78.4882194  16.7183112  62.9880759  64.3484733  16.3846283
  62.2667345  64.9620701  16.2453756  63.7774015  64.8842498  16.3062929
  73.4307500  75.7945021  18.8348692  72.4837835  75.6750372  18.7627019
  73.7790273  74.9067519  18.9174954  65.7907073  61.6839159  22.6586934
  66.3141475  61.9301456  23.4213244  65.5719406  62.5159194  22.2390072
  61.1874354  63.9542834  10.5258059  60.8587060  63.0740213  10.3433165
  61.5413725  63.8990503  11.4134448  70.4353933  75.5897737  15.0353045
  70.2878895  74.6614444  15.2160615  71.2607426  75.6117827  14.5510120
  64.3016177  64.2415804  10.8933537  64.6412250  64.7701725  10.1712145
  64.7488298  64.5796210  11.6692103  74.0388055  76.4126295  16.1217917
  74.9634602  76.2069157  15.9842369  73.8703358  76.1642697  17.0307259
  66.9959618  62.6252855  20.3436605  66.6556438  61.8260668  20.7457285
  66.2898624  62.9254565  19.7713438  67.6476090  59.7102167  18.7963928
  68.4702159  59.2362645  18.6742818  67.8914153  60.4892651  19.2962614
  66.2884324  62.7390425   9.0926830  67.0092687  63.1171678   8.5890546
  65.6649628  63.4579302   9.1961808  70.4315447  63.4435574  10.0285162
  70.6479062  64.3260212   9.7273990  69.9509514  63.0521788   9.2990804
  65.1714669  66.4021288  16.6055906  65.0259249  66.7161591  17.4980188
  64.6939872  67.0206188  16.0526805  67.0311051  63.3923836  16.6536796
  67.0172620  62.4964929  16.3169094  67.7483480  63.3994499  17.2875082
  68.8837182  63.8261176  18.6989923  68.6254960  64.7478246  18.6974254
  68.3522223  63.4291610  19.3890388  73.8283371  76.9311963  11.4780009
  74.0020248  76.3658385  10.7253861  74.3212262  77.7312858  11.2959499
  59.6460331  68.9426632  19.5443568  59.1013799  69.7186440  19.6763842
  60.5239681  69.2897437  19.3862689  66.4347947  62.2738216  11.9224366
  66.5563859  61.3454862  12.1215254  66.1449990  62.2876902  11.0102682
  69.3039138  59.9593126  15.0591086  69.3260835  60.0232459  14.1043066
  69.7207197  59.1197635  15.2531592  79.6822762  69.6948386  13.0970309
  80.1253908  68.9455711  12.6989432  78.8049272  69.6858522  12.7144041
  74.8158543  76.2478727   8.5776907  75.5109448  76.8685420   8.7964222
  75.1581694  75.3974079   8.8529285  60.4326353  68.0696528  22.4373725
  59.6908089  68.2179164  23.0238355  60.1119097  68.3304794  21.5740474
  76.7149967  73.6978433  10.1064238  77.2401291  74.0365706   9.3813558
  76.6272319  72.7625448   9.9227373  68.3770015  77.6112507  22.2354115
  68.6857142  77.3661653  23.1076814  69.1745497  77.8159145  21.7472985
  68.3990627  79.7650416  14.4659491  67.9595618  79.2726795  15.1592348
  69.1498744  79.2223384  14.2251566  60.8782966  75.9561957  14.4684119
  61.7040986  75.6565729  14.0882763  60.5277018  75.1869579  14.9173908
  65.8464499  75.3088425  16.5381793  65.2244509  74.6459130  16.2384021
  66.5169366  75.3349557  15.8555441  59.0791571  73.8748283  15.4273053
  58.2423480  73.4470458  15.2457054  59.0515217  74.0680727  16.3643844
  65.9189027  63.7870213  26.1314299  65.9677182  64.6632336  25.7492068
  66.4611541  63.2447606  25.5585942  76.4043873  74.3311337  25.4115436
  75.6139416  74.3135475  24.8719935  76.1677227  74.8699630  26.1664472
  76.5241748  71.1803803  22.7248164  76.5739753  71.0153810  23.6663687
  76.4155671  70.3131062  22.3346045  65.4078006  73.8592349  10.0140253
  65.5566127  74.5427813   9.3606926  66.2144450  73.8397439  10.5289709
  73.8145510  67.1634731  24.0407471  74.7155373  67.0241196  23.7491469
  73.8893485  67.3289186  24.9805649  68.1488315  64.5401586  22.8860657
  67.2791625  64.8335152  22.6143246  68.3847796  65.1242031  23.6067921
  78.0259944  73.6000744  22.9690186  77.7344753  73.9630725  23.8053647
  77.4132076  72.8867753  22.7903518  79.2255627  71.1653624  15.4892756
  80.0602518  71.6043428  15.6530317  79.3614756  70.6892277  14.6701002
  76.2747133  68.7233359  21.4370244  76.7501254  68.9161005  20.6289095
  75.3512698  68.7792545  21.1913628  63.1630639  69.8857526  11.0201322
  62.9176681  68.9819856  11.2181532  63.3326554  69.8874677  10.0780800
  70.8527349  60.7581203  20.4026078  71.3709293  61.4942230  20.0772566
  70.4982482  61.0645196  21.2372837  62.4326287  65.6185884   8.5187484
  61.7395532  65.6930239   7.8627520  62.1878039  64.8546227   9.0409001
  71.1039943  57.1781485  15.9226974  71.3841697  56.5104674  16.5487401
  71.8890550  57.3710581  15.4101638  68.9073412  76.3540479   7.4852001
  68.3347379  76.9730666   7.0322473  69.4806206  76.9039841   8.0191923
  74.9748802  65.5999119  19.6698550  75.9266225  65.6997217  19.6910774
  74.8052252  64.8077388  20.1796634  72.9963181  62.6854702  19.8557950
  72.4013113  62.9659715  19.1604439  72.7112878  63.1748603  20.6274692
  72.1270672  76.6377629   8.6160583  73.0601345  76.5723191   8.8193459
  72.0393884  77.4733896   8.1575116  74.7558688  75.9543500   5.5764531
  74.6772320  75.6203363   6.4700288  75.5768355  76.4465267   5.5756003
  77.4536880  68.8205239  18.7840849  77.4213200  67.8821240  18.9700533
  78.0637503  68.8989276  18.0506674  69.2920210  67.6901292   4.8268053
  70.2379315  67.5607500   4.8956471  68.9134455  66.9515954   5.3037481
  77.6031368  65.6116282  18.8299132  77.0870417  64.8274739  18.6429061
  78.4871317  65.2834999  18.9945652  75.2642095  59.3557298  14.7894945
  75.0666916  59.0472386  15.6738277  75.8741800  60.0818937  14.9192875
  83.2713429  69.8821246  17.9246886  84.0016818  69.6206534  18.4854589
  82.6620375  69.1449968  17.9648954  81.3528726  68.0229108  18.5221337
  80.6261890  67.8885073  17.9137829  80.9376013  68.3305937  19.3278055
  69.1758903  71.7419038  26.2868710  70.0961912  71.9197637  26.4808757
  69.1408486  70.7975083  26.1348409  67.4763128  65.6151268   4.7622938
  66.5694583  65.3184381   4.8385652  67.7539109  65.3181086   3.8957225
  58.3941068  66.9357632  15.2121985  58.0743852  66.0822940  14.9196359
  57.8474496  67.1506210  15.9679952  62.1720975  69.6520073  18.9291491
  62.3906985  70.5837180  18.9479525  62.5846749  69.2928047  19.7146295
  69.0925193  60.1588158  10.9167180  68.2825922  59.8135243  11.2922426
  69.7809610  59.8495702  11.5054791  71.0215742  59.2366205  12.5391476
  71.5746780  59.6561658  13.1981499  71.2585828  58.3101953  12.5814432
  67.0448841  65.2253278  28.3194240  66.9445568  66.1747635  28.2506331
  66.8270383  64.8971517  27.4470310  66.2461912  62.4738203   4.9034918
  67.1081076  62.7993102   5.1630735  66.4312256  61.6869699   4.3907983
  58.2629328  70.5560543  17.1815106  57.5692799  70.1414496  16.6685061
  59.0102319  70.5981080  16.5848525  74.3994549  61.3466730  12.0470141
  73.8193218  62.0051534  11.6648193  74.1330481  60.5244074  11.6357558
  72.8498115  60.7471788  14.2491461  73.3497893  60.8588322  13.4405780
  73.4933723  60.4432840  14.8892269  66.9080111  68.6550417  27.1359302
  66.4247193  69.4550777  27.3423191  66.9941050  68.6658362  26.1826746
  60.1766070  70.4878797  15.0581121  60.1536759  70.5866484  14.1063004
  60.4866707  71.3343948  15.3798287  62.8353448  72.5454952  19.1727736
  63.7896702  72.5138894  19.1057667  62.6365972  72.0845576  19.9877962
  63.4252830  71.1156068  21.7398533  64.2445719  71.6100147  21.7633371
  63.6989638  70.1988036  21.7116101  73.1819427  63.5066820  11.1026489
  72.2945282  63.7916471  10.8846684  73.5973416  63.3460584  10.2553766
  76.5333963  63.5313341  14.8180828  77.3094353  64.0209794  15.0905445
  75.8082097  63.9571395  15.2752698  78.9706521  64.2440960  15.8754769
  79.5651012  64.0036696  15.1648077  79.0433105  63.5248091  16.5028305
  61.1903677  78.0874571  16.1897934  61.0558145  77.3274972  15.6235932
  60.7735739  78.8115471  15.7226722  72.3262640  73.2711495   5.1974509
  73.0298490  73.4761497   5.8132165  71.6025289  73.8388257   5.4623592
  73.1560450  69.0221356  11.3176779  73.0995652  69.4789908  10.4784411
  73.7088793  68.2612041  11.1399622  76.9665256  64.8111088  12.1426899
  76.7102191  64.4107724  12.9735106  76.3418124  65.5254882  12.0177038
  81.2777594  67.5507161  14.6498190  80.7177152  67.6200351  15.4229752
  80.6721098  67.3748146  13.9297686  64.3472803  78.9843888  16.4016376
  64.2305187  79.9289321  16.2995067  63.5265249  78.6817450  16.7902175
  74.2349338  73.7094024   7.2472969  75.0694941  73.2775223   7.0650444
  74.0733680  73.5376038   8.1749863  73.8895230  70.2126137   8.6129308
  73.8344033  70.0470409   7.6717752  73.2641285  70.9202170   8.7691498
  58.6787745  65.4494202  22.4390730  59.3246608  64.9393156  22.9277956
  58.4704896  66.1862883  23.0134156  71.2041137  72.5175049  27.9382871
  72.0732297  72.6915702  27.5769506  70.7247888  73.3369466  27.8158600
  67.1991355  59.7134246   8.1914627  67.1870025  60.6576086   8.3482898
  68.0914777  59.5304392   7.8974088  65.3727317  79.6372150  19.6172305
  66.2754564  79.6695761  19.9338800  65.1464687  78.7072601  19.6318640
  67.1280919  78.3903137  16.2782383  66.1776550  78.3904998  16.1646756
  67.4313405  77.6435871  15.7618418  71.0143475  56.3077023  12.4460563
  70.2475870  55.7535510  12.5917246  71.4254180  56.3798892  13.3074715
  63.0185236  62.5961819  26.5365745  63.8816697  62.2398624  26.7469069
  62.4450646  62.2575714  27.2241149  82.8633613  84.2263675  17.3428146
  83.5012023  84.1070423  16.6391486  82.7454456  85.1744519  17.4016098
  79.6723319  84.1791103  17.2789670  79.3341830  84.0632168  16.3910205
  80.5413087  83.7782268  17.2590677  75.5310135  86.0326580  13.2686561
  74.9675000  85.9416517  12.5002849  75.4162530  85.2126484  13.7489054
  80.1543102  85.3325955  23.2375876  80.1431743  84.9378753  22.3656380
  80.3163741  84.5992028  23.8309647  73.0774567  87.5277771  16.1070782
  73.8695858  87.1868596  15.6917081  73.3171217  87.6372746  17.0272935
  81.1109693  89.6997547   8.5801026  80.4597673  90.2851628   8.1935040
  81.9054056  90.2303742   8.6396064  75.0365320  86.7886685   8.9788161
  75.8096196  86.2415672   8.8401036  75.3890719  87.6530934   9.1902622
  76.8750363  88.1163067  22.1855060  76.5840229  89.0208698  22.0701726
  77.5107347  88.1579594  22.8999129  77.8006570  85.4939915  18.7756420
  78.3970142  85.2695938  18.0613382  77.8581541  84.7524661  19.3781867
  77.3731598  82.9479351   6.6106611  77.6257119  82.4260872   5.8490074
  76.4356157  82.7845496   6.7133294  82.4174881  81.9515129  14.4181354
  83.2037970  81.5334552  14.0671771  82.6813585  82.8561221  14.5863002
  82.5884958  87.3887979   9.1170011  81.9530791  87.4622606   9.8290915
  82.2582365  87.9781578   8.4389090  87.8183308  81.8890362  15.3214332
  88.5508480  81.3189579  15.5552162  87.0622664  81.5011963  15.7620838
  77.0927887  84.8507457   8.8130985  76.9764145  84.1752360   9.4812070
  77.2030147  84.3639831   7.9963139  79.4359428  84.3117604  12.5177675
  79.0717635  83.7848225  13.2290596  80.2926544  83.9216073  12.3444160
  85.3408729  75.6011936  19.7808941  85.0092053  76.4707347  19.5570156
  84.7454342  75.2848220  20.4602971  79.0764915  79.3407503   7.5139023
  79.2439317  80.2087740   7.8809494  78.8862084  79.5034785   6.5900312
  81.8340248  87.8024482  19.1804854  81.5340971  88.7049521  19.0720661
  81.4891308  87.5356666  20.0326006  75.2852730  84.2538279  15.2141558
  74.3603226  84.1214493  15.4219250  75.5337143  85.0332498  15.7111500
  85.2337392  80.3207023  16.8602291  84.3254269  80.2522431  16.5661052
  85.1824988  80.7978967  17.6884116  79.0554136  81.7965161   8.4985690
  78.9353761  82.2422212   9.3371170  78.3606724  82.1450479   7.9399228
  72.6461541  83.8971553  16.0485347  72.7753922  84.1506032  16.9624759
  71.9658992  84.4899261  15.7290002  76.8161028  94.5668803  12.1475821
  76.7385058  95.5176628  12.2264302  76.2122671  94.2214675  12.8050748
  79.3078258  81.7396668  24.8037188  78.5311592  82.2990588  24.7940053
  79.9468821  82.2253451  25.3252058  87.0999038  78.5223461  18.6380165
  86.4573419  78.8155994  17.9919959  86.5953967  78.4076381  19.4433361
  84.7539202  82.2686634   9.3266024  85.6657058  82.5014021   9.1513722
  84.2448849  82.8523678   8.7641103  77.5624630  84.5482122  24.3655155
  78.3039314  85.0867165  24.0889979  76.8561615  85.1748410  24.5226707
  83.0379970  86.6911262  22.9627317  83.4463326  86.2493672  22.2181949
  82.3157231  86.1163889  23.2161510  79.3911040  81.6283869  20.3360874
  80.2372235  82.0523282  20.4795523  79.3309677  80.9717493  21.0299437
  83.3608784  87.2512453  16.7179606  82.7317647  87.4158167  16.0155673
  82.9734446  87.6654062  17.4890570  87.2398016  88.1866890  14.0723969
  86.5549054  88.5665792  13.5221003  87.3241865  88.7962217  14.8055917
  82.5410485  79.2888237  21.9942047  82.2971417  80.0430298  21.4576323
  82.8170416  79.6673585  22.8289294  84.4948948  85.8326849  20.6719313
  84.7065843  86.4758609  19.9953694  84.4478696  84.9989166  20.2041243
  82.0975177  78.4444670  17.5755885  81.2359656  78.7425924  17.8672623
  82.1237611  78.6615069  16.6436918  78.9136746  86.9886861  13.9829691
  79.3775092  87.2674564  13.1934313  78.6493544  86.0870305  13.8002781
  75.8060827  86.5358342  16.9209454  76.3762184  86.9645611  16.2826938
  76.3968939  86.2540927  17.6193640  77.8505632  83.1110013  10.7919256
  78.5529676  83.5631057  11.2593182  77.5186261  82.4693832  11.4199149
  76.2985994  81.7021770  25.1670465  75.6684654  82.3838051  25.4005862
  76.1922082  81.5904851  24.2223603  71.5930966  81.3693566  16.0936389
  70.8030020  81.6251094  15.6176500  72.0842214  82.1841904  16.1988430
  85.6094776  88.7098805  18.8441670  86.4312219  88.3078992  18.5624352
  85.6057179  88.6067039  19.7957786  73.5445712  81.7338145  13.0519866
  72.7476875  81.8456839  13.5703362  73.3171304  82.0724797  12.1860757
  79.3751379  88.2582848  21.0002381  79.4395812  88.7203255  21.8360553
  78.6662303  87.6280213  21.1284691  69.8768669  81.6224056  18.5251380
  70.1276708  82.5071066  18.7908956  70.4128218  81.4428658  17.7526472
  93.7000769  85.0537553  15.1926642  92.9464477  84.4844951  15.0370646
  93.8348310  85.0200218  16.1397276  79.0899397  89.9250956  10.8681361
  78.9545072  90.7702491  11.2966209  79.6309209  90.1270233  10.1047295
  75.5766736  76.0042536  27.5295716  75.1833682  75.4508734  28.2043360
  76.3932877  76.3153114  27.9202234  72.5428794  87.4426394  11.4409286
  73.0553315  88.2369644  11.5914851  73.1951507  86.7452684  11.3742888
  74.3523679  90.5592150  13.5232039  74.5290307  91.4810115  13.3353023
  75.1480512  90.2450569  13.9526419  78.4934697  77.4200415  25.1215973
  79.2344411  78.0207568  25.0420435  78.7252620  76.6778052  24.5634015
  73.6376035  82.6056782  23.3994202  73.5229551  81.7042039  23.7001301
  72.7820553  82.8520479  23.0479019  80.7167873  90.5474522  24.9981703
  80.2731727  89.7610901  24.6802608  81.3785087  90.7353673  24.3325594
  75.4754994  92.0770324  19.5242382  76.0262419  91.9487387  18.7519376
  74.6366470  92.3765213  19.1737274  82.8149111  90.8277322  23.0263104
  82.7967587  91.6486203  22.5343374  83.7369031  90.7031397  23.2513246
  79.2722165  88.3421452  23.8686613  79.8050502  87.5809740  23.6385921
  78.7436247  88.0495103  24.6110767  82.4391860  73.4481518  19.3980254
  82.0956130  74.3383159  19.3219365  82.8070823  73.2583175  18.5349839
  70.5077711  85.7715048  12.2168857  71.3452933  86.1812056  12.0002564
  70.6855979  84.8314490  12.1869051  82.4042143  83.4390129   7.9052690
  81.8888767  84.2094733   8.1441077  82.1319452  82.7655265   8.5285751
  79.9889254  78.2839829  12.9637928  79.1330850  77.8946680  12.7843567
  80.4016206  78.3631790  12.1037713  81.5188401  75.8186173  17.3629488
  81.0153196  75.7816308  16.5497293  81.8119008  76.7278915  17.4226144
  77.7631287  75.9024902  16.3695669  78.6284283  75.7067711  16.0101559
  77.8308796  75.6735254  17.2965026  87.3776417  86.1922483   9.8405863
  86.6005860  85.8533643   9.3961025  88.0567898  86.1975106   9.1660828
  82.1928446  81.3117221   9.7312471  81.8878582  81.6263370  10.5822614
  83.1458888  81.3898641   9.7739804  80.6374878  87.4707444  11.3805425
  80.1096240  86.7360204  11.0678662  80.1362381  88.2482120  11.1345393
  85.6167724  85.6656465  16.4972471  84.9591399  86.3555726  16.5852600
  86.4208123  86.0552897  16.8406457  75.3693606  78.1327110  13.7412036
  75.9437358  77.9102292  13.0085229  75.9564588  78.2015805  14.4940638
  84.4273183  84.0200837  14.5476413  84.9405065  84.6530829  15.0498123
  85.0774407  83.4202033  14.1819773  75.6963193  80.1631571   7.7607922
  74.8600505  80.5006258   8.0817196  75.5567962  80.0280551   6.8235059
  77.6716273  75.0068359  12.4687106  77.0180686  74.6917376  11.8443720
  77.6296748  74.3844100  13.1946929  78.7827478  85.2887654   4.3840398
  77.8754540  85.0576908   4.5831547  79.2798510  84.4925274   4.5714379
  81.6895557  93.9985162   7.3037084  81.0157256  94.3016858   7.9122042
  82.0761379  94.8014242   6.9542541  80.9054014  81.4950293  16.7934753
  79.9876575  81.7165240  16.6356441  81.3214157  81.5696603  15.9346461
  81.6889062  82.8941708  11.9237434  82.4360881  83.4063106  11.6144556
  81.9580651  82.5725761  12.7841827  79.9615712  85.3900249   8.9064388
  79.0526931  85.1059282   9.0036858  79.9910796  85.8099328   8.0467695
  85.1934979  89.0006839  12.6755555  84.7397306  88.1597749  12.7320746
  84.5628946  89.6368237  13.0130336  84.1367899  79.9298825  13.9056223
  83.3990656  79.4176211  14.2366465  84.3894672  79.4899206  13.0939500
  83.6367918  90.8383335  13.6105374  83.9290893  91.3988393  12.8917739
  84.1466539  91.1311896  14.3658533  84.2379526  72.7075077  14.4997992
  84.5438403  71.8472440  14.2123907  84.9632131  73.2992697  14.2996986
  70.5303882  83.1105763  12.8879590  70.3328282  82.5175124  12.1630657
  69.9750546  82.8057974  13.6055529  78.5100606  83.0028870  15.0074183
  78.5649216  82.0502706  14.9316660  77.6991808  83.1588309  15.4915482
  79.6591800  86.9308993   6.2452466  79.2211229  86.2144852   5.7858104
  80.4002240  87.1585108   5.6837558  76.4492966  81.6205930  12.7664562
  75.6360831  81.9200100  13.1729754  76.9451960  81.2261618  13.4839044
  78.6001544  91.6163686  14.6998827  78.5577722  91.8424533  13.7707359
  79.5164242  91.3827061  14.8484628  82.0467177  82.0847754  21.5979456
  82.4016565  82.3119227  22.4573922  82.6939309  82.4166131  20.9756711
  87.7764914  85.2066190  12.3028785  87.6382813  85.3967786  11.3749974
  87.4201133  85.9685573  12.7596836  75.9407040  79.1924285  18.3825797
  76.5806420  79.0513044  17.6848760  75.1084571  78.9058798  18.0064399
  87.8034294  87.2742717  17.3140057  88.2370801  87.1818006  18.1623111
  88.5165875  87.2500217  16.6760073  76.7167344  88.4926715  14.4960790
  77.5107943  87.9977036  14.2943364  76.0059037  87.9644579  14.1328495
  81.5362189  90.8744811  18.8473157  81.5899211  91.4435747  19.6150873
  80.6676970  91.0446696  18.4827194  73.0250108  82.6369797  10.5720542
  72.0947696  82.5754253  10.7890504  73.1207580  82.1145750   9.7757183
  72.9435657  79.1624610  13.1598784  73.2042474  80.0769943  13.0507944
  73.7652829  78.6949053  13.3095397  74.4160582  80.5762367  20.3297608
  75.0883636  80.3679729  19.6810257  73.5890369  80.3784453  19.8902841
  88.6649844  87.3166418  19.8472942  88.8585734  88.2212228  20.0932217
  88.5650462  86.8573837  20.6811527  80.3186154  77.2024308  22.3463269
  79.6714069  77.9014258  22.2527746  81.0887170  77.6360452  22.7139517
  83.7264952  87.4673160  25.4213823  83.5750459  87.2383712  24.5043906
  83.7169632  88.4243762  25.4345168  80.4950289  85.0405073  20.4060089
  81.4242349  85.1916233  20.2329056  80.0741319  85.1289094  19.5508735
  79.2938620  89.0655737  18.1758627  79.1549706  88.6974522  19.0484565
  78.5053217  89.5803377  18.0042584  79.8886772  94.1664834   9.5184163
  80.0638528  93.6952877  10.3329786  79.2019560  94.7930600   9.7465424
  80.8443836  88.4437340  15.5647464  80.5093668  88.4038110  16.4605114
  80.3447781  87.7782056  15.0917875  74.8188079  83.8504970  21.0900046
  74.6807877  83.1185209  21.6911585  75.7293003  83.7613870  20.8084233
  83.7803027  85.7893375   5.8384524  83.1632198  85.0640203   5.7417577
  83.3119516  86.5502735   5.4951598  77.4470380  83.5624930  20.5783725
  78.1569999  82.9218122  20.5370344  77.4039688  83.8137824  21.5009906
  85.4357159  90.4992283  23.4990304  85.3769705  89.8151503  22.8320887
  85.8376677  91.2411273  23.0470930  76.1599314  80.5490147  22.3979365
  75.6236671  80.0980886  23.0500961  75.5716023  80.6836056  21.6549829
  74.4547858  97.3154197  16.2924023  74.6944456  97.9472721  16.9703042
  73.6117054  96.9642237  16.5789383  75.5701573  80.0078799   4.9605828
  74.6931039  79.8867600   4.5968075  76.0459326  79.2164877   4.7084717
  85.4374566  88.4631867  21.7304284  84.5501345  88.1257789  21.8530683
  86.0073117  87.7314898  21.9673049  67.0903713  84.7955959  15.0547335
  67.7774753  84.4817689  14.4668351  66.9351842  85.6997323  14.7814587
  71.8938435  79.6846155  19.4832359  71.8096624  79.0771825  18.7482769
  71.0721142  80.1755173  19.4841855  78.9675719  93.1233319  18.6965527
  78.8945891  93.9288291  19.2084832  78.5253113  93.3225285  17.8713549
  78.7565499  92.3605089  12.2068349  77.9733021  92.9026769  12.3006573
  79.4558244  92.8779069  12.6062590  82.0662149  78.1699719  14.8502554
  82.5630849  77.4169681  14.5303624  81.2949131  78.2064035  14.2845764
  89.9191907  83.8740084  16.4920846  89.9081783  84.7564800  16.1214779
  89.0509286  83.5211635  16.2975383  81.4274403  93.0220153  20.8523686
  82.1402375  93.6567618  20.7799587  80.9364432  93.1184019  20.0363688
  83.1491930  86.9271406  12.4240978  82.2148209  87.0472868  12.2545682
  83.3268598  86.0243873  12.1600987  78.6497118  80.3117102  14.5774239
  78.2794905  79.7588142  15.2655144  79.1456210  79.7075235  14.0249239
  86.5364481  82.7688725  12.9591012  87.0024933  83.6016717  12.8851314
  86.9871982  82.3033707  13.6636270  76.4786317  90.7714597  21.6729257
  77.1795776  91.4051080  21.8258651  76.0081432  91.1129328  20.9124896
  84.6040712  89.1132546   9.9577164  84.8800556  88.9989141  10.8671038
  83.7345211  88.7150031   9.9189337  84.5081144  75.1369312  16.9981913
  83.5944224  75.3673539  17.1664120  84.9374245  75.2207756  17.8495945
  84.2787603  83.3259204  19.4981807  83.6259053  83.5735112  18.8434260
  84.6567982  82.5123342  19.1644284  81.2394776  93.3618897  13.6009977
  81.4217171  92.5440553  14.0637730  82.0627762  93.5786590  13.1634867
  81.5736942  92.2887082  10.8625026  82.1024708  91.7779537  10.2495188
  81.8365161  91.9729613  11.7270559  80.3275176  84.0679015  25.9847844
  79.6515813  83.9673144  26.6550219  81.1502809  83.9118229  26.4483841
  72.0754035  90.3050952  18.6060359  72.6607471  89.5594640  18.7388264
  71.8778873  90.6154908  19.4897023  74.9292690  93.3402199  13.6222802
  74.2603065  93.8248327  13.1386842  74.7905560  93.5871420  14.5366180
  66.6671689  82.8756552  17.3264803  66.7055789  82.3420143  18.1201921
  66.1611982  82.3491757  16.7075780  79.0697958  95.3745943  20.2205460
  79.6216266  95.5377564  20.9854545  79.4104152  95.9650380  19.5485485
  74.0462452  77.7221092  20.8227345  74.1103778  78.5835923  20.4104743
  73.9829572  77.1095094  20.0899703  73.5214724  79.7944225  24.4700379
  74.1486763  79.4121302  25.0837903  72.6642643  79.5758427  24.8356072
  83.9208833  90.2007200  26.0754115  84.4648737  90.8137158  25.5809069
  83.3395678  90.7586779  26.5921128  70.2980267  81.6020654  10.4018734
  70.5933708  80.6931332  10.3485788  69.3968303  81.5808394  10.0799736
  82.2066346  93.3227918  17.2069142  82.0817485  92.5217658  16.6980088
  82.8645437  93.8174112  16.7183112  73.8274514  79.6776651  16.3846283
  73.1061100  80.2912618  16.2453756  74.6167770  80.2134415  16.3062929
  84.2701254  91.1236938  18.8348692  83.3231590  91.0042289  18.7627019
  84.6184027  90.2359436  18.9174954  76.6300827  77.0131077  22.6586934
  77.1535229  77.2593374  23.4213244  76.4113161  77.8451112  22.2390072
  72.0268109  79.2834752  10.5258059  71.6980815  78.4032131  10.3433165
  72.3807479  79.2282420  11.4134448  81.2747687  90.9189654  15.0353045
  81.1272650  89.9906362  15.2160615  82.1001181  90.9409745  14.5510120
  75.1409932  79.5707722  10.8933537  75.4806004  80.0993643  10.1712145
  75.5882052  79.9088128  11.6692103  84.8781809  91.7418213  16.1217917
  85.8028357  91.5361075  15.9842369  84.7097113  91.4934614  17.0307259
  77.8353372  77.9544772  20.3436605  77.4950193  77.1552585  20.7457285
  77.1292379  78.2546483  19.7713438  78.4869844  75.0394085  18.7963928
  79.3095914  74.5654563  18.6742818  78.7307908  75.8184568  19.2962614
  77.1278079  78.0682343   9.0926830  77.8486441  78.4463596   8.5890546
  76.5043383  78.7871220   9.1961808  81.2709202  78.7727492  10.0285162
  81.4872816  79.6552130   9.7273990  80.7903269  78.3813705   9.2990804
  76.0108423  81.7313205  16.6055906  75.8653004  82.0453508  17.4980188
  75.5333627  82.3498106  16.0526805  77.8704806  78.7215753  16.6536796
  77.8566375  77.8256847  16.3169094  78.5877234  78.7286417  17.2875082
  79.7230937  79.1553094  18.6989923  79.4648714  80.0770164  18.6974254
  79.1915977  78.7583528  19.3890388  84.6677125  92.2603881  11.4780009
  84.8414003  91.6950303  10.7253861  85.1606017  93.0604776  11.2959499
  70.4854085  84.2718550  19.5443568  69.9407553  85.0478358  19.6763842
  71.3633435  84.6189354  19.3862689  77.2741702  77.6030134  11.9224366
  77.3957613  76.6746780  12.1215254  76.9843744  77.6168820  11.0102682
  80.1432892  75.2885044  15.0591086  80.1654589  75.3524377  14.1043066
  80.5600951  74.4489553  15.2531592  90.5216517  85.0240304  13.0970309
  90.9647663  84.2747629  12.6989432  89.6443027  85.0150440  12.7144041
  85.6552298  91.5770645   8.5776907  86.3503203  92.1977338   8.7964222
  85.9975448  90.7265996   8.8529285  71.2720107  83.3988446  22.4373725
  70.5301843  83.5471081  23.0238355  70.9512851  83.6596712  21.5740474
  87.5543721  89.0270351  10.1064238  88.0795045  89.3657623   9.3813558
  87.4666074  88.0917366   9.9227373  79.2163770  92.9404424  22.2354115
  79.5250896  92.6953571  23.1076814  80.0139252  93.1451063  21.7472985
  79.2384382  95.0942334  14.4659491  78.7989372  94.6018713  15.1592348
  79.9892499  94.5515302  14.2251566  71.7176721  91.2853875  14.4684119
  72.5434741  90.9857647  14.0882763  71.3670773  90.5161497  14.9173908
  76.6858254  90.6380343  16.5381793  76.0638263  89.9751048  16.2384021
  77.3563121  90.6641475  15.8555441  69.9185326  89.2040201  15.4273053
  69.0817234  88.7762376  15.2457054  69.8908971  89.3972644  16.3643844
  76.7582781  79.1162131  26.1314299  76.8070937  79.9924254  25.7492068
  77.3005296  78.5739524  25.5585942  87.2437627  89.6603254  25.4115436
  86.4533171  89.6427393  24.8719935  87.0070982  90.1991548  26.1664472
  87.3635502  86.5095721  22.7248164  87.4133507  86.3445728  23.6663687
  87.2549425  85.6422980  22.3346045  76.2471761  89.1884266  10.0140253
  76.3959881  89.8719731   9.3606926  77.0538204  89.1689356  10.5289709
  84.6539265  82.4926649  24.0407471  85.5549127  82.3533113  23.7491469
  84.7287239  82.6581103  24.9805649  78.9882070  79.8693503  22.8860657
  78.1185379  80.1627069  22.6143246  79.2241550  80.4533948  23.6067921
  88.8653699  88.9292662  22.9690186  88.5738507  89.2922643  23.8053647
  88.2525830  88.2159670  22.7903518  90.0649381  86.4945542  15.4892756
  90.8996273  86.9335346  15.6530317  90.2008510  86.0184195  14.6701002
  87.1140887  84.0525277  21.4370244  87.5895009  84.2452923  20.6289095
  86.1906453  84.1084463  21.1913628  74.0024394  85.2149444  11.0201322
  73.7570436  84.3111774  11.2181532  74.1720308  85.2166594  10.0780800
  81.6921104  76.0873120  20.4026078  82.2103048  76.8234147  20.0772566
  81.3376236  76.3937114  21.2372837  73.2720041  80.9477801   8.5187484
  72.5789286  81.0222156   7.8627520  73.0271793  80.1838145   9.0409001
  81.9433698  72.5073403  15.9226974  82.2235452  71.8396592  16.5487401
  82.7284305  72.7002498  15.4101638  79.7467166  91.6832397   7.4852001
  79.1741133  92.3022584   7.0322473  80.3199960  92.2331758   8.0191923
  85.8142556  80.9291037  19.6698550  86.7659979  81.0289134  19.6910774
  85.6446007  80.1369305  20.1796634  83.8356936  78.0146620  19.8557950
  83.2406868  78.2951633  19.1604439  83.5506632  78.5040521  20.6274692
  82.9664426  91.9669547   8.6160583  83.8995099  91.9015109   8.8193459
  82.8787639  92.8025814   8.1575116  85.5952443  91.2835417   5.5764531
  85.5166074  90.9495281   6.4700288  86.4162110  91.7757185   5.5756003
  88.2930634  84.1497156  18.7840849  88.2606954  83.2113157  18.9700533
  88.9031258  84.2281193  18.0506674  80.1313965  83.0193209   4.8268053
  81.0773070  82.8899418   4.8956471  79.7528210  82.2807871   5.3037481
  88.4425122  80.9408200  18.8299132  87.9264171  80.1566657  18.6429061
  89.3265071  80.6126917  18.9945652  86.1035849  74.6849215  14.7894945
  85.9060671  74.3764304  15.6738277  86.7135555  75.4110854  14.9192875
  94.1107184  85.2113163  17.9246886  94.8410572  84.9498451  18.4854589
  93.5014129  84.4741885  17.9648954  92.1922481  83.3521026  18.5221337
  91.4655645  83.2176991  17.9137829  91.7769768  83.6597855  19.3278055
  80.0152657  87.0710956  26.2868710  80.9355667  87.2489555  26.4808757
  79.9802240  86.1267001  26.1348409  78.3156882  80.9443186   4.7622938
  77.4088337  80.6476299   4.8385652  78.5932863  80.6473004   3.8957225
  69.2334822  82.2649549  15.2121985  68.9137607  81.4114857  14.9196359
  68.6868251  82.4798127  15.9679952  73.0114730  84.9811990  18.9291491
  73.2300740  85.9129098  18.9479525  73.4240504  84.6219965  19.7146295
  79.9318948  75.4880076  10.9167180  79.1219676  75.1427161  11.2922426
  80.6203365  75.1787619  11.5054791  81.8609496  74.5658122  12.5391476
  82.4140535  74.9853576  13.1981499  82.0979582  73.6393870  12.5814432
  77.8842595  80.5545196  28.3194240  77.7839322  81.5039553  28.2506331
  77.6664137  80.2263435  27.4470310  77.0855667  77.8030121   4.9034918
  77.9474831  78.1285019   5.1630735  77.2706011  77.0161617   4.3907983
  69.1023082  85.8852461  17.1815106  68.4086554  85.4706414  16.6685061
  69.8496073  85.9272997  16.5848525  85.2388303  76.6758648  12.0470141
  84.6586972  77.3343452  11.6648193  84.9724236  75.8535992  11.6357558
  83.6891869  76.0763705  14.2491461  84.1891648  76.1880240  13.4405780
  84.3327477  75.7724758  14.8892269  77.7473865  83.9842335  27.1359302
  77.2640947  84.7842695  27.3423191  77.8334804  83.9950280  26.1826746
  71.0159825  85.8170715  15.0581121  70.9930513  85.9158402  14.1063004
  71.3260461  86.6635865  15.3798287  73.6747203  87.8746870  19.1727736
  74.6290456  87.8430812  19.1057667  73.4759726  87.4137493  19.9877962
  74.2646585  86.4447986  21.7398533  75.0839474  86.9392064  21.7633371
  74.5383393  85.5279954  21.7116101  84.0213181  78.8358738  11.1026489
  83.1339036  79.1208389  10.8846684  84.4367170  78.6752501  10.2553766
  87.3727717  78.8605259  14.8180828  88.1488107  79.3501711  15.0905445
  86.6475851  79.2863313  15.2752698  89.8100276  79.5732878  15.8754769
  90.4044767  79.3328614  15.1648077  89.8826860  78.8540009  16.5028305
  72.0297432  93.4166489  16.1897934  71.8951900  92.6566890  15.6235932
  71.6129494  94.1407389  15.7226722  83.1656395  88.6003413   5.1974509
  83.8692245  88.8053415   5.8132165  82.4419043  89.1680174   5.4623592
  83.9954205  84.3513274  11.3176779  83.9389406  84.8081825  10.4784411
  84.5482547  83.5903958  11.1399622  87.8059011  80.1403006  12.1426899
  87.5495945  79.7399641  12.9735106  87.1811879  80.8546800  12.0177038
  92.1171349  82.8799079  14.6498190  91.5570907  82.9492268  15.4229752
  91.5114852  82.7040064  13.9297686  75.1866557  94.3135806  16.4016376
  75.0698942  95.2581239  16.2995067  74.3659004  94.0109368  16.7902175
  85.0743092  89.0385942   7.2472969  85.9088696  88.6067140   7.0650444
  84.9127435  88.8667955   8.1749863  84.7288984  85.5418055   8.6129308
  84.6737788  85.3762327   7.6717752  84.1035039  86.2494088   8.7691498
  69.5181499  80.7786119  22.4390730  70.1640363  80.2685073  22.9277956
  69.3098650  81.5154801  23.0134156  82.0434891  87.8466967  27.9382871
  82.9126051  88.0207619  27.5769506  81.5641643  88.6661384  27.8158600
  78.0385110  75.0426164   8.1914627  78.0263779  75.9868004   8.3482898
  78.9308532  74.8596310   7.8974088  76.2121072  94.9664068  19.6172305
  77.1148318  94.9987678  19.9338800  75.9858442  94.0364519  19.6318640
  77.9674674  93.7195055  16.2782383  77.0170305  93.7196916  16.1646756
  78.2707160  92.9727789  15.7618418  81.8537229  71.6368941  12.4460563
  81.0869625  71.0827427  12.5917246  82.2647934  71.7090810  13.3074715
  73.8578990  77.9253737  26.5365745  74.7210452  77.5690541  26.7469069
  73.2844401  77.5867631  27.2241149  93.7027367  99.5555593  17.3428146
  94.3405777  99.4362340  16.6391486  93.5848210 100.5036437  17.4016098
  90.5117073  99.5083021  17.2789670  90.1735585  99.3924086  16.3910205
  91.3806842  99.1074186  17.2590677  86.3703889 101.3618497  13.2686561
  85.8068754 101.2708434  12.5002849  86.2556284 100.5418402  13.7489054
  90.9936856 100.6617873  23.2375876  90.9825497 100.2670671  22.3656380
  91.1557496  99.9283945  23.8309647  83.9168321 102.8569689  16.1070782
  84.7089613 102.5160514  15.6917081  84.1564971 102.9664664  17.0272935
  87.7144118 103.4454985  22.1855060  87.4233983 104.3500615  22.0701726
  88.3501102 103.4871512  22.8999129  88.6400324 100.8231833  18.7756420
  89.2363897 100.5987855  18.0613382  88.6975296 100.0816579  19.3781867
  93.2568636  97.2807047  14.4181354  94.0431725  96.8626470  14.0671771
  93.5207340  98.1853139  14.5863002  98.6577063  97.2182280  15.3214332
  99.3902235  96.6481497  15.5552162  97.9016418  96.8303880  15.7620838
  90.2753182  99.6409521  12.5177675  89.9111390  99.1140142  13.2290596
  91.1320298  99.2507991  12.3444160  96.1802483  90.9303854  19.7808941
  95.8485808  91.7999265  19.5570156  95.5848096  90.6140138  20.4602971
  92.6734003 103.1316400  19.1804854  92.3734726 104.0341439  19.0720661
  92.3285062 102.8648583  20.0326006  86.1246484  99.5830197  15.2141558
  85.1996981  99.4506411  15.4219250  86.3730897 100.3624416  15.7111500
  96.0731146  95.6498940  16.8602291  95.1648024  95.5814349  16.5661052
  96.0218742  96.1270885  17.6884116  83.4855295  99.2263470  16.0485347
  83.6147676  99.4797949  16.9624759  82.8052746  99.8191178  15.7290002
  90.1472012  97.0688586  24.8037188  89.3705346  97.6282506  24.7940053
  90.7862575  97.5545369  25.3252058  97.9392793  93.8515379  18.6380165
  97.2967173  94.1447912  17.9919959  97.4347721  93.7368299  19.4433361
  88.4018384  99.8774039  24.3655155  89.1433069 100.4159083  24.0889979
  87.6955370 100.5040328  24.5226707  93.8773724 102.0203180  22.9627317
  94.2857080 101.5785590  22.2181949  93.1550986 101.4455807  23.2161510
  90.2304794  96.9575786  20.3360874  91.0765989  97.3815200  20.4795523
  90.1703432  96.3009411  21.0299437  94.2002539 102.5804370  16.7179606
  93.5711401 102.7450084  16.0155673  93.8128201 102.9945980  17.4890570
  93.3804239  94.6180155  21.9942047  93.1365171  95.3722215  21.4576323
  93.6564170  94.9965502  22.8289294  95.3342702 101.1618767  20.6719313
  95.5459598 101.8050527  19.9953694  95.2872451 100.3281084  20.2041243
  92.9368931  93.7736588  17.5755885  92.0753410  94.0717841  17.8672623
  92.9631366  93.9906987  16.6436918  89.7530501 102.3178778  13.9829691
  90.2168846 102.5966481  13.1934313  89.4887299 101.4162223  13.8002781
  86.6454582 101.8650260  16.9209454  87.2155939 102.2937528  16.2826938
  87.2362694 101.5832845  17.6193640  88.6899387  98.4401931  10.7919256
  89.3923430  98.8922974  11.2593182  88.3580015  97.7985750  11.4199149
  87.1379748  97.0313687  25.1670465  86.5078409  97.7129968  25.4005862
  87.0315836  96.9196769  24.2223603  82.4324721  96.6985483  16.0936389
  81.6423775  96.9543012  15.6176500  82.9235968  97.5133821  16.1988430
  96.4488530 104.0390723  18.8441670  97.2705974 103.6370910  18.5624352
  96.4450933 103.9358957  19.7957786  84.3839466  97.0630063  13.0519866
  83.5870629  97.1748757  13.5703362  84.1565058  97.4016715  12.1860757
  90.2145134 103.5874766  21.0002381  90.2789566 104.0495173  21.8360553
  89.5056058 102.9572131  21.1284691  80.7162424  96.9515974  18.5251380
  80.9670462  97.8362984  18.7908956  81.2521972  96.7720575  17.7526472
  86.4160491  91.3334453  27.5295716  86.0227437  90.7800652  28.2043360
  87.2326631  91.6445032  27.9202234  83.3822549 102.7718311  11.4409286
  83.8947069 103.5661562  11.5914851  84.0345262 102.0744602  11.3742888
  89.3328452  92.7492332  25.1215973  90.0738165  93.3499485  25.0420435
  89.5646375  92.0069970  24.5634015  84.4769790  97.9348700  23.3994202
  84.3623305  97.0333957  23.7001301  83.6214308  98.1812396  23.0479019
  91.5561628 105.8766440  24.9981703  91.1125482 105.0902818  24.6802608
  92.2178841 106.0645590  24.3325594  86.3148749 107.4062241  19.5242382
  86.8656174 107.2779305  18.7519376  85.4760225 107.7057130  19.1737274
  93.6542866 106.1569240  23.0263104  93.6361341 106.9778121  22.5343374
  94.5762786 106.0323315  23.2513246  90.1115920 103.6713369  23.8686613
  90.6444257 102.9101657  23.6385921  89.5830001 103.3787021  24.6110767
  93.2785615  88.7773435  19.3980254  92.9349884  89.6675077  19.3219365
  93.6464577  88.5875093  18.5349839  81.3471465 101.1006966  12.2168857
  82.1846687 101.5103974  12.0002564  81.5249733 100.1606408  12.1869051
  90.8283009  93.6131747  12.9637928  89.9724605  93.2238598  12.7843567
  91.2409960  93.6923708  12.1037713  92.3582155  91.1478090  17.3629488
  91.8546951  91.1108226  16.5497293  92.6512762  92.0570833  17.4226144
  88.6025041  91.2316820  16.3695669  89.4678038  91.0359629  16.0101559
  88.6702550  91.0027172  17.2965026  96.4561479 100.9948382  16.4972471
  95.7985153 101.6847644  16.5852600  97.2601878 101.3844814  16.8406457
  86.2087360  93.4619028  13.7412036  86.7831112  93.2394210  13.0085229
  86.7958343  93.5307723  14.4940638  95.2666937  99.3492755  14.5476413
  95.7798819  99.9822747  15.0498123  95.9168161  98.7493950  14.1819773
  88.5110028  90.3360277  12.4687106  87.8574440  90.0209294  11.8443720
  88.4690502  89.7136017  13.1946929  91.7447768  96.8242210  16.7934753
  90.8270330  97.0457157  16.6356441  92.1607912  96.8988521  15.9346461
  94.9761653  95.2590742  13.9056223  94.2384410  94.7468129  14.2366465
  95.2288427  94.8191124  13.0939500  95.0773281  88.0366994  14.4997992
  95.3832157  87.1764358  14.2123907  95.8025885  88.6284615  14.2996986
  81.3697637  98.4397681  12.8879590  81.1722036  97.8467042  12.1630657
  80.8144301  98.1349891  13.6055529  89.3494360  98.3320787  15.0074183
  89.4042970  97.3794624  14.9316660  88.5385562  98.4880227  15.4915482
  87.2886720  96.9497847  12.7664562  86.4754586  97.2492018  13.1729754
  87.7845714  96.5553536  13.4839044  92.8860932  97.4139672  21.5979456
  93.2410320  97.6411145  22.4573922  93.5333063  97.7458048  20.9756711
  86.7800795  94.5216203  18.3825797  87.4200174  94.3804962  17.6848760
  85.9478326  94.2350716  18.0064399  87.5561099 103.8218633  14.4960790
  88.3501697 103.3268953  14.2943364  86.8452791 103.2936496  14.1328495
  92.3755943 106.2036729  18.8473157  92.4292966 106.7727665  19.6150873
  91.5070725 106.3738614  18.4827194  83.8643862  97.9661715  10.5720542
  82.9341450  97.9046170  10.7890504  83.9601334  97.4437668   9.7757183
  83.7829411  94.4916528  13.1598784  84.0436229  95.4061861  13.0507944
  84.6046584  94.0240970  13.3095397  85.2554337  95.9054285  20.3297608
  85.9277390  95.6971647  19.6810257  84.4284123  95.7076371  19.8902841
  99.5043598 102.6458335  19.8472942  99.6979488 103.5504146  20.0932217
  99.4044216 102.1865754  20.6811527  91.1579909  92.5316226  22.3463269
  90.5107824  93.2306175  22.2527746  91.9280924  92.9652370  22.7139517
  94.5658707 102.7965078  25.4213823  94.4144213 102.5675630  24.5043906
  94.5563386 103.7535679  25.4345168  91.3344043 100.3696991  20.4060089
  92.2636103 100.5208150  20.2329056  90.9135073 100.4581012  19.5508735
  90.1332375 104.3947655  18.1758627  89.9943461 104.0266440  19.0484565
  89.3446971 104.9095295  18.0042584  91.6837590 103.7729258  15.5647464
  91.3487423 103.7330028  16.4605114  91.1841536 103.1073974  15.0917875
  85.6581834  99.1796888  21.0900046  85.5201632  98.4477127  21.6911585
  86.5686757  99.0905788  20.8084233  88.2864135  98.8916847  20.5783725
  88.9963753  98.2510039  20.5370344  88.2433443  99.1429742  21.5009906
  96.2750913 105.8284201  23.4990304  96.2163459 105.1443421  22.8320887
  96.6770432 106.5703191  23.0470930  86.9993069  95.8782065  22.3979365
  86.4630426  95.4272804  23.0500961  86.4109777  96.0127974  21.6549829
  96.2768321 103.7923784  21.7304284  95.3895099 103.4549706  21.8530683
  96.8466872 103.0606816  21.9673049  77.9297468 100.1247876  15.0547335
  78.6168508  99.8109606  14.4668351  77.7745596 101.0289241  14.7814587
  82.7332190  95.0138073  19.4832359  82.6490379  94.4063742  18.7482769
  81.9114896  95.5047091  19.4841855  89.8069474 108.4525237  18.6965527
  89.7339645 109.2580208  19.2084832  89.3646867 108.6517203  17.8713549
  92.9055904  93.4991636  14.8502554  93.4024603  92.7461599  14.5303624
  92.1342885  93.5355953  14.2845764 100.7585661  99.2032002  16.4920846
 100.7475537 100.0856717  16.1214779  99.8903041  98.8503553  16.2975383
  92.2668157 108.3512071  20.8523686  92.9796130 108.9859536  20.7799587
  91.7758186 108.4475937  20.0363688  89.4890872  95.6409019  14.5774239
  89.1188660  95.0880060  15.2655144  89.9849965  95.0367153  14.0249239
  87.3180071 106.1006514  21.6729257  88.0189531 106.7342997  21.8258651
  86.8475186 106.4421246  20.9124896  95.3474899  90.4661230  16.9981913
  94.4337978  90.6965457  17.1664120  95.7768000  90.5499674  17.8495945
  95.1181357  98.6551122  19.4981807  94.4652807  98.9027029  18.8434260
  95.4961737  97.8415260  19.1644284  91.1668930  99.3970933  25.9847844
  90.4909567  99.2965062  26.6550219  91.9896564  99.2410147  26.4483841
  82.9147789 105.6342869  18.6060359  83.5001226 104.8886557  18.7388264
  82.7172628 105.9446826  19.4897023  77.5065444  98.2048470  17.3264803
  77.5449543  97.6712060  18.1201921  77.0005737  97.6783675  16.7075780
  89.9091713 110.7037860  20.2205460  90.4610021 110.8669482  20.9854545
  90.2497906 111.2942298  19.5485485  84.8856206  93.0513010  20.8227345
  84.9497533  93.9127841  20.4104743  84.8223326  92.4387012  20.0899703
  84.3608479  95.1236143  24.4700379  84.9880517  94.7413220  25.0837903
  83.5036398  94.9050345  24.8356072  94.7602587 105.5299118  26.0754115
  95.3042491 106.1429076  25.5809069  94.1789432 106.0878696  26.5921128
  81.1374021  96.9312572  10.4018734  81.4327462  96.0223250  10.3485788
  80.2362057  96.9100311  10.0799736  84.6668268  95.0068568  16.3846283
  83.9454854  95.6204536  16.2453756  85.4561524  95.5426333  16.3062929
  95.1095009 106.4528856  18.8348692  94.1625344 106.3334207  18.7627019
  95.4577782 105.5651354  18.9174954  87.4694582  92.3422995  22.6586934
  87.9928984  92.5885291  23.4213244  87.2506915  93.1743030  22.2390072
  82.8661863  94.6126669  10.5258059  82.5374569  93.7324048  10.3433165
  83.2201234  94.5574338  11.4134448  85.9803686  94.8999639  10.8933537
  86.3199759  95.4285560  10.1712145  86.4275807  95.2380045  11.6692103
  88.6747127  93.2836690  20.3436605  88.3343947  92.4844503  20.7457285
  87.9686133  93.5838401  19.7713438  89.3263599  90.3686002  18.7963928
  90.1489668  89.8946481  18.6742818  89.5701662  91.1476486  19.2962614
  87.9671833  93.3974261   9.0926830  88.6880196  93.7755514   8.5890546
  87.3437137  94.1163138   9.1961808  92.1102956  94.1019410  10.0285162
  92.3266571  94.9844048   9.7273990  91.6297023  93.7105623   9.2990804
  86.8502178  97.0605123  16.6055906  86.7046758  97.3745426  17.4980188
  86.3727381  97.6790023  16.0526805  88.7098560  94.0507671  16.6536796
  88.6960129  93.1548764  16.3169094  89.4270989  94.0578335  17.2875082
  90.5624691  94.4845011  18.6989923  90.3042469  95.4062082  18.6974254
  90.0309732  94.0875446  19.3890388  81.3247840  99.6010467  19.5443568
  80.7801308 100.3770275  19.6763842  82.2027190  99.9481272  19.3862689
  88.1135456  92.9322051  11.9224366  88.2351368  92.0038697  12.1215254
  87.8237499  92.9460737  11.0102682  90.9826647  90.6176962  15.0591086
  91.0048344  90.6816295  14.1043066  91.3994706  89.7781470  15.2531592
  82.1113862  98.7280364  22.4373725  81.3695598  98.8762999  23.0238355
  81.7906606  98.9888629  21.5740474  90.0557524 108.2696342  22.2354115
  90.3644651 108.0245489  23.1076814  90.8533006 108.4742980  21.7472985
  82.5570475 106.6145792  14.4684119  83.3828495 106.3149564  14.0882763
  82.2064527 105.8453415  14.9173908  87.5252008 105.9672261  16.5381793
  86.9032018 105.3042966  16.2384021  88.1956875 105.9933392  15.8555441
  80.7579080 104.5332119  15.4273053  79.9210989 104.1054293  15.2457054
  80.7302726 104.7264562  16.3643844  87.5976536  94.4454049  26.1314299
  87.6464691  95.3216171  25.7492068  88.1399050  93.9031442  25.5585942
  98.0831382 104.9895172  25.4115436  97.2926925 104.9719311  24.8719935
  97.8464736 105.5283466  26.1664472  98.2029257 101.8387638  22.7248164
  98.2527262 101.6737646  23.6663687  98.0943180 100.9714897  22.3346045
  95.4933019  97.8218566  24.0407471  96.3942882  97.6825031  23.7491469
  95.5680994  97.9873021  24.9805649  89.8275824  95.1985421  22.8860657
  88.9579134  95.4918987  22.6143246  90.0635305  95.7825866  23.6067921
  99.7047453 104.2584580  22.9690186  99.4132262 104.6214560  23.8053647
  99.0919585 103.5451588  22.7903518  97.9534642  99.3817194  21.4370244
  98.4288763  99.5744841  20.6289095  97.0300207  99.4376380  21.1913628
  84.8418148 100.5441362  11.0201322  84.5964190  99.6403692  11.2181532
  85.0114063 100.5458512  10.0780800  92.5314858  91.4165038  20.4026078
  93.0496802  92.1526065  20.0772566  92.1769991  91.7229031  21.2372837
  84.1113796  96.2769719   8.5187484  83.4183041  96.3514074   7.8627520
  83.8665548  95.5130063   9.0409001  92.7827452  87.8365320  15.9226974
  93.0629206  87.1688510  16.5487401  93.5678059  88.0294416  15.4101638
  96.6536311  96.2582954  19.6698550  97.6053734  96.3581052  19.6910774
  96.4839761  95.4661223  20.1796634  94.6750690  93.3438538  19.8557950
  94.0800622  93.6243550  19.1604439  94.3900387  93.8332439  20.6274692
  99.1324388  99.4789074  18.7840849  99.1000709  98.5405075  18.9700533
  99.7425012  99.5573111  18.0506674  99.2818877  96.2700118  18.8299132
  98.7657926  95.4858574  18.6429061 100.1658826  95.9418834  18.9945652
  96.9429604  90.0141133  14.7894945  96.7454425  89.7056221  15.6738277
  97.5529309  90.7402772  14.9192875 104.9500938 100.5405081  17.9246886
 105.6804327 100.2790369  18.4854589 104.3407884  99.8033803  17.9648954
 103.0316235  98.6812944  18.5221337 102.3049399  98.5468909  17.9137829
 102.6163522  98.9889772  19.3278055  90.8546412 102.4002873  26.2868710
  91.7749421 102.5781472  26.4808757  90.8195995 101.4558919  26.1348409
  80.0728577  97.5941467  15.2121985  79.7531361  96.7406775  14.9196359
  79.5262005  97.8090045  15.9679952  83.8508484 100.3103908  18.9291491
  84.0694494 101.2421016  18.9479525  84.2634258  99.9511882  19.7146295
  90.7712702  90.8171993  10.9167180  89.9613431  90.4719078  11.2922426
  91.4597119  90.5079537  11.5054791  92.7003251  89.8950040  12.5391476
  93.2534289  90.3145493  13.1981499  92.9373337  88.9685788  12.5814432
  88.7236350  95.8837114  28.3194240  88.6233077  96.8331471  28.2506331
  88.5057892  95.5555353  27.4470310  79.9416837 101.2144378  17.1815106
  79.2480308 100.7998331  16.6685061  80.6889828 101.2564915  16.5848525
  96.0782058  92.0050565  12.0470141  95.4980727  92.6635369  11.6648193
  95.8117990  91.1827910  11.6357558  94.5285624  91.4055623  14.2491461
  95.0285402  91.5172157  13.4405780  95.1721232  91.1016676  14.8892269
  88.5867620  99.3134253  27.1359302  88.1034702 100.1134613  27.3423191
  88.6728559  99.3242197  26.1826746  81.8553579 101.1462632  15.0581121
  81.8324268 101.2450319  14.1063004  82.1654216 101.9927783  15.3798287
  84.5140957 103.2038787  19.1727736  85.4684211 103.1722730  19.1057667
  84.3153481 102.7429411  19.9877962  85.1040339 101.7739903  21.7398533
  85.9233228 102.2683982  21.7633371  85.3777147 100.8571871  21.7116101
  94.8606936  94.1650656  11.1026489  93.9732791  94.4500306  10.8846684
  95.2760925  94.0044419  10.2553766  98.2121472  94.1897177  14.8180828
  98.9881862  94.6793629  15.0905445  97.4869606  94.6155231  15.2752698
 100.6494030  94.9024796  15.8754769 101.2438521  94.6620532  15.1648077
 100.7220614  94.1831926  16.5028305  82.8691186 108.7458407  16.1897934
  82.7345654 107.9858808  15.6235932  82.4523248 109.4699307  15.7226722
  86.0260312 109.6427724  16.4016376  85.9092696 110.5873156  16.2995067
  85.2052758 109.3401285  16.7902175  80.3575254  96.1078037  22.4390730
  81.0034117  95.5976991  22.9277956  80.1492405  96.8446719  23.0134156
  92.8828646 103.1758885  27.9382871  93.7519805 103.3499537  27.5769506
  92.4035397 103.9953301  27.8158600  88.8778864  90.3718082   8.1914627
  88.8657534  91.3159922   8.3482898  89.7702286  90.1888227   7.8974088
  87.0514826 110.2955986  19.6172305  87.9542073 110.3279596  19.9338800
  86.8252196 109.3656437  19.6318640  92.6930984  86.9660858  12.4460563
  91.9263379  86.4119345  12.5917246  93.1041689  87.0382727  13.3074715
  84.6972745  93.2545654  26.5365745  85.5604206  92.8982459  26.7469069
  84.1238155  92.9159549  27.2241149 100.9865767 112.3980504  24.8037188
 100.2099101 112.9574424  24.7940053 101.6256330 112.8837286  25.3252058
  97.9773503 112.3605605  25.1670465  97.3472163 113.0421886  25.4005862
  97.8709591 112.2488687  24.2223603  97.2554245 106.6626371  27.5295716
  96.8621191 106.1092569  28.2043360  98.0720386 106.9736949  27.9202234
 100.1722206 108.0784250  25.1215973 100.9131920 108.6791403  25.0420435
 100.4040129 107.3361888  24.5634015  95.3163544 113.2640617  23.3994202
  95.2017060 112.3625874  23.7001301  94.4608062 113.5104314  23.0479019
 101.9973663 107.8608144  22.3463269 101.3501578 108.5598093  22.2527746
 102.7674679 108.2944287  22.7139517  97.8386823 111.2073983  22.3979365
  97.3024180 110.7564721  23.0500961  97.2503532 111.3419892  21.6549829
  93.5725944 110.3429990  19.4832359  93.4884133 109.7355660  18.7482769
  92.7508651 110.8339009  19.4841855 102.0062685 114.7262851  25.9847844
 101.3303322 114.6256980  26.6550219 102.8290318 114.5702064  26.4483841
  95.7249961 108.3804928  20.8227345  95.7891287 109.2419759  20.4104743
  95.6617081 107.7678929  20.0899703  95.2002233 110.4528060  24.4700379
  95.8274272 110.0705138  25.0837903  94.3430152 110.2342262  24.8356072
  98.3088336 107.6714912  22.6586934  98.8322738 107.9177209  23.4213244
  98.0900670 108.5034947  22.2390072  92.9507616 114.0572281  22.4373725
  92.2089352 114.2054917  23.0238355  92.6300360 114.3180547  21.5740474
  98.4370290 109.7745966  26.1314299  98.4858446 110.6508089  25.7492068
  98.9792805 109.2323359  25.5585942 100.6669579 110.5277339  22.8860657
  99.7972888 110.8210905  22.6143246 100.9029059 111.1117784  23.6067921
  99.5630104 111.2129031  28.3194240  99.4626831 112.1623388  28.2506331
  99.3451646 110.8847270  27.4470310  99.4261374 114.6426170  27.1359302
  98.9428456 115.4426530  27.3423191  99.5122313 114.6534115  26.1826746
  91.1969008 111.4369955  22.4390730  91.8427872 110.9268909  22.9277956
  90.9886159 112.1738636  23.0134156  95.5366499 108.5837572  26.5365745
  96.3997961 108.2274377  26.7469069  94.9631910 108.2451467  27.2241149
  59.0380365  36.8952809  11.7227010  58.5944220  36.1089188  11.4047914
  59.6997579  37.0831960  11.0570901  61.1361604  37.1755609   9.7508411
  61.1180079  37.9964490   9.2588680  62.0581524  37.0509685   9.9758552
  57.5934658  34.6899739  10.5931919  58.1262995  33.9288027  10.3631227
  57.0648739  34.3973391  11.3356074  66.9862336  33.6644705   6.5718249
  67.1798226  34.5690515   6.8177523  66.8862954  33.2052124   7.4056834
  62.0477444  33.8151448  12.1459129  61.8962951  33.5861999  11.2289213
  62.0382124  34.7722049  12.1590474  63.7569651  36.8470570  10.2235611
  63.6982197  36.1629790   9.5566194  64.1589169  37.5889560   9.7716237
  63.7587058  34.8110154   8.4549591  62.8713837  34.4736076   8.5775990
  64.3285609  34.0793185   8.6918356  59.7486895  39.3698440   7.5768993
  60.4614867  40.0045905   7.5044894  59.2576924  39.4662306   6.7608994
  58.6487668  30.4157302  12.7093151  57.9728305  30.3151432  13.3795526
  59.4715302  30.2596516  13.1729148  57.3910451  41.7224230   6.9450767
  57.9428759  41.8855851   7.7099852  57.7316644  42.3128668   6.2730792
  62.2421325  36.5485487  12.7999421  62.7861229  37.1615446  12.3054376
  61.6608170  37.1065066  13.3166434  57.5376262  39.2882711   8.9599421
  57.8463388  39.0431858   9.8322121  58.3351744  39.4929350   8.4718291
  65.5650119  36.0081541  12.1360743  64.7745663  35.9905680  11.5965242
  65.3283474  36.5469835  12.8909779  65.6847994  32.8574008   9.4493471
  65.7345999  32.6924015  10.3908994  65.5761918  31.9901267   9.0591352
  62.9751757  28.8404936  10.7652778  63.8761620  28.7011401  10.4736776
  63.0499731  29.0059391  11.7050955  67.1866191  35.2770949   9.6935493
  66.8951000  35.6400930  10.5298954  66.5738323  34.5637958   9.5148825
  58.3365150  33.4189243  13.0114017  59.2568159  33.5967842  13.2054063
  58.3014733  32.4745288  12.8593716  56.0686358  30.3320622  13.8604609
  55.5853439  31.1320982  14.0668498  56.1547297  30.3428567  12.9072053
  60.3647384  34.1945254  14.6628178  61.2338543  34.3685906  14.3014813
  59.8854135  35.0139671  14.5403907  72.0239859  45.9033880   4.0673452
  72.6618269  45.7840628   3.3636792  71.9060702  46.8514724   4.1261404
  68.8329566  45.8561308   4.0034977  68.4948077  45.7402373   3.1155512
  69.7019334  45.4552473   3.9835983  69.3149349  47.0096160   9.9621183
  69.3037989  46.6148958   9.0901686  69.4769988  46.2762233  10.5554954
  62.2380813  49.2047976   2.8316088  63.0302105  48.8638801   2.4162388
  62.4777463  49.3142951   3.7518242  70.2715940  51.3767752  -4.6953667
  69.6203920  51.9621833  -5.0819653  71.0660303  51.9073947  -4.6358630
  66.0356610  49.7933272   8.9100367  65.7446476  50.6978903   8.7947033
  66.6713594  49.8349799   9.6244436  66.9612817  47.1710120   5.5001726
  67.5576389  46.9466143   4.7858689  67.0187788  46.4294866   6.1027174
  71.5781128  43.6285334   1.1426660  72.3644217  43.2104757   0.7917077
  71.8419832  44.5331426   1.3108309  76.9789555  43.5660567   2.0459639
  77.7114727  42.9959784   2.2797468  76.2228911  43.1782168   2.4866144
  68.5965675  45.9887809  -0.7577019  68.2323882  45.4618430  -0.0464097
  69.4532791  45.5986278  -0.9310533  74.5014975  37.2782141   6.5054247
  74.1698300  38.1477552   6.2815462  73.9060589  36.9618425   7.1848278
  70.9946495  49.4794687   5.9050160  70.6947218  50.3819726   5.7965967
  70.6497554  49.2126871   6.7571313  64.4458976  45.9308484   1.9386865
  63.5209473  45.7984698   2.1464556  64.6943390  46.7102703   2.4356807
  74.3943639  41.9977227   3.5847598  73.4860516  41.9292636   3.2906359
  74.3431234  42.4749172   4.4129423  61.8067787  45.5741758   2.7730654
  61.9360169  45.8276237   3.6870065  61.1265239  46.1669466   2.4535309
  65.9767275  56.2439008  -1.1278872  65.8991304  57.1946833  -1.0490392
  65.3728918  55.8984880  -0.4703946  68.4684504  43.4166873  11.5282495
  67.6917839  43.9760793  11.5185359  69.1075068  43.9023656  12.0497365
  76.2605285  40.1993666   5.3625471  75.6179665  40.4926199   4.7165266
  75.7560214  40.0846586   6.1678668  66.7230877  46.2252326  11.0900462
  67.4645561  46.7637370  10.8135285  66.0167862  46.8518615  11.2472014
  72.1986216  48.3681467   9.6872623  72.6069572  47.9263877   8.9427256
  71.4763478  47.7934094   9.9406816  68.5517286  43.3054074   7.0606180
  69.3978482  43.7293487   7.2040829  68.4915924  42.6487698   7.7544743
  72.5215031  48.9282658   3.4424912  71.8923893  49.0928372   2.7400980
  72.1340693  49.3424267   4.2135876  76.4004263  49.8637095   0.7969276
  75.7155301  50.2435997   0.2466309  76.4848112  50.4732422   1.5301224
  71.7016732  40.9658442   8.7187354  71.4577664  41.7200503   8.1821630
  71.9776662  41.3443790   9.5534601  73.6555195  47.5097054   7.3964619
  73.8672090  48.1528814   6.7199001  73.6084943  46.6759371   6.9286550
  71.2581423  40.1214875   4.3001192  70.3965903  40.4196129   4.5917929
  71.2843858  40.3385274   3.3682224  68.0742993  48.6657066   0.7074997
  68.5381338  48.9444769  -0.0820380  67.8099791  47.7640510   0.5248088
  64.9667074  48.2128547   3.6454761  65.5368431  48.6415816   3.0072245
  65.5575186  47.9311132   4.3438946  65.4592240  43.3791975  11.8915772
  64.8290901  44.0608255  12.1251169  65.3528328  43.2675056  10.9468910
  74.7701022  50.3869010   5.5686977  75.5918466  49.9849197   5.2869658
  74.7663425  50.2837244   6.5203093  68.5357626  49.9353053   7.7247687
  68.6002058  50.3973460   8.5605859  67.8268550  49.3050418   7.8529997
  59.0374916  43.2994261   5.2496687  59.2882954  44.1841271   5.5154263
  59.5734464  43.1198863   4.4771779  82.8607016  46.7307758   1.9171948
  82.1070724  46.1615156   1.7615953  82.9954557  46.6970423   2.8642583
  68.2505644  51.6021161  -2.4073332  68.1151318  52.4472696  -1.9788485
  68.7915456  51.8040438  -3.1707399  64.7372983  37.6812740  14.2541023
  64.3439929  37.1278939  14.9288667  65.5539124  37.9923319  14.6447540
  63.5129926  52.2362355   0.2477346  63.6896554  53.1580320   0.0598330
  64.3086759  51.9220774   0.6771726  67.6540944  39.0970620  11.8461279
  68.3950658  39.6977773  11.7665742  67.8858867  38.3548257  11.2879322
  62.7982282  44.2826987  10.1239509  62.6835797  43.3812244  10.4246608
  61.9426800  44.5290684   9.7724326  69.8774120  52.2244727  11.7227010
  69.4337974  51.4381106  11.4047914  70.5391334  52.4123878  11.0570901
  64.6361241  53.7540529   6.2487688  65.1868666  53.6257592   5.4764682
  63.7972717  54.0535418   5.8982581  71.9755358  52.5047527   9.7508411
  71.9573833  53.3256408   9.2588680  72.8975278  52.3801602   9.9758552
  68.4328412  50.0191657  10.5931919  68.9656749  49.2579945  10.3631227
  67.9042493  49.7265308  11.3356074  71.5998107  35.1251722   6.1225561
  71.2562377  36.0153364   6.0464672  71.9677070  34.9353380   5.2595146
  70.6794648  37.4956378   4.0874794  70.1759443  37.4586513   3.2742600
  70.9725254  38.4049120   4.1471451  76.5382664  47.8692688  -3.4348830
  75.7612107  47.5303848  -3.8793668  77.2174145  47.8745311  -4.1093865
  69.7981125  49.1477649  -1.8949269  69.2702486  48.4130409  -2.2076031
  69.2968628  49.9252325  -2.1409300  74.7773971  47.3426669   3.2217778
  74.1197645  48.0325931   3.3097906  75.5814370  47.7323101   3.5651764
  73.5879430  45.6971042   1.2721719  74.1011311  46.3301034   1.7743429
  74.2380654  45.0972238   0.9065079  70.8501804  55.6755366  -5.9717609
  70.1763503  55.9787063  -5.3632652  71.2367626  56.4784447  -6.3212152
  70.0660261  43.1720498   3.5180060  69.1482822  43.3935445   3.3601748
  70.4820404  43.2466808   2.6591767  70.8495308  44.5711913  -1.3517260
  71.5967127  45.0833311  -1.6610138  71.1186898  44.2495966  -0.4912866
  74.3541226  50.6777044  -0.5999138  73.9003553  49.8367954  -0.5433947
  73.7235193  51.3138442  -0.2624358  73.2974145  41.6069030   0.6301530
  72.5596902  41.0946416   0.9611772  73.5500919  41.1669411  -0.1815194
  72.7974165  52.5153540   0.3350680  73.0897140  53.0758597  -0.3836954
  73.3072786  52.8082101   1.0903839  67.6706853  44.6799075   1.7319490
  67.7255462  43.7272911   1.6561966  66.8598055  44.8358514   2.2160788
  67.7607790  53.2933891   1.4244133  67.7183969  53.5194738   0.4952665
  68.6770489  53.0597266   1.5729935  71.2073424  43.7617959   8.3224763
  71.5622812  43.9889432   9.1819228  71.8545555  44.0936336   7.7002018
  76.9371161  46.8836395  -0.9725908  76.7989060  47.0737991  -1.9004719
  76.5807380  47.6455778  -0.5157857  65.1013287  40.8694490   5.1071104
  65.7412667  40.7283249   4.4094067  64.2690818  40.5829003   4.7309706
  76.9640541  48.9512922   4.0385363  77.3977047  48.8588211   4.8868417
  77.6772121  48.9270422   3.4005379  65.8773591  50.1696920   1.2206096
  66.6714190  49.6747241   1.0188671  65.1665284  49.6414784   0.8573802
  70.6968436  52.5515016   5.5718464  70.7505458  53.1205952   6.3396180
  69.8283217  52.7216901   5.2072501  63.5766829  42.2532572   7.0542915
  64.2489882  42.0449934   6.4055564  62.7496616  42.0554658   6.6148147
  77.8256090  48.9936622   6.5718249  78.0191980  49.8982433   6.8177523
  77.7256708  48.5344042   7.4056834  69.4792401  38.8794513   9.0708576
  68.8320316  39.5784463   8.9773052  70.2493416  39.3130657   9.4384824
  72.8871199  49.1443365  12.1459129  72.7356705  48.9153917  11.2289213
  72.8775878  50.1013967  12.1590474  69.6556535  46.7175278   7.1305396
  70.5848595  46.8686438   6.9574363  69.2347565  46.8059299   6.2754042
  68.4544867  50.7425942   4.9003933  68.3155953  50.3744727   5.7729871
  67.6659463  51.2573582   4.7287891  69.0493019  55.8435039  -3.7570530
  69.2244775  55.3723082  -2.9424908  68.3625807  56.4700805  -3.5289270
  70.0050082  50.1207545   2.2892771  69.6699915  50.0808315   3.1850421
  69.5054028  49.4552261   1.8163181  63.9794326  45.5275175   7.8145352
  63.8414124  44.7955414   8.4156891  64.8899250  45.4384075   7.5329540
  66.6076627  45.2395134   7.3029032  67.3176245  44.5988327   7.2615650
  66.5645935  45.4908029   8.2255213  74.5963406  52.1762488  10.2235611
  74.5375952  51.4921708   9.5566194  74.9982924  52.9181478   9.7716237
  65.3205561  42.2260352   9.1224671  64.7842918  41.7751091   9.7746268
  64.7322269  42.3606261   8.3795136  63.6154104  58.9924402   3.0169330
  63.8550703  59.6242926   3.6948348  62.7723301  58.6412442   3.3034689
  74.5980813  50.1402072   8.4549591  73.7107592  49.8027994   8.5775990
  75.1679364  49.4085103   8.6918356  61.0544682  41.3616360   6.2077666
  60.9702871  40.7542030   5.4728076  60.2327389  41.8525378   6.2087162
  68.1281966  54.8003524   5.4210834  68.0552138  55.6058496   5.9330138
  67.6859359  54.9995490   4.5958855  67.9171746  54.0375294  -1.0686345
  67.1339268  54.5796974  -0.9748120  68.6164491  54.5549274  -0.6692103
  79.0798153  45.5510289   3.2166152  79.0688030  46.4335005   2.8460085
  78.2115533  45.1981840   3.0220689  70.5880650  54.6990358   7.5768993
  71.3008622  55.3337823   7.5044894  70.0970678  54.7954224   6.7608994
  72.3098177  48.6041611  -0.8513716  71.3754455  48.7243073  -1.0209011
  72.4874845  47.7014078  -1.1153706  75.6970728  44.4458930  -0.3163682
  76.1631180  45.2786922  -0.3903379  76.1478229  43.9803912   0.3881577
  65.6392563  52.4484802   8.3974563  66.3402023  53.0821285   8.5503958
  65.1687678  52.7899533   7.6370203  73.7646959  50.7902751  -3.3177530
  74.0406803  50.6759346  -2.4083656  72.8951458  50.3920236  -3.3565356
  73.6687391  36.8139517   3.7227220  72.7550471  37.0443744   3.8909427
  74.0980492  36.8977961   4.5741252  73.4393849  45.0029409   6.2227114
  72.7865300  45.2505316   5.5679567  73.8174229  44.1893547   5.8889591
  70.4001023  55.0389102   0.3255284  70.5823418  54.2210758   0.7883036
  71.2234009  55.2556794  -0.1119826  70.7343189  53.9657287  -2.4129667
  71.2630955  53.4549742  -3.0259505  70.9971408  53.6499818  -1.5484134
  69.4881422  45.7449220  12.7093151  68.8122059  45.6443349  13.3795526
  70.3109056  45.5888434  13.1729148  61.2360281  51.9821157   5.3305666
  61.8213718  51.2364845   5.4633570  61.0385120  52.2925113   6.2142330
  64.0898937  55.0172404   0.3468108  63.4209312  55.5018532  -0.1367851
  63.9511806  55.2641624   1.2611487  68.2304205  57.0516148   6.9450767
  68.7822513  57.2147769   7.7099852  68.5710399  57.6420585   6.2730792
  63.2068698  39.3991297   7.5472652  63.2710025  40.2606128   7.1350049
  63.1435819  38.7865299   6.8145010  62.6820971  41.4714430  11.1945686
  63.3093010  41.0891507  11.8083210  61.8248890  41.2528632  11.5601378
  73.0815080  51.8777405  12.7999421  73.6254983  52.4907363  12.3054376
  72.5001924  52.4356983  13.3166434  71.3672592  54.9998123   3.9314449
  71.2423732  54.1987863   3.4225394  72.0251684  55.4944316   3.4428419
  73.4307501  52.8007143   5.5593999  72.4837836  52.6812494   5.4872326
  73.7790274  51.9129641   5.6420261  65.7907074  38.6901282   9.3832241
  66.3141476  38.9363579  10.1458550  65.5719407  39.5221317   8.9635378
  70.4353934  52.5959859   1.7598351  70.2878897  51.6676567   1.9405921
  71.2607428  52.6179950   1.2755427  74.0388056  53.4188418   2.8463224
  74.9634603  53.2131279   2.7087675  73.8703359  53.1704819   3.7552566
  66.9959619  39.6314977   7.0681911  66.6556440  38.8322790   7.4702591
  66.2898626  39.9316688   6.4958745  67.6476091  36.7164290   5.5209235
  68.4702160  36.2424768   5.3988125  67.8914155  37.4954773   6.0207921
  65.1714670  43.4083410   3.3301213  65.0259251  43.7223713   4.2225495
  64.6939873  44.0268311   2.7772112  67.0311053  40.3985958   3.3782103
  67.0172621  39.5027052   3.0414401  67.7483481  40.4056622   4.0120389
  68.8837183  40.8323298   5.4235230  68.6254961  41.7540369   5.4219561
  68.3522224  40.4353733   6.1135694  73.8283372  53.9374086  -1.7974684
  74.0020250  53.3720508  -2.5500832  74.3212263  54.7374980  -1.9795195
  59.6460332  45.9488755   6.2688874  59.1013800  46.7248563   6.4009149
  60.5239682  46.2959559   6.1107996  79.6822763  46.7010508  -0.1784385
  80.1253909  45.9517834  -0.5765261  78.8049274  46.6920645  -0.5610653
  74.8158545  53.2540850  -4.6977786  75.5109449  53.8747543  -4.4790472
  75.1581695  52.4036201  -4.4225408  60.4326354  45.0758651   9.1619031
  59.6908090  45.2241286   9.7483662  60.1119098  45.3366917   8.2985781
  76.7149968  50.7040555  -3.1690455  77.2401292  51.0427828  -3.8941135
  76.6272320  49.7687571  -3.3527321  68.3770016  54.6174629   8.9599421
  68.6857143  54.3723776   9.8322121  69.1745499  54.8221268   8.4718291
  68.3990629  56.7712539   1.1904798  67.9595619  56.2788917   1.8837654
  69.1498746  56.2285506   0.9496873  60.8782968  52.9624080   1.1929426
  61.7040987  52.6627851   0.8128069  60.5277020  52.1931702   1.6419214
  65.8464501  52.3150548   3.2627099  65.2244510  51.6521253   2.9629327
  66.5169368  52.3411680   2.5800747  59.0791573  50.8810406   2.1518359
  58.2423481  50.4532580   1.9702361  59.0515218  51.0742849   3.0889151
  65.9189028  40.7932336  12.8559605  65.9677184  41.6694459  12.4737375
  66.4611542  40.2509729  12.2831249  76.4043874  51.3373459  12.1360743
  75.6139418  51.3197598  11.5965242  76.1677228  51.8761753  12.8909779
  76.5241749  48.1865925   9.4493471  76.5739754  48.0215933  10.3908994
  76.4155672  47.3193185   9.0591352  73.8145511  44.1696854  10.7652778
  74.7155374  44.0303318  10.4736776  73.8893486  44.3351308  11.7050955
  68.1488317  41.5463708   9.6105964  67.2791626  41.8397274   9.3388553
  68.3847797  42.1304153  10.3313228  78.0259946  50.6062867   9.6935493
  77.7344754  50.9692848  10.5298954  77.4132077  49.8929875   9.5148825
  79.2255628  48.1715747   2.2138063  80.0602519  48.6105551   2.3775623
  79.3614757  47.6954400   1.3946309  76.2747134  45.7295482   8.1615551
  76.7501256  45.9223128   7.3534402  75.3512699  45.7854667   7.9158934
  70.8527350  37.7643325   7.1271384  71.3709294  38.5004352   6.8017873
  70.4982483  38.0707318   7.9618144  74.9748803  42.6061242   6.3943856
  75.9266226  42.7059339   6.4156080  74.8052253  41.8139510   6.9041941
  72.9963182  39.6916825   6.5803257  72.4013115  39.9721838   5.8849746
  72.7112879  40.1810726   7.3519998  72.1270673  53.6439752  -4.6594110
  73.0601346  53.5785313  -4.4561235  72.0393886  54.4796019  -5.1179578
  74.7558690  52.9605622  -7.6990163  74.6772321  52.6265486  -6.8054405
  75.5768356  53.4527390  -7.6998690  77.4536881  45.8267361   5.5086156
  77.4213201  44.8883362   5.6945840  78.0637504  45.9051398   4.7751981
  77.6031369  42.6178405   5.5544439  77.0870418  41.8336861   5.3674368
  78.4871318  42.2897121   5.7190958  75.2642096  36.3619420   1.5140252
  75.0666917  36.0534509   2.3983584  75.8741802  37.0881059   1.6438182
  83.2713431  46.8883368   4.6492193  84.0016819  46.6268656   5.2099896
  82.6620376  46.1512090   4.6894261  81.3528728  45.0291231   5.2466644
  80.6261891  44.8947196   4.6383135  80.9376015  45.3368059   6.0523362
  69.1758904  48.7481161  13.0114017  70.0961914  48.9259760  13.2054063
  69.1408487  47.8037206  12.8593716  62.1720977  46.6582195   5.6536798
  62.3906986  47.5899303   5.6724832  62.5846751  46.2990170   6.4391602
  67.0448842  42.2315401  15.0439547  66.9445569  43.1809758  14.9751638
  66.8270384  41.9033640  14.1715617  58.2629329  47.5622666   3.9060413
  57.5692801  47.1476618   3.3930367  59.0102320  47.6043202   3.3093832
  66.9080112  45.6612540  13.8604609  66.4247194  46.4612900  14.0668498
  66.9941051  45.6720485  12.9072053  62.8353450  49.5517074   5.8973042
  63.7896703  49.5201017   5.8302974  62.6365973  49.0907698   6.7123268
  63.4252832  48.1218191   8.4643840  64.2445721  48.6162269   8.4878677
  63.6989639  47.2050159   8.4361408  76.5333964  40.5375464   1.5426135
  77.3094354  41.0271916   1.8150752  75.8082098  40.9633518   1.9998004
  78.9706523  41.2503083   2.6000075  79.5651013  41.0098819   1.8893384
  79.0433106  40.5310214   3.2273612  61.1903678  55.0936694   2.9143240
  61.0558146  54.3337095   2.3481238  60.7735741  55.8177594   2.4472029
  73.1560452  46.0283479  -1.9577914  73.0995653  46.4852030  -2.7970282
  73.7088794  45.2674163  -2.1355072  76.9665258  41.8173211  -1.1327795
  76.7102192  41.4169846  -0.3019587  76.3418126  42.5317005  -1.2577656
  81.2777595  44.5569284   1.3743497  80.7177153  44.6262473   2.1475059
  80.6721099  44.3810269   0.6542993  64.3472804  55.9906011   3.1261683
  64.2305188  56.9351443   3.0240373  63.5265251  55.6879573   3.5147482
  74.2349339  50.7156147  -6.0281724  75.0694943  50.2837345  -6.2104250
  74.0733682  50.5438160  -5.1004830  58.6787746  42.4556324   9.1636037
  59.3246610  41.9455278   9.6523262  58.4704897  43.1925006   9.7379462
  71.2041138  49.5237172  14.6628178  72.0732298  49.6977824  14.3014813
  70.7247890  50.3431589  14.5403907  65.3727318  56.6434273   6.3417611
  66.2754565  56.6757883   6.6584106  65.1464688  55.7134724   6.3563947
  67.1280920  55.3965259   3.0027690  66.1776551  55.3967121   2.8892062
  67.4313407  54.6497994   2.4863725  63.0185237  39.6023941  13.2611051
  63.8816698  39.2460746  13.4714376  62.4450648  39.2637836  13.9486456
  82.8633614  61.2325798   4.0673452  83.5012024  61.1132545   3.3636792
  82.7454457  62.1806642   4.1261404  79.6723320  61.1853226   4.0034977
  79.3341832  61.0694291   3.1155512  80.5413088  60.7844391   3.9835983
  75.5310136  63.0388702  -0.0068132  74.9675001  62.9478639  -0.7751844
  75.4162531  62.2188607   0.4734361  80.1543103  62.3388078   9.9621183
  80.1431744  61.9440876   9.0901686  80.3163743  61.6054150  10.5554954
  73.0774568  64.5339894   2.8316088  73.8695860  64.1930719   2.4162388
  73.3171218  64.6434869   3.7518242  81.1109695  66.7059670  -4.6953667
  80.4597674  67.2913750  -5.0819653  81.9054057  67.2365865  -4.6358630
  75.0365322  63.7948807  -4.2966533  75.8096198  63.2477794  -4.4353657
  75.3890721  64.6593057  -4.0852071  76.8750364  65.1225189   8.9100367
  76.5840230  66.0270820   8.7947033  77.5107349  65.1641717   9.6244436
  77.8006571  62.5002038   5.5001726  78.3970143  62.2758060   4.7858689
  77.8581543  61.7586783   6.1027174  77.3731600  59.9541473  -6.6648083
  77.6257120  59.4322995  -7.4264620  76.4356159  59.7907619  -6.5621399
  82.4174882  58.9577252   1.1426660  83.2037972  58.5396675   0.7917077
  82.6813587  59.8623344   1.3108309  82.5884960  64.3950102  -4.1584683
  81.9530793  64.4684728  -3.4463778  82.2582366  64.9843701  -4.8365604
  87.8183309  58.8952485   2.0459639  88.5508481  58.3251702   2.2797468
  87.0622665  58.5074085   2.4866144  77.0927888  61.8569579  -4.4623708
  76.9764146  61.1814483  -3.7942624  77.2030148  61.3701953  -5.2791555
  79.4359429  61.3179726  -0.7577019  79.0717636  60.7910347  -0.0464097
  80.2926545  60.9278195  -0.9310533  85.3408730  52.6074059   6.5054247
  85.0092055  53.4769470   6.2815462  84.7454343  52.2910343   7.1848278
  79.0764916  56.3469626  -5.7615670  79.2439319  57.2149862  -5.3945199
  78.8862085  56.5096908  -6.6854381  81.8340249  64.8086605   5.9050160
  81.5340972  65.7111644   5.7965967  81.4891309  64.5418788   6.7571313
  75.2852731  61.2600402   1.9386865  74.3603227  61.1276616   2.1464556
  75.5337144  62.0394621   2.4356807  85.2337393  57.3269145   3.5847598
  84.3254270  57.2584554   3.2906359  85.1824989  57.8041090   4.4129423
  79.0554137  58.8027284  -4.7769003  78.9353762  59.2484334  -3.9383523
  78.3606725  59.1512601  -5.3355465  72.6461542  60.9033675   2.7730654
  72.7753923  61.1568154   3.6870065  71.9658993  61.4961383   2.4535309
  76.8161029  71.5730925  -1.1278872  76.7385059  72.5238750  -1.0490392
  76.2122673  71.2276798  -0.4703946  79.3078259  58.7458791  11.5282495
  78.5311593  59.3052711  11.5185359  79.9468822  59.2315574  12.0497365
  87.0999040  55.5285584   5.3625471  86.4573420  55.8218117   4.7165266
  86.5953968  55.4138504   6.1678668  84.7539203  59.2748757  -3.9488669
  85.6657059  59.5076143  -4.1240972  84.2448850  59.8585801  -4.5113591
  77.5624631  61.5544244  11.0900462  78.3039316  62.0929288  10.8135285
  76.8561617  62.1810533  11.2472014  83.0379971  63.6973385   9.6872623
  83.4463327  63.2555795   8.9427256  82.3157232  63.1226012   9.9406816
  79.3911041  58.6345991   7.0606180  80.2372236  59.0585405   7.2040829
  79.3309679  57.9779616   7.7544743  83.3608786  64.2574575   3.4424912
  82.7317648  64.4220289   2.7400980  82.9734448  64.6716185   4.2135876
  87.2398017  65.1929013   0.7969276  86.5549056  65.5727914   0.2466309
  87.3241867  65.8024340   1.5301224  82.5410486  56.2950360   8.7187354
  82.2971418  57.0492420   8.1821630  82.8170417  56.6735707   9.5534601
  84.4948949  62.8388972   7.3964619  84.7065844  63.4820732   6.7199001
  84.4478697  62.0051289   6.9286550  82.0975178  55.4506793   4.3001192
  81.2359657  55.7488046   4.5917929  82.1237613  55.6677192   3.3682224
  78.9136747  63.9948983   0.7074997  79.3775093  64.2736686  -0.0820380
  78.6493546  63.0932428   0.5248088  75.8060828  63.5420465   3.6454761
  76.3762186  63.9707733   3.0072245  76.3968940  63.2603050   4.3438946
  77.8505633  60.1172136  -2.4835438  78.5529677  60.5693179  -2.0161511
  77.5186262  59.4755955  -1.8555544  76.2985995  58.7083892  11.8915772
  75.6684656  59.3900173  12.1251169  76.1922083  58.5966974  10.9468910
  71.5930967  58.3755688   2.8181696  70.8030021  58.6313217   2.3421807
  72.0842215  59.1904026   2.9233737  85.6094777  65.7160927   5.5686977
  86.4312221  65.3141115   5.2869658  85.6057180  65.6129162   6.5203093
  73.5445713  58.7400268  -0.2234827  72.7476876  58.8518962   0.2948668
  73.3171305  59.0786920  -1.0893937  79.3751380  65.2644971   7.7247687
  79.4395813  65.7265378   8.5605859  78.6662304  64.6342336   7.8529997
  69.8768670  58.6286179   5.2496687  70.1276709  59.5133189   5.5154263
  70.4128219  58.4490780   4.4771779  93.7000770  62.0599676   1.9171948
  92.9464478  61.4907074   1.7615953  93.8348311  62.0262340   2.8642583
  79.0899398  66.9313078  -2.4073332  78.9545073  67.7764614  -1.9788485
  79.6309211  67.1332356  -3.1707399  75.5766738  53.0104658  14.2541023
  75.1833683  52.4570857  14.9288667  76.3932878  53.3215237  14.6447540
  72.5428795  64.4488516  -1.8345407  73.0553316  65.2431767  -1.6839843
  73.1951508  63.7514807  -1.9011806  74.3523680  67.5654273   0.2477346
  74.5290309  68.4872237   0.0598330  75.1480514  67.2512692   0.6771726
  78.4934699  54.4262537  11.8461279  79.2344412  55.0269690  11.7665742
  78.7252622  53.6840175  11.2879322  73.6376037  59.6118904  10.1239509
  73.5229552  58.7104162  10.4246608  72.7820554  59.8582601   9.7724326
  80.7167874  67.5536645  11.7227010  80.2731729  66.7673023  11.4047914
  81.3785088  67.7415795  11.0570901  75.4754996  69.0832446   6.2487688
  76.0262421  68.9549510   5.4764682  74.6366472  69.3827335   5.8982581
  82.8149113  67.8339445   9.7508411  82.7967588  68.6548326   9.2588680
  83.7369033  67.7093520   9.9758552  79.2722167  65.3483574  10.5931919
  79.8050503  64.5871862  10.3631227  78.7436248  65.0557226  11.3356074
  82.4391862  50.4543640   6.1225561  82.0956131  51.3445282   6.0464672
  82.8070824  50.2645298   5.2595146  70.5077712  62.7777171  -1.0585837
  71.3452934  63.1874179  -1.2752129  70.6855980  61.8376613  -1.0885643
  82.4042144  60.4452251  -5.3702004  81.8888768  61.2156856  -5.1313616
  82.1319453  59.7717387  -4.7468942  79.9889255  55.2901952  -0.3116765
  79.1330852  54.9008802  -0.4911127  80.4016207  55.3693913  -1.1716980
  81.5188402  52.8248295   4.0874794  81.0153198  52.7878430   3.2742600
  81.8119009  53.7341038   4.1471451  77.7631288  52.9087025   3.0940976
  78.6284285  52.7129834   2.7346866  77.8308797  52.6797377   4.0210333
  87.3776419  63.1984606  -3.4348830  86.6005861  62.8595765  -3.8793668
  88.0567899  63.2037229  -4.1093865  82.1928448  58.3179343  -3.5442223
  81.8878583  58.6325493  -2.6932079  83.1458890  58.3960763  -3.5014890
  80.6374879  64.4769567  -1.8949269  80.1096241  63.7422326  -2.2076031
  80.1362382  65.2544243  -2.1409300  85.6167725  62.6718587   3.2217778
  84.9591400  63.3617849   3.3097906  86.4208125  63.0615019   3.5651764
  75.3693607  55.1389233   0.4657343  75.9437359  54.9164414  -0.2669464
  75.9564589  55.2077927   1.2185944  84.4273184  61.0262960   1.2721719
  84.9405066  61.6592952   1.7743429  85.0774408  60.4264155   0.9065079
  75.6963194  57.1693694  -5.5146772  74.8600506  57.5068381  -5.1937497
  75.5567964  57.0342674  -6.4519635  77.6716275  52.0130482  -0.8067588
  77.0180687  51.6979499  -1.4310973  77.6296749  51.3906222  -0.0807765
  78.7827480  62.2949777  -8.8914296  77.8754541  62.0639030  -8.6923147
  79.2798512  61.4987396  -8.7040314  81.6895558  71.0047284  -5.9717609
  81.0157257  71.3078981  -5.3632652  82.0761380  71.8076364  -6.3212152
  80.9054015  58.5012415   3.5180060  79.9876576  58.7227362   3.3601748
  81.3214159  58.5758726   2.6591767  81.6889063  59.9003831  -1.3517260
  82.4360882  60.4125228  -1.6610138  81.9580652  59.5787884  -0.4912866
  79.9615713  62.3962372  -4.3690305  79.0526932  62.1121405  -4.2717836
  79.9910797  62.8161450  -5.2286999  85.1934980  66.0068961  -0.5999138
  84.7397308  65.1659871  -0.5433947  84.5628947  66.6430360  -0.2624358
  84.1367900  56.9360947   0.6301530  83.3990657  56.4238334   0.9611772
  84.3894674  56.4961329  -0.1815194  83.6367920  67.8445458   0.3350680
  83.9290894  68.4050515  -0.3836954  84.1466540  68.1374019   1.0903839
  84.2379527  49.7137199   1.2243299  84.5438404  48.8534563   0.9369214
  84.9632132  50.3054820   1.0242293  70.5303883  60.1167886  -0.3875103
  70.3328283  59.5237247  -1.1124037  69.9750547  59.8120096   0.3300836
  78.5100607  60.0090992   1.7319490  78.5649217  59.0564829   1.6561966
  77.6991809  60.1650432   2.2160788  79.6591801  63.9371115  -7.0302227
  79.2211231  63.2206974  -7.4896590  80.4002242  64.1647230  -7.5917136
  76.4492967  58.6268052  -0.5090131  75.6360833  58.9262223  -0.1024939
  76.9451961  58.2323741   0.2084351  78.6001545  68.6225809   1.4244133
  78.5577724  68.8486655   0.4952665  79.5164244  68.3889184   1.5729935
  82.0467179  59.0909877   8.3224763  82.4016566  59.3181350   9.1819228
  82.6939310  59.4228253   7.7002018  87.7764916  62.2128313  -0.9725908
  87.6382814  62.4029908  -1.9004719  87.4201134  62.9747695  -0.5157857
  75.9407042  56.1986408   5.1071104  76.5806421  56.0575167   4.4094067
  75.1084572  55.9120921   4.7309706  87.8034295  64.2804840   4.0385363
  88.2370802  64.1880129   4.8868417  88.5165876  64.2562340   3.4005379
  76.7167346  65.4988838   1.2206096  77.5107944  65.0039158   1.0188671
  76.0059038  64.9706701   0.8573802  81.5362190  67.8806934   5.5718464
  81.5899212  68.4497870   6.3396180  80.6676971  68.0508819   5.2072501
  73.0250109  59.6431920  -2.7034151  72.0947697  59.5816375  -2.4864189
  73.1207581  59.1207873  -3.4997510  72.9435658  56.1686733  -0.1155910
  73.2042475  57.0832066  -0.2246749  73.7652830  55.7011175   0.0340703
  74.4160583  57.5824490   7.0542915  75.0883637  57.3741852   6.4055564
  73.5890370  57.3846576   6.6148147  88.6649845  64.3228540   6.5718249
  88.8585735  65.2274351   6.8177523  88.5650463  63.8635959   7.4056834
  80.3186155  54.2086431   9.0708576  79.6714071  54.9076380   8.9773052
  81.0887171  54.6422575   9.4384824  83.7264953  64.4735283  12.1459129
  83.5750460  64.2445835  11.2289213  83.7169633  65.4305884  12.1590474
  80.4950290  62.0467196   7.1305396  81.4242350  62.1978355   6.9574363
  80.0741320  62.1351216   6.2754042  79.2938622  66.0717860   4.9003933
  79.1549707  65.7036644   5.7729871  78.5053218  66.5865500   4.7287891
  79.8886774  71.1726957  -3.7570530  80.0638529  70.7015000  -2.9424908
  79.2019562  71.7992723  -3.5289270  80.8443837  65.4499463   2.2892771
  80.5093669  65.4100233   3.1850421  80.3447782  64.7844179   1.8163181
  74.8188081  60.8567093   7.8145352  74.6807879  60.1247332   8.4156891
  75.7293004  60.7675993   7.5329540  83.7803028  62.7955497  -7.4370169
  83.1632199  62.0702325  -7.5337117  83.3119517  63.5564857  -7.7803095
  77.4470381  60.5687052   7.3029032  78.1570000  59.9280244   7.2615650
  77.4039690  60.8199947   8.2255213  85.4357160  67.5054405  10.2235611
  85.3769706  66.8213626   9.5566194  85.8376678  68.2473395   9.7716237
  76.1599315  57.5552270   9.1224671  75.6236672  57.1043008   9.7746268
  75.5716024  57.6898179   8.3795136  74.4547859  74.3216319   3.0169330
  74.6944457  74.9534843   3.6948348  73.6117055  73.9704359   3.3034689
  75.5701574  57.0140921  -8.3148865  74.6931041  56.8929722  -8.6786618
  76.0459327  56.2227000  -8.5669976  85.4374567  65.4693989   8.4549591
  84.5501346  65.1319911   8.5775990  86.0073118  64.7377021   8.6918356
  67.0903714  61.8018081   1.7792642  67.7774754  61.4879811   1.1913657
  66.9351843  62.7059446   1.5059894  71.8938437  56.6908278   6.2077666
  71.8096625  56.0833947   5.4728076  71.0721143  57.1817296   6.2087162
  78.9675721  70.1295442   5.4210834  78.8945892  70.9350413   5.9330138
  78.5253114  70.3287408   4.5958855  78.7565500  69.3667212  -1.0686345
  77.9733022  69.9088892  -0.9748120  79.4558246  69.8841191  -0.6692103
  82.0662150  55.1761841   1.5747861  82.5630850  54.4231804   1.2548931
  81.2949132  55.2126158   1.0091070  89.9191908  60.8802207   3.2166152
  89.9081784  61.7626922   2.8460085  89.0509287  60.5273758   3.0220689
  81.4274404  70.0282276   7.5768993  82.1402376  70.6629741   7.5044894
  80.9364433  70.1246142   6.7608994  83.1491931  63.9333528  -0.8513716
  82.2148210  64.0534991  -1.0209011  83.3268600  63.0305995  -1.1153706
  78.6497119  57.3179224   1.3019545  78.2794907  56.7650265   1.9900451
  79.1456212  56.7137358   0.7494545  86.5364483  59.7750848  -0.3163682
  87.0024935  60.6078839  -0.3903379  86.9871983  59.3095829   0.3881577
  76.4786318  67.7776719   8.3974563  77.1795777  68.4113202   8.5503958
  76.0081433  68.1191451   7.6370203  84.6040714  66.1194669  -3.3177530
  84.8800558  66.0051264  -2.4083656  83.7345212  65.7212154  -3.3565356
  84.5081145  52.1431435   3.7227220  83.5944225  52.3735662   3.8909427
  84.9374247  52.2269879   4.5741252  84.2787604  60.3321327   6.2227114
  83.6259054  60.5797234   5.5679567  84.6567984  59.5185465   5.8889591
  81.2394778  70.3681020   0.3255284  81.4217172  69.5502676   0.7883036
  82.0627764  70.5848712  -0.1119826  81.5736943  69.2949205  -2.4129667
  82.1024710  68.7841660  -3.0259505  81.8365163  68.9791735  -1.5484134
  80.3275177  61.0741138  12.7093151  79.6515814  60.9735267  13.3795526
  81.1502811  60.9180352  13.1729148  72.0754036  67.3113074   5.3305666
  72.6607473  66.5656762   5.4633570  71.8778874  67.6217031   6.2142330
  74.9292691  70.3464322   0.3468108  74.2603066  70.8310449  -0.1367851
  74.7905561  70.5933542   1.2611487  66.6671691  59.8818675   4.0510109
  66.7055790  59.3482265   4.8447227  66.1611983  59.3553880   3.4321086
  79.0697960  72.3808065   6.9450767  79.6216268  72.5439687   7.7099852
  79.4104153  72.9712503   6.2730792  74.0462453  54.7283215   7.5472652
  74.1103779  55.5898046   7.1350049  73.9829573  54.1157217   6.8145010
  73.5214725  56.8006348  11.1945686  74.1486764  56.4183425  11.8083210
  72.6642644  56.5820549  11.5601378  83.9208834  67.2069323  12.7999421
  84.4648738  67.8199281  12.3054376  83.3395679  67.7648901  13.3166434
  70.2980268  58.6082777  -2.8735959  70.5933709  57.6993455  -2.9268906
  69.3968304  58.5870516  -3.1954957  82.2066347  70.3290041   3.9314449
  82.0817486  69.5279781   3.4225394  82.8645438  70.8236234   3.4428419
  73.8274515  56.6838773   3.1091589  73.1061101  57.2974741   2.9699063
  74.6167771  57.2196538   3.0308235  84.2701255  68.1299061   5.5593999
  83.3231591  68.0104412   5.4872326  84.6184028  67.2421559   5.6420261
  76.6300829  54.0193200   9.3832241  77.1535231  54.2655496  10.1458550
  76.4113162  54.8513235   8.9635378  72.0268110  56.2896874  -2.7496634
  71.6980816  55.4094253  -2.9321528  72.3807480  56.2344543  -1.8620245
  81.2747689  67.9251777   1.7598351  81.1272651  66.9968484   1.9405921
  82.1001182  67.9471868   1.2755427  75.1409933  56.5769844  -2.3821157
  75.4806005  57.1055765  -3.1042548  75.5882053  56.9150250  -1.6062590
  84.8781810  68.7480336   2.8463224  85.8028358  68.5423197   2.7087675
  84.7097114  68.4996737   3.7552566  77.8353374  54.9606895   7.0681911
  77.4950194  54.1614708   7.4702591  77.1292380  55.2608606   6.4958745
  78.4869846  52.0456207   5.5209235  79.3095915  51.5716685   5.3988125
  78.7307909  52.8246691   6.0207921  77.1278080  55.0744466  -4.1827864
  77.8486443  55.4525719  -4.6864147  76.5043384  55.7933343  -4.0792886
  81.2709203  55.7789615  -3.2469531  81.4872817  56.6614253  -3.5480703
  80.7903270  55.3875828  -3.9763889  76.0108424  58.7375328   3.3301213
  75.8653005  59.0515631   4.2225495  75.5333628  59.3560228   2.7772112
  77.8704807  55.7277876   3.3782103  77.8566376  54.8318969   3.0414401
  78.5877235  55.7348540   4.0120389  79.7230938  56.1615216   5.4235230
  79.4648716  57.0832287   5.4219561  79.1915978  55.7645651   6.1135694
  84.6677127  69.2666003  -1.7974684  84.8414004  68.7012426  -2.5500832
  85.1606018  70.0666898  -1.9795195  70.4854086  61.2780672   6.2688874
  69.9407555  62.0540480   6.4009149  71.3633436  61.6251477   6.1107996
  77.2741703  54.6092256  -1.3530327  77.3957614  53.6808902  -1.1539440
  76.9843746  54.6230942  -2.2652012  80.1432894  52.2947167   1.7836393
  80.1654590  52.3586500   0.8288372  80.5600953  51.4551675   1.9776899
  90.5216518  62.0302426  -0.1784385  90.9647664  61.2809751  -0.5765261
  89.6443028  62.0212563  -0.5610653  85.6552299  68.5832768  -4.6977786
  86.3503204  69.2039460  -4.4790472  85.9975449  67.7328119  -4.4225408
  71.2720108  60.4050569   9.1619031  70.5301844  60.5533204   9.7483662
  70.9512853  60.6658834   8.2985781  87.5543722  66.0332473  -3.1690455
  88.0795046  66.3719746  -3.8941135  87.4666075  65.0979488  -3.3527321
  79.2163771  69.9466547   8.9599421  79.5250897  69.7015694   9.8322121
  80.0139253  70.1513185   8.4718291  79.2384383  72.1004456   1.1904798
  78.7989373  71.6080835   1.8837654  79.9892500  71.5577424   0.9496873
  71.7176722  68.2915997   1.1929426  72.5434742  67.9919769   0.8128069
  71.3670774  67.5223620   1.6419214  76.6858255  67.6442466   3.2627099
  76.0638264  66.9813171   2.9629327  77.3563122  67.6703597   2.5800747
  69.9185327  66.2102324   2.1518359  69.0817235  65.7824498   1.9702361
  69.8908972  66.4034767   3.0889151  76.7582783  56.1224254  12.8559605
  76.8070938  56.9986376  12.4737375  77.3005297  55.5801647  12.2831249
  87.2437628  66.6665377  12.1360743  86.4533172  66.6489516  11.5965242
  87.0070983  67.2053670  12.8909779  87.3635503  63.5157843   9.4493471
  87.4133508  63.3507851  10.3908994  87.2549427  62.6485102   9.0591352
  76.2471762  66.1946389  -3.2614440  76.3959882  66.8781853  -3.9147767
  77.0538206  66.1751479  -2.7464984  84.6539266  59.4988771  10.7652778
  85.5549129  59.3595236  10.4736776  84.7287240  59.6643226  11.7050955
  78.9882071  56.8755626   9.6105964  78.1185381  57.1689192   9.3388553
  79.2241551  57.4596071  10.3313228  88.8653700  65.9354785   9.6935493
  88.5738509  66.2984765  10.5298954  88.2525832  65.2221793   9.5148825
  90.0649383  63.5007664   2.2138063  90.8996274  63.9397469   2.3775623
  90.2008511  63.0246318   1.3946309  87.1140888  61.0587399   8.1615551
  87.5895010  61.2515046   7.3534402  86.1906454  61.1146585   7.9158934
  74.0024395  62.2211566  -2.2553371  73.7570437  61.3173896  -2.0573161
  74.1720310  62.2228717  -3.1973893  81.6921105  53.0935243   7.1271384
  82.2103049  53.8296270   6.8017873  81.3376238  53.3999236   7.9618144
  73.2720043  57.9539924  -4.7567210  72.5789288  58.0284279  -5.4127174
  73.0271795  57.1900268  -4.2345693  81.9433699  49.5135525   2.6472281
  82.2235453  48.8458714   3.2732708  82.7284306  49.7064621   2.1346945
  79.7467168  68.6894519  -5.7902693  79.1741135  69.3084706  -6.2432221
  80.3199961  69.2393881  -5.2562771  85.8142557  57.9353159   6.3943856
  86.7659980  58.0351257   6.4156080  85.6446008  57.1431428   6.9041941
  83.8356937  55.0208743   6.5803257  83.2406869  55.3013755   5.8849746
  83.5506634  55.5102644   7.3519998  82.9664427  68.9731669  -4.6594110
  83.8995101  68.9077231  -4.4561235  82.8787640  69.8087936  -5.1179578
  85.5952444  68.2897540  -7.6990163  85.5166076  67.9557403  -6.8054405
  86.4162111  68.7819308  -7.6998690  88.2930635  61.1559279   5.5086156
  88.2606955  60.2175280   5.6945840  88.9031259  61.2343316   4.7751981
  80.1313966  60.0255332  -8.4486640  81.0773071  59.8961540  -8.3798222
  79.7528211  59.2869994  -7.9717212  88.4425124  57.9470323   5.5544439
  87.9264172  57.1628779   5.3674368  89.3265072  57.6189039   5.7190958
  86.1035851  51.6911338   1.5140252  85.9060672  51.3826426   2.3983584
  86.7135556  52.4172977   1.6438182  94.1107185  62.2175286   4.6492193
  94.8410574  61.9560574   5.2099896  93.5014131  61.4804008   4.6894261
  92.1922482  60.3583149   5.2466644  91.4655646  60.2239113   4.6383135
  91.7769769  60.6659977   6.0523362  80.0152659  64.0773078  13.0114017
  80.9355668  64.2551677  13.2054063  79.9802242  63.1329124  12.8593716
  78.3156883  57.9505308  -8.5131755  77.4088339  57.6538421  -8.4369041
  78.5932864  57.6535127  -9.3797469  69.2334824  59.2711672   1.9367291
  68.9137608  58.4176980   1.6441665  68.6868252  59.4860250   2.6925259
  73.0114731  61.9874113   5.6536798  73.2300741  62.9191221   5.6724832
  73.4240505  61.6282087   6.4391602  79.9318949  52.4942198  -2.3587514
  79.1219677  52.1489283  -1.9832268  80.6203366  52.1849742  -1.7699902
  81.8609497  51.5720245  -0.7363217  82.4140536  51.9915698  -0.0773194
  82.0979584  50.6455993  -0.6940261  77.8842597  57.5607319  15.0439547
  77.7839323  58.5101676  14.9751638  77.6664139  57.2325558  14.1715617
  77.0855668  54.8092244  -8.3719776  77.9474832  55.1347142  -8.1123958
  77.2706012  54.0223740  -8.8846710  69.1023084  62.8914583   3.9060413
  68.4086555  62.4768536   3.3930367  69.8496075  62.9335120   3.3093832
  85.2388304  53.6820770  -1.2284553  84.6586973  54.3405574  -1.6106500
  84.9724237  52.8598115  -1.6397135  83.6891871  53.0825828   0.9736768
  84.1891649  53.1942362   0.1651086  84.3327479  52.7786881   1.6137576
  77.7473867  60.9904457  13.8604609  77.2640948  61.7904818  14.0668498
  77.8334806  61.0012402  12.9072053  71.0159826  62.8232837   1.7826428
  70.9930514  62.9220524   0.8308311  71.3260463  63.6697988   2.1043594
  73.6747204  64.8808992   5.8973042  74.6290458  64.8492934   5.8302974
  73.4759728  64.4199616   6.7123268  74.2646586  63.4510108   8.4643840
  75.0839475  63.9454187   8.4878677  74.5383394  62.5342076   8.4361408
  84.0213182  55.8420861  -2.1728204  83.1339037  56.1270511  -2.3908010
  84.4367171  55.6814624  -3.0200928  87.3727719  55.8667381   1.5426135
  88.1488109  56.3563834   1.8150752  86.6475853  56.2925436   1.9998004
  89.8100277  56.5795001   2.6000075  90.4044768  56.3390737   1.8893384
  89.8826861  55.8602131   3.2273612  72.0297433  70.4228612   2.9143240
  71.8951901  69.6629013   2.3481238  71.6129495  71.1469512   2.4472029
  83.1656396  65.6065535  -8.0780184  83.8692246  65.8115538  -7.4622529
  82.4419045  66.1742297  -7.8131101  83.9954206  61.3575396  -1.9577914
  83.9389408  61.8143948  -2.7970282  84.5482549  60.5966081  -2.1355072
  87.8059012  57.1465128  -1.1327795  87.5495946  56.7461764  -0.3019587
  87.1811880  57.8608922  -1.2577656  92.1171350  59.8861202   1.3743497
  91.5570908  59.9554391   2.1475059  91.5114853  59.7102186   0.6542993
  75.1866559  71.3197929   3.1261683  75.0698943  72.2643361   3.0240373
  74.3659005  71.0171490   3.5147482  85.0743093  66.0448064  -6.0281724
  85.9088697  65.6129263  -6.2104250  84.9127436  65.8730078  -5.1004830
  84.7288985  62.5480178  -4.6625385  84.6737789  62.3824449  -5.6036941
  84.1035041  63.2556211  -4.5063195  69.5181500  57.7848242   9.1636037
  70.1640364  57.2747196   9.6523262  69.3098652  58.5216924   9.7379462
  82.0434893  64.8529090  14.6628178  82.9126052  65.0269742  14.3014813
  81.5641644  65.6723506  14.5403907  78.0385111  52.0488287  -5.0840067
  78.0263781  52.9930127  -4.9271796  78.9308533  51.8658432  -5.3780606
  76.2121073  71.9726191   6.3417611  77.1148320  72.0049801   6.6584106
  75.9858443  71.0426642   6.3563947  77.9674675  70.7257177   3.0027690
  77.0170306  70.7259039   2.8892062  78.2707161  69.9789912   2.4863725
  81.8537230  48.6431063  -0.8294130  81.0869626  48.0889550  -0.6837448
  82.2647935  48.7152932   0.0320022  73.8578991  54.9315859  13.2611051
  74.7210453  54.5752664  13.4714376  73.2844402  54.5929754  13.9486456
  93.7027368  76.5617716   4.0673452  94.3405778  76.4424463   3.3636792
  93.5848211  77.5098559   4.1261404  90.5117075  76.5145144   4.0034977
  90.1735586  76.3986208   3.1155512  91.3806843  76.1136309   3.9835983
  86.3703890  78.3680620  -0.0068132  85.8068755  78.2770557  -0.7751844
  86.2556285  77.5480524   0.4734361  90.9936858  77.6679995   9.9621183
  90.9825498  77.2732794   9.0901686  91.1557497  76.9346068  10.5554954
  83.9168322  79.8631812   2.8316088  84.7089614  79.5222636   2.4162388
  84.1564972  79.9726787   3.7518242  87.7144119  80.4517107   8.9100367
  87.4233985  81.3562738   8.7947033  88.3501103  80.4933635   9.6244436
  88.6400326  77.8293956   5.5001726  89.2363898  77.6049978   4.7858689
  88.6975297  77.0878701   6.1027174  93.2568637  74.2869169   1.1426660
  94.0431726  73.8688593   0.7917077  93.5207341  75.1915262   1.3108309
  98.6577064  74.2244403   2.0459639  99.3902236  73.6543619   2.2797468
  97.9016420  73.8366003   2.4866144  90.2753184  76.6471644  -0.7577019
  89.9111391  76.1202265  -0.0464097  91.1320300  76.2570113  -0.9310533
  96.1802484  67.9365977   6.5054247  95.8485809  68.8061388   6.2815462
  95.5848098  67.6202261   7.1848278  92.6734004  80.1378523   5.9050160
  92.3734727  81.0403561   5.7965967  92.3285063  79.8710706   6.7571313
  86.1246485  76.5892319   1.9386865  85.1996982  76.4568534   2.1464556
  86.3730899  77.3686539   2.4356807  96.0731148  72.6561063   3.5847598
  95.1648025  72.5876471   3.2906359  96.0218743  73.1333008   4.4129423
  83.4855296  76.2325593   2.7730654  83.6147678  76.4860072   3.6870065
  82.8052748  76.8253301   2.4535309  90.1472013  74.0750708  11.5282495
  89.3705347  74.6344629  11.5185359  90.7862576  74.5607491  12.0497365
  97.9392794  70.8577501   5.3625471  97.2967174  71.1510034   4.7165266
  97.4347723  70.7430422   6.1678668  88.4018386  76.8836162  11.0900462
  89.1433070  77.4221206  10.8135285  87.6955371  77.5102451  11.2472014
  93.8773725  79.0265302   9.6872623  94.2857081  78.5847713   8.9427256
  93.1550987  78.4517930   9.9406816  90.2304795  73.9637909   7.0606180
  91.0765991  74.3877323   7.2040829  90.1703433  73.3071533   7.7544743
  94.2002540  79.5866493   3.4424912  93.5711402  79.7512207   2.7400980
  93.8128202  80.0008102   4.2135876  93.3804241  71.6242277   8.7187354
  93.1365173  72.3784338   8.1821630  93.6564171  72.0027625   9.5534601
  95.3342704  78.1680890   7.3964619  95.5459599  78.8112650   6.7199001
  95.2872452  77.3343206   6.9286550  92.9368932  70.7798710   4.3001192
  92.0753412  71.0779964   4.5917929  92.9631367  70.9969109   3.3682224
  89.7530502  79.3240901   0.7074997  90.2168847  79.6028604  -0.0820380
  89.4887300  78.4224346   0.5248088  86.6454583  78.8712383   3.6454761
  87.2155940  79.2999651   3.0072245  87.2362695  78.5894967   4.3438946
  88.6899388  75.4464053  -2.4835438  89.3923431  75.8985097  -2.0161511
  88.3580016  74.8047872  -1.8555544  87.1379749  74.0375810  11.8915772
  86.5078410  74.7192091  12.1251169  87.0315837  73.9258892  10.9468910
  82.4324722  73.7047606   2.8181696  81.6423776  73.9605135   2.3421807
  82.9235969  74.5195944   2.9233737  96.4488531  81.0452845   5.5686977
  97.2705975  80.6433032   5.2869658  96.4450934  80.9421079   6.5203093
  84.3839467  74.0692185  -0.2234827  83.5870631  74.1810879   0.2948668
  84.1565059  74.4078837  -1.0893937  90.2145135  80.5936888   7.7247687
  90.2789567  81.0557296   8.5605859  89.5056059  79.9634253   7.8529997
  80.7162425  73.9578096   5.2496687  80.9670463  74.8425106   5.5154263
  81.2521973  73.7782698   4.4771779  86.4160492  68.3396576  14.2541023
  86.0227438  67.7862774  14.9288667  87.2326633  68.6507154  14.6447540
  83.3822550  79.7780434  -1.8345407  83.8947071  80.5723684  -1.6839843
  84.0345263  79.0806724  -1.9011806  89.3328453  69.7554455  11.8461279
  90.0738167  70.3561608  11.7665742  89.5646376  69.0132093  11.2879322
  84.4769791  74.9410822  10.1239509  84.3623306  74.0396079  10.4246608
  83.6214309  75.1874519   9.7724326  91.5561629  82.8828562  11.7227010
  91.1125483  82.0964941  11.4047914  92.2178843  83.0707713  11.0570901
  86.3148750  84.4124364   6.2487688  86.8656175  84.2841427   5.4764682
  85.4760226  84.7119253   5.8982581  93.6542867  83.1631362   9.7508411
  93.6361342  83.9840243   9.2588680  94.5762787  83.0385438   9.9758552
  90.1115921  80.6775492  10.5931919  90.6444258  79.9163780  10.3631227
  89.5830002  80.3849144  11.3356074  93.2785616  65.7835558   6.1225561
  92.9349886  66.6737200   6.0464672  93.6464579  65.5937215   5.2595146
  81.3471467  78.1069088  -1.0585837  82.1846689  78.5166097  -1.2752129
  81.5249734  77.1668530  -1.0885643  90.8283010  70.6193870  -0.3116765
  89.9724606  70.2300720  -0.4911127  91.2409962  70.6985831  -1.1716980
  92.3582157  68.1540213   4.0874794  91.8546952  68.1170348   3.2742600
  92.6512763  69.0632956   4.1471451  88.6025042  68.2378943   3.0940976
  89.4678039  68.0421751   2.7346866  88.6702551  68.0089294   4.0210333
  96.4561480  78.0010505   3.2217778  95.7985154  78.6909766   3.3097906
  97.2601879  78.3906937   3.5651764  86.2087361  70.4681151   0.4657343
  86.7831113  70.2456332  -0.2669464  86.7958344  70.5369845   1.2185944
  95.2666939  76.3554878   1.2721719  95.7798820  76.9884869   1.7743429
  95.9168163  75.7556073   0.9065079  88.5110029  67.3422400  -0.8067588
  87.8574442  67.0271417  -1.4310973  88.4690503  66.7198140  -0.0807765
  91.7447770  73.8304333   3.5180060  90.8270331  74.0519280   3.3601748
  92.1607913  73.9050644   2.6591767  94.9761654  72.2652865   0.6301530
  94.2384411  71.7530251   0.9611772  95.2288428  71.8253247  -0.1815194
  95.0773282  65.0429117   1.2243299  95.3832159  64.1826480   0.9369214
  95.8025887  65.6346737   1.0242293  81.3697638  75.4459804  -0.3875103
  81.1722038  74.8529164  -1.1124037  80.8144302  75.1412014   0.3300836
  89.3494362  75.3382910   1.7319490  89.4042971  74.3856746   1.6561966
  88.5385564  75.4942349   2.2160788  87.2886721  73.9559970  -0.5090131
  86.4754587  74.2554140  -0.1024939  87.7845716  73.5615659   0.2084351
  92.8860933  74.4201794   8.3224763  93.2410321  74.6473267   9.1819228
  93.5333064  74.7520171   7.7002018  86.7800796  71.5278325   5.1071104
  87.4200176  71.3867084   4.4094067  85.9478327  71.2412839   4.7309706
  87.5561100  80.8280756   1.2206096  88.3501699  80.3331076   1.0188671
  86.8452793  80.2998619   0.8573802  92.3755945  83.2098851   5.5718464
  92.4292967  83.7789788   6.3396180  91.5070726  83.3800736   5.2072501
  83.8643864  74.9723838  -2.7034151  82.9341452  74.9108293  -2.4864189
  83.9601336  74.4499790  -3.4997510  83.7829413  71.4978650  -0.1155910
  84.0436230  72.4123984  -0.2246749  84.6046585  71.0303093   0.0340703
  85.2554338  72.9116408   7.0542915  85.9277391  72.7033770   6.4055564
  84.4284124  72.7138494   6.6148147  99.5043599  79.6520458   6.5718249
  99.6979489  80.5566268   6.8177523  99.4044217  79.1927877   7.4056834
  91.1579910  69.5378348   9.0708576  90.5107825  70.2368298   8.9773052
  91.9280925  69.9714492   9.4384824  94.5658708  79.8027201  12.1459129
  94.4144214  79.5737752  11.2289213  94.5563387  80.7597802  12.1590474
  91.3344044  77.3759113   7.1305396  92.2636104  77.5270273   6.9574363
  90.9135074  77.4643134   6.2754042  90.1332376  81.4009778   4.9003933
  89.9943462  81.0328562   5.7729871  89.3446972  81.9157417   4.7287891
  91.6837591  80.7791380   2.2892771  91.3487424  80.7392150   3.1850421
  91.1841537  80.1136096   1.8163181  85.6581835  76.1859010   7.8145352
  85.5201633  75.4539249   8.4156891  86.5686759  76.0967911   7.5329540
  88.2864136  75.8978970   7.3029032  88.9963754  75.2572162   7.2615650
  88.2433444  76.1491865   8.2255213  96.2750915  82.8346323  10.2235611
  96.2163461  82.1505543   9.5566194  96.6770433  83.5765313   9.7716237
  86.9993070  72.8844188   9.1224671  86.4630427  72.4334926   9.7746268
  86.4109778  73.0190097   8.3795136  96.2768322  80.7985907   8.4549591
  95.3895101  80.4611829   8.5775990  96.8466873  80.0668938   8.6918356
  77.9297469  77.1309999   1.7792642  78.6168509  76.8171729   1.1913657
  77.7745598  78.0351363   1.5059894  82.7332191  72.0200195   6.2077666
  82.6490380  71.4125865   5.4728076  81.9114898  72.5109214   6.2087162
  89.8069475  85.4587359   5.4210834  89.7339647  86.2642331   5.9330138
  89.3646868  85.6579325   4.5958855  92.9055905  70.5053759   1.5747861
  93.4024605  69.7523721   1.2548931  92.1342886  70.5418076   1.0091070
 100.7585662  76.2094124   3.2166152 100.7475539  77.0918840   2.8460085
  99.8903042  75.8565675   3.0220689  92.2668159  85.3574193   7.5768993
  92.9796131  85.9921658   7.5044894  91.7758187  85.4538059   6.7608994
  89.4890874  72.6471142   1.3019545  89.1188661  72.0942182   1.9900451
  89.9849966  72.0429275   0.7494545  87.3180072  83.1068637   8.3974563
  88.0189532  83.7405120   8.5503958  86.8475187  83.4483368   7.6370203
  95.3474900  67.4723352   3.7227220  94.4337980  67.7027579   3.8909427
  95.7768001  67.5561796   4.5741252  95.1181358  75.6613244   6.2227114
  94.4652808  75.9089152   5.5679567  95.4961738  74.8477383   5.8889591
  91.1668931  76.4033055  12.7093151  90.4909568  76.3027185  13.3795526
  91.9896565  76.2472269  13.1729148  82.9147790  82.6404992   5.3305666
  83.5001227  81.8948680   5.4633570  82.7172629  82.9508949   6.2142330
  77.5065445  75.2110592   4.0510109  77.5449545  74.6774183   4.8447227
  77.0005738  74.6845798   3.4321086  89.9091714  87.7099983   6.9450767
  90.4610022  87.8731604   7.7099852  90.2497908  88.3004421   6.2730792
  84.8856207  70.0575133   7.5472652  84.9497534  70.9189964   7.1350049
  84.8223328  69.4449134   6.8145010  84.3608480  72.1298265  11.1945686
  84.9880519  71.7475343  11.8083210  83.5036399  71.9112467  11.5601378
  94.7602588  82.5361240  12.7999421  95.3042492  83.1491199  12.3054376
  94.1789433  83.0940819  13.3166434  81.1374023  73.9374694  -2.8735959
  81.4327464  73.0285373  -2.9268906  80.2362058  73.9162434  -3.1954957
  84.6668270  72.0130691   3.1091589  83.9454855  72.6266659   2.9699063
  85.4561525  72.5488456   3.0308235  95.1095010  83.4590979   5.5593999
  94.1625345  83.3396330   5.4872326  95.4577783  82.5713477   5.6420261
  87.4694583  69.3485117   9.3832241  87.9928985  69.5947414  10.1458550
  87.2506916  70.1805152   8.9635378  82.8661864  71.6188792  -2.7496634
  82.5374570  70.7386171  -2.9321528  83.2201235  71.5636461  -1.8620245
  85.9803687  71.9061762  -2.3821157  86.3199760  72.4347683  -3.1042548
  86.4275808  72.2442168  -1.6062590  88.6747128  70.2898813   7.0681911
  88.3343949  69.4906626   7.4702591  87.9686135  70.5900523   6.4958745
  89.3263600  67.3748125   5.5209235  90.1489669  66.9008603   5.3988125
  89.5701664  68.1538609   6.0207921  87.9671835  70.4036383  -4.1827864
  88.6880197  70.7817636  -4.6864147  87.3437139  71.1225260  -4.0792886
  92.1102957  71.1081532  -3.2469531  92.3266572  71.9906170  -3.5480703
  91.6297025  70.7167746  -3.9763889  86.8502179  74.0667246   3.3301213
  86.7046760  74.3807549   4.2225495  86.3727382  74.6852146   2.7772112
  88.7098562  71.0569794   3.3782103  88.6960130  70.1610887   3.0414401
  89.4270990  71.0640457   4.0120389  90.5624692  71.4907134   5.4235230
  90.3042470  72.4124204   5.4219561  90.0309733  71.0937568   6.1135694
  81.3247841  76.6072590   6.2688874  80.7801309  77.3832398   6.4009149
  82.2027191  76.9543394   6.1107996  88.1135458  69.9384174  -1.3530327
  88.2351369  69.0100820  -1.1539440  87.8237500  69.9522860  -2.2652012
  90.9826648  67.6239084   1.7836393  91.0048345  67.6878417   0.8288372
  91.3994707  66.7843593   1.9776899  82.1113863  75.7342486   9.1619031
  81.3695599  75.8825122   9.7483662  81.7906607  75.9950752   8.2985781
  90.0557525  85.2758464   8.9599421  90.3644652  85.0307611   9.8322121
  90.8533008  85.4805103   8.4718291  82.5570477  83.6207915   1.1929426
  83.3828496  83.3211687   0.8128069  82.2064529  82.8515537   1.6419214
  87.5252010  82.9734383   3.2627099  86.9032019  82.3105088   2.9629327
  88.1956877  82.9995515   2.5800747  80.7579082  81.5394241   2.1518359
  79.9210990  81.1116416   1.9702361  80.7302727  81.7326685   3.0889151
  87.5976537  71.4516171  12.8559605  87.6464693  72.3278294  12.4737375
  88.1399051  70.9093564  12.2831249  98.0831383  81.9957294  12.1360743
  97.2926927  81.9781433  11.5965242  97.8464737  82.5345588  12.8909779
  98.2029258  78.8449761   9.4493471  98.2527263  78.6799768  10.3908994
  98.0943181  77.9777020   9.0591352  95.4933020  74.8280689  10.7652778
  96.3942883  74.6887154  10.4736776  95.5680995  74.9935144  11.7050955
  89.8275826  72.2047544   9.6105964  88.9579135  72.4981110   9.3388553
  90.0635306  72.7887989  10.3313228  99.7047455  81.2646702   9.6935493
  99.4132263  81.6276683  10.5298954  99.0919586  80.5513711   9.5148825
  97.9534643  76.3879317   8.1615551  98.4288765  76.5806963   7.3534402
  97.0300208  76.4438503   7.9158934  84.8418150  77.5503484  -2.2553371
  84.5964192  76.6465814  -2.0573161  85.0114064  77.5520635  -3.1973893
  92.5314859  68.4227161   7.1271384  93.0496803  69.1588187   6.8017873
  92.1769992  68.7291154   7.9618144  84.1113797  73.2831842  -4.7567210
  83.4183042  73.3576197  -5.4127174  83.8665549  72.5192185  -4.2345693
  92.7827454  64.8427443   2.6472281  93.0629207  64.1750632   3.2732708
  93.5678061  65.0356539   2.1346945  96.6536312  73.2645077   6.3943856
  97.6053735  73.3643175   6.4156080  96.4839762  72.4723346   6.9041941
  94.6750691  70.3500660   6.5803257  94.0800624  70.6305673   5.8849746
  94.3900388  70.8394561   7.3519998  99.1324390  76.4851197   5.5086156
  99.1000710  75.5467197   5.6945840  99.7425013  76.5635233   4.7751981
  99.2818878  73.2762240   5.5544439  98.7657927  72.4920697   5.3674368
 100.1658827  72.9480957   5.7190958  96.9429605  67.0203256   1.5140252
  96.7454426  66.7118344   2.3983584  97.5529311  67.7464895   1.6438182
 104.9500940  77.5467204   4.6492193 105.6804328  77.2852492   5.2099896
 104.3407885  76.8095926   4.6894261 103.0316237  75.6875066   5.2466644
 102.3049400  75.5531031   4.6383135 102.6163524  75.9951895   6.0523362
  90.8546413  79.4064996  13.0114017  91.7749423  79.5843595  13.2054063
  90.8195996  78.4621041  12.8593716  80.0728578  74.6003590   1.9367291
  79.7531362  73.7468898   1.6441665  79.5262006  74.8152168   2.6925259
  83.8508486  77.3166031   5.6536798  84.0694495  78.2483138   5.6724832
  84.2634260  76.9574005   6.4391602  90.7712703  67.8234116  -2.3587514
  89.9613432  67.4781201  -1.9832268  91.4597120  67.5141660  -1.7699902
  92.7003252  66.9012163  -0.7363217  93.2534290  67.3207616  -0.0773194
  92.9373338  65.9747911  -0.6940261  88.7236351  72.8899236  15.0439547
  88.6233078  73.8393593  14.9751638  88.5057893  72.5617475  14.1715617
  79.9416838  78.2206501   3.9060413  79.2480310  77.8060454   3.3930367
  80.6889829  78.2627038   3.3093832  96.0782059  69.0112688  -1.2284553
  95.4980728  69.6697492  -1.6106500  95.8117992  68.1890032  -1.6397135
  94.5285625  68.4117746   0.9736768  95.0285404  68.5234280   0.1651086
  95.1721233  68.1078798   1.6137576  88.5867621  76.3196375  13.8604609
  88.1034703  77.1196735  14.0668498  88.6728560  76.3304320  12.9072053
  81.8553581  78.1524755   1.7826428  81.8324269  78.2512442   0.8308311
  82.1654217  78.9989906   2.1043594  84.5140959  80.2100910   5.8973042
  85.4684212  80.1784852   5.8302974  84.3153482  79.7491534   6.7123268
  85.1040341  78.7802026   8.4643840  85.9233230  79.2746105   8.4878677
  85.3777148  77.8633994   8.4361408  94.8606937  71.1712778  -2.1728204
  93.9732792  71.4562429  -2.3908010  95.2760926  71.0106542  -3.0200928
  98.2121473  71.1959299   1.5426135  98.9881863  71.6855752   1.8150752
  97.4869607  71.6217353   1.9998004 100.6494032  71.9086918   2.6000075
 101.2438522  71.6682654   1.8893384 100.7220615  71.1894049   3.2273612
  82.8691187  85.7520529   2.9143240  82.7345655  84.9920930   2.3481238
  82.4523250  86.4761429   2.4472029  86.0260313  86.6489846   3.1261683
  85.9092697  87.5935279   3.0240373  85.2052759  86.3463408   3.5147482
  80.3575255  73.1140160   9.1636037  81.0034119  72.6039114   9.6523262
  80.1492406  73.8508841   9.7379462  92.8828647  80.1821007  14.6628178
  93.7519807  80.3561660  14.3014813  92.4035399  81.0015424  14.5403907
  88.8778865  67.3780204  -5.0840067  88.8657535  68.3222044  -4.9271796
  89.7702287  67.1950350  -5.3780606  87.0514827  87.3018108   6.3417611
  87.9542074  87.3341719   6.6584106  86.8252197  86.3718559   6.3563947
  92.6930985  63.9722981  -0.8294130  91.9263381  63.4181468  -0.6837448
  93.1041690  64.0444850   0.0320022  84.6972746  70.2607777  13.2611051
  85.5604207  69.9044582  13.4714376  84.1238157  69.9221672  13.9486456
 100.9865768  89.4042626  11.5282495 100.2099102  89.9636546  11.5185359
 101.6256331  89.8899409  12.0497365  97.9773504  89.3667728  11.8915772
  97.3472165  90.0484008  12.1251169  97.8709592  89.2550809  10.9468910
  97.2554247  83.6688493  14.2541023  96.8621192  83.1154692  14.9288667
  98.0720387  83.9799072  14.6447540 100.1722208  85.0846373  11.8461279
 100.9131921  85.6853526  11.7665742 100.4040131  84.3424010  11.2879322
  95.3163546  90.2702740  10.1239509  95.2017061  89.3687997  10.4246608
  94.4608063  90.5166437   9.7724326 101.9973664  84.8670266   9.0708576
 101.3501580  85.5660216   8.9773052 102.7674680  85.3006410   9.4384824
  97.8386824  88.2136105   9.1224671  97.3024181  87.7626844   9.7746268
  97.2503533  88.3482014   8.3795136  93.5725946  87.3492113   6.2077666
  93.4884134  86.7417783   5.4728076  92.7508652  87.8401131   6.2087162
 102.0062686  91.7324973  12.7093151 101.3303323  91.6319102  13.3795526
 102.8290320  91.5764187  13.1729148  95.7249962  85.3867050   7.5472652
  95.7891288  86.2481881   7.1350049  95.6617082  84.7741052   6.8145010
  95.2002234  87.4590183  11.1945686  95.8274273  87.0767260  11.8083210
  94.3430153  87.2404385  11.5601378  98.3088338  84.6777035   9.3832241
  98.8322739  84.9239332  10.1458550  98.0900671  85.5097070   8.9635378
  92.9507617  91.0634404   9.1619031  92.2089353  91.2117039   9.7483662
  92.6300362  91.3242670   8.2985781  98.4370292  86.7808089  12.8559605
  98.4858447  87.6570212  12.4737375  98.9792806  86.2385482  12.2831249
 100.6669580  87.5339461   9.6105964  99.7972890  87.8273027   9.3388553
 100.9029060  88.1179906  10.3313228  99.5630105  88.2191154  15.0439547
  99.4626832  89.1685511  14.9751638  99.3451648  87.8909393  14.1715617
  99.4261376  91.6488293  13.8604609  98.9428457  92.4488653  14.0668498
  99.5122315  91.6596238  12.9072053  91.1969009  88.4432077   9.1636037
  91.8427873  87.9331031   9.6523262  90.9886161  89.1800759   9.7379462
  95.5366500  85.5899694  13.2611051  96.3997962  85.2336499  13.4714376
  94.9631911  85.2513589  13.9486456  80.7167876  44.5598767  -1.5527684
  80.2731730  43.7735146  -1.8706779  81.3785089  44.7477918  -2.2183793
  82.8149114  44.8401567  -3.5246282  82.7967589  45.6610448  -4.0166013
  83.7369034  44.7155643  -3.2996141  79.2722168  42.3545697  -2.6822774
  79.8050505  41.5933985  -2.9123466  78.7436249  42.0619349  -1.9398620
  88.6649846  41.3290663  -6.7036445  88.8585736  42.2336473  -6.4577170
  88.5650464  40.8698082  -5.8697860  83.7264955  41.4797406  -1.1295564
  83.5750461  41.2507957  -2.0465480  83.7169634  42.4368007  -1.1164219
  85.4357161  44.5116528  -3.0519082  85.3769707  43.8275748  -3.7188499
  85.8376680  45.2535518  -3.5038456  85.4374569  42.4756112  -4.8205103
  84.5501347  42.1382034  -4.6978704  86.0073120  41.7439143  -4.5836337
  81.4274406  47.0344398  -5.6985701  82.1402378  47.6691863  -5.7709799
  80.9364434  47.1308264  -6.5145699  80.3275178  38.0803260  -0.5661543
  79.6515815  37.9797390   0.1040833  81.1502812  37.9242474  -0.1025545
  79.0697961  49.3870188  -6.3303927  79.6216269  49.5501809  -5.5654841
  79.4104154  49.9774626  -7.0023902  83.9208835  44.2131445  -0.4755272
  84.4648739  44.8261404  -0.9700317  83.3395680  44.7711024   0.0411741
  79.2163772  46.9528669  -4.3155272  79.5250899  46.7077816  -3.4432573
  80.0139254  47.1575308  -4.8036402  87.2437630  43.6727499  -1.1393951
  86.4533173  43.6551638  -1.6789451  87.0070984  44.2115793  -0.3844914
  87.3635505  40.5219966  -3.8261222  87.4133510  40.3569973  -2.8845700
  87.2549428  39.6547225  -4.2163342  84.6539267  36.5050894  -2.5101916
  85.5549130  36.3657359  -2.8017918  84.7287242  36.6705349  -1.5703738
  88.8653701  42.9416907  -3.5819201  88.5738510  43.3046888  -2.7455740
  88.2525833  42.2283916  -3.7605869  80.0152660  41.0835201  -0.2640677
  80.9355669  41.2613800  -0.0700630  79.9802243  40.1391246  -0.4160977
  77.7473868  37.9966580   0.5849915  77.2640950  38.7966940   0.7913804
  77.8334807  38.0074525  -0.3682641  82.0434894  41.8591212   1.3873484
  82.9126054  42.0331864   1.0260119  81.5641645  42.6785629   1.2649214
  93.7027370  53.5679838  -9.2081241  94.3405780  53.4486585  -9.9117901
  93.5848213  54.5160682  -9.1493289  90.5117076  53.5207266  -9.2719716
  90.1735587  53.4048331 -10.1599181  91.3806844  53.1198431  -9.2918710
  90.9936859  54.6742118  -3.3133511  90.9825500  54.2794916  -4.1853007
  91.1557498  53.9408191  -2.7199739  83.9168324  56.8693934 -10.4438605
  84.7089615  56.5284759 -10.8592306  84.1564974  56.9788909  -9.5236452
  87.7144120  57.4579230  -4.3654327  87.4233986  58.3624861  -4.4807661
  88.3501104  57.4995757  -3.6510257  88.6400327  54.8356078  -7.7752967
  89.2363899  54.6112101  -8.4896004  88.6975298  54.0940824  -7.1727519
  90.2753185  53.6533767 -14.0331712  89.9111392  53.1264388 -13.3218791
  91.1320301  53.2632236 -14.2065227  96.1802486  44.9428099  -6.7700446
  95.8485810  45.8123510  -6.9939231  95.5848099  44.6264383  -6.0906415
  92.6734005  57.1440645  -7.3704533  92.3734728  58.0465684  -7.4788726
  92.3285065  56.8772828  -6.5183380  86.1246487  53.5954442 -11.3367829
  85.1996983  53.4630656 -11.1290137  86.3730900  54.3748661 -10.8397886
  96.0731149  49.6623185  -9.6907096  95.1648026  49.5938594  -9.9848335
  96.0218745  50.1395130  -8.8625270  83.4855298  53.2387716 -10.5024040
  83.6147679  53.4922195  -9.5884628  82.8052749  53.8315424 -10.8219385
  90.1472015  51.0812831  -1.7472199  89.3705349  51.6406751  -1.7569334
  90.7862578  51.5669614  -1.2257328  88.4018387  53.8898284  -2.1854232
  89.1433071  54.4283328  -2.4619408  87.6955372  54.5164573  -2.0282680
  93.8773727  56.0327425  -3.5882070  94.2857083  55.5909835  -4.3327438
  93.1550988  55.4580052  -3.3347877  90.2304797  50.9700032  -6.2148513
  91.0765992  51.3939445  -6.0713864  90.1703434  50.3133656  -5.5209950
  94.2002541  56.5928615  -9.8329781  93.5711404  56.7574330 -10.5353713
  93.8128203  57.0070225  -9.0618817  93.3804242  48.6304400  -4.5567339
  93.1365174  49.3846461  -5.0933064  93.6564173  49.0089748  -3.7220092
  95.3342705  55.1743012  -5.8790074  95.5459600  55.8174772  -6.5555693
  95.2872453  54.3405329  -6.3468144  92.9368934  47.7860833  -8.9753502
  92.0753413  48.0842087  -8.6836764  92.9631368  48.0031232  -9.9072469
  89.7530503  56.3303024 -12.5679696  90.2168849  56.6090727 -13.3575074
  89.4887301  55.4286468 -12.7506605  86.6454584  55.8774505  -9.6299933
  87.2155941  56.3061773 -10.2682448  87.2362696  55.5957090  -8.9315747
  87.1379751  51.0437933  -1.3838922  86.5078411  51.7254213  -1.1503525
  87.0315839  50.9321014  -2.3285783  96.4488533  58.0514968  -7.7067717
  97.2705976  57.6495155  -7.9885035  96.4450936  57.9483202  -6.7551601
  90.2145136  57.5999011  -5.5507006  90.2789569  58.0619418  -4.7148834
  89.5056060  56.9696376  -5.4224696  80.7162426  50.9640219  -8.0258007
  80.9670465  51.8487229  -7.7600431  81.2521975  50.7844821  -8.7982915
  86.4160493  45.3458698   0.9786330  86.0227439  44.7924897   1.6533974
  87.2326634  45.6569277   1.3692847  89.3328454  46.7616577  -1.4293414
  90.0738168  47.3623731  -1.5088951  89.5646377  46.0194215  -1.9875371
  84.4769792  51.9472945  -3.1515184  84.3623308  51.0458202  -2.8508085
  83.6214310  52.1936642  -3.5030368  91.5561630  59.8890685  -1.5527684
  91.1125484  59.1027064  -1.8706779  92.2178844  60.0769836  -2.2183793
  86.3148751  61.4186487  -7.0267005  86.8656177  61.2903550  -7.7990011
  85.4760227  61.7181376  -7.3772112  93.6542868  60.1693485  -3.5246282
  93.6361344  60.9902366  -4.0166013  94.5762788  60.0447560  -3.2996141
  90.1115922  57.6837614  -2.6822774  90.6444259  56.9225903  -2.9123466
  89.5830004  57.3911266  -1.9398620  92.3582158  45.1602336  -9.1879899
  91.8546953  45.1232471 -10.0012094  92.6512765  46.0695078  -9.1283242
  96.4561481  55.0072627 -10.0536916  95.7985156  55.6971889  -9.9656787
  97.2601880  55.3969059  -9.7102929  91.7447771  50.8366456  -9.7574633
  90.8270332  51.0581403  -9.9152945  92.1607914  50.9112766 -10.6162926
  89.3494363  52.3445033 -11.5435203  89.4042973  51.3918869 -11.6192727
  88.5385565  52.5004472 -11.0593905  92.8860934  51.4263917  -4.9529931
  93.2410322  51.6535390  -4.0935465  93.5333066  51.7582294  -5.5752675
  86.7800797  48.5340448  -8.1683590  87.4200177  48.3929207  -8.8660626
  85.9478328  48.2474961  -8.5444988  87.5561101  57.8342878 -12.0548597
  88.3501700  57.3393199 -12.2566022  86.8452794  57.3060742 -12.4180892
  92.3755946  60.2160974  -7.7036230  92.4292968  60.7851910  -6.9358514
  91.5070727  60.3862859  -8.0682192  85.2554339  49.9178530  -6.2211778
  85.9277393  49.7095892  -6.8699129  84.4284126  49.7200616  -6.6606546
  99.5043601  56.6582580  -6.7036445  99.6979491  57.5628391  -6.4577170
  99.4044219  56.1990000  -5.8697860  91.1579911  46.5440471  -4.2046117
  90.5107826  47.2430421  -4.2981641  91.9280927  46.9776615  -3.8369869
  94.5658709  56.8089323  -1.1295564  94.4144216  56.5799875  -2.0465480
  94.5563389  57.7659925  -1.1164219  91.3344046  54.3821236  -6.1449298
  92.2636106  54.5332396  -6.3180330  90.9135076  54.4705257  -7.0000651
  90.1332377  58.4071900  -8.3750760  89.9943463  58.0390685  -7.5024822
  89.3446974  58.9219540  -8.5466802  91.6837593  57.7853503 -10.9861922
  91.3487425  57.7454273 -10.0904272  91.1841538  57.1198219 -11.4591512
  85.6581836  53.1921133  -5.4609341  85.5201634  52.4601372  -4.8597802
  86.5686760  53.1030033  -5.7425153  88.2864137  52.9041092  -5.9725662
  88.9963756  52.2634285  -6.0139043  88.2433445  53.1553987  -5.0499481
  96.2750916  59.8408446  -3.0519082  96.2163462  59.1567666  -3.7188499
  96.6770434  60.5827436  -3.5038456  86.9993071  49.8906310  -4.1530022
  86.4630428  49.4397049  -3.5008426  86.4109780  50.0252219  -4.8959558
  96.2768323  57.8048030  -4.8205103  95.3895102  57.4673951  -4.6978704
  96.8466874  57.0731061  -4.5836337  82.7332192  49.0262318  -7.0677028
  82.6490381  48.4187988  -7.8026618  81.9114899  49.5171336  -7.0667531
  89.8069476  62.4649482  -7.8543859  89.7339648  63.2704454  -7.3424555
  89.3646870  62.6641448  -8.6795838  92.2668160  62.3636316  -5.6985701
  92.9796132  62.9983781  -5.7709799  91.7758189  62.4600182  -6.5145699
  87.3180074  60.1130760  -4.8780130  88.0189533  60.7467242  -4.7250736
  86.8475189  60.4545491  -5.6384491  95.1181360  52.6675367  -7.0527580
  94.4652810  52.9151274  -7.7075127  95.4961739  51.8539505  -7.3865102
  91.1668933  53.4095178  -0.5661543  90.4909570  53.3089307   0.1040833
  91.9896566  53.2534392  -0.1025545  82.9147792  59.6467115  -7.9449027
  83.5001228  58.9010802  -7.8121123  82.7172630  59.9571071  -7.0612363
  89.9091715  64.7162105  -6.3303927  90.4610023  64.8793727  -5.5654841
  90.2497909  65.3066543  -7.0023902  84.8856209  47.0637255  -5.7282042
  84.9497535  47.9252086  -6.1404644  84.8223329  46.4511257  -6.4609683
  84.3608481  49.1360388  -2.0809008  84.9880520  48.7537465  -1.4671483
  83.5036400  48.9174590  -1.7153315  94.7602590  59.5423363  -0.4755272
  95.3042494  60.1553321  -0.9700317  94.1789435  60.1002941   0.0411741
  95.1095011  60.4653101  -7.7160694  94.1625347  60.3458452  -7.7882368
  95.4577784  59.5775599  -7.6334433  87.4694584  46.3547240  -3.8922452
  87.9928986  46.6009537  -3.1296143  87.2506918  47.1867275  -4.3119315
  88.6747129  47.2960935  -6.2072782  88.3343950  46.4968748  -5.8052102
  87.9686136  47.5962646  -6.7795949  89.3263601  44.3810248  -7.7545459
  90.1489671  43.9070726  -7.8766569  89.5701665  45.1600731  -7.2546773
  86.8502180  51.0729368  -9.9453480  86.7046761  51.3869671  -9.0529199
  86.3727384  51.6914269 -10.4982582  88.7098563  48.0631916  -9.8972591
  88.6960132  47.1673009 -10.2340293  89.4270991  48.0702580  -9.2634305
  90.5624694  48.4969256  -7.8519463  90.3042471  49.4186327  -7.8535133
  90.0309734  48.0999691  -7.1618999  81.3247842  53.6134713  -7.0065819
  80.7801310  54.3894521  -6.8745545  82.2027192  53.9605517  -7.1646698
  82.1113864  52.7404609  -4.1135662  81.3695600  52.8887244  -3.5271032
  81.7906608  53.0012874  -4.9768913  90.0557527  62.2820587  -4.3155272
  90.3644653  62.0369734  -3.4432573  90.8533009  62.4867226  -4.8036402
  82.5570478  60.6270038 -12.0825268  83.3828498  60.3273809 -12.4626624
  82.2064530  59.8577660 -11.6335479  87.5252011  59.9796506 -10.0127594
  86.9032020  59.3167211 -10.3125366  88.1956878  60.0057638 -10.6953946
  80.7579083  58.5456364 -11.1236334  79.9210991  58.1178538 -11.3052333
  80.7302728  58.7388807 -10.1865543  87.5976538  48.4578294  -0.4195088
  87.6464694  49.3340417  -0.8017318  88.1399053  47.9155687  -0.9923445
  98.0831384  59.0019417  -1.1393951  97.2926928  58.9843556  -1.6789451
  97.8464739  59.5407711  -0.3844914  98.2029259  55.8511883  -3.8261222
  98.2527264  55.6861891  -2.8845700  98.0943182  54.9839142  -4.2163342
  95.4933022  51.8342811  -2.5101916  96.3942884  51.6949276  -2.8017918
  95.5680996  51.9997266  -1.5703738  89.8275827  49.2109666  -3.6648729
  88.9579136  49.5043232  -3.9366141  90.0635307  49.7950111  -2.9441466
  99.7047456  58.2708825  -3.5819201  99.4132264  58.6338806  -2.7455740
  99.0919587  57.5575833  -3.7605869  97.9534644  53.3941440  -5.1139143
  98.4288766  53.5869086  -5.9220291  97.0300210  53.4500625  -5.3595759
  92.5314861  45.4289283  -6.1483309  93.0496805  46.1650310  -6.4736820
  92.1769993  45.7353276  -5.3136550  96.6536313  50.2707200  -6.8810837
  97.6053736  50.3705297  -6.8598613  96.4839764  49.4785468  -6.3712753
  94.6750693  47.3562783  -6.6951436  94.0800625  47.6367796  -7.3904948
  94.3900389  47.8456684  -5.9234695  99.1324391  53.4913319  -7.7668538
  99.1000711  52.5529320  -7.5808854  99.7425015  53.5697356  -8.5002713
  90.8546414  56.4127118  -0.2640677  91.7749424  56.5905717  -0.0700630
  90.8195997  55.4683164  -0.4160977  83.8508487  54.3228153  -7.6217895
  84.0694497  55.2545261  -7.6029862  84.2634261  53.9636128  -6.8363092
  88.7236352  49.8961359   1.7684854  88.6233079  50.8455716   1.6996945
  88.5057894  49.5679598   0.8960924  79.9416839  55.2268624  -9.3694280
  79.2480311  54.8122576  -9.8824326  80.6889830  55.2689160  -9.9660861
  88.5867622  53.3258498   0.5849915  88.1034704  54.1258858   0.7913804
  88.6728561  53.3366443  -0.3682641  84.5140960  57.2163032  -7.3781651
  85.4684213  57.1846975  -7.4451719  84.3153483  56.7553656  -6.5631425
  85.1040342  55.7864148  -4.8110853  85.9233231  56.2808227  -4.7876016
  85.3777150  54.8696117  -4.8393286  82.8691189  62.7582652 -10.3611453
  82.7345657  61.9983053 -10.9273455  82.4523251  63.4823552 -10.8282664
  86.0260314  63.6551969 -10.1493010  85.9092699  64.5997401 -10.2514320
  85.2052761  63.3525530  -9.7607211  80.3575256  50.1202282  -4.1118656
  81.0034120  49.6101236  -3.6231431  80.1492407  50.8570964  -3.5375231
  92.8828648  57.1883130   1.3873484  93.7519808  57.3623782   1.0260119
  92.4035400  58.0077547   1.2649214  87.0514829  64.3080231  -6.9337082
  87.9542075  64.3403841  -6.6170587  86.8252199  63.3780682  -6.9190746
  84.6972747  47.2669899  -0.0143642  85.5604209  46.9106704   0.1959683
  84.1238158  46.9283794   0.6731762 100.9865769  66.4104749  -1.7472199
 100.2099103  66.9698669  -1.7569334 101.6256332  66.8961532  -1.2257328
  97.9773505  66.3729850  -1.3838922  97.3472166  67.0546131  -1.1503525
  97.8709593  66.2612932  -2.3285783  97.2554248  60.6750616   0.9786330
  96.8621194  60.1216815   1.6533974  98.0720388  60.9861195   1.3692847
 100.1722209  62.0908495  -1.4293414 100.9131922  62.6915648  -1.5088951
 100.4040132  61.3486133  -1.9875371  95.3163547  67.2764862  -3.1515184
  95.2017062  66.3750120  -2.8508085  94.4608065  67.5228559  -3.5030368
 101.9973666  61.8732389  -4.2046117 101.3501581  62.5722338  -4.2981641
 102.7674681  62.3068533  -3.8369869  97.8386826  65.2198228  -4.1530022
  97.3024183  64.7688966  -3.5008426  97.2503534  65.3544137  -4.8959558
  93.5725947  64.3554236  -7.0677028  93.4884136  63.7479905  -7.8026618
  92.7508653  64.8463254  -7.0667531 102.0062687  68.7387096  -0.5661543
 101.3303324  68.6381225   0.1040833 102.8290321  68.5826309  -0.1025545
  95.7249963  62.3929173  -5.7282042  95.7891290  63.2544004  -6.1404644
  95.6617083  61.7803175  -6.4609683  95.2002236  64.4652306  -2.0809008
  95.8274274  64.0829383  -1.4671483  94.3430155  64.2466507  -1.7153315
  98.3088339  61.6839158  -3.8922452  98.8322741  61.9301454  -3.1296143
  98.0900672  62.5159193  -4.3119315  92.9507619  68.0696527  -4.1135662
  92.2089355  68.2179162  -3.5271032  92.6300363  68.3304792  -4.9768913
  98.4370293  63.7870211  -0.4195088  98.4858448  64.6632334  -0.8017318
  98.9792807  63.2447605  -0.9923445 100.6669581  64.5401584  -3.6648729
  99.7972891  64.8335150  -3.9366141 100.9029062  65.1242029  -2.9441466
  99.5630107  65.2253277   1.7684854  99.4626834  66.1747634   1.6996945
  99.3451649  64.8971515   0.8960924  99.4261377  68.6550415   0.5849915
  98.9428459  69.4550776   0.7913804  99.5122316  68.6658360  -0.3682641
  91.1969011  65.4494200  -4.1118656  91.8427874  64.9393154  -3.6231431
  90.9886162  66.1862882  -3.5375231  95.5366502  62.5961817  -0.0143642
  96.3997963  62.2398622   0.1959683  94.9631912  62.2575712   0.6731762
   3.0950234 117.8962677  82.2528233   3.6894724 117.6558413  81.5421541
   3.1676817 117.1769807  82.8801769   6.9850728 100.3829475  68.2945412
   6.2314436  99.8136873  68.1389416   7.1198269 100.3492139  69.2416047
   1.0614873 100.5358111  65.4047555   0.9232772 100.7259707  64.4768745
   0.7051092 101.2977494  65.8615607   1.0884253 102.6034638  70.4158827
   1.5220760 102.5109927  71.2641881   1.8015834 102.5792139  69.7778843
   1.9499803 102.6458339  72.9491712   2.1435693 103.5504149  73.1950987
   1.8500421 102.1865758  73.7830297   3.2041866  99.2032005  69.5939616
   3.1931742 100.0856721  69.2233549   2.3359245  98.8503556  69.3994153
   3.8066476 100.3532225  66.1989079   4.2497622  99.6039550  65.8008202
   2.9292986 100.3442361  65.8162811   0.8393680 104.3562272  63.2083008
   1.3645004 104.6949545  62.4832328   0.7516033 103.4209287  63.0246143
   0.6485461 101.8387642  75.8266935   0.6983466 101.6737649  76.7682458
   0.5399385 100.9714901  75.4364816   2.1503658 104.2584583  76.0708956
   1.8588466 104.6214564  76.9072417   1.5375789 103.5451592  75.8922288
   3.3499340 101.8237463  68.5911527   4.1846232 102.2627267  68.7549087
   3.4858469 101.3476116  67.7719772   1.5780593  99.4789078  71.8859620
   1.5456913  98.5405078  72.0719303   2.1881217  99.5573114  71.1525444
   1.7275082  96.2700121  71.9317903   1.2114130  95.4858578  71.7447832
   2.6115030  95.9418838  72.0964422   7.3957143 100.5405085  71.0265656
   8.1260531 100.2790373  71.5873360   6.7864088  99.8033807  71.0667724
   5.4772440  98.6812947  71.6240108   4.7505604  98.5468912  71.0156599
   5.0619727  98.9889776  72.4296826   3.0950235  94.9024799  68.9773539
   3.6894726  94.6620535  68.2666847   3.1676819  94.1831930  69.6047075
   1.0908970  95.4694927  65.2445669   0.8345904  95.0691563  66.0753877
   0.4661838  96.1838721  65.1195808   5.4021308  98.2091000  67.7516960
   4.8420866  98.2784190  68.5248522   4.7964811  98.0331985  67.0316457
   6.9877326 114.8847514  70.4446916   7.6255736 114.7654261  69.7410256
   6.8698169 115.8328358  70.5034868   3.7967032 114.8374942  70.3808441
   3.4585544 114.7216007  69.4928976   4.6656801 114.4366107  70.3609447
   4.2786815 115.9909794  76.3394646   4.2675456 115.5962592  75.4675150
   4.4407455 115.2575867  76.9328418   1.9250283 116.1523754  71.8775190
   2.5213856 115.9279777  71.1632153   1.9825255 115.4108500  72.4800638
   1.4975312 113.6063190  59.7125381   1.7500832 113.0844711  58.9508844
   0.5599871 113.4429335  59.8152064   6.5418595 112.6098968  67.5200124
   7.3281684 112.1918391  67.1690541   6.8057299 113.5145060  67.6881772
   6.7128672 118.0471818  62.2188781   6.0774505 118.1206445  62.9309686
   6.3826078 118.6365417  61.5407860  11.9427022 112.5474201  68.4233103
  12.6752194 111.9773418  68.6570932  11.1866377 112.1595802  68.8639608
   1.2171601 115.5091296  61.9149756   1.1007859 114.8336199  62.5830840
   1.3273860 115.0223670  61.0981909   3.5603141 114.9701443  65.6196445
   3.1961349 114.4432064  66.3309367   4.4170257 114.5799912  65.4462930
   9.4652442 106.2595775  72.8827711   9.1335767 107.1291186  72.6588926
   8.8698056 105.9432059  73.5621742   3.2008628 109.9991342  60.6157794
   3.3683031 110.8671579  60.9828265   3.0105798 110.1618624  59.6919083
   5.9583962 118.4608321  72.2823624   5.6584685 119.3633360  72.1739431
   5.6135021 118.1940504  73.1344777   9.3581105 110.9790861  69.9621061
   8.4497983 110.9106270  69.6679822   9.3068701 111.4562806  70.7902887
   3.1797849 112.4549000  61.6004460   3.0597475 112.9006051  62.4389941
   2.4850438 112.8034318  61.0417999   3.4321971 112.3980507  77.9055959
   2.6555305 112.9574427  77.8958823   4.0712534 112.8837290  78.4270829
  11.2242752 109.1807300  71.7398935  10.5817132 109.4739833  71.0938730
  10.7197680 109.0660220  72.5452132   8.8782916 112.9270473  62.4284794
   9.7900772 113.1597860  62.2532492   8.3692563 113.5107517  61.8659873
   1.6868344 115.2065960  77.4673926   2.4283028 115.7451004  77.1908749
   0.9805329 115.8332249  77.6245477   7.1623683 117.3495101  76.0646087
   7.5707039 116.9077511  75.3200719   6.4400945 116.7747728  76.3180280
   3.5154753 112.2867708  73.4379644   4.3615948 112.7107121  73.5814293
   3.4553391 111.6301332  74.1318207   7.4852498 117.9096292  69.8198376
   6.8561360 118.0742006  69.1174444   7.0978160 118.3237901  70.5909340
  11.3641730 118.8450729  67.1742740  10.6792768 119.2249631  66.6239773
  11.4485579 119.4546056  67.9074687   6.6654199 109.9472076  75.0960818
   6.4215130 110.7014137  74.5595093   6.9414129 110.3257424  75.9308065
   8.6192661 116.4910688  73.7738083   8.8309557 117.1342448  73.0972464
   8.5722410 115.6573005  73.3060013   6.2218890 109.1028509  70.6774655
   5.3603369 109.4009763  70.9691393   6.2481325 109.3198908  69.7455688
   3.0380460 117.6470700  67.0848461   3.5018805 117.9258403  66.2953084
   2.7737258 116.7454144  66.9021552   1.9749346 113.7693852  63.8938026
   2.6773389 114.2214896  64.3611953   1.6429974 113.1277671  64.5217919
   9.7338489 119.3682644  71.9460441  10.5555933 118.9662831  71.6643122
   9.7300892 119.2650878  72.8976556  17.8244482 115.7121392  68.2945412
  17.0708191 115.1428790  68.1389416  17.9592024 115.6784057  69.2416047
   2.6178411 108.0784254  78.2234743   3.3588124 108.6791407  78.1439206
   2.8496334 107.3361891  77.6652786   6.5635574 104.1065356  72.4999025
   6.2199843 104.9966998  72.4238135   6.9314537 103.9167014  71.6368610
   6.5285857 114.0973968  61.0071460   6.0132480 114.8678572  61.2459847
   6.2563165 113.4239104  61.6304521   4.1132968 108.9423668  66.0656698
   3.2574564 108.5530519  65.8862337   4.5259919 109.0215629  65.2056484
   5.6432114 106.4770012  70.4648258   5.1396910 106.4400147  69.6516063
   5.9362721 107.3862754  70.5244915   1.8875000 106.5608741  69.4714440
   2.7527997 106.3651550  69.1120329   1.9552509 106.3319093  70.3983797
  11.5020131 116.8506322  62.9424633  10.7249574 116.5117482  62.4979796
  12.1811612 116.8558945  62.2679598   6.3172160 111.9701060  62.8331241
   6.0122295 112.2847209  63.6841384   7.2702602 112.0482480  62.8758574
   9.7411438 116.3240303  69.5991241   9.0835112 117.0139565  69.6871370
  10.5451837 116.7136735  69.9425228   8.5516896 114.6784676  67.6495183
   9.0648778 115.3114668  68.1516893   9.2018120 114.0785872  67.2838543
   1.7959987 105.6652198  65.5705876   1.1424399 105.3501215  64.9462491
   1.7540461 105.0427939  66.2965699   2.9071192 115.9471493  57.4859168
   1.9998254 115.7160747  57.6850317   3.4042224 115.1509113  57.6733150
   5.0297727 112.1534132  69.8953524   4.1120289 112.3749079  69.7375212
   5.4457871 112.2280442  69.0365231   5.8132775 113.5525547  65.0256204
   6.5604594 114.0646945  64.7163326   6.0824365 113.2309600  65.8860598
   4.0859425 116.0484088  62.0083158   3.1770645 115.7643121  62.1055628
   4.1154509 116.4683167  61.1486465   9.3178693 119.6590678  65.7774326
   8.8641020 118.8181588  65.8339516   8.6872659 120.2952076  66.1149106
   8.2611612 110.5882664  67.0074993   7.5234369 110.0760050  67.3385236
   8.5138386 110.1483045  66.1958270   8.3623240 103.3658916  67.6016763
   8.6682116 102.5056279  67.3142678   9.0875844 103.9576536  67.4015756
   2.6344319 113.6612709  68.1092954   2.6892929 112.7086545  68.0335430
   1.8235521 113.8172148  68.5934252   3.7835513 117.5892832  59.3471237
   3.3454943 116.8728691  58.8876874   4.5245954 117.8168947  58.7856328
   6.1710891 112.7431593  74.6998226   6.5260279 112.9703066  75.5592692
   6.8183022 113.0749970  74.0775482  11.9008628 115.8650029  65.4047555
  11.7626526 116.0551625  64.4768745  11.5444847 116.6269412  65.8615607
  11.9278007 117.9326556  70.4158827  12.3614514 117.8401845  71.2641881
  12.6409588 117.9084056  69.7778843  12.7893557 117.9750256  72.9491712
  12.9829447 118.8796067  73.1950987  12.6894175 117.5157676  73.7830297
   4.4429868 107.8608147  75.4482040   3.7957783 108.5598097  75.3546516
   5.2130883 108.2944291  75.8158288   7.8508666 118.1256999  78.5232593
   7.6994172 117.8967551  77.6062677   7.8413345 119.0827601  78.5363938
   4.6194002 115.6988912  73.5078859   5.5486062 115.8500072  73.3347827
   4.1985032 115.7872933  72.6527506   7.9046741 116.4477213  58.9403294
   7.2875911 115.7224042  58.8436347   7.4363229 117.2086574  58.5970369
   1.5714094 114.2208768  73.6802496   2.2813712 113.5801961  73.6389114
   1.5283402 114.4721663  74.6028676   9.5618280 119.1215706  74.8323054
   8.6745058 118.7841628  74.9549453  10.1316831 118.3898737  75.0691820
   6.1905863 108.8283558  67.9521325   6.6874562 108.0753520  67.6322395
   5.4192844 108.8647874  67.3864534  14.0435620 114.5323923  69.5939616
  14.0325496 115.4148639  69.2233549  13.1753000 114.1795474  69.3994153
   7.2735643 117.5855245  65.5259748   6.3391922 117.7056707  65.3564452
   7.4512312 116.6827712  65.2619758   2.7740832 110.9700941  67.6793009
   2.4038619 110.4171981  68.3673915   3.2699924 110.3659074  67.1268009
  10.6608195 113.4272564  66.0609782  11.1268647 114.2600556  65.9870085
  11.1115695 112.9617546  66.7655041   8.7284426 119.7716385  63.0595934
   9.0044270 119.6572980  63.9689808   7.8588925 119.3733870  63.0208107
   8.6324858 105.7953151  70.1000683   7.7187937 106.0257378  70.2682890
   9.0617959 105.8791595  70.9514716   8.4031316 113.9843043  72.6000577
   7.7502766 114.2318950  71.9453030   8.7811696 113.1707181  72.2663055
   4.4518889 114.7262854  79.0866615   3.7759526 114.6256983  79.7568990
   5.2746523 114.5702068  79.5502612   0.7544541 107.6714916  75.7605705
   1.2778943 107.9177213  76.5232014   0.5356874 108.5034951  75.3408842
   1.9597086 108.6128611  73.4455375   1.6193906 107.8136424  73.8476055
   1.2536092 108.9130322  72.8732208   2.6113558 105.6977924  71.8982698
   3.4339627 105.2238402  71.7761589   2.8551621 106.4768407  72.3981385
   1.2521792 108.7266182  62.1945600   1.9730155 109.1047435  61.6909317
   0.6287096 109.4455059  62.2980578   5.3952915 109.4311331  63.1303932
   5.6116530 110.3135969  62.8292760   4.9146982 109.0397544  62.4009574
   1.9948519 109.3799592  69.7555566   1.9810088 108.4840686  69.4187864
   2.7120948 109.3870256  70.3893852   3.8474650 109.8136932  71.8008694
   3.5892428 110.7354003  71.7993024   3.3159691 109.4167367  72.4909158
   1.3985415 108.2613972  65.0243137   1.5201327 107.3330619  65.2234024
   1.1087458 108.2752658  64.1121452   4.2676606 105.9468883  68.1609856
   4.2898303 106.0108216  67.2061836   4.6844665 105.1073392  68.3550363
  14.6460230 115.6824142  66.1989079  15.0891376 114.9331468  65.8008202
  13.7686740 115.6734279  65.8162811  11.6787435 119.6854189  63.2083008
  12.2038759 120.0241462  62.4832328  11.5909787 118.7501205  63.0246143
   0.8826495 109.7745970  79.2333069   0.9314650 110.6508093  78.8510839
   1.4249009 109.2323363  78.6604712  11.3681341 120.3187093  78.5134206
  10.5776884 120.3011232  77.9738706  11.1314695 120.8575387  79.2683243
  11.4879216 117.1679559  75.8266935  11.5377221 117.0029567  76.7682458
  11.3793139 116.3006819  75.4364816   8.7782978 113.1510488  77.1426241
   9.6792841 113.0116952  76.8510239   8.8530953 113.3164942  78.0824419
   3.1125783 110.5277342  75.9879428   2.2429093 110.8210908  75.7162016
   3.3485264 111.1117787  76.7086691  12.9897413 119.5876501  76.0708956
  12.6982221 119.9506482  76.9072417  12.3769544 118.8743509  75.8922288
  14.1893095 117.1529381  68.5911527  15.0239986 117.5919185  68.7549087
  14.3252224 116.6768034  67.7719772  11.2384601 114.7109116  74.5389014
  11.7138722 114.9036762  73.7307866  10.3150166 114.7668301  74.2932398
   5.8164817 106.7456959  73.5044848   6.3346761 107.4817986  73.1791337
   5.4619950 107.0520952  74.3391607   6.0677411 103.1657242  69.0245745
   6.3479165 102.4980431  69.6506171   6.8528018 103.3586337  68.5120409
   9.9386270 111.5874876  72.7717320  10.8903693 111.6872973  72.7929544
   9.7689720 110.7953144  73.2815404   7.9600649 108.6730459  72.9576721
   7.3650581 108.9535472  72.2623209   7.6750346 109.1624360  73.7293462
  12.4174348 114.8080995  71.8859620  12.3850668 113.8696996  72.0719303
  13.0274971 114.8865032  71.1525444   4.2557678 113.6777048  57.9286824
   5.2016783 113.5483256  57.9975242   3.8771923 112.9391710  58.4056252
  12.5668836 111.5992039  71.9317903  12.0507885 110.8150495  71.7447832
  13.4508785 111.2710755  72.0964422  10.2279563 105.3433054  67.8913715
  10.0304384 105.0348143  68.7757047  10.8379269 106.0694693  68.0211645
  18.2350897 115.8697002  71.0265656  18.9654286 115.6082290  71.5873360
  17.6257843 115.1325724  71.0667724  16.3166195 114.0104865  71.6240108
  15.5899358 113.8760830  71.0156599  15.9013481 114.3181693  72.4296826
   4.1396371 117.7294795  79.3887481   5.0599380 117.9073394  79.5827527
   4.1045954 116.7850840  79.2367180   2.4400596 111.6027025  57.8641709
   1.5332051 111.3060137  57.9404422   2.7176577 111.3056843  56.9975995
   4.0562661 106.1463914  64.0185950   3.2463390 105.8010999  64.3941196
   4.7447078 105.8371458  64.6073562   5.9853210 105.2241961  65.6410247
   6.5384248 105.6437415  66.3000270   6.2223296 104.2977709  65.6833203
   2.0086309 111.2129035  81.4213011   1.9083036 112.1623392  81.3525102
   1.7907851 110.8847274  80.5489081   1.2099380 108.4613960  58.0053688
   2.0718544 108.7868858  58.2649505   1.3949724 107.6745456  57.4926754
   9.3632017 107.3342486  65.1488911   8.7830686 107.9927290  64.7666963
   9.0967949 106.5119831  64.7376329   7.8135583 106.7347544  67.3510231
   8.3135361 106.8464079  66.5424550   8.4571191 106.4308597  67.9911040
   1.8717579 114.6426174  80.2378072   1.3884661 115.4426534  80.4441961
   1.9578518 114.6534119  79.2845516   8.1456895 109.4942577  64.2045259
   7.2582750 109.7792227  63.9865454   8.5610884 109.3336340  63.3572536
  11.4971431 109.5189098  67.9199599  12.2731821 110.0085550  68.1924215
  10.7719565 109.9447152  68.3771468  13.9343989 110.2316717  68.9773539
  14.5288480 109.9912453  68.2666847  14.0070573 109.5123848  69.6047075
   8.1197918 115.0097113  64.4195549   8.0633120 115.4665664  63.5803182
   8.6726261 114.2487797  64.2418392  11.9302724 110.7986845  65.2445669
  11.6739659 110.3983480  66.0753877  11.3055592 111.5130639  65.1195808
  16.2415062 113.5382918  67.7516960  15.6814620 113.6076107  68.5248522
  15.6358566 113.3623902  67.0316457   9.1986806 119.6969781  60.3491739
  10.0332409 119.2650979  60.1669214   9.0371148 119.5251794  61.2768634
   8.8532698 116.2001894  61.7148079   8.7981502 116.0346165  60.7736523
   8.2278753 116.9077927  61.8710268   6.1678605 118.5050806  81.0401641
   7.0369765 118.6791458  80.6788276   5.6885356 119.3245223  80.9177371
   2.1628823 105.7010003  61.2933397   2.1507493 106.6451843  61.4501668
   3.0552245 105.5180148  60.9992858   5.9780943 102.2952780  65.5479334
   5.2113338 101.7411266  65.6936016   6.3891648 102.3674648  66.4093485
  20.3046197 121.5887693  72.8827711  19.9729521 122.4583104  72.6588926
  19.7091810 121.2723977  73.5621742  22.0636506 124.5099218  71.7398935
  21.4210887 124.8031751  71.0938730  21.5591435 124.3952138  72.5452132
  17.4029328 119.4357274  72.4999025  17.0593598 120.3258916  72.4238135
  17.7708291 119.2458932  71.6368610  16.4825869 121.8061929  70.4648258
  15.9790664 121.7692064  69.6516063  16.7756476 122.7154672  70.5244915
  12.7268755 121.8900659  69.4714440  13.5921751 121.6943468  69.1120329
  12.7946264 121.6611011  70.3983797  12.6353741 120.9944116  65.5705876
  11.9818154 120.6793133  64.9462491  12.5934216 120.3719856  66.2965699
  19.2016994 118.6950833  67.6016763  19.5075871 117.8348197  67.3142678
  19.9269599 119.2868454  67.4015756  19.4718612 121.1245069  70.1000683
  18.5581692 121.3549296  70.2682890  19.9011714 121.2083513  70.9514716
  13.4507312 121.0269841  71.8982698  14.2733382 120.5530319  71.7761589
  13.6945376 121.8060325  72.3981385  15.1070360 121.2760801  68.1609856
  15.1292057 121.3400134  67.2061836  15.5238419 120.4365309  68.3550363
  16.6558572 122.0748877  73.5044848  17.1740516 122.8109904  73.1791337
  16.3013705 122.3812870  74.3391607  16.9071166 118.4949159  69.0245745
  17.1872920 117.8272348  69.6506171  17.6921773 118.6878255  68.5120409
  21.0673317 120.6724972  67.8913715  20.8698139 120.3640060  68.7757047
  21.6773023 121.3986611  68.0211645  14.8956416 121.4755832  64.0185950
  14.0857144 121.1302917  64.3941196  15.5840833 121.1663376  64.6073562
  16.8246964 120.5533879  65.6410247  17.3778003 120.9729332  66.3000270
  17.0617050 119.6269627  65.6833203  20.2025771 122.6634404  65.1488911
  19.6224440 123.3219208  64.7666963  19.9361704 121.8411749  64.7376329
  18.6529338 122.0639462  67.3510231  19.1529116 122.1755996  66.5424550
  19.2964945 121.7600515  67.9911040  24.7737744 125.5608635  68.9773539
  25.3682235 125.3204371  68.2666847  24.8464328 124.8415765  69.6047075
  13.0022578 121.0301921  61.2933397  12.9901248 121.9743761  61.4501668
  13.8946000 120.8472066  60.9992858  16.8174697 117.6244697  65.5479334
  16.0507093 117.0703184  65.6936016  17.2285402 117.6966566  66.4093485
   6.9850729  77.3891597  55.0190719   6.2314437  76.8198995  54.8634723
   7.1198270  77.3554262  55.9661353   1.0614875  77.5420234  52.1292862
   0.9232773  77.7321830  51.2014051   0.7051093  78.3039617  52.5860913
   1.0884254  79.6096761  57.1404134   1.5220761  79.5172050  57.9887188
   1.8015835  79.5854261  56.5024150   1.9499804  79.6520461  59.6737019
   2.1435694  80.5566272  59.9196294   1.8500422  79.1927880  60.5075604
   3.2041867  76.2094128  56.3184923   3.1931743  77.0918843  55.9478856
   2.3359246  75.8565679  56.1239460   3.8066477  77.3594347  52.9234386
   4.2497623  76.6101673  52.5253509   2.9292987  77.3504484  52.5408118
   0.8393681  81.3624394  49.9328315   1.3645005  81.7011667  49.2077635
   0.7516034  80.4271410  49.7491450   0.6485462  78.8449764  62.5512241
   0.6983467  78.6799772  63.4927764   0.5399386  77.9777023  62.1610122
   2.1503659  81.2646706  62.7954263   1.8588468  81.6276686  63.6317724
   1.5375791  80.5513714  62.6167595   3.3499342  78.8299586  55.3156833
   4.1846233  79.2689390  55.4794394   3.4858470  78.3538239  54.4965079
   1.5780594  76.4851200  58.6104926   1.5456914  75.5467201  58.7964610
   2.1881218  76.5635237  57.8770751   1.7275083  73.2762244  58.6563209
   1.2114131  72.4920700  58.4693138   2.6115031  72.9480960  58.8209729
   7.3957144  77.5467207  57.7510963   8.1260533  77.2852495  58.3118666
   6.7864090  76.8095929  57.7913031   5.4772441  75.6875070  58.3485414
   4.7505605  75.5531035  57.7401906   5.0619728  75.9951898  59.1542132
   3.0950236  71.9086922  55.7018846   3.6894727  71.6682658  54.9912154
   3.1676820  71.1894053  56.3292382   1.0908971  72.4757050  51.9690976
   0.8345905  72.0753685  52.7999183   0.4661839  73.1900843  51.8441115
   5.4021309  75.2153123  54.4762267   4.8420867  75.2846312  55.2493829
   4.7964812  75.0394107  53.7561763   6.9877327  91.8909637  57.1692223
   7.6255737  91.7716384  56.4655563   6.8698170  92.8390481  57.2280175
   3.7967034  91.8437065  57.1053747   3.4585545  91.7278130  56.2174282
   4.6656802  91.4428230  57.0854754   4.2786817  92.9971917  63.0639953
   4.2675457  92.6024715  62.1920457   4.4407456  92.2637989  63.6573724
   5.2353408  97.3643509  48.4065103   4.5841388  97.9497589  48.0199117
   6.0297771  97.8949704  48.4660141   0.9994078  95.7809028  62.0119137
   0.7083944  96.6854659  61.8965803   1.6351062  95.8225556  62.7263206
   1.9250285  93.1585877  58.6020497   2.5213857  92.9341899  57.8877459
   1.9825256  92.4170622  59.2045944   1.4975313  90.6125312  46.4370688
   1.7500834  90.0906833  45.6754151   0.5599872  90.4491458  46.5397371
   6.5418596  89.6161091  54.2445431   7.3281685  89.1980514  53.8935848
   6.8057300  90.5207183  54.4127079   6.7128673  95.0533941  48.9434088
   6.0774506  95.1268567  49.6554992   6.3826080  95.6427540  48.2653167
  11.9427023  89.5536324  55.1478409  12.6752195  88.9835541  55.3816239
  11.1866379  89.1657924  55.5884915   1.2171602  92.5153418  48.6395062
   1.1007860  91.8398322  49.3076147   1.3273862  92.0285792  47.8227216
   3.5603143  91.9763565  52.3441752   3.1961350  91.4494186  53.0554673
   4.4170259  91.5862034  52.1708237   9.4652443  83.2657898  59.6073018
   9.1335768  84.1353309  59.3834233   8.8698057  82.9494182  60.2867048
   3.2008630  87.0053465  47.3403100   3.3683032  87.8733701  47.7073571
   3.0105799  87.1680747  46.4164389   5.9583963  95.4670444  59.0068931
   5.6584686  96.3695483  58.8984738   5.6135022  95.2002627  59.8590083
   9.3581107  87.9852984  56.6866368   8.4497984  87.9168392  56.3925129
   9.3068702  88.4624929  57.5148193   3.1797851  89.4611122  48.3249767
   3.0597476  89.9068173  49.1635247   2.4850439  89.8096440  47.7663305
   3.4321972  89.4042630  64.6301265   2.6555307  89.9636550  64.6204130
   4.0712536  89.8899413  65.1516135  11.2242753  86.1869422  58.4644242
  10.5817133  86.4801956  57.8184036  10.7197682  86.0722343  59.2697439
   8.8782917  89.9332596  49.1530101   9.7900773  90.1659982  48.9777799
   8.3692564  90.5169640  48.5905180   1.6868345  92.2128083  64.1919232
   2.4283029  92.7513127  63.9154056   0.9805330  92.8394372  64.3490784
   7.1623684  94.3557223  62.7891394   7.5707040  93.9139634  62.0446026
   6.4400946  93.7809851  63.0425587   3.5154754  89.2929830  60.1624951
   4.3615950  89.7169244  60.3059600   3.4553392  88.6363455  60.8563514
   7.4852499  94.9158414  56.5443683   6.8561362  95.0804128  55.8419750
   7.0978161  95.3300024  57.3154647  11.3641731  95.8512852  53.8988046
  10.6792769  96.2311753  53.3485080  11.4485580  96.4608179  54.6319994
   6.6654200  86.9534199  61.8206124   6.4215132  87.7076259  61.2840400
   6.9414130  87.3319546  62.6553371   8.6192663  93.4972811  60.4983390
   8.8309558  94.1404571  59.8217771   8.5722411  92.6635128  60.0305320
   6.2218892  86.1090632  57.4019962   5.3603371  86.4071885  57.6936700
   6.2481326  86.3261031  56.4700995   3.0380461  94.6532822  53.8093768
   3.5018806  94.9320525  53.0198390   2.7737259  93.7516267  53.6266858
   1.9749347  90.7755975  50.6183333   2.6773390  91.2277018  51.0857259
   1.6429975  90.1339793  51.2463226   9.7338491  96.3744766  58.6705747
  10.5555934  95.9724954  58.3888429   9.7300893  96.2713001  59.6221863
   3.4995094  95.9228810  60.8266458   3.5639526  96.3849217  61.6624630
   2.7906018  95.2926175  60.9548768  17.8244484  92.7183515  55.0190719
  17.0708192  92.1490913  54.8634723  17.9592025  92.6846179  55.9661353
   3.2143112  97.5896917  50.6945438   3.0788786  98.4348453  51.1230286
   3.7552924  97.7916195  49.9311372   2.6178412  85.0846376  64.9480050
   3.3588126  85.6853529  64.8684512   2.8496335  84.3424014  64.3898092
   4.8411588  98.2120484  64.8245780   4.3975442  97.4256862  64.5066685
   5.5028802  98.3999634  64.1589671   6.9392826  98.4923284  62.8527181
   6.9211301  99.3132165  62.3607451   7.8612746  98.3677359  63.0777323
   3.3965880  96.0067413  63.6950690   3.9294217  95.2455701  63.4649998
   2.8679961  95.7141065  64.4374844   6.5635575  81.1127479  59.2244331
   6.2199845  82.0029121  59.1483442   6.9314538  80.9229137  58.3613916
   6.5285858  91.1036090  47.7316767   6.0132481  91.8740695  47.9705154
   6.2563166  90.4301226  48.3549828   4.1132969  85.9485791  52.7902005
   3.2574565  85.5592641  52.6107644   4.5259921  86.0277752  51.9301790
   5.6432116  83.4832134  57.1893565   5.1396911  83.4462269  56.3761370
   5.9362722  84.3924877  57.2490221   1.8875001  83.5670864  56.1959746
   2.7527998  83.3713673  55.8365636   1.9552510  83.3381216  57.1229103
  11.5020132  93.8568445  49.6669940  10.7249575  93.5179604  49.2225102
  12.1811613  93.8621068  48.9924905   6.3172161  88.9763182  49.5576548
   6.0122297  89.2909331  50.4086691   7.2702603  89.0544602  49.6003881
   4.7618593  95.1353406  51.2069502   4.2339954  94.4006165  50.8942739
   4.2606096  95.9128082  50.9609470   9.7411439  93.3302426  56.3236548
   9.0835113  94.0201687  56.4116677  10.5451838  93.7198858  56.6670534
   8.5516898  91.6846799  54.3740490   9.0648779  92.3176791  54.8762200
   9.2018122  91.0847994  54.0083850   1.7959988  82.6714321  52.2951183
   1.1424401  82.3563338  51.6707797   1.7540462  82.0490061  53.0211006
   2.9071193  92.9533616  44.2104475   1.9998255  92.7222869  44.4095624
   3.4042225  92.1571235  44.3978456   5.8139272 101.6631123  47.1301161
   5.1400971 101.9662820  47.7386119   6.2005094 102.4660203  46.7806618
   5.0297729  89.1596254  56.6198830   4.1120290  89.3811201  56.4620518
   5.4457872  89.2342565  55.7610538   5.8132776  90.5587670  51.7501511
   6.5604595  91.0709067  51.4408633   6.0824366  90.2371723  52.6105904
   4.0859427  93.0546211  48.7328465   3.1770646  92.7705244  48.8300935
   4.1154510  93.4745289  47.8731772   9.3178694  96.6652800  52.5019632
   8.8641021  95.8243710  52.5584823   8.6872661  97.3014199  52.8394413
   8.2611614  87.5944786  53.7320300   7.5234370  87.0822172  54.0630542
   8.5138387  87.1545168  52.9203577   7.7611633  98.5029297  53.4369451
   8.0534608  99.0634354  52.7181816   8.2710254  98.7957858  54.1922610
   8.3623241  80.3721038  54.3262069   8.6682118  79.5118402  54.0387984
   9.0875846  80.9638658  54.1261063   2.6344321  90.6674831  54.8338260
   2.6892930  89.7148668  54.7580737   1.8235523  90.8234270  55.3179559
   3.7835514  94.5954954  46.0716543   3.3454944  93.8790813  45.6122181
   4.5245955  94.8231069  45.5101635   2.7245258  99.2809648  54.5262904
   2.6821437  99.5070494  53.5971436   3.6407957  99.0473023  54.6748705
   6.1710892  89.7493716  61.4243533   6.5260280  89.9765189  62.2837999
   6.8183023  90.0812092  60.8020788  11.9008629  92.8712151  52.1292862
  11.7626528  93.0613747  51.2014051  11.5444848  93.6331534  52.5860913
  11.9278009  94.9388678  57.1404134  12.3614515  94.8463968  57.9887188
  12.6409589  94.9146179  56.5024150   5.6605904  98.5390773  58.6737234
   5.7142926  99.1081709  59.4414950   4.7920685  98.7092658  58.3091271
  12.7893558  94.9812379  59.6737019  12.9829448  95.8858190  59.9196294
  12.6894176  94.5219798  60.5075604   4.4429869  84.8670270  62.1727346
   3.7957784  85.5660219  62.0791823   5.2130884  85.3006414  62.5403594
   7.8508667  95.1319122  65.2477900   7.6994173  94.9029674  64.3307983
   7.8413346  96.0889723  65.2609245   4.6194003  92.7051035  60.2324166
   5.5486063  92.8562194  60.0593133   4.1985033  92.7935055  59.3772812
   3.4182335  96.7301699  58.0022704   3.2793421  96.3620483  58.8748642
   2.6296931  97.2449338  57.8306661   4.0130487 101.8310795  49.3448240
   4.1882243 101.3598839  50.1593863   3.3263275 102.4576562  49.5729501
   4.9687550  96.1083302  55.3911541   4.6337383  96.0684072  56.2869191
   4.4691496  95.4428018  54.9181952   7.9046742  93.4539336  45.6648601
   7.2875913  92.7286164  45.5681654   7.4363230  94.2148696  45.3215675
   1.5714095  91.2270891  60.4047802   2.2813713  90.5864083  60.3634421
   1.5283403  91.4783786  61.3273983   9.5600874  98.1638244  63.3254381
   9.5013420  97.4797465  62.6584964   9.9620392  98.9057234  62.8735007
   9.5618281  96.1277828  61.5568361   8.6745060  95.7903750  61.6794760
  10.1316832  95.3960860  61.7937126   3.0919434 100.7879281  58.5229604
   3.0189606 101.5934252  59.0348909   2.6496827 100.9871246  57.6977626
   2.8809214 100.0251051  52.0332426   2.0976736 100.5672731  52.1270650
   3.5801959 100.5425030  52.4326667   6.1905864  85.8345680  54.6766631
   6.6874564  85.0815642  54.3567701   5.4192846  85.8709997  54.1109841
  14.0435621  91.5386046  56.3184923  14.0325498  92.4210761  55.9478856
  13.1753001  91.1857597  56.1239460   5.5518118 100.6866115  60.6787763
   6.2646090 101.3213580  60.6063664   5.0608146 100.7829981  59.8627765
   7.2735645  94.5917367  52.2505055   6.3391923  94.7118830  52.0809759
   7.4512313  93.6889834  51.9865064   2.7740833  87.9763063  54.4038316
   2.4038620  87.4234104  55.0919221   3.2699925  87.3721197  53.8513316
  10.6608196  90.4334687  52.7855089  11.1268648  91.2662678  52.7115391
  11.1115697  89.9679668  53.4900347   8.7284427  96.7778508  49.7841241
   9.0044271  96.6635103  50.6935115   7.8588926  96.3795993  49.7453414
   8.6324859  82.8015274  56.8245990   7.7187939  83.0319500  56.9928197
   9.0617960  82.8853718  57.6760022   8.4031317  90.9905166  59.3245884
   7.7502768  91.2381073  58.6698337   8.7811697  90.1769304  58.9908361
   5.3638491 101.0264859  53.4274054   5.5460886 100.2086515  53.8901807
   6.1871477 101.2432551  52.9898944   5.6980657  99.9533044  50.6889103
   6.2268423  99.4425499  50.0759265   5.9608876  99.6375574  51.5534636
   4.4518890  91.7324977  65.8111921   3.7759527  91.6319106  66.4814296
   5.2746524  91.5764190  66.2747918   3.1941673 103.0391904  60.0469537
   3.7459981 103.2023526  60.8118622   3.5347867 103.6296342  59.3749562
   8.0452548  97.8653162  65.9018192   8.5892452  98.4783120  65.4073146
   7.4639392  98.4232740  66.4185205   6.3310060 100.9873880  57.0333219
   6.2061200 100.1863619  56.5244165   6.9889152 101.4820073  56.5447189
   8.3944969  98.7882900  58.6612769   7.4475304  98.6688251  58.5891096
   8.7427742  97.9005398  58.7439031   0.7544542  84.6777039  62.4851011
   1.2778944  84.9239335  63.2477321   0.5356876  85.5097073  62.0654149
   5.3991402  98.5835616  54.8617122   5.2516365  97.6552323  55.0424692
   6.2244896  98.6055707  54.3774197   9.0025524  99.4064175  55.9481994
   9.9272071  99.2007036  55.8106446   8.8340827  99.1580576  56.8571336
   1.9597087  85.6190734  60.1700682   1.6193908  84.8198547  60.5721362
   1.2536094  85.9192445  59.5977515   2.6113559  82.7040046  58.6228005
   3.4339628  82.2300524  58.5006895   2.8551623  83.4830530  59.1226691
   1.2521794  85.7328305  48.9190907   1.9730156  86.1109557  48.4154623
   0.6287098  86.4517181  49.0225885   5.3952916  86.4373454  49.8549239
   5.6116531  87.3198091  49.5538067   4.9146984  86.0459667  49.1254881
   1.9948521  86.3861715  56.4800873   1.9810090  85.4902808  56.1433171
   2.7120949  86.3932379  57.1139159   3.8474651  86.8199055  58.5254000
   3.5892429  87.7416126  58.5238331   3.3159692  86.4229490  59.2154465
   8.7920840  99.9249842  51.3044086   8.9657718  99.3596265  50.5517938
   9.2849731 100.7250737  51.1223576   1.3985417  85.2676095  51.7488443
   1.5201328  84.3392741  51.9479331   1.1087459  85.2814781  50.8366759
   4.2676607  82.9531006  54.8855163   4.2898304  83.0170339  53.9307143
   4.6844666  82.1135514  55.0795669  14.6460231  92.6886265  52.9234386
  15.0891377  91.9393590  52.5253509  13.7686742  92.6796401  52.5408118
   9.7796013  99.2416607  48.4040984  10.4746917  99.8623299  48.6228299
  10.1219163  98.3911958  48.6793362  11.6787436  96.6916312  49.9328315
  12.2038760  97.0303585  49.2077635  11.5909788  95.7563327  49.7491450
   3.3407485 100.6050386  62.0618192   3.6494611 100.3599532  62.9340891
   4.1382967 100.8097024  61.5737062   3.3628097 102.7588295  54.2923568
   2.9233087 102.2664674  54.9856425   4.1136214 102.2161263  54.0515643
   0.8826496  86.7808092  65.9578376   0.9314652  87.6570215  65.5756145
   1.4249010  86.2385486  65.3850019  11.3681342  97.3249216  65.2379513
  10.5776886  97.3073355  64.6984012  11.1314696  97.8637509  65.9928549
  11.4879217  94.1741682  62.5512241  11.5377222  94.0091690  63.4927764
  11.3793140  93.3068941  62.1610122   8.7782979  90.1572610  63.8671548
   9.6792842  90.0179075  63.5755546   8.8530954  90.3227065  64.8069726
   3.1125785  87.5339465  62.7124734   2.2429094  87.8273031  62.4407323
   3.3485265  88.1179910  63.4331998  12.9897414  96.5938624  62.7954263
  12.6982222  96.9568604  63.6317724  12.3769545  95.8805632  62.6167595
  14.1893096  94.1591503  55.3156833  15.0239987  94.5981307  55.4794394
  14.3252225  93.6830157  54.4965079  11.2384602  91.7171238  61.2634321
  11.7138724  91.9098885  60.4553172  10.3150167  91.7730424  61.0177705
   5.8164818  83.7519082  60.2290155   6.3346762  84.4880109  59.9036643
   5.4619951  84.0583075  61.0636914   6.0677413  80.1719364  55.7491051
   6.3479166  79.5042553  56.3751478   6.8528020  80.3648460  55.2365715
   3.8710881  99.3478358  47.3116078   3.2984848  99.9668545  46.8586550
   4.4443675  99.8977720  47.8456000   9.9386271  88.5936998  59.4962627
  10.8903694  88.6935096  59.5174851   9.7689721  87.8015267  60.0060711
   7.9600650  85.6792582  59.6822027   7.3650583  85.9597594  58.9868516
   7.6750347  86.1686482  60.4538769   7.0908141  99.6315508  48.4424660
   8.0238814  99.5661070  48.6457536   7.0031354 100.4671775  47.9839193
   9.7196158  98.9481379  45.4028608   9.6409789  98.6141242  46.2964365
  10.5405824  99.4403147  45.4020080  12.4174349  91.8143118  58.6104926
  12.3850669  90.8759119  58.7964610  13.0274972  91.8927155  57.8770751
   4.2557680  90.6839171  44.6532130   5.2016784  90.5545379  44.7220548
   3.8771925  89.9453833  45.1301558  12.5668837  88.6054161  58.6563209
  12.0507886  87.8212618  58.4693138  13.4508786  88.2772878  58.8209729
  10.2279564  82.3495177  54.6159022  10.0304385  82.0410265  55.5002354
  10.8379270  83.0756816  54.7456952  18.2350899  92.8759125  57.7510963
  18.9654287  92.6144413  58.3118666  17.6257844  92.1387847  57.7913031
  16.3166196  91.0166987  58.3485414  15.5899359  90.8822952  57.7401906
  15.9013483  91.3243816  59.1542132   4.1396372  94.7356917  66.1132787
   5.0599382  94.9135516  66.3072834   4.1045955  93.7912962  65.9612486
   2.4400597  88.6089147  44.5887015   1.5332052  88.3122260  44.6649729
   2.7176578  88.3118965  43.7221302   4.0562663  83.1526037  50.7431257
   3.2463391  82.8073122  51.1186503   4.7447079  82.8433581  51.3318868
   5.9853211  82.2304084  52.3655553   6.5384249  82.6499537  53.0245577
   6.2223297  81.3039832  52.4078509   2.0086310  88.2191158  68.1458317
   1.9083037  89.1685514  68.0770408   1.7907852  87.8909396  67.2734387
   1.2099381  85.4676083  44.7298995   2.0718545  85.7930981  44.9894812
   1.3949726  84.6807578  44.2172060   9.3632018  84.3404609  51.8734218
   8.7830687  84.9989413  51.4912270   9.0967951  83.5181954  51.4621635
   7.8135584  83.7409667  54.0755538   8.3135363  83.8526201  53.2669857
   8.4571192  83.4370720  54.7156346   1.8717580  91.6488296  66.9623379
   1.3884662  92.4488656  67.1687268   1.9578519  91.6596241  66.0090823
   8.1456896  86.5004699  50.9290566   7.2582751  86.7854350  50.7110761
   8.5610885  86.3398463  50.0817843  11.4971432  86.5251220  54.6444905
  12.2731822  87.0147673  54.9169522  10.7719566  86.9509275  55.1016775
  13.9343991  87.2378840  55.7018846  14.5288481  86.9974576  54.9912154
  14.0070574  86.5185970  56.3292382   7.2900109  96.2649374  45.0238586
   7.9935960  96.4699377  45.6396242   6.5662758  96.8326136  45.2887669
   8.1197920  92.0159235  51.1440856   8.0633121  92.4727787  50.3048488
   8.6726262  91.2549920  50.9663699  11.9302726  87.8048967  51.9690976
  11.6739660  87.4045603  52.7999183  11.3055594  88.5192761  51.8441115
  16.2415063  90.5445040  54.4762267  15.6814621  90.6138230  55.2493829
  15.6358567  90.3686025  53.7561763   9.1986807  96.7031903  47.0737046
  10.0332411  96.2713102  46.8914521   9.0371150  96.5313917  48.0013940
   8.8532699  93.2064017  48.4393385   8.7981503  93.0408288  47.4981829
   8.2278754  93.9140050  48.5955575   6.1678606  95.5112928  67.7646948
   7.0369766  95.6853581  67.4033583   5.6885358  96.3307345  67.6422677
   2.1628824  82.7072126  48.0178704   2.1507494  83.6513966  48.1746975
   3.0552246  82.5242271  47.7238165   2.0918388 101.3841016  56.1046460
   1.1414019 101.3842878  55.9910833   2.3950875 100.6373751  55.5882495
   5.9780944  79.3014902  52.2724640   5.2113340  78.7473389  52.4181323
   6.3891649  79.3736771  53.1338792  17.8271082 107.2201554  57.1692223
  18.4649492 107.1008302  56.4655563  17.7091925 108.1682398  57.2280175
  14.6360788 107.1728983  57.1053747  14.2979300 107.0570047  56.2174282
  15.5050556 106.7720148  57.0854754  10.4947604 109.0264459  53.0950638
   9.9312469 108.9354396  52.3266926  10.3799999 108.2064363  53.5753131
  15.1180571 108.3263834  63.0639953  15.1069212 107.9316633  62.1920457
  15.2801211 107.5929907  63.6573724   8.0412036 110.5215651  55.9334859
   8.8333328 110.1806475  55.5181158   8.2808686 110.6310626  56.8537012
  16.0747163 112.6935427  48.4065103  15.4235142 113.2789507  48.0199117
  16.8691525 113.2241622  48.4660141  10.0002790 109.7824564  48.8052238
  10.7733666 109.2353551  48.6665113  10.3528189 110.6468813  49.0166699
  11.8387832 111.1100946  62.0119137  11.5477698 112.0146577  61.8965803
  12.4744817 111.1517474  62.7263206  12.7644039 108.4877795  58.6020497
  13.3607611 108.2633817  57.8877459  12.8219011 107.7462540  59.2045944
  12.3369068 105.9417230  46.4370688  12.5894588 105.4198751  45.6754151
  11.3993627 105.7783375  46.5397371  17.3812350 104.9453008  54.2445431
  18.1675440 104.5272431  53.8935848  17.6451055 105.8499100  54.4127079
  17.5522428 110.3825859  48.9434088  16.9168261 110.4560485  49.6554992
  17.2219834 110.9719457  48.2653167  22.7820778 104.8828241  55.1478409
  23.5145949 104.3127458  55.3816239  22.0260133 104.4949842  55.5884915
  12.0565356 107.8445336  48.6395062  11.9401614 107.1690239  49.3076147
  12.1667616 107.3577710  47.8227216  14.3996897 107.3055483  52.3441752
  14.0355104 106.7786104  53.0554673  15.2564013 106.9153952  52.1708237
  20.3046198  98.5949816  59.6073018  19.9729523  99.4645227  59.3834233
  19.7091811  98.2786100  60.2867048  14.0402384 102.3345383  47.3403100
  14.2076787 103.2025619  47.7073571  13.8499553 102.4972664  46.4164389
  16.7977717 110.7962362  59.0068931  16.4978440 111.6987400  58.8984738
  16.4528777 110.5294545  59.8590083  10.2490199 107.2476158  55.0405635
   9.3240695 107.1152373  55.2483327  10.4974612 108.0270378  55.5375577
  20.1974861 103.3144902  56.6866368  19.2891739 103.2460310  56.3925129
  20.1462457 103.7916847  57.5148193  14.0191605 104.7903040  48.3249767
  13.8991230 105.2360091  49.1635247  13.3244193 105.1388358  47.7663305
   7.6099010 106.8909432  55.8749424   7.7391391 107.1443911  56.7888836
   6.9296461 107.4837140  55.5554079  11.7798497 117.5606682  51.9739898
  11.7022527 118.5114507  52.0528379  11.1760141 117.2152554  52.6314825
  14.2715727 104.7334547  64.6301265  13.4949061 105.2928467  64.6204130
  14.9106290 105.2191330  65.1516135  22.0636508 101.5161340  58.4644242
  21.4210888 101.8093873  57.8184036  21.5591436 101.4014260  59.2697439
  19.7176671 105.2624513  49.1530101  20.6294527 105.4951900  48.9777799
  19.2086318 105.8461558  48.5905180  12.5262099 107.5420001  64.1919232
  13.2676784 108.0805045  63.9154056  11.8199085 108.1686289  64.3490784
  18.0017439 109.6849141  62.7891394  18.4100795 109.2431552  62.0446026
  17.2794700 109.1101769  63.0425587  14.3548509 104.6221748  60.1624951
  15.2009704 105.0461161  60.3059600  14.2947147 103.9655372  60.8563514
  18.3246254 110.2450332  56.5443683  17.6955116 110.4096046  55.8419750
  17.9371916 110.6591941  57.3154647  22.2035485 111.1804770  53.8988046
  21.5186524 111.5603671  53.3485080  22.2879335 111.7900096  54.6319994
  17.5047954 102.2826116  61.8206124  17.2608886 103.0368177  61.2840400
  17.7807885 102.6611464  62.6553371  19.4586417 108.8264729  60.4983390
  19.6703312 109.4696489  59.8217771  19.4116165 107.9927045  60.0305320
  17.0612646 101.4382549  57.4019962  16.1997125 101.7363803  57.6936700
  17.0875081 101.6552948  56.4700995  13.8774215 109.9824740  53.8093768
  14.3412561 110.2612443  53.0198390  13.6131014 109.0808184  53.6266858
  10.7698296 109.5296221  56.7473531  11.3399654 109.9583490  56.1091015
  11.3606408 109.2478806  57.4457717  12.8143101 106.1047892  50.6183333
  13.5167145 106.5568936  51.0857259  12.4823730 105.4631711  51.2463226
  11.2623463 104.6959649  64.9934542  10.6322124 105.3775930  65.2269939
  11.1559551 104.5842730  64.0487680   6.5568435 104.3631445  55.9200466
   5.7667489 104.6188973  55.4440577   7.0479683 105.1779783  56.0252507
  20.5732245 111.7036684  58.6705747  21.3949689 111.3016871  58.3888429
  20.5694648 111.6004918  59.6221863   8.5083181 104.7276024  52.8783943
   7.7114344 104.8394718  53.3967439   8.2808773 105.0662676  52.0124834
  14.3388848 111.2520727  60.8266458  14.4033281 111.7141135  61.6624630
  13.6299772 110.6218092  60.9548768   4.8406138 104.6161935  58.3515457
   5.0914177 105.5008945  58.6173033   5.3765687 104.4366537  57.5790549
  28.6638238 108.0475433  55.0190719  27.9101946 107.4782831  54.8634723
  28.7985779 108.0138097  55.9661353  14.0536866 112.9188835  50.6945438
  13.9182541 113.7640371  51.1230286  14.5946679 113.1208113  49.9311372
  10.5404206  98.9980415  67.3559793  10.1471151  98.4446613  68.0307437
  11.3570346  99.3090993  67.7466311   7.5066264 110.4364273  51.2673363
   8.0190784 111.2307523  51.4178928   8.1588976 109.7390563  51.2006965
   9.3161148 113.5530029  53.3496116   9.4927777 114.4747994  53.1617100
  10.1117982 113.2388448  53.7790496  13.4572167 100.4138294  64.9480050
  14.1981880 101.0145447  64.8684512  13.6890090  99.6715932  64.3898092
   8.6013505 105.5994661  63.2258279   8.4867020 104.6979918  63.5265378
   7.7458022 105.8458358  62.8743096  15.6805342 113.5412401  64.8245780
  15.2369197 112.7548780  64.5066685  16.3422556 113.7291552  64.1589671
  10.4392464 115.0708203  59.3506459  10.9899889 114.9425266  58.5783453
   9.6003940 115.3703092  59.0001351  17.7786581 113.8215201  62.8527181
  17.7605056 114.6424082  62.3607451  18.7006501 113.6969277  63.0777323
  14.2359635 111.3359331  63.6950690  14.7687972 110.5747619  63.4649998
  13.7073716 111.0432983  64.4374844  17.4029330  96.4419397  59.2244331
  17.0593599  97.3321038  59.1483442  17.7708292  96.2521054  58.3613916
   5.4715180 108.7652927  52.0432934   6.3090402 109.1749936  51.8266641
   5.6493448 107.8252369  52.0133128  17.3679612 106.4328008  47.7316767
  16.8526236 107.2032612  47.9705154  17.0956921 105.7593144  48.3549828
  14.9526723 101.2777709  52.7902005  14.0968320 100.8884559  52.6107644
  15.3653675 101.3569669  51.9301790  16.4825870  98.8124052  57.1893565
  15.9790666  98.7754187  56.3761370  16.7756477  99.7216795  57.2490221
  12.7268756  98.8962782  56.1959746  13.5921753  98.7005590  55.8365636
  12.7946265  98.6673133  57.1229103  22.3413887 109.1860362  49.6669940
  21.5643329 108.8471522  49.2225102  23.0205368 109.1912986  48.9924905
  17.1565916 104.3055100  49.5576548  16.8516051 104.6201249  50.4086691
  18.1096358 104.3836520  49.6003881  15.6012347 110.4645323  51.2069502
  15.0733709 109.7298083  50.8942739  15.0999850 111.2420000  50.9609470
  20.5805193 108.6594344  56.3236548  19.9228868 109.3493605  56.4116677
  21.3845593 109.0490776  56.6670534  10.3331075 101.1264990  53.5676113
  10.9074827 100.9040171  52.8349306  10.9202057 101.1953684  54.3204715
  19.3910652 107.0138716  54.3740490  19.9042534 107.6468708  54.8762200
  20.0411876 106.4139912  54.0083850  10.6600662 103.1569451  47.5871999
   9.8237974 103.4944137  47.9081273  10.5205432 103.0218430  46.6499136
  12.6353743  98.0006238  52.2951183  11.9818155  97.6855256  51.6707797
  12.5934217  97.3781979  53.0211006  13.7464948 108.2825534  44.2104475
  12.8392009 108.0514787  44.4095624  14.2435980 107.4863153  44.3978456
  16.6533026 116.9923041  47.1301161  15.9794725 117.2954737  47.7386119
  17.0398848 117.7952121  46.7806618  15.8691483 104.4888172  56.6198830
  14.9514044 104.7103119  56.4620518  16.2851627 104.5634482  55.7610538
  16.6526531 105.8879588  51.7501511  17.3998350 106.4000985  51.4408633
  16.9218120 105.5663640  52.6105904  14.9253181 108.3838128  48.7328465
  14.0164400 108.0997161  48.8300935  14.9548265 108.8037207  47.8731772
  20.1572448 111.9944718  52.5019632  19.7034776 111.1535628  52.5584823
  19.5266415 112.6306116  52.8394413  19.1005368 102.9236704  53.7320300
  18.3628125 102.4114090  54.0630542  19.3532142 102.4837086  52.9203577
  18.6005388 113.8321215  53.4369451  18.8928362 114.3926272  52.7181816
  19.1104008 114.1249776  54.1922610  19.2016995  95.7012956  54.3262069
  19.5075872  94.8410319  54.0387984  19.9269600  96.2930576  54.1261063
   5.4941351 106.1043643  52.7143667   5.2965751 105.5113003  51.9894734
   4.9388015 105.7995853  53.4319606  13.4738075 105.9966749  54.8338260
  13.5286685 105.0440585  54.7580737  12.6629277 106.1526188  55.3179559
  14.6229269 109.9246872  46.0716543  14.1848699 109.2082731  45.6122181
  15.3639710 110.1522987  45.5101635  11.4130435 104.6143809  52.5928639
  10.5998301 104.9137979  52.9993831  11.9089429 104.2199498  53.3103121
  13.5639013 114.6101566  54.5262904  13.5215192 114.8362412  53.5971436
  14.4801712 114.3764940  54.6748705  17.0104647 105.0785633  61.4243533
  17.3654034 105.3057106  62.2837999  17.6576778 105.4104010  60.8020788
  22.7402384 108.2004069  52.1292862  22.6020282 108.3905665  51.2014051
  22.3838602 108.9623452  52.5860913  10.9044510 102.1862164  58.2089874
  11.5443889 102.0450923  57.5112837  10.0722040 101.8996678  57.8328476
  22.7671763 110.2680596  57.1404134  23.2008270 110.1755885  57.9887188
  23.4803344 110.2438097  56.5024150  11.6804814 111.4864595  54.3224867
  12.4745412 110.9914915  54.1207441  10.9696506 110.9582458  53.9592572
  16.4999658 113.8682690  58.6737234  16.5536680 114.4373627  59.4414950
  15.6314439 114.0384575  58.3091271   7.9887577 105.6307676  50.3984619
   7.0585165 105.5692132  50.6154581   8.0845049 105.1083629  49.6021260
   7.9073126 102.1562489  52.9862861   8.1679943 103.0707823  52.8772021
   8.7290299 101.6886932  53.1359474   9.3798052 103.5700246  60.1561685
  10.0521105 103.3617609  59.5074334   8.5527838 103.3722332  59.7166918
  23.6287313 110.3104297  59.6737019  23.8223203 111.2150107  59.9196294
  23.5287931 109.8511716  60.5075604  15.2823624 100.1962187  62.1727346
  14.6351539 100.8952137  62.0791823  16.0524639 100.6298331  62.5403594
  18.6902421 110.4611040  65.2477900  18.5387928 110.2321591  64.3307983
  18.6807101 111.4181641  65.2609245  15.4587758 108.0342952  60.2324166
  16.3879818 108.1854112  60.0593133  15.0378788 108.1226973  59.3772812
  14.2576090 112.0593617  58.0022704  14.1187175 111.6912401  58.8748642
  13.4690686 112.5741256  57.8306661  14.8524242 117.1602713  49.3448240
  15.0275997 116.6890756  50.1593863  14.1657030 117.7868479  49.5729501
  15.8081305 111.4375219  55.3911541  15.4731137 111.3975989  56.2869191
  15.3085250 110.7719935  54.9181952   9.7825549 106.8442849  60.9164123
   9.6445347 106.1123088  61.5175662  10.6930472 106.7551750  60.6348310
  18.7440496 108.7831254  45.6648601  18.1269667 108.0578082  45.5681654
  18.2756985 109.5440614  45.3215675  12.4107849 106.5562809  60.4047802
  13.1207468 105.9156001  60.3634421  12.3677158 106.8075704  61.3273983
  20.3994628 113.4930162  63.3254381  20.3407174 112.8089382  62.6584964
  20.8014146 114.2349152  62.8735007  11.1236783 103.5428027  62.2243442
  10.5874140 103.0918765  62.8765038  10.5353492 103.6773935  61.4813906
  10.5339042 103.0016678  44.7869905   9.6568509 102.8805479  44.4232152
  11.0096795 102.2102756  44.5348794  20.4012035 111.4569746  61.5568361
  19.5138814 111.1195668  61.6794760  20.9710586 110.7252777  61.7937126
   2.0541182 107.7893838  54.8811412   2.7412222 107.4755568  54.2932428
   1.8989311 108.6935202  54.6078664   6.8575905 102.6784034  59.3096436
   6.7734093 102.0709704  58.5746846   6.0358611 103.1693053  59.3105933
  13.9313189 116.1171198  58.5229604  13.8583360 116.9226170  59.0348909
  13.4890582 116.3163164  57.6977626  13.7202968 115.3542968  52.0332426
  12.9370490 115.8964649  52.1270650  14.4195714 115.8716948  52.4326667
  17.0299619 101.1637598  54.6766631  17.5268318 100.4107560  54.3567701
  16.2586600 101.2001914  54.1109841  24.8829376 106.8677963  56.3184923
  24.8719252 107.7502679  55.9478856  24.0146755 106.5149514  56.1239460
  16.3911872 116.0158032  60.6787763  17.1039844 116.6505497  60.6063664
  15.9001901 116.1121898  59.8627765  18.1129399 109.9209285  52.2505055
  17.1785678 110.0410748  52.0809759  18.2906068 109.0181752  51.9865064
  13.6134587 103.3054981  54.4038316  13.2432375 102.7526021  55.0919221
  14.1093680 102.7013114  53.8513316  21.5001951 105.7626604  52.7855089
  21.9662403 106.5954596  52.7115391  21.9509451 105.2971586  53.4900347
  11.4423786 113.7652476  61.4993334  12.1433245 114.3988959  61.6522728
  10.9718901 114.1067207  60.7388973  19.5678182 112.1070426  49.7841241
  19.8438026 111.9927020  50.6935115  18.6982680 111.7087910  49.7453414
  19.4718613  98.1307191  56.8245990  18.5581693  98.3611418  56.9928197
  19.9011715  98.2145635  57.6760022  19.2425072 106.3197083  59.3245884
  18.5896522 106.5672991  58.6698337  19.6205452 105.5061221  58.9908361
  16.2032246 116.3556776  53.4274054  16.3854640 115.5378432  53.8901807
  17.0265232 116.5724469  52.9898944  16.5374411 115.2824962  50.6889103
  17.0662178 114.7717416  50.0759265  16.8002631 114.9667492  51.5534636
  15.2912645 107.0616894  65.8111921  14.6153282 106.9611024  66.4814296
  16.1140279 106.9056108  66.2747918   7.0391504 113.2988831  58.4324436
   7.6244941 112.5532519  58.5652341   6.8416342 113.6092788  59.3161100
   9.8930159 116.3340078  53.4486879   9.2240534 116.8186206  52.9650919
   9.7543029 116.5809299  54.3630257   1.6309159 105.8694431  57.1528880
   1.6693258 105.3358022  57.9465998   1.1249451 105.3429637  56.5339857
  14.0335428 118.3683822  60.0469537  14.5853736 118.5315443  60.8118622
  14.3741621 118.9588260  59.3749562   9.0099921 100.7158972  60.6491422
   9.0741247 101.5773803  60.2368820   8.9467041 100.1032973  59.9163780
   8.4852193 102.7882104  64.2964456   9.1124232 102.4059181  64.9101980
   7.6280112 102.5696306  64.6620149  18.8846302 113.1945079  65.9018192
  19.4286206 113.8075038  65.4073146  18.3033147 113.7524658  66.4185205
   5.2617736 104.5958533  50.2282811   5.5571177 103.6869212  50.1749865
   4.3605772 104.5746273  49.9063813  17.1703815 116.3165797  57.0333219
  17.0454954 115.5155537  56.5244165  17.8282906 116.8111991  56.5447189
   8.7911983 102.6714530  56.2110360   8.0698569 103.2850498  56.0717833
   9.5805239 103.2072295  56.1327006  19.2338723 114.1174817  58.6612769
  18.2869059 113.9980169  58.5891096  19.5821496 113.2297315  58.7439031
  11.5938297 100.0068956  62.4851011  12.1172699 100.2531253  63.2477321
  11.3750630 100.8388991  62.0654149   6.9905578 102.2772631  50.3522136
   6.6618284 101.3970010  50.1697242   7.3444948 102.2220300  51.2398525
  16.2385157 113.9127534  54.8617122  16.0910119 112.9844241  55.0424692
  17.0638650 113.9347624  54.3774197  10.1047401 102.5645601  50.7197614
  10.4443473 103.0931522  49.9976222  10.5519521 102.9026007  51.4956180
  19.8419278 114.7356092  55.9481994  20.7665826 114.5298954  55.8106446
  19.6734582 114.4872494  56.8571336  12.7990842 100.9482651  60.1700682
  12.4587662 100.1490464  60.5721362  12.0929848 101.2484362  59.5977515
  13.4507314  98.0331964  58.6228005  14.2733383  97.5592442  58.5006895
  13.6945377  98.8122448  59.1226691  12.0915548 101.0620222  48.9190907
  12.8123911 101.4401475  48.4154623  11.4680852 101.7809099  49.0225885
  16.2346671 101.7665371  49.8549239  16.4510285 102.6490009  49.5538067
  15.7540738 101.3751585  49.1254881  10.9745892 104.7251085  56.4319983
  10.8290473 105.0391388  57.3244265  10.4971096 105.3435985  55.8790882
  12.8342275 101.7153632  56.4800873  12.8203844 100.8194726  56.1433171
  13.5514703 101.7224296  57.1139159  14.6868406 102.1490973  58.5254000
  14.4286184 103.0708043  58.5238331  14.1553446 101.7521407  59.2154465
  19.6314595 115.2541760  51.3044086  19.8051472 114.6888182  50.5517938
  20.1243486 116.0542655  51.1223576   5.4491555 107.2656429  59.3707645
   4.9045023 108.0416237  59.5027919   6.3270904 107.6127233  59.2126766
  12.2379171 100.5968013  51.7488443  12.3595082  99.6684659  51.9479331
  11.9481214 100.6106699  50.8366759  15.1070362  98.2822923  54.8855163
  15.1292058  98.3462256  53.9307143  15.5238421  97.4427432  55.0795669
  25.4853986 108.0178183  52.9234386  25.9285132 107.2685508  52.5253509
  24.6080496 108.0088319  52.5408118  20.6189767 114.5708524  48.4040984
  21.3140672 115.1915217  48.6228299  20.9612917 113.7203875  48.6793362
   6.2357576 106.3926325  62.2637802   5.4939312 106.5408961  62.8502432
   5.9150321 106.6534591  61.4004551  22.5181190 112.0208230  49.9328315
  23.0432514 112.3595503  49.2077635  22.4303543 111.0855245  49.7491450
  14.1801239 115.9342303  62.0618192  14.4888365 115.6891450  62.9340891
  14.9776721 116.1388942  61.5737062  14.2021851 118.0880213  54.2923568
  13.7626841 117.5956592  54.9856425  14.9529968 117.5453181  54.0515643
   6.6814190 114.2791754  54.2948196   7.5072210 113.9795526  53.9146840
   6.3308242 113.5099376  54.7437985  11.6495723 113.6318222  56.3645870
  11.0275733 112.9688927  56.0648098  12.3200590 113.6579354  55.6819518
   4.8822795 112.1978080  55.2537130   4.0454703 111.7700255  55.0721131
   4.8546441 112.3910524  56.1907921  11.7220251 102.1100010  65.9578376
  11.7708406 102.9862133  65.5756145  12.2642765 101.5677403  65.3850019
  22.2075096 112.6541133  65.2379513  21.4170640 112.6365272  64.6984012
  21.9708451 113.1929427  65.9928549  22.3272971 109.5033600  62.5512241
  22.3770976 109.3383607  63.4927764  22.2186895 108.6360859  62.1610122
  11.2109230 112.1822145  49.8404330  11.3597350 112.8657610  49.1871003
  12.0175674 112.1627236  50.3553786  19.6176734 105.4864528  63.8671548
  20.5186597 105.3470993  63.5755546  19.6924708 105.6518983  64.8069726
  13.9519539 102.8631383  62.7124734  13.0822849 103.1564949  62.4407323
  14.1879020 103.4471828  63.4331998  23.8291168 111.9230541  62.7954263
  23.5375977 112.2860522  63.6317724  23.2163300 111.2097550  62.6167595
  25.0286851 109.4883421  55.3156833  25.8633742 109.9273225  55.4794394
  25.1645979 109.0122074  54.4965079  22.0778357 107.0463156  61.2634321
  22.5532478 107.2390802  60.4553172  21.1543922 107.1022342  61.0177705
   8.9661863 108.2087323  50.8465399   8.7207905 107.3049653  51.0445609
   9.1357778 108.2104474  49.9044877  16.6558573  99.0810999  60.2290155
  17.1740517  99.8172026  59.9036643  16.3013706  99.3874993  61.0636914
   8.2357511 103.9415681  48.3451561   7.5426756 104.0160036  47.6891597
   7.9909263 103.1776024  48.8673078  16.9071167  95.5011282  55.7491051
  17.1872921  94.8334471  56.3751478  17.6921774  95.6940378  55.2365715
  14.7104636 114.6770276  47.3116078  14.1378603 115.2960463  46.8586550
  15.2837429 115.2269638  47.8456000  20.7780026 103.9228916  59.4962627
  21.7297448 104.0227014  59.5174851  20.6083476 103.1307185  60.0060711
  18.7994405 101.0084499  59.6822027  18.2044337 101.2889512  58.9868516
  18.5144102 101.4978400  60.4538769  17.9301895 114.9607426  48.4424660
  18.8632569 114.8952988  48.6457536  17.8425108 115.7963693  47.9839193
  20.5589912 114.2773296  45.4028608  20.4803544 113.9433160  46.2964365
  21.3799579 114.7695064  45.4020080  23.2568103 107.1435036  58.6104926
  23.2244423 106.2051036  58.7964610  23.8668727 107.2219072  57.8770751
  15.0951434 106.0131089  44.6532130  16.0410539 105.8837297  44.7220548
  14.7165679 105.2745751  45.1301558  23.4062592 103.9346079  58.6563209
  22.8901640 103.1504536  58.4693138  24.2902540 103.6064796  58.8209729
  21.0673319  97.6787095  54.6159022  20.8698140  97.3702183  55.5002354
  21.6773024  98.4048734  54.7456952  29.0744653 108.2051043  57.7510963
  29.8048042 107.9436331  58.3118666  28.4651599 107.4679764  57.7913031
  27.1559950 106.3458905  58.3485414  26.4293114 106.2114870  57.7401906
  26.7407237 106.6535734  59.1542132  14.9790127 110.0648835  66.1132787
  15.8993136 110.2427434  66.3072834  14.9439710 109.1204880  65.9612486
  13.2794351 103.9381065  44.5887015  12.3725807 103.6414178  44.6649729
  13.5570332 103.6410883  43.7221302   4.1972292 105.2587428  55.0386062
   3.8775076 104.4052737  54.7460436   3.6505720 105.4736007  55.7944029
   7.9752199 107.9749869  58.7555568   8.1938209 108.9066977  58.7743602
   8.3877973 107.6157844  59.5410372  14.8956417  98.4817955  50.7431257
  14.0857145  98.1365040  51.1186503  15.5840834  98.1725498  51.3318868
  16.8246965  97.5596002  52.3655553  17.3778004  97.9791455  53.0245577
  17.0617052  96.6331750  52.4078509  12.8480065 103.5483075  68.1458317
  12.7476791 104.4977432  68.0770408  12.6301607 103.2201314  67.2734387
  12.0493136 100.7968000  44.7298995  12.9112300 101.1222899  44.9894812
  12.2343480 100.0099496  44.2172060   4.0660552 108.8790340  57.0079183
   3.3724023 108.4644293  56.4949138   4.8133543 108.9210876  56.4112602
  20.2025772  99.6696527  51.8734218  19.6224441 100.3281331  51.4912270
  19.9361705  98.8473871  51.4621635  18.6529339  99.0701584  54.0755538
  19.1529117  99.1818119  53.2669857  19.2964947  98.7662637  54.7156346
  12.7111335 106.9780214  66.9623379  12.2278416 107.7780574  67.1687268
  12.7972274 106.9888159  66.0090823   5.9797294 108.8108594  54.8845198
   5.9567982 108.9096281  53.9327081   6.2897931 109.6573745  55.2062364
   8.6384672 110.8684749  58.9991813   9.5927926 110.8368691  58.9321744
   8.4397196 110.4075372  59.8142039   9.2284054 109.4385865  61.5662610
  10.0476943 109.9329943  61.5897448   9.5020862 108.5217833  61.5380178
  18.9850650 101.8296617  50.9290566  18.0976505 102.1146268  50.7110761
  19.4004639 101.6690380  50.0817843  22.3365187 101.8543138  54.6444905
  23.1125577 102.3439591  54.9169522  21.6113321 102.2801192  55.1016775
  24.7737745 102.5670757  55.7018846  25.3682236 102.3266493  54.9912154
  24.8464329 101.8477888  56.3292382   6.9934901 116.4104368  56.0162011
   6.8589369 115.6504769  55.4500009   6.5766963 117.1345268  55.5490799
  18.1293864 111.5941292  45.0238586  18.8329714 111.7991294  45.6396242
  17.4056513 112.1618054  45.2887669  18.9591674 107.3451153  51.1440856
  18.9026876 107.8019704  50.3048488  19.5120017 106.5841838  50.9663699
  22.7696480 103.1340885  51.9690976  22.5133414 102.7337521  52.7999183
  22.1449348 103.8484679  51.8441115  27.0808818 105.8736958  54.4762267
  26.5208376 105.9430147  55.2493829  26.4752321 105.6977943  53.7561763
  10.1504027 117.3073685  56.2280453  10.0336411 118.2519118  56.1259144
   9.3296473 117.0047247  56.6166252  20.0380561 112.0323821  47.0737046
  20.8726165 111.6005019  46.8914521  19.8764904 111.8605835  48.0013940
  19.6926453 108.5355934  48.4393385  19.6375257 108.3700206  47.4981829
  19.0672509 109.2431967  48.5955575   4.4818968 103.7723999  62.2654807
   5.1277832 103.2622953  62.7542033   4.2736120 104.5092680  62.8398233
  17.0072361 110.8404846  67.7646948  17.8763520 111.0145498  67.4033583
  16.5279112 111.6599263  67.6422677  13.0022579  98.0364043  48.0178704
  12.9901249  98.9805883  48.1746975  13.8946001  97.8534189  47.7238165
  11.1758541 117.9601947  59.4436382  12.0785788 117.9925557  59.7602877
  10.9495911 117.0302398  59.4582717  12.9312143 116.7132934  56.1046460
  11.9807774 116.7134795  55.9910833  13.2344629 115.9665668  55.5882495
  16.8174698  94.6306820  52.2724640  16.0507094  94.0765307  52.4181323
  17.2285403  94.7028689  53.1338792   8.8216459 100.9191616  66.3629822
   9.6847921 100.5628421  66.5733146   8.2481870 100.5805511  67.0505226
  28.6664836 122.5493472  57.1692223  29.3043246 122.4300219  56.4655563
  28.5485679 123.4974316  57.2280175  25.4754543 122.5020900  57.1053747
  25.1373054 122.3861965  56.2174282  26.3444311 122.1012065  57.0854754
  21.3341358 124.3556377  53.0950638  20.7706223 124.2646314  52.3266926
  21.2193753 123.5356281  53.5753131  25.9574326 123.6555752  63.0639953
  25.9462966 123.2608550  62.1920457  26.1194965 122.9221825  63.6573724
  23.6037794 123.8169712  58.6020497  24.2001366 123.5925735  57.8877459
  23.6612765 123.0754458  59.2045944  23.1762822 121.2709148  46.4370688
  23.4288343 120.7490669  45.6754151  22.2387381 121.1075293  46.5397371
  28.2206105 120.2744926  54.2445431  29.0069194 119.8564349  53.8935848
  28.4844809 121.1791018  54.4127079  28.3916182 125.7117776  48.9434088
  27.7562015 125.7852403  49.6554992  28.0613589 126.3011375  48.2653167
  33.6214532 120.2120159  55.1478409  34.3539704 119.6419376  55.3816239
  32.8653888 119.8241760  55.5884915  22.8959111 123.1737254  48.6395062
  22.7795369 122.4982157  49.3076147  23.0061371 122.6869627  47.8227216
  25.2390652 122.6347401  52.3441752  24.8748859 122.1078022  53.0554673
  26.0957768 122.2445870  52.1708237  31.1439952 113.9241733  59.6073018
  30.8123277 114.7937144  59.3834233  30.5485566 113.6078017  60.2867048
  24.8796139 117.6637300  47.3403100  25.0470541 118.5317537  47.7073571
  24.6893308 117.8264582  46.4164389  27.6371472 126.1254279  59.0068931
  27.3372195 127.0279318  58.8984738  27.2922531 125.8586462  59.8590083
  21.0883953 122.5768076  55.0405635  20.1634450 122.4444290  55.2483327
  21.3368367 123.3562295  55.5375577  31.0368616 118.6436819  56.6866368
  30.1285493 118.5752228  56.3925129  30.9856211 119.1208764  57.5148193
  24.8585360 120.1194958  48.3249767  24.7384985 120.5652009  49.1635247
  24.1637948 120.4680276  47.7663305  18.4492764 122.2201350  55.8749424
  18.5785146 122.4735829  56.7888836  17.7690216 122.8129058  55.5554079
  25.1109481 120.0626465  64.6301265  24.3342816 120.6220385  64.6204130
  25.7500045 120.5483248  65.1516135  32.9030262 116.8453258  58.4644242
  32.2604642 117.1385791  57.8184036  32.3985191 116.7306178  59.2697439
  30.5570426 120.5916431  49.1530101  31.4688282 120.8243818  48.9777799
  30.0480073 121.1753475  48.5905180  23.3655854 122.8711918  64.1919232
  24.1070538 123.4096962  63.9154056  22.6592839 123.4978207  64.3490784
  28.8411193 125.0141059  62.7891394  29.2494549 124.5723469  62.0446026
  28.1188455 124.4393686  63.0425587  25.1942263 119.9513666  60.1624951
  26.0403459 120.3753079  60.3059600  25.1340901 119.2947290  60.8563514
  29.1640008 125.5742249  56.5443683  28.5348870 125.7387964  55.8419750
  28.7765670 125.9883859  57.3154647  33.0429240 126.5096687  53.8988046
  32.3580278 126.8895589  53.3485080  33.1273089 127.1192014  54.6319994
  28.3441709 117.6118034  61.8206124  28.1002641 118.3660094  61.2840400
  28.6201639 117.9903382  62.6553371  30.2980172 124.1556646  60.4983390
  30.5097067 124.7988406  59.8217771  30.2509920 123.3218963  60.0305320
  27.9006401 116.7674467  57.4019962  27.0390880 117.0655721  57.6936700
  27.9268835 116.9844866  56.4700995  24.7167970 125.3116658  53.8093768
  25.1806315 125.5904361  53.0198390  24.4524768 124.4100102  53.6266858
  23.6536856 121.4339810  50.6183333  24.3560899 121.8860854  51.0857259
  23.3217484 120.7923629  51.2463226  22.1017218 120.0251567  64.9934542
  21.4715878 120.7067847  65.2269939  21.9953305 119.9134648  64.0487680
  17.3962190 119.6923363  55.9200466  16.6061244 119.9480891  55.4440577
  17.8873437 120.5071700  56.0252507  31.4125999 127.0328602  58.6705747
  32.2343443 126.6308789  58.3888429  31.4088402 126.9296836  59.6221863
  19.3476935 120.0567942  52.8783943  18.5508099 120.1686636  53.3967439
  19.1202528 120.3954594  52.0124834  15.6799893 119.9453853  58.3515457
  15.9307931 120.8300863  58.6173033  16.2159441 119.7658455  57.5790549
  39.5031993 123.3767350  55.0190719  38.7495701 122.8074748  54.8634723
  39.6379534 123.3430015  55.9661353  21.3797960 114.3272332  67.3559793
  20.9864906 113.7738531  68.0307437  22.1964101 114.6382911  67.7466311
  24.2965921 115.7430211  64.9480050  25.0375635 116.3437365  64.8684512
  24.5283844 115.0007849  64.3898092  19.4407259 120.9286579  63.2258279
  19.3260774 120.0271836  63.5265378  18.5851777 121.1750276  62.8743096
  28.2423084 111.7711314  59.2244331  27.8987354 112.6612956  59.1483442
  28.6102047 111.5812972  58.3613916  28.2073367 121.7619926  47.7316767
  27.6919990 122.5324530  47.9705154  27.9350675 121.0885062  48.3549828
  25.7920478 116.6069626  52.7902005  24.9362074 116.2176477  52.6107644
  26.2047430 116.6861587  51.9301790  27.3219625 114.1415970  57.1893565
  26.8184420 114.1046105  56.3761370  27.6150231 115.0508712  57.2490221
  23.5662510 114.2254699  56.1959746  24.4315507 114.0297508  55.8365636
  23.6340019 113.9965051  57.1229103  33.1807641 124.5152280  49.6669940
  32.4037084 124.1763440  49.2225102  33.8599122 124.5204903  48.9924905
  27.9959670 119.6347018  49.5576548  27.6909806 119.9493167  50.4086691
  28.9490112 119.7128438  49.6003881  31.4198948 123.9886261  56.3236548
  30.7622622 124.6785523  56.4116677  32.2239347 124.3782693  56.6670534
  21.1724830 116.4556907  53.5676113  21.7468581 116.2332089  52.8349306
  21.7595812 116.5245602  54.3204715  30.2304407 122.3430634  54.3740490
  30.7436288 122.9760626  54.8762200  30.8805631 121.7431830  54.0083850
  21.4994417 118.4861368  47.5871999  20.6631729 118.8236055  47.9081273
  21.3599186 118.3510348  46.6499136  23.4747497 113.3298156  52.2951183
  22.8211910 113.0147173  51.6707797  23.4327971 112.7073897  53.0211006
  24.5858702 123.6117451  44.2104475  23.6785764 123.3806705  44.4095624
  25.0829734 122.8155070  44.3978456  26.7085238 119.8180090  56.6198830
  25.7907799 120.0395037  56.4620518  27.1245381 119.8926400  55.7610538
  27.4920285 121.2171505  51.7501511  28.2392104 121.7292903  51.4408633
  27.7611875 120.8955558  52.6105904  25.7646936 123.7130046  48.7328465
  24.8558155 123.4289079  48.8300935  25.7942019 124.1329125  47.8731772
  30.9966203 127.3236636  52.5019632  30.5428530 126.4827545  52.5584823
  30.3660170 127.9598034  52.8394413  29.9399123 118.2528622  53.7320300
  29.2021879 117.7406008  54.0630542  30.1925896 117.8129003  52.9203577
  30.0410750 111.0304874  54.3262069  30.3469627 110.1702237  54.0387984
  30.7663355 111.6222494  54.1261063  16.3335106 121.4335560  52.7143667
  16.1359506 120.8404921  51.9894734  15.7781770 121.1287770  53.4319606
  24.3131830 121.3258667  54.8338260  24.3680439 120.3732503  54.7580737
  23.5023032 121.4818106  55.3179559  25.4623023 125.2538790  46.0716543
  25.0242453 124.5374649  45.6122181  26.2033464 125.4814905  45.5101635
  22.2524189 119.9435726  52.5928639  21.4392055 120.2429897  52.9993831
  22.7483184 119.5491415  53.3103121  27.8498401 120.4077551  61.4243533
  28.2047789 120.6349024  62.2837999  28.4970532 120.7395928  60.8020788
  33.5796138 123.5295987  52.1292862  33.4414037 123.7197583  51.2014051
  33.2232357 124.2915370  52.5860913  21.7438264 117.5154082  58.2089874
  22.3837644 117.3742841  57.5112837  20.9115795 117.2288595  57.8328476
  33.6065518 125.5972514  57.1404134  34.0402024 125.5047803  57.9887188
  34.3197098 125.5730014  56.5024150  18.8281332 120.9599594  50.3984619
  17.8978920 120.8984050  50.6154581  18.9238804 120.4375547  49.6021260
  18.7466881 117.4854407  52.9862861  19.0073698 118.3999740  52.8772021
  19.5684053 117.0178849  53.1359474  20.2191806 118.8992164  60.1561685
  20.8914859 118.6909526  59.5074334  19.3921593 118.7014250  59.7166918
  34.4681067 125.6396214  59.6737019  34.6616957 126.5442025  59.9196294
  34.3681685 125.1803634  60.5075604  26.1217378 115.5254105  62.1727346
  25.4745293 116.2244055  62.0791823  26.8918393 115.9590249  62.5403594
  29.5296176 125.7902957  65.2477900  29.3781682 125.5613509  64.3307983
  29.5200855 126.7473559  65.2609245  26.2981512 123.3634870  60.2324166
  27.2273572 123.5146030  60.0593133  25.8772542 123.4518891  59.3772812
  20.6219303 122.1734767  60.9164123  20.4839101 121.4415006  61.5175662
  21.5324227 122.0843667  60.6348310  29.5834251 124.1123171  45.6648601
  28.9663422 123.3870000  45.5681654  29.1150739 124.8732532  45.3215675
  23.2501604 121.8854726  60.4047802  23.9601222 121.2447919  60.3634421
  23.2070912 122.1367621  61.3273983  21.9630538 118.8719944  62.2243442
  21.4267895 118.4210683  62.8765038  21.3747246 119.0065853  61.4813906
  21.3732797 118.3308596  44.7869905  20.4962263 118.2097396  44.4232152
  21.8490550 117.5394674  44.5348794  31.2405790 126.7861664  61.5568361
  30.3532569 126.4487585  61.6794760  31.8104341 126.0544695  61.7937126
  17.6969659 118.0075952  59.3096436  17.6127848 117.4001622  58.5746846
  16.8752366 118.4984970  59.3105933  27.8693373 116.4929516  54.6766631
  28.3662073 115.7399478  54.3567701  27.0980355 116.5293832  54.1109841
  35.7223130 122.1969881  56.3184923  35.7113007 123.0794596  55.9478856
  34.8540510 121.8441432  56.1239460  28.9523154 125.2501203  52.2505055
  28.0179432 125.3702665  52.0809759  29.1299822 124.3473670  51.9865064
  24.4528342 118.6346899  54.4038316  24.0826129 118.0817939  55.0919221
  24.9487434 118.0305032  53.8513316  32.3395705 121.0918522  52.7855089
  32.8056157 121.9246514  52.7115391  32.7903206 120.6263504  53.4900347
  30.4071936 127.4362343  49.7841241  30.6831780 127.3218938  50.6935115
  29.5376435 127.0379828  49.7453414  30.3112368 113.4599109  56.8245990
  29.3975448 113.6903336  56.9928197  30.7405469 113.5437553  57.6760022
  30.0818826 121.6489001  59.3245884  29.4290277 121.8964908  58.6698337
  30.4599206 120.8353139  58.9908361  26.1306399 122.3908812  65.8111921
  25.4547036 122.2902941  66.4814296  26.9534033 122.2348026  66.2747918
  12.4702913 121.1986349  57.1528880  12.5087013 120.6649939  57.9465998
  11.9643206 120.6721554  56.5339857  19.8493675 116.0450889  60.6491422
  19.9135002 116.9065720  60.2368820  19.7860796 115.4324891  59.9163780
  19.3245948 118.1174022  64.2964456  19.9517987 117.7351099  64.9101980
  18.4673867 117.8988224  64.6620149  16.1011491 119.9250451  50.2282811
  16.3964932 119.0161129  50.1749865  15.1999526 119.9038190  49.9063813
  19.6305738 118.0006447  56.2110360  18.9092323 118.6142415  56.0717833
  20.4198993 118.5364212  56.1327006  22.4332051 115.3360874  62.4851011
  22.9566453 115.5823171  63.2477321  22.2144384 116.1680909  62.0654149
  17.8299332 117.6064549  50.3522136  17.5012038 116.7261928  50.1697242
  18.1838703 117.5512217  51.2398525  20.9441155 117.8937518  50.7197614
  21.2837228 118.4223440  49.9976222  21.3913276 118.2317925  51.4956180
  23.6384596 116.2774569  60.1700682  23.2981417 115.4782382  60.5721362
  22.9323603 116.5776280  59.5977515  24.2901068 113.3623882  58.6228005
  25.1127137 112.8884360  58.5006895  24.5339132 114.1414365  59.1226691
  22.9309303 116.3912140  48.9190907  23.6517665 116.7693393  48.4154623
  22.3074607 117.1101017  49.0225885  27.0740425 117.0957289  49.8549239
  27.2904040 117.9781927  49.5538067  26.5934493 116.7043502  49.1254881
  21.8139647 120.0543002  56.4319983  21.6684228 120.3683305  57.3244265
  21.3364850 120.6727903  55.8790882  23.6736030 117.0445550  56.4800873
  23.6597598 116.1486643  56.1433171  24.3908458 117.0516214  57.1139159
  25.5262160 117.4782890  58.5254000  25.2679938 118.3999961  58.5238331
  24.9947201 117.0813325  59.2154465  23.0772926 115.9259930  51.7488443
  23.1988837 114.9976577  51.9479331  22.7874968 115.9398616  50.8366759
  25.9464116 113.6114841  54.8855163  25.9685813 113.6754174  53.9307143
  26.3632175 112.7719350  55.0795669  36.3247740 123.3470100  52.9234386
  36.7678886 122.5977426  52.5253509  35.4474251 123.3380237  52.5408118
  17.0751331 121.7218243  62.2637802  16.3333067 121.8700878  62.8502432
  16.7544075 121.9826508  61.4004551  33.3574945 127.3500147  49.9328315
  33.8826269 127.6887420  49.2077635  33.2697297 126.4147163  49.7491450
  22.5614005 117.4391928  65.9578376  22.6102161 118.3154051  65.5756145
  23.1036519 116.8969321  65.3850019  33.0468851 127.9833051  65.2379513
  32.2564395 127.9657190  64.6984012  32.8102205 128.5221345  65.9928549
  33.1666726 124.8325517  62.5512241  33.2164731 124.6675525  63.4927764
  33.0580649 123.9652776  62.1610122  30.4570488 120.8156445  63.8671548
  31.3580351 120.6762910  63.5755546  30.5318463 120.9810900  64.8069726
  24.7913294 118.1923300  62.7124734  23.9216603 118.4856866  62.4407323
  25.0272774 118.7763745  63.4331998  34.6684923 127.2522459  62.7954263
  34.3769731 127.6152440  63.6317724  34.0557054 126.5389467  62.6167595
  35.8680605 124.8175339  55.3156833  36.7027496 125.2565143  55.4794394
  36.0039734 124.3413992  54.4965079  32.9172111 122.3755074  61.2634321
  33.3926233 122.5682720  60.4553172  31.9937676 122.4314259  61.0177705
  19.8055618 123.5379241  50.8465399  19.5601660 122.6341571  51.0445609
  19.9751532 123.5396391  49.9044877  27.4952327 114.4102917  60.2290155
  28.0134271 115.1463944  59.9036643  27.1407460 114.7166910  61.0636914
  19.0751265 119.2707598  48.3451561  18.3820510 119.3451953  47.6891597
  18.8303017 118.5067942  48.8673078  27.7464922 110.8303200  55.7491051
  28.0266675 110.1626389  56.3751478  28.5315529 111.0232295  55.2365715
  31.6173780 119.2520834  59.4962627  32.5691203 119.3518931  59.5174851
  31.4477230 118.4599102  60.0060711  29.6388159 116.3376417  59.6822027
  29.0438092 116.6181430  58.9868516  29.3537856 116.8270318  60.4538769
  34.0961858 122.4726953  58.6104926  34.0638178 121.5342954  58.7964610
  34.7062481 122.5510990  57.8770751  25.9345189 121.3423006  44.6532130
  26.8804293 121.2129214  44.7220548  25.5559434 120.6037668  45.1301558
  34.2456346 119.2637997  58.6563209  33.7295395 118.4796453  58.4693138
  35.1296295 118.9356713  58.8209729  31.9067073 113.0079012  54.6159022
  31.7091894 112.6994101  55.5002354  32.5166779 113.7340651  54.7456952
  39.9138408 123.5342960  57.7510963  40.6441796 123.2728248  58.3118666
  39.3045353 122.7971682  57.7913031  37.9953705 121.6750823  58.3485414
  37.2686868 121.5406788  57.7401906  37.5800992 121.9827651  59.1542132
  25.8183881 125.3940752  66.1132787  26.7386891 125.5719351  66.3072834
  25.7833464 124.4496798  65.9612486  24.1188106 119.2672983  44.5887015
  23.2119561 118.9706095  44.6649729  24.3964087 118.9702801  43.7221302
  15.0366046 120.5879346  55.0386062  14.7168831 119.7344654  54.7460436
  14.4899474 120.8027924  55.7944029  25.7350172 113.8109872  50.7431257
  24.9250900 113.4656957  51.1186503  26.4234588 113.5017416  51.3318868
  27.6640720 112.8887919  52.3655553  28.2171758 113.3083373  53.0245577
  27.9010806 111.9623667  52.4078509  23.6873819 118.8774993  68.1458317
  23.5870546 119.8269350  68.0770408  23.4695361 118.5493232  67.2734387
  22.8886890 116.1259918  44.7298995  23.7506054 116.4514816  44.9894812
  23.0737235 115.3391414  44.2172060  31.0419527 114.9988444  51.8734218
  30.4618196 115.6573248  51.4912270  30.7755460 114.1765789  51.4621635
  29.4923093 114.3993502  54.0755538  29.9922872 114.5110037  53.2669857
  30.1358701 114.0954555  54.7156346  23.5505089 122.3072132  66.9623379
  23.0672171 123.1072492  67.1687268  23.6366028 122.3180077  66.0090823
  29.8244405 117.1588535  50.9290566  28.9370260 117.4438185  50.7110761
  30.2398394 116.9982298  50.0817843  33.1758941 117.1835056  54.6444905
  33.9519331 117.6731508  54.9169522  32.4507075 117.6093110  55.1016775
  35.6131500 117.8962675  55.7018846  36.2075990 117.6558411  54.9912154
  35.6858083 117.1769806  56.3292382  29.7985429 122.6743071  51.1440856
  29.7420630 123.1311622  50.3048488  30.3513771 121.9133755  50.9663699
  33.6090235 118.4632803  51.9690976  33.3527169 118.0629438  52.7999183
  32.9843103 119.1776597  51.8441115  37.9202572 121.2028876  54.4762267
  37.3602130 121.2722065  55.2493829  37.3146076 121.0269860  53.7561763
  30.8774316 127.3615739  47.0737046  31.7119920 126.9296937  46.8914521
  30.7158659 127.1897752  48.0013940  30.5320208 123.8647852  48.4393385
  30.4769012 123.6992123  47.4981829  29.9066263 124.5723885  48.5955575
  15.3212723 119.1015916  62.2654807  15.9671587 118.5914870  62.7542033
  15.1129874 119.8384598  62.8398233  27.8466115 126.1696764  67.7646948
  28.7157275 126.3437416  67.4033583  27.3672867 126.9891181  67.6422677
  23.8416333 113.3655961  48.0178704  23.8295003 114.3097801  48.1746975
  24.7339755 113.1826106  47.7238165  27.6568453 109.9598738  52.2724640
  26.8900849 109.4057224  52.4181323  28.0679158 110.0320606  53.1338792
  19.6610214 116.2483533  66.3629822  20.5241676 115.8920338  66.5733146
  19.0875625 115.9097428  67.0505226  41.9833707 129.2533651  59.6073018
  41.6517032 130.1229062  59.3834233  41.3879320 128.9369935  60.2867048
  43.7424017 132.1745175  58.4644242  43.0998397 132.4677709  57.8184036
  43.2378945 132.0598096  59.2697439  39.0816839 127.1003232  59.2244331
  38.7381108 127.9904874  59.1483442  39.4495801 126.9104890  58.3613916
  38.1613379 129.4707887  57.1893565  37.6578175 129.4338022  56.3761370
  38.4543986 130.3800630  57.2490221  34.4056265 129.5546617  56.1959746
  35.2709262 129.3589426  55.8365636  34.4733774 129.3256969  57.1229103
  34.3141252 128.6590074  52.2951183  33.6605664 128.3439091  51.6707797
  34.2721726 128.0365814  53.0211006  40.8804504 126.3596791  54.3262069
  41.1863381 125.4994155  54.0387984  41.6057109 126.9514411  54.1261063
  41.1506122 128.7891027  56.8245990  40.2369202 129.0195254  56.9928197
  41.5799224 128.8729471  57.6760022  35.1294823 128.6915799  58.6228005
  35.9520892 128.2176277  58.5006895  35.3732886 129.4706283  59.1226691
  36.7857871 128.9406759  54.8855163  36.8079567 129.0046092  53.9307143
  37.2025930 128.1011267  55.0795669  38.3346082 129.7394835  60.2290155
  38.8528026 130.4755862  59.9036643  37.9801215 130.0458828  61.0636914
  38.5858676 126.1595117  55.7491051  38.8660430 125.4918306  56.3751478
  39.3709283 126.3524213  55.2365715  42.7460828 128.3370930  54.6159022
  42.5485649 128.0286018  55.5002354  43.3560533 129.0632569  54.7456952
  36.5743926 129.1401790  50.7431257  35.7644654 128.7948875  51.1186503
  37.2628343 128.8309334  51.3318868  38.5034474 128.2179837  52.3655553
  39.0565513 128.6375290  53.0245577  38.7404561 127.2915585  52.4078509
  41.8813281 130.3280362  51.8734218  41.3011950 130.9865166  51.4912270
  41.6149214 129.5057707  51.4621635  40.3316848 129.7285420  54.0755538
  40.8316626 129.8401954  53.2669857  40.9752456 129.4246473  54.7156346
  46.4525254 133.2254593  55.7018846  47.0469745 132.9850329  54.9912154
  46.5251838 132.5061723  56.3292382  34.6810088 128.6947879  48.0178704
  34.6688758 129.6389719  48.1746975  35.5733510 128.5118024  47.7238165
  38.4962207 125.2890655  52.2724640  37.7294603 124.7349142  52.4181323
  38.9072912 125.3612524  53.1338792   6.9850730  54.3953720  41.7436025
   6.2314439  53.8261118  41.5880030   7.1198272  54.3616384  42.6906660
   1.0614876  54.5482356  38.8538169   0.9232774  54.7383952  37.9259358
   0.7051095  55.3101739  39.3106220   1.0884256  56.6158883  43.8649440
   1.5220762  56.5234172  44.7132494   1.8015836  56.5916384  43.2269456
   1.9499805  56.6582584  46.3982326   2.1435695  57.5628395  46.6441600
   1.8500423  56.1990003  47.2320911   3.2041868  53.2156251  43.0430229
   3.1931744  54.0980966  42.6724162   2.3359248  52.8627801  42.8484766
   3.8066478  54.3656470  39.6479692   4.2497624  53.6163795  39.2498816
   2.9292988  54.3566606  39.2653424   0.8393683  58.3686517  36.6573622
   1.3645007  58.7073790  35.9322942   0.7516035  57.4333532  36.4736756
   0.6485464  55.8511887  49.2757548   0.6983469  55.6861894  50.2173071
   0.5399387  54.9839146  48.8855429   2.1503661  58.2708829  49.5199570
   1.8588469  58.6338809  50.3563031   1.5375792  57.5575837  49.3412902
   3.3499343  55.8361708  42.0402140   4.1846234  56.2751512  42.2039700
   3.4858472  55.3600362  41.2210386   1.5780596  53.4913323  45.3350233
   1.5456916  52.5529324  45.5209917   2.1881219  53.5697360  44.6016058
   1.7275084  50.2824366  45.3808516   1.2114133  49.4982823  45.1938445
   2.6115033  49.9543083  45.5455035   7.3957145  54.5529330  44.4756270
   8.1260534  54.2914618  45.0363973   6.7864091  53.8158052  44.5158338
   5.4772443  52.6937192  45.0730721   4.7505606  52.5593157  44.4647212
   5.0619729  53.0014021  45.8787439   3.0950237  48.9149045  42.4264152
   3.6894728  48.6744781  41.7157461   3.1676821  48.1956175  43.0537689
   1.0908972  49.4819172  38.6936282   0.8345907  49.0815808  39.5244490
   0.4661840  50.1962966  38.5686421   5.4021310  52.2215245  41.2007574
   4.8420868  52.2908435  41.9739136   4.7964814  52.0456230  40.4807070
   6.9877329  68.8971759  43.8937529   7.6255739  68.7778507  43.1900869
   6.8698172  69.8452603  43.9525481   3.7967035  68.8499187  43.8299054
   3.4585546  68.7340252  42.9419589   4.6656803  68.4490353  43.8100060
   4.2786818  70.0034039  49.7885260   4.2675459  69.6086837  48.9165763
   4.4407457  69.2700112  50.3819031   5.2353409  74.3705632  35.1310410
   4.5841389  74.9559712  34.7444424   6.0297772  74.9011826  35.1905447
   0.9994079  72.7871151  48.7364444   0.7083945  73.6916782  48.6211110
   1.6351063  72.8287679  49.4508513   1.9250286  70.1647999  45.3265803
   2.5213858  69.9404022  44.6122766   1.9825257  69.4232745  45.9291251
   1.4975314  67.6187435  33.1615994   1.7500835  67.0968956  32.3999457
   0.5599873  67.4553580  33.2642678   6.5418597  66.6223213  40.9690737
   7.3281686  66.2042636  40.6181154   6.8057301  67.5269305  41.1372386
   6.7128675  72.0596063  35.6679394   6.0774507  72.1330690  36.3800299
   6.3826081  72.6489662  34.9898473  11.9427024  66.5598446  41.8723716
  12.6752196  65.9897663  42.1061545  11.1866380  66.1720047  42.3130221
   1.2171603  69.5215541  35.3640369   1.1007861  68.8460444  36.0321453
   1.3273863  69.0347915  34.5472522   3.5603144  68.9825688  39.0687058
   3.1961351  68.4556309  39.7799980   4.4170260  68.5924157  38.8953544
   9.4652445  60.2720020  46.3318324   9.1335769  61.1415431  46.1079539
   8.8698058  59.9556304  47.0112355   3.2008631  64.0115588  34.0648407
   3.3683033  64.8795824  34.4318878   3.0105800  64.1742869  33.1409696
   5.9583964  72.4732566  45.7314237   5.6584687  73.3757605  45.6230044
   5.6135024  72.2064750  46.5835390   9.3581108  64.9915107  43.4111675
   8.4497985  64.9230515  43.1170436   9.3068704  65.4687052  44.2393500
   3.1797852  66.4673245  35.0495074   3.0597477  66.9130296  35.8880554
   2.4850440  66.8158563  34.4908612   3.4321974  66.4104752  51.3546572
   2.6555308  66.9698672  51.3449436   4.0712537  66.8961535  51.8761442
  11.2242754  63.1931545  45.1889548  10.5817135  63.4864078  44.5429343
  10.7197683  63.0784465  45.9942745   8.8782918  66.9394718  35.8775408
   9.7900774  67.1722105  35.7023105   8.3692565  67.5231762  35.3150486
   1.6868346  69.2190206  50.9164539   2.4283030  69.7575250  50.6399362
   0.9805332  69.8456494  51.0736091   7.1623686  71.3619346  49.5136700
   7.5707042  70.9201757  48.7691333   6.4400947  70.7871974  49.7670893
   3.5154756  66.2991953  46.8870257   4.3615951  66.7231366  47.0304906
   3.4553393  65.6425577  47.5808820   7.4852500  71.9220537  43.2688989
   6.8561363  72.0866251  42.5665057   7.0978162  72.3362146  44.0399953
  11.3641732  72.8574975  40.6233353  10.6792770  73.2373876  40.0730386
  11.4485582  73.4670301  41.3565301   6.6654201  63.9596321  48.5451431
   6.4215133  64.7138382  48.0085707   6.9414132  64.3381669  49.3798678
   8.6192664  70.5034934  47.2228696   8.8309559  71.1466693  46.5463078
   8.5722412  69.6697250  46.7550627   6.2218893  63.1152754  44.1265269
   5.3603372  63.4134008  44.4182006   6.2481327  63.3323153  43.1946301
   3.0380462  71.6594945  40.5339074   3.5018808  71.9382648  39.7443697
   2.7737260  70.7578389  40.3512165   1.9749348  67.7818097  37.3428639
   2.6773392  68.2339141  37.8102566   1.6429977  67.1401916  37.9708533
   9.7338492  73.3806889  45.3951054  10.5555936  72.9787076  45.1133735
   9.7300895  73.2775123  46.3467170   3.4995095  72.9290932  47.5511764
   3.5639528  73.3911340  48.3869936   2.7906019  72.2988297  47.6794074
  17.8244485  69.7245637  41.7436025  17.0708193  69.1553036  41.5880030
  17.9592026  69.6908302  42.6906660   3.2143113  74.5959040  37.4190745
   3.0788788  75.4410576  37.8475592   3.7552925  74.7978317  36.6556678
   2.6178414  62.0908499  51.6725356   3.3588127  62.6915652  51.5929819
   2.8496336  61.3486137  51.1143399   4.8411589  75.2182606  51.5491087
   4.3975443  74.4318985  51.2311991   5.5028803  75.4061757  50.8834978
   6.9392827  75.4985406  49.5772488   6.9211303  76.3194287  49.0852757
   7.8612747  75.3739481  49.8022629   3.3965881  73.0129536  50.4195996
   3.9294218  72.2517824  50.1895304   2.8679963  72.7203188  51.1620151
   6.5635576  58.1189602  45.9489638   6.2199846  59.0091243  45.8728749
   6.9314539  57.9291259  45.0859223   6.5285859  68.1098213  34.4562073
   6.0132483  68.8802817  34.6950461   6.2563168  67.4363349  35.0795135
   4.1132970  62.9547914  39.5147312   3.2574567  62.5654764  39.3352950
   4.5259922  63.0339874  38.6547097   5.6432117  60.4894257  43.9138871
   5.1396912  60.4524392  43.1006677   5.9362724  61.3987000  43.9735528
   1.8875003  60.5732987  42.9205053   2.7527999  60.3775795  42.5610943
   1.9552512  60.3443338  43.8474410  11.5020133  70.8630567  36.3915247
  10.7249576  70.5241727  35.9470409  12.1811614  70.8683191  35.7170212
   6.3172162  65.9825305  36.2821854   6.0122298  66.2971454  37.1331998
   7.2702604  66.0606725  36.3249187   4.7618594  72.1415528  37.9314808
   4.2339956  71.4068288  37.6188046   4.2606097  72.9190205  37.6854777
   9.7411440  70.3364549  43.0481855   9.0835115  71.0263810  43.1361983
  10.5451839  70.7260981  43.3915841   8.5516899  68.6908921  41.0985796
   9.0648781  69.3238913  41.6007506   9.2018123  68.0910117  40.7329156
   1.7959990  59.6776443  39.0196489   1.1424402  59.3625461  38.3953104
   1.7540464  59.0552184  39.7456312   2.9071194  69.9595738  30.9349781
   1.9998256  69.7284992  31.1340930   3.4042226  69.1633358  31.1223763
   5.8139273  78.6693246  33.8546468   5.1400972  78.9724942  34.4631425
   6.2005095  79.4722326  33.5051925   5.0297730  66.1658377  43.3444137
   4.1120291  66.3873324  43.1865825   5.4457873  66.2404687  42.4855844
   5.8132778  67.5649793  38.4746817   6.5604597  68.0771190  38.1653939
   6.0824367  67.2433845  39.3351211   4.0859428  70.0608333  35.4573772
   3.1770647  69.7767366  35.5546241   4.1154512  70.4807412  34.5977078
   9.3178695  73.6714923  39.2264939   8.8641022  72.8305833  39.2830130
   8.6872662  74.3076321  39.5639719   8.2611615  64.6006909  40.4565607
   7.5234372  64.0884295  40.7875849   8.5138388  64.1607290  39.6448883
   7.7611634  75.5091420  40.1614757   8.0534609  76.0696477  39.4427123
   8.2710255  75.8019980  40.9167916   8.3623242  57.3783161  41.0507376
   8.6682119  56.5180524  40.7633291   9.0875847  57.9700781  40.8506370
   2.6344322  67.6736954  41.5583567   2.6892932  66.7210790  41.4826043
   1.8235524  67.8296393  42.0424865   3.7835516  71.6017077  32.7961850
   3.3454946  70.8852936  32.3367487   4.5245956  71.8293192  32.2346941
   2.7245260  76.2871771  41.2508210   2.6821438  76.5132617  40.3216742
   3.6407959  76.0535145  41.3994012   6.1710893  66.7555838  48.1488840
   6.5260281  66.9827311  49.0083305   6.8183025  67.0874215  47.5266095
  11.9008630  69.8774274  38.8538169  11.7626529  70.0675870  37.9259358
  11.5444849  70.6393657  39.3106220  11.9278010  71.9450801  43.8649440
  12.3614517  71.8526090  44.7132494  12.6409591  71.9208301  43.2269456
   5.6605905  75.5452895  45.3982541   5.7142927  76.1143831  46.1660257
   4.7920686  75.7154780  45.0336578  12.7893560  71.9874502  46.3982326
  12.9829450  72.8920312  46.6441600  12.6894178  71.5281921  47.2320911
   4.4429870  61.8732392  48.8972653   3.7957785  62.5722342  48.8037129
   5.2130886  62.3068536  49.2648901   7.8508668  72.1381244  51.9723206
   7.6994175  71.9091796  51.0553290   7.8413348  73.0951846  51.9854551
   4.6194005  69.7113157  46.9569473   5.5486065  69.8624317  46.7838440
   4.1985035  69.7997178  46.1018119   3.4182336  73.7363822  44.7268010
   3.2793422  73.3682606  45.5993948   2.6296933  74.2511461  44.5551968
   4.0130488  78.8372918  36.0693547   4.1882244  78.3660961  36.8839169
   3.3263276  79.4638684  36.2974807   4.9687552  73.1145424  42.1156848
   4.6337384  73.0746194  43.0114498   4.4691497  72.4490140  41.6427258
   7.9046743  70.4601459  32.3893908   7.2875914  69.7348287  32.2926960
   7.4363232  71.2210819  32.0460982   1.5714096  68.2333014  47.1293109
   2.2813715  67.5926206  47.0879727   1.5283404  68.4845908  48.0519290
   9.5600875  75.1700367  50.0499688   9.5013421  74.4859587  49.3830271
   9.9620393  75.9119357  49.5980314   9.5618282  73.1339951  48.2813668
   8.6745061  72.7965873  48.4040067  10.1316833  72.4022982  48.5182433
   3.0919436  77.7941403  45.2474911   3.0189607  78.5996375  45.7594215
   2.6496829  77.9933369  44.4222932   2.8809215  77.0313173  38.7577732
   2.0976737  77.5734853  38.8515957   3.5801960  77.5487153  39.1571974
   6.1905865  62.8407803  41.4011938   6.6874565  62.0877765  41.0813008
   5.4192847  62.8772119  40.8355147  14.0435623  68.5448168  43.0430229
  14.0325499  69.4272884  42.6724162  13.1753002  68.1919719  42.8484766
   5.5518119  77.6928237  47.4033070   6.2646091  78.3275702  47.3308971
   5.0608148  77.7892103  46.5873071   7.2735646  71.5979490  38.9750361
   6.3391925  71.7180952  38.8055066   7.4512314  70.6951957  38.7110371
   2.7740834  64.9825186  41.1283622   2.4038622  64.4296226  41.8164528
   3.2699926  64.3783319  40.5758622  10.6608197  67.4396809  39.5100395
  11.1268650  68.2724801  39.4360698  11.1115698  66.9741791  40.2145654
   8.7284428  73.7840631  36.5086547   9.0044272  73.6697225  37.4180421
   7.8588927  73.3858115  36.4698721   8.6324860  59.8077396  43.5491297
   7.7187940  60.0381623  43.7173504   9.0617962  59.8915840  44.4005329
   8.4031319  67.9967288  46.0491191   7.7502769  68.2443196  45.3943644
   8.7811698  67.1831426  45.7153668   5.3638492  78.0326981  40.1519361
   5.5460887  77.2148637  40.6147113   6.1871478  78.2494674  39.7144251
   5.6980658  76.9595167  37.4134410   6.2268424  76.4487621  36.8004572
   5.9608878  76.6437697  38.2779943   4.4518892  68.7387099  52.5357228
   3.7759529  68.6381229  53.2059603   5.2746525  68.5826313  52.9993225
   3.1941674  80.0454027  46.7714844   3.7459982  80.2085648  47.5363929
   3.5347868  80.6358465  46.0994869   8.0452549  74.8715284  52.6263498
   8.5892453  75.4845243  52.1318453   7.4639394  75.4294863  53.1430511
   6.3310062  77.9936002  43.7578526   6.2061201  77.1925742  43.2489471
   6.9889153  78.4882196  43.2692496   8.3944970  75.7945022  45.3858076
   7.4475306  75.6750374  45.3136403   8.7427743  74.9067520  45.4684338
   0.7544543  61.6839161  49.2096318   1.2778945  61.9301458  49.9722627
   0.5356877  62.5159196  48.7899455   5.3991403  75.5897739  41.5862428
   5.2516366  74.6614446  41.7669998   6.2244897  75.6117829  41.1019504
   9.0025525  76.4126297  42.6727301   9.9272073  76.2069159  42.5351752
   8.8340829  76.1642698  43.5816643   1.9597089  62.6252856  46.8945989
   1.6193909  61.8260669  47.2966668   1.2536095  62.9254567  46.3222822
   2.6113560  59.7102169  45.3473312   3.4339630  59.2362647  45.2252202
   2.8551624  60.4892653  45.8471998   1.2521795  62.7390427  35.6436213
   1.9730157  63.1171680  35.1399930   0.6287099  63.4579304  35.7471191
   5.3952918  63.4435576  36.5794546   5.6116532  64.3260214  36.2783374
   4.9146985  63.0521790  35.8500188   1.9948522  63.3923837  43.2046180
   1.9810091  62.4964931  42.8678478   2.7120950  63.3994501  43.8384466
   3.8474653  63.8261178  45.2499307   3.5892431  64.7478248  45.2483638
   3.3159693  63.4291612  45.9399771   8.7920841  76.9311965  38.0289393
   8.9657719  76.3658387  37.2763245   9.2849733  77.7312860  37.8468882
   1.3985418  62.2738218  38.4733750   1.5201329  61.3454864  38.6724637
   1.1087460  62.2876904  37.5612065   4.2676608  59.9593128  41.6100470
   4.2898305  60.0232461  40.6552449   4.6844667  59.1197637  41.8040976
  14.6460233  69.6948388  39.6479692  15.0891379  68.9455713  39.2498816
  13.7686743  69.6858524  39.2653424   9.7796014  76.2478729  35.1286291
  10.4746919  76.8685422  35.3473605  10.1219164  75.3974080  35.4038669
  11.6787437  73.6978435  36.6573622  12.2038761  74.0365707  35.9322942
  11.5909790  72.7625450  36.4736756   3.3407486  77.6112508  48.7863498
   3.6494612  77.3661655  49.6586198   4.1382968  77.8159147  48.2982368
   3.3628098  79.7650418  41.0168875   2.9233088  79.2726797  41.7101731
   4.1136215  79.2223386  40.7760950   0.8826497  63.7870215  52.6823682
   0.9314653  64.6632338  52.3001452   1.4249012  63.2447608  52.1095326
  11.3681343  74.3311338  51.9624820  10.5776887  74.3135477  51.4229319
  11.1314698  74.8699632  52.7173856  11.4879218  71.1803805  49.2757548
  11.5377223  71.0153812  50.2173071  11.3793142  70.3131064  48.8855429
   8.7782981  67.1634733  50.5916855   9.6792843  67.0241198  50.3000853
   8.8530955  67.3289188  51.5315032   3.1125786  64.5401587  49.4370041
   2.2429095  64.8335154  49.1652630   3.3485266  65.1242032  50.1577305
  12.9897415  73.6000746  49.5199570  12.6982223  73.9630727  50.3563031
  12.3769546  72.8867754  49.3412902  14.1893097  71.1653626  42.0402140
  15.0239989  71.6043430  42.2039700  14.3252226  70.6892279  41.2210386
  11.2384603  68.7233361  47.9879628  11.7138725  68.9161007  47.1798479
  10.3150169  68.7792547  47.7423011   5.8164820  60.7581204  46.9535461
   6.3346764  61.4942231  46.6281950   5.4619953  61.0645198  47.7882221
   6.0677414  57.1781487  42.4736358   6.3479168  56.5104676  43.0996785
   6.8528021  57.3710583  41.9611022   3.8710882  76.3540481  34.0361384
   3.2984850  76.9730668  33.5831856   4.4443676  76.9039843  34.5701306
   9.9386272  65.5999121  46.2207933  10.8903695  65.6997219  46.2420157
   9.7689723  64.8077389  46.7306018   7.9600652  62.6854704  46.4067334
   7.3650584  62.9659717  45.7113823   7.6750348  63.1748605  47.1784075
   7.0908142  76.6377631  35.1669967   8.0238815  76.5723193  35.3702842
   7.0031355  77.4733898  34.7084499   9.7196159  75.9543501  32.1273914
   9.6409790  75.6203365  33.0209672  10.5405826  76.4465269  32.1265387
  12.4174350  68.8205241  45.3350233  12.3850670  67.8821241  45.5209917
  13.0274974  68.8989277  44.6016058   4.2557681  67.6901294  31.3777437
   5.2016786  67.5607502  31.4465855   3.8771926  66.9515955  31.8546865
  12.5668839  65.6116284  45.3808516  12.0507887  64.8274741  45.1938445
  13.4508787  65.2835001  45.5455035  10.2279565  59.3557300  41.3404329
  10.0304387  59.0472388  42.2247661  10.8379271  60.0818939  41.4702259
  18.2350900  69.8821247  44.4756270  18.9654288  69.6206536  45.0363973
  17.6257845  69.1449969  44.5158338  16.3166197  68.0229110  45.0730721
  15.5899361  67.8885075  44.4647212  15.9013484  68.3305939  45.8787439
   4.1396373  71.7419040  52.8378094   5.0599383  71.9197639  53.0318140
   4.1045956  70.7975085  52.6857793   2.4400598  65.6151270  31.3132322
   1.5332053  65.3184383  31.3895036   2.7176579  65.3181088  30.4466608
   4.0562664  60.1588160  37.4676563   3.2463392  59.8135245  37.8431809
   4.7447081  59.8495703  38.0564175   5.9853212  59.2366206  39.0900860
   6.5384251  59.6561660  39.7490883   6.2223298  58.3101955  39.1323816
   2.0086311  65.2253280  54.8703624   1.9083038  66.1747637  54.8015715
   1.7907853  64.8971519  53.9979694   1.2099383  62.4738205  31.4544301
   2.0718547  62.7993103  31.7140119   1.3949727  61.6869701  30.9417367
   9.3632019  61.3466732  38.5979524   8.7830688  62.0051536  38.2157577
   9.0967952  60.5244076  38.1866942   7.8135586  60.7471789  40.8000845
   8.3135364  60.8588324  39.9915163   8.4571193  60.4432842  41.4401653
   1.8717581  68.6550419  53.6868686   1.3884663  69.4550779  53.8932575
   1.9578520  68.6658364  52.7336130   8.1456897  63.5066822  37.6535873
   7.2582752  63.7916473  37.4356067   8.5610886  63.3460585  36.8063149
  11.4971433  63.5313343  41.3690212  12.2731823  64.0209795  41.6414829
  10.7719567  63.9571397  41.8262081  13.9343992  64.2440962  42.4264152
  14.5288483  64.0036698  41.7157461  14.0070576  63.5248093  43.0537689
   7.2900111  73.2711497  31.7483893   7.9935961  73.4761499  32.3641548
   6.5662759  73.8388259  32.0132976   8.1197921  69.0221358  37.8686163
   8.0633122  69.4789909  37.0293795   8.6726263  68.2612043  37.6909005
  11.9302727  64.8111090  38.6936282  11.6739661  64.4107725  39.5244490
  11.3055595  65.5254884  38.5686421  16.2415065  67.5507163  41.2007574
  15.6814623  67.6200352  41.9739136  15.6358568  67.3748148  40.4807070
   9.1986808  73.7094026  33.7982353  10.0332412  73.2775224  33.6159827
   9.0371151  73.5376040  34.7259247   8.8532700  70.2126139  35.1638692
   8.7981504  70.0470411  34.2227136   8.2278756  70.9202172  35.3200882
   6.1678607  72.5175051  54.4892255   7.0369767  72.6915703  54.1278890
   5.6885359  73.3369468  54.3667984   2.1628826  59.7134248  34.7424010
   2.1507496  60.6576088  34.8992281   3.0552248  59.5304394  34.4483471
   2.0918390  78.3903139  42.8291767   1.1414021  78.3905000  42.7156139
   2.3950876  77.6435873  42.3127802   5.9780945  56.3077025  38.9969947
   5.2113341  55.7535512  39.1426629   6.3891650  56.3798894  39.8584099
  17.8271083  84.2263677  43.8937529  18.4649493  84.1070424  43.1900869
  17.7091926  85.1744521  43.9525481  14.6360789  84.1791105  43.8299054
  14.2979301  84.0632170  42.9419589  15.5050558  83.7782270  43.8100060
  10.4947605  86.0326582  39.8195945   9.9312470  85.9416518  39.0512233
  10.3800000  85.2126486  40.2998438  15.1180572  85.3325957  49.7885260
  15.1069213  84.9378755  48.9165763  15.2801212  84.5992029  50.3819031
   8.0412037  87.5277773  42.6580165   8.8333329  87.1868598  42.2426465
   8.2808687  87.6372748  43.5782319  16.0747164  89.6997549  35.1310410
  15.4235144  90.2851630  34.7444424  16.8691527  90.2303744  35.1905447
  10.0002791  86.7886686  35.5297544  10.7733667  86.2415673  35.3910420
  10.3528190  87.6530936  35.7412006  11.8387834  88.1163069  48.7364444
  11.5477700  89.0208699  48.6211110  12.4744818  88.1579596  49.4508513
  12.7644040  85.4939917  45.3265803  13.3607613  85.2695940  44.6122766
  12.8219012  84.7524663  45.9291251  12.3369069  82.9479352  33.1615994
  12.5894590  82.4260874  32.3999457  11.3993628  82.7845498  33.2642678
  17.3812352  81.9515131  40.9690737  18.1675441  81.5334554  40.6181154
  17.6451056  82.8561223  41.1372386  17.5522429  87.3887981  35.6679394
  16.9168262  87.4622608  36.3800299  17.2219835  87.9781580  34.9898473
  22.7820779  81.8890364  41.8723716  23.5145951  81.3189581  42.1061545
  22.0260134  81.5011965  42.3130221  12.0565358  84.8507458  35.3640369
  11.9401616  84.1752362  36.0321453  12.1667617  84.3639832  34.5472522
  14.3996898  84.3117606  39.0687058  14.0355106  83.7848227  39.7799980
  15.2564014  83.9216075  38.8953544  20.3046199  75.6011938  46.3318324
  19.9729524  76.4707349  46.1079539  19.7091813  75.2848222  47.0112355
  14.0402385  79.3407505  34.0648407  14.2076788  80.2087742  34.4318878
  13.8499555  79.5034787  33.1409696  16.7977719  87.8024484  45.7314237
  16.4978442  88.7049523  45.6230044  16.4528778  87.5356667  46.5835390
  10.2490200  84.2538281  41.7650942   9.3240697  84.1214495  41.9728633
  10.4974613  85.0332500  42.2620884  20.1974862  80.3207024  43.4111675
  19.2891740  80.2522433  43.1170436  20.1462458  80.7978969  44.2393500
  14.0191606  81.7965163  35.0495074  13.8991232  82.2422214  35.8880554
  13.3244195  82.1450480  34.4908612   7.6099011  83.8971555  42.5994731
   7.7391392  84.1506033  43.5134142   6.9296462  84.4899263  42.2799386
  11.7798498  94.5668805  38.6985205  11.7022528  95.5176630  38.7773685
  11.1760142  94.2214677  39.3560131  14.2715728  81.7396670  51.3546572
  13.4949062  82.2990590  51.3449436  14.9106291  82.2253453  51.8761442
  22.0636509  78.5223463  45.1889548  21.4210889  78.8155996  44.5429343
  21.5591437  78.4076383  45.9942745  19.7176673  82.2686636  35.8775408
  20.6294529  82.5014023  35.7023105  19.2086320  82.8523680  35.3150486
  12.5262101  84.5482123  50.9164539  13.2676785  85.0867167  50.6399362
  11.8199086  85.1748412  51.0736091  18.0017440  86.6911264  49.5136700
  18.4100796  86.2493674  48.7691333  17.2794702  86.1163891  49.7670893
  14.3548510  81.6283871  46.8870257  15.2009705  82.0523284  47.0304906
  14.2947148  80.9717495  47.5808820  18.3246255  87.2512454  43.2688989
  17.6955117  87.4158169  42.5665057  17.9371917  87.6654064  44.0399953
  22.2035487  88.1866892  40.6233353  21.5186525  88.5665794  40.0730386
  22.2879336  88.7962219  41.3565301  17.5047956  79.2888239  48.5451431
  17.2608887  80.0430299  48.0085707  17.7807886  79.6673586  49.3798678
  19.4586418  85.8326851  47.2228696  19.6703314  86.4758611  46.5463078
  19.4116167  84.9989168  46.7550627  17.0612647  78.4444672  44.1265269
  16.1997126  78.7425925  44.4182006  17.0875082  78.6615071  43.1946301
  13.8774217  86.9886862  40.5339074  14.3412562  87.2674565  39.7443697
  13.6131015  86.0870307  40.3512165  10.7698298  86.5358344  43.4718838
  11.3399655  86.9645612  42.8336322  11.3606410  86.2540929  44.1703023
  12.8143103  83.1110015  37.3428639  13.5167146  83.5631059  37.8102566
  12.4823731  82.4693834  37.9708533  11.2623464  81.7021771  51.7179849
  10.6322125  82.3838052  51.9515246  11.1559552  81.5904853  50.7732987
   6.5568437  81.3693567  42.6445773   5.7667491  81.6251096  42.1685884
   7.0479684  82.1841905  42.7497814  20.5732246  88.7098807  45.3951054
  21.3949690  88.3078994  45.1133735  20.5694649  88.6067041  46.3467170
   8.5083182  81.7338147  39.6029250   7.7114345  81.8456841  40.1212745
   8.2808774  82.0724799  38.7370140  14.3388850  88.2582850  47.5511764
  14.4033282  88.7203257  48.3869936  13.6299774  87.6280215  47.6794074
   4.8406140  81.6224058  45.0760764   5.0914178  82.5071068  45.3418340
   5.3765688  81.4428659  44.3035856  28.6638239  85.0537555  41.7436025
  27.9101948  84.4844953  41.5880030  28.7985781  85.0200220  42.6906660
  14.0536867  89.9250957  37.4190745  13.9182542  90.7702493  37.8475592
  14.5946680  90.1270235  36.6556678  10.5404207  76.0042537  54.0805100
  10.1471153  75.4508736  54.7552744  11.3570347  76.3153116  54.4711617
   7.5066265  87.4426395  37.9918670   8.0190785  88.2369646  38.1424234
   8.1588978  86.7452686  37.9252271   9.3161149  90.5592152  40.0741423
   9.4927778  91.4810116  39.8862407  10.1117983  90.2450571  40.5035803
  13.4572168  77.4200416  51.6725356  14.1981881  78.0207570  51.5929819
  13.6890091  76.6778054  51.1143399   8.6013506  82.6056784  49.9503586
   8.4867021  81.7042041  50.2510685   7.7458024  82.8520480  49.5988403
  15.6805344  90.5474524  51.5491087  15.2369198  89.7610903  51.2311991
  16.3422557  90.7353674  50.8834978  10.4392465  92.0770326  46.0751765
  10.9899890  91.9487389  45.3028759   9.6003941  92.3765215  45.7246658
  17.7786582  90.8277324  49.5772488  17.7605057  91.6486205  49.0852757
  18.7006502  90.7031399  49.8022629  14.2359636  88.3421453  50.4195996
  14.7687973  87.5809742  50.1895304  13.7073717  88.0495105  51.1620151
  17.4029331  73.4481519  45.9489638  17.0593600  74.3383161  45.8728749
  17.7708294  73.2583177  45.0859223   5.4715182  85.7715050  38.7678240
   6.3090404  86.1812058  38.5511948   5.6493449  84.8314492  38.7378434
  17.3679614  83.4390130  34.4562073  16.8526237  84.2094735  34.6950461
  17.0956922  82.7655267  35.0795135  14.9526725  78.2839831  39.5147312
  14.0968321  77.8946682  39.3352950  15.3653676  78.3631792  38.6547097
  16.4825871  75.8186174  43.9138871  15.9790667  75.7816310  43.1006677
  16.7756478  76.7278917  43.9735528  12.7268757  75.9024904  42.9205053
  13.5921754  75.7067713  42.5610943  12.7946266  75.6735256  43.8474410
  22.3413888  86.1922485  36.3915247  21.5643331  85.8533645  35.9470409
  23.0205369  86.1975108  35.7170212  17.1565917  81.3117223  36.2821854
  16.8516052  81.6263372  37.1331998  18.1096359  81.3898642  36.3249187
  15.6012349  87.4707446  37.9314808  15.0733710  86.7360205  37.6188046
  15.0999851  88.2482122  37.6854777  20.5805195  85.6656466  43.0481855
  19.9228869  86.3555728  43.1361983  21.3845594  86.0552898  43.3915841
  10.3331076  78.1327112  40.2921420  10.9074828  77.9102294  39.5594613
  10.9202059  78.2015807  41.0450021  19.3910653  84.0200839  41.0985796
  19.9042535  84.6530831  41.6007506  20.0411877  83.4202035  40.7329156
  10.6600663  80.1631573  34.3117305   9.8237976  80.5006260  34.6326580
  10.5205433  80.0280553  33.3744442  12.6353744  75.0068361  39.0196489
  11.9818156  74.6917378  38.3953104  12.5934218  74.3844102  39.7456312
  13.7464949  85.2887656  30.9349781  12.8392011  85.0576910  31.1340930
  14.2435981  84.4925275  31.1223763  16.6533028  93.9985163  33.8546468
  15.9794726  94.3016860  34.4631425  17.0398850  94.8014244  33.5051925
  15.8691484  81.4950295  43.3444137  14.9514046  81.7165242  43.1865825
  16.2851628  81.5696605  42.4855844  16.6526532  82.8941710  38.4746817
  17.3998351  83.4063107  38.1653939  16.9218122  82.5725763  39.3351211
  14.9253182  85.3900251  35.4573772  14.0164402  85.1059284  35.5546241
  14.9548266  85.8099330  34.5977078  20.1572450  89.0006840  39.2264939
  19.7034777  88.1597750  39.2830130  19.5266416  89.6368239  39.5639719
  19.1005369  79.9298827  40.4565607  18.3628126  79.4176213  40.7875849
  19.3532143  79.4899208  39.6448883  18.6005389  90.8383337  40.1614757
  18.8928363  91.3988394  39.4427123  19.1104010  91.1311898  40.9167916
  19.2016997  72.7075079  41.0507376  19.5075873  71.8472442  40.7633291
  19.9269601  73.2992699  40.8506370   5.4941353  83.1105765  39.4388974
   5.2965752  82.5175126  38.7140040   4.9388017  82.8057975  40.1564913
  13.4738076  83.0028872  41.5583567  13.5286686  82.0502708  41.4826043
  12.6629278  83.1588311  42.0424865  14.6229270  86.9308995  32.7961850
  14.1848700  86.2144854  32.3367487  15.3639711  87.1585109  32.2346941
  11.4130436  81.6205931  39.3173946  10.5998302  81.9200102  39.7239138
  11.9089430  81.2261620  40.0348428  13.5639014  91.6163688  41.2508210
  13.5215193  91.8424535  40.3216742  14.4801713  91.3827063  41.3994012
  17.0104648  82.0847756  48.1488840  17.3654036  82.3119229  49.0083305
  17.6576779  82.4166133  47.5266095  22.7402385  85.2066192  38.8538169
  22.6020283  85.3967788  37.9259358  22.3838604  85.9685575  39.3106220
  10.9044511  79.1924287  44.9335181  11.5443890  79.0513046  44.2358144
  10.0722042  78.9058800  44.5573783  22.7671764  87.2742719  43.8649440
  23.2008271  87.1818008  44.7132494  23.4803345  87.2500219  43.2269456
  11.6804815  88.4926717  41.0470173  12.4745413  87.9977037  40.8452748
  10.9696507  87.9644580  40.6837879  16.4999659  90.8744813  45.3982541
  16.5536682  91.4435749  46.1660257  15.6314441  91.0446698  45.0336578
   7.9887578  82.6369799  37.1229926   7.0585166  82.5754255  37.3399888
   8.0845050  82.1145752  36.3266567   7.9073127  79.1624612  39.7108167
   8.1679945  80.0769945  39.6017328   8.7290300  78.6949054  39.8604780
   9.3798053  80.5762369  46.8806992  10.0521106  80.3679731  46.2319641
   8.5527839  80.3784455  46.4412224  23.6287314  87.3166419  46.3982326
  23.8223204  88.2212230  46.6441600  23.5287932  86.8573838  47.2320911
  15.2823625  77.2024310  48.8972653  14.6351540  77.9014260  48.8037129
  16.0524640  77.6360454  49.2648901  18.6902423  87.4673162  51.9723206
  18.5387929  87.2383714  51.0553290  18.6807102  88.4243764  51.9854551
  15.4587759  85.0405075  46.9569473  16.3879819  85.1916234  46.7838440
  15.0378789  85.1289096  46.1018119  14.2576091  89.0655739  44.7268010
  14.1187177  88.6974524  45.5993948  13.4690687  89.5803379  44.5551968
  14.8524243  94.1664836  36.0693547  15.0275999  93.6952879  36.8839169
  14.1657031  94.7930602  36.2974807  15.8081306  88.4437342  42.1156848
  15.4731139  88.4038112  43.0114498  15.3085252  87.7782058  41.6427258
   9.7825550  83.8504972  47.6409429   9.6445348  83.1185211  48.2420968
  10.6930473  83.7613872  47.3593617  18.7440498  85.7893376  32.3893908
  18.1269668  85.0640204  32.2926960  18.2756986  86.5502737  32.0460982
  12.4107851  83.5624931  47.1293109  13.1207469  82.9218124  47.0879727
  12.3677159  83.8137826  48.0519290  20.3994629  90.4992285  50.0499688
  20.3407176  89.8151505  49.3830271  20.8014148  91.2411275  49.5980314
  11.1236785  80.5490149  48.9488748  10.5874142  80.0980888  49.6010345
  10.5353493  80.6836058  48.2059213   9.4185328  97.3154199  42.8433407
   9.6581926  97.9472723  43.5212425   8.5754525  96.9642239  43.1298766
  10.5339044  80.0078801  31.5115212   9.6568510  79.8867601  31.1477459
  11.0096797  79.2164879  31.2594101  20.4012037  88.4631869  48.2813668
  19.5138815  88.1257790  48.4040067  20.9710588  87.7314900  48.5182433
   2.0541184  84.7955960  41.6056719   2.7412224  84.4817690  41.0177734
   1.8989312  85.6997325  41.3323971   6.8575906  79.6846157  46.0341743
   6.7734095  79.0771826  45.2992153   6.0358612  80.1755175  46.0351239
  13.9313190  93.1233321  45.2474911  13.8583362  93.9288292  45.7594215
  13.4890583  93.3225287  44.4222932  13.7202970  92.3605091  38.7577732
  12.9370492  92.9026771  38.8515957  14.4195715  92.8779071  39.1571974
  17.0299620  78.1699720  41.4011938  17.5268319  77.4169683  41.0813008
  16.2586601  78.2064037  40.8355147  24.8829377  83.8740086  43.0430229
  24.8719253  84.7564801  42.6724162  24.0146757  83.5211637  42.8484766
  16.3911874  93.0220155  47.4033070  17.1039846  93.6567620  47.3308971
  15.9001902  93.1184021  46.5873071  18.1129400  86.9271408  38.9750361
  17.1785679  87.0472870  38.8055066  18.2906069  86.0243874  38.7110371
  13.6134589  80.3117103  41.1283622  13.2432376  79.7588144  41.8164528
  14.1093681  79.7075237  40.5758622  21.5001952  82.7688727  39.5100395
  21.9662404  83.6016719  39.4360698  21.9509452  82.3033709  40.2145654
  11.4423787  90.7714598  48.2238640  12.1433247  91.4051081  48.3768035
  10.9718902  91.1129330  47.4634280  19.5678183  89.1132548  36.5086547
  19.8438027  88.9989143  37.4180421  18.6982682  88.7150033  36.4698721
  19.4718615  75.1369314  43.5491297  18.5581694  75.3673541  43.7173504
  19.9011716  75.2207758  44.4005329  19.2425073  83.3259206  46.0491191
  18.5896523  83.5735113  45.3943644  19.6205453  82.5123344  45.7153668
  16.2032247  93.3618899  40.1519361  16.3854641  92.5440555  40.6147113
  17.0265233  93.5786591  39.7144251  16.5374412  92.2887084  37.4134410
  17.0662179  91.7779539  36.8004572  16.8002632  91.9729614  38.2779943
  15.2912646  84.0679017  52.5357228  14.6153283  83.9673146  53.2059603
  16.1140280  83.9118231  52.9993225   7.0391505  90.3050953  45.1569743
   7.6244942  89.5594641  45.2897647   6.8416344  90.6154910  46.0406407
   9.8930160  93.3402201  40.1732185   9.2240536  93.8248329  39.6896226
   9.7543030  93.5871421  41.0875564   1.6309160  82.8756554  43.8774186
   1.6693259  82.3420144  44.6711304   1.1249453  82.3491759  43.2585163
  14.0335429  95.3745944  46.7714844  14.5853737  95.5377566  47.5363929
  14.3741622  95.9650382  46.0994869   9.0099922  77.7221094  47.3736729
   9.0741249  78.5835925  46.9614126   8.9467042  77.1095096  46.6409087
   8.4852195  79.7944227  51.0209763   9.1124234  79.4121304  51.6347287
   7.6280114  79.5758429  51.3865455  18.8846303  90.2007202  52.6263498
  19.4286207  90.8137160  52.1318453  18.3033148  90.7586780  53.1430511
   5.2617737  81.6020656  36.9528118   5.5571179  80.6931334  36.8995171
   4.3605773  81.5808395  36.6309120  17.1703816  93.3227920  43.7578526
  17.0454956  92.5217660  43.2489471  17.8282907  93.8174113  43.2692496
   8.7911984  79.6776652  42.9355666   8.0698570  80.2912620  42.7963140
   9.5805240  80.2134417  42.8572312  19.2338725  91.1236940  45.3858076
  18.2869060  91.0042291  45.3136403  19.5821498  90.2359438  45.4684338
  11.5938298  77.0131079  49.2096318  12.1172700  77.2593375  49.9722627
  11.3750631  77.8451114  48.7899455   6.9905579  79.2834754  37.0767443
   6.6618285  78.4032132  36.8942549   7.3444950  79.2282422  37.9643832
  16.2385158  90.9189656  41.5862428  16.0910120  89.9906364  41.7669998
  17.0638651  90.9409747  41.1019504  10.1047402  79.5707723  37.4442920
  10.4443475  80.0993645  36.7221529  10.5519523  79.9088129  38.2201487
  19.8419280  91.7418215  42.6727301  20.7665827  91.5361076  42.5351752
  19.6734583  91.4934616  43.5816643  12.7990843  77.9544774  46.8945989
  12.4587663  77.1552587  47.2966668  12.0929849  78.2546485  46.3222822
  13.4507315  75.0394086  45.3473312  14.2733384  74.5654565  45.2252202
  13.6945378  75.8184570  45.8471998  12.0915549  78.0682345  35.6436213
  12.8123912  78.4463598  35.1399930  11.4680853  78.7871222  35.7471191
  16.2346672  78.7727494  36.5794546  16.4510287  79.6552132  36.2783374
  15.7540739  78.3813707  35.8500188  10.9745894  81.7313207  43.1565290
  10.8290474  82.0453510  44.0489572  10.4971097  82.3498107  42.6036189
  12.8342276  78.7215755  43.2046180  12.8203845  77.8256848  42.8678478
  13.5514705  78.7286419  43.8384466  14.6868407  79.1553095  45.2499307
  14.4286185  80.0770166  45.2483638  14.1553448  78.7583530  45.9399771
  19.6314596  92.2603882  38.0289393  19.8051474  91.6950305  37.2763245
  20.1243487  93.0604777  37.8468882   5.4491556  84.2718551  46.0952951
   4.9045024  85.0478359  46.2273226   6.3270906  84.6189356  45.9372073
  12.2379172  77.6030135  38.4733750  12.3595084  76.6746782  38.6724637
  11.9481215  77.6168821  37.5612065  15.1070363  75.2885046  41.6100470
  15.1292060  75.3524379  40.6552449  15.5238422  74.4489554  41.8040976
  25.4853987  85.0240305  39.6479692  25.9285133  84.2747631  39.2498816
  24.6080497  85.0150442  39.2653424  20.6189768  91.5770647  35.1286291
  21.3140673  92.1977339  35.3473605  20.9612919  90.7265998  35.4038669
   6.2357578  83.3988448  48.9883108   5.4939314  83.5471083  49.5747739
   5.9150322  83.6596713  48.1249858  22.5181192  89.0270352  36.6573622
  23.0432516  89.3657625  35.9322942  22.4303544  88.0917368  36.4736756
  14.1801240  92.9404426  48.7863498  14.4888367  92.6953573  49.6586198
  14.9776722  93.1451064  48.2982368  14.2021852  95.0942336  41.0168875
  13.7626843  94.6018714  41.7101731  14.9529969  94.5515303  40.7760950
   6.6814191  91.2853876  41.0193503   7.5072211  90.9857648  40.6392146
   6.3308243  90.5161499  41.4683291  11.6495724  90.6380345  43.0891176
  11.0275734  89.9751050  42.7893404  12.3200591  90.6641477  42.4064824
   4.8822796  89.2040203  41.9782436   4.0454705  88.7762377  41.7966438
   4.8546442  89.3972646  42.9153228  11.7220252  79.1162133  52.6823682
  11.7708407  79.9924256  52.3001452  12.2642766  78.5739526  52.1095326
  22.2075098  89.6603256  51.9624820  21.4170641  89.6427395  51.4229319
  21.9708452  90.1991550  52.7173856  22.3272973  86.5095722  49.2757548
  22.3770978  86.3445730  50.2173071  22.2186896  85.6422981  48.8855429
  11.2109231  89.1884268  36.5649637  11.3597352  89.8719732  35.9116310
  12.0175675  89.1689358  37.0799093  19.6176735  82.4926650  50.5916855
  20.5186598  82.3533115  50.3000853  19.6924710  82.6581105  51.5315032
  13.9519540  79.8693505  49.4370041  13.0822850  80.1627071  49.1652630
  14.1879021  80.4533950  50.1577305  23.8291170  88.9292664  49.5199570
  23.5375978  89.2922644  50.3563031  23.2163301  88.2159672  49.3412902
  25.0286852  86.4945544  42.0402140  25.8633743  86.9335348  42.2039700
  25.1645981  86.0184197  41.2210386  22.0778358  84.0525278  47.9879628
  22.5532479  84.2452925  47.1798479  21.1543923  84.1084464  47.7423011
   8.9661864  85.2149446  37.5710706   8.7207906  84.3111776  37.7690916
   9.1357779  85.2166596  36.6290184  16.6558574  76.0873122  46.9535461
  17.1740518  76.8234149  46.6281950  16.3013707  76.3937115  47.7882221
   8.2357512  80.9477803  35.0696867   7.5426757  81.0222158  34.4136903
   7.9909264  80.1838147  35.5918384  16.9071168  72.5073405  42.4736358
  17.1872922  71.8396594  43.0996785  17.6921775  72.7002500  41.9611022
  14.7104637  91.6832398  34.0361384  14.1378604  92.3022586  33.5831856
  15.2837431  92.2331760  34.5701306  20.7780027  80.9291039  46.2207933
  21.7297450  81.0289136  46.2420157  20.6083477  80.1369307  46.7306018
  18.7994406  78.0146622  46.4067334  18.2044338  78.2951635  45.7113823
  18.5144103  78.5040523  47.1784075  17.9301897  91.9669549  35.1669967
  18.8632570  91.9015110  35.3702842  17.8425110  92.8025815  34.7084499
  20.5589913  91.2835419  32.1273914  20.4803545  90.9495283  33.0209672
  21.3799580  91.7757187  32.1265387  23.2568105  84.1497158  45.3350233
  23.2244425  83.2113159  45.5209917  23.8668728  84.2281195  44.6016058
  15.0951435  83.0193211  31.3777437  16.0410540  82.8899419  31.4465855
  14.7165680  82.2807873  31.8546865  23.4062593  80.9408202  45.3808516
  22.8901642  80.1566658  45.1938445  24.2902542  80.6126918  45.5455035
  21.0673320  74.6849217  41.3404329  20.8698141  74.3764305  42.2247661
  21.6773026  75.4110856  41.4702259  29.0744654  85.2113165  44.4756270
  29.8048043  84.9498453  45.0363973  28.4651600  84.4741887  44.5158338
  27.1559952  83.3521028  45.0730721  26.4293115  83.2176993  44.4647212
  26.7407238  83.6597856  45.8787439  14.9790128  87.0710957  52.8378094
  15.8993137  87.2489556  53.0318140  14.9439711  86.1267003  52.6857793
  13.2794353  80.9443188  31.3132322  12.3725808  80.6476300  31.3895036
  13.5570334  80.6473006  30.4466608   4.1972293  82.2649551  41.7631368
   3.8775077  81.4114859  41.4705743   3.6505721  82.4798129  42.5189336
   7.9752200  84.9811992  45.4800875   8.1938210  85.9129100  45.4988909
   8.3877974  84.6219966  46.2655679  14.8956418  75.4880077  37.4676563
  14.0857147  75.1427162  37.8431809  15.5840835  75.1787621  38.0564175
  16.8246967  74.5658124  39.0900860  17.3778005  74.9853578  39.7490883
  17.0617053  73.6393872  39.1323816  12.8480066  80.5545198  54.8703624
  12.7476793  81.5039555  54.8015715  12.6301608  80.2263437  53.9979694
  12.0493137  77.8030123  31.4544301  12.9112301  78.1285021  31.7140119
  12.2343481  77.0161619  30.9417367   4.0660553  85.8852463  43.7324490
   3.3724024  85.4706415  43.2194444   4.8133544  85.9272999  43.1357909
  20.2025774  76.6758649  38.5979524  19.6224443  77.3343453  38.2157577
  19.9361706  75.8535994  38.1866942  18.6529340  76.0763707  40.8000845
  19.1529118  76.1880242  39.9915163  19.2964948  75.7724760  41.4401653
  12.7111336  83.9842337  53.6868686  12.2278418  84.7842697  53.8932575
  12.7972275  83.9950282  52.7336130   5.9797295  85.8170716  41.6090505
   5.9567984  85.9158404  40.6572388   6.2897932  86.6635867  41.9307671
   8.6384673  87.8746871  45.7237119   9.5927927  87.8430814  45.6567051
   8.4397197  87.4137495  46.5387345   9.2284055  86.4447987  48.2907917
  10.0476944  86.9392066  48.3142754   9.5020863  85.5279956  48.2625485
  18.9850652  78.8358740  37.6535873  18.0976507  79.1208390  37.4356067
  19.4004641  78.6752503  36.8063149  22.3365188  78.8605261  41.3690212
  23.1125578  79.3501713  41.6414829  21.6113322  79.2863315  41.8262081
  24.7737746  79.5732880  42.4264152  25.3682237  79.3328616  41.7157461
  24.8464330  78.8540010  43.0537689   6.9934902  93.4166491  42.7407317
   6.8589370  92.6566892  42.1745315   6.5766964  94.1407391  42.2736106
  18.1293865  88.6003414  31.7483893  18.8329715  88.8053417  32.3641548
  17.4056514  89.1680176  32.0132976  18.9591675  84.3513276  37.8686163
  18.9026877  84.8081827  37.0293795  19.5120018  83.5903960  37.6909005
  22.7696481  80.1403007  38.6936282  22.5133416  79.7399643  39.5244490
  22.1449349  80.8546801  38.5686421  27.0808819  82.8799081  41.2007574
  26.5208377  82.9492270  41.9739136  26.4752323  82.7040065  40.4807070
  10.1504028  94.3135808  42.9525760  10.0336412  95.2581240  42.8504450
   9.3296474  94.0109369  43.3411559  20.0380563  89.0385944  33.7982353
  20.8726166  88.6067142  33.6159827  19.8764905  88.8667957  34.7259247
  19.6926455  85.5418057  35.1638692  19.6375259  85.3762328  34.2227136
  19.0672510  86.2494090  35.3200882   4.4818970  80.7786121  48.9900114
   5.1277833  80.2685075  49.4787339   4.2736121  81.5154803  49.5643539
  17.0072362  87.8466969  54.4892255  17.8763522  88.0207621  54.1278890
  16.5279113  88.6661386  54.3667984  13.0022580  75.0426166  34.7424010
  12.9901250  75.9868006  34.8992281  13.8946002  74.8596311  34.4483471
  11.1758542  94.9664070  46.1681688  12.0785789  94.9987680  46.4848183
  10.9495912  94.0364521  46.1828024  12.9312144  93.7195056  42.8291767
  11.9807775  93.7196918  42.7156139  13.2344630  92.9727791  42.3127802
  16.8174700  71.6368943  38.9969947  16.0507095  71.0827429  39.1426629
  17.2285405  71.7090811  39.8584099   8.8216461  77.9253738  53.0875128
   9.6847922  77.5690543  53.2978453   8.2481871  77.5867633  53.7750533
  28.6664838  99.5555595  43.8937529  29.3043248  99.4362342  43.1900869
  28.5485681 100.5036439  43.9525481  25.4754544  99.5083023  43.8299054
  25.1373055  99.3924087  42.9419589  26.3444312  99.1074188  43.8100060
  21.3341360 101.3618499  39.8195945  20.7706225 101.2708436  39.0512233
  21.2193755 100.5418404  40.2998438  25.9574327 100.6617875  49.7885260
  25.9462968 100.2670673  48.9165763  26.1194966  99.9283947  50.3819031
  18.8805792 102.8569691  42.6580165  19.6727083 102.5160515  42.2426465
  19.1202442 102.9664666  43.5782319  26.9140918 105.0289467  35.1310410
  26.2628898 105.6143547  34.7444424  27.7085281 105.5595662  35.1905447
  20.8396545 102.1178604  35.5297544  21.6127421 101.5707591  35.3910420
  21.1921944 102.9822853  35.7412006  22.6781588 103.4454986  48.7364444
  22.3871454 104.3500617  48.6211110  23.3138572 103.4871514  49.4508513
  23.6037795 100.8231835  45.3265803  24.2001367 100.5987857  44.6122766
  23.6612766 100.0816580  45.9291251  23.1762823  98.2771270  33.1615994
  23.4288344  97.7552791  32.3999457  22.2387382  98.1137416  33.2642678
  28.2206106  97.2807049  40.9690737  29.0069195  96.8626472  40.6181154
  28.4844810  98.1853141  41.1372386  28.3916183 102.7179899  35.6679394
  27.7562016 102.7914525  36.3800299  28.0613590 103.3073498  34.9898473
  33.6214533  97.2182282  41.8723716  34.3539705  96.6481499  42.1061545
  32.8653889  96.8303882  42.3130221  22.8959112 100.1799376  35.3640369
  22.7795370  99.5044280  36.0321453  23.0061372  99.6931750  34.5472522
  25.2390653  99.6409523  39.0687058  24.8748860  99.1140144  39.7799980
  26.0957769  99.2507992  38.8953544  31.1439954  90.9303856  46.3318324
  30.8123278  91.7999267  46.1079539  30.5485567  90.6140140  47.0112355
  24.8796140  94.6699423  34.0648407  25.0470542  95.5379659  34.4318878
  24.6893309  94.8326705  33.1409696  27.6371473 103.1316402  45.7314237
  27.3372196 104.0341441  45.6230044  27.2922533 102.8648585  46.5835390
  21.0883955  99.5830199  41.7650942  20.1634451  99.4506413  41.9728633
  21.3368368 100.3624418  42.2620884  31.0368617  95.6498942  43.4111675
  30.1285494  95.5814350  43.1170436  30.9856213  96.1270887  44.2393500
  24.8585361  97.1257080  35.0495074  24.7384986  97.5714131  35.8880554
  24.1637949  97.4742398  34.4908612  18.4492766  99.2263472  42.5994731
  18.5785147  99.4797951  43.5134142  17.7690217  99.8191180  42.2799386
  22.6192253 109.8960722  38.6985205  22.5416283 110.8468547  38.7773685
  22.0153897 109.5506595  39.3560131  25.1109483  97.0688588  51.3546572
  24.3342817  97.6282508  51.3449436  25.7500046  97.5545371  51.8761442
  32.9030263  93.8515380  45.1889548  32.2604644  94.1447914  44.5429343
  32.3985192  93.7368301  45.9942745  30.5570427  97.5978554  35.8775408
  31.4688283  97.8305940  35.7023105  30.0480074  98.1815598  35.3150486
  23.3655855  99.8774041  50.9164539  24.1070539 100.4159085  50.6399362
  22.6592840 100.5040330  51.0736091  28.8411195 102.0203181  49.5136700
  29.2494551 101.5785592  48.7691333  28.1188456 101.4455809  49.7670893
  25.1942265  96.9575788  46.8870257  26.0403460  97.3815202  47.0304906
  25.1340902  96.3009413  47.5808820  29.1640009 102.5804372  43.2688989
  28.5348872 102.7450086  42.5665057  28.7765671 102.9945982  44.0399953
  33.0429241 103.5158810  40.6233353  32.3580279 103.8957711  40.0730386
  33.1273091 104.1254137  41.3565301  28.3441710  94.6180157  48.5451431
  28.1002642  95.3722217  48.0085707  28.6201641  94.9965504  49.3798678
  30.2980173 101.1618769  47.2228696  30.5097068 101.8050529  46.5463078
  30.2509921 100.3281085  46.7550627  27.9006402  93.7736590  44.1265269
  27.0390881  94.0717843  44.4182006  27.9268836  93.9906988  43.1946301
  24.7167971 102.3178780  40.5339074  25.1806317 102.5966483  39.7443697
  24.4524769 101.4162225  40.3512165  21.6092052 101.8650262  43.4718838
  22.1793409 102.2937530  42.8336322  22.2000164 101.5832846  44.1703023
  23.6536857  98.4401933  37.3428639  24.3560901  98.8922976  37.8102566
  23.3217486  97.7985751  37.9708533  22.1017219  97.0313689  51.7179849
  21.4715879  97.7129970  51.9515246  21.9953307  96.9196771  50.7732987
  17.3962191  96.6985485  42.6445773  16.6061245  96.9543014  42.1685884
  17.8873439  97.5133823  42.7497814  31.4126001 104.0390724  45.3951054
  32.2343444 103.6370912  45.1133735  31.4088404 103.9358959  46.3467170
  19.3476937  97.0630064  39.6029250  18.5508100  97.1748759  40.1212745
  19.1202529  97.4016717  38.7370140  25.1782604 103.5874768  47.5511764
  25.2427037 104.0495175  48.3869936  24.4693528 102.9572133  47.6794074
  15.6799894  96.9515976  45.0760764  15.9307933  97.8362986  45.3418340
  16.2159443  96.7720577  44.3035856  39.5031994 100.3829473  41.7436025
  38.7495702  99.8136871  41.5880030  39.6379535 100.3492137  42.6906660
  24.8930622 105.2542875  37.4190745  24.7576297 106.0994411  37.8475592
  25.4340434 105.4562153  36.6556678  21.3797961  91.3334455  54.0805100
  20.9864907  90.7800654  54.7552744  22.1964102  91.6445033  54.4711617
  18.3460019 102.7718313  37.9918670  18.8584540 103.5661563  38.1424234
  18.9982732 102.0744604  37.9252271  20.1554904 105.8884069  40.0741423
  20.3321532 106.8102034  39.8862407  20.9511737 105.5742489  40.5035803
  24.2965922  92.7492334  51.6725356  25.0375636  93.3499487  51.5929819
  24.5283845  92.0069972  51.1143399  19.4407260  97.9348701  49.9503586
  19.3260776  97.0333959  50.2510685  18.5851778  98.1812398  49.5988403
  26.5199098 105.8766442  51.5491087  26.0762952 105.0902820  51.2311991
  27.1816312 106.0645592  50.8834978  21.2786219 107.4062243  46.0751765
  21.8293645 107.2779307  45.3028759  20.4397695 107.7057132  45.7246658
  28.6180336 106.1569242  49.5772488  28.5998812 106.9778123  49.0852757
  29.5400256 106.0323317  49.8022629  25.0753390 103.6713371  50.4195996
  25.6081727 102.9101659  50.1895304  24.5467472 103.3787023  51.1620151
  28.2423085  88.7773437  45.9489638  27.8987355  89.6675079  45.8728749
  28.6102048  88.5875095  45.0859223  16.3108936 101.1006967  38.7678240
  17.1484158 101.5103976  38.5511948  16.4887204 100.1606410  38.7378434
  28.2073368  98.7682048  34.4562073  27.6919992  99.5386653  34.6950461
  27.9350677  98.0947184  35.0795135  25.7920479  93.6131749  39.5147312
  24.9362076  93.2238599  39.3352950  26.2047431  93.6923710  38.6547097
  27.3219626  91.1478092  43.9138871  26.8184421  91.1108227  43.1006677
  27.6150233  92.0570835  43.9735528  23.5662512  91.2316822  42.9205053
  24.4315508  91.0359631  42.5610943  23.6340021  91.0027174  43.8474410
  33.1807642 101.5214403  36.3915247  32.4037085 101.1825562  35.9470409
  33.8599123 101.5267026  35.7170212  27.9959671  96.6409140  36.2821854
  27.6909807  96.9555289  37.1331998  28.9490113  96.7190560  36.3249187
  26.4406103 102.7999364  37.9314808  25.9127465 102.0652123  37.6188046
  25.9393606 103.5774040  37.6854777  31.4198949 100.9948384  43.0481855
  30.7622624 101.6847645  43.1361983  32.2239348 101.3844816  43.3915841
  21.1724831  93.4619030  40.2921420  21.7468583  93.2394211  39.5594613
  21.7595813  93.5307724  41.0450021  30.2304408  99.3492757  41.0985796
  30.7436290  99.9822749  41.6007506  30.8805632  98.7493952  40.7329156
  21.4994418  95.4923491  34.3117305  20.6631730  95.8298177  34.6326580
  21.3599188  95.3572471  33.3744442  23.4747498  90.3360279  39.0196489
  22.8211911  90.0209296  38.3953104  23.4327973  89.7136019  39.7456312
  24.5858703 100.6179574  30.9349781  23.6785765 100.3868827  31.1340930
  25.0829735  99.8217193  31.1223763  27.4926782 109.3277081  33.8546468
  26.8188481 109.6308778  34.4631425  27.8792604 110.1306161  33.5051925
  26.7085239  96.8242212  43.3444137  25.7907800  97.0457159  43.1865825
  27.1245382  96.8988523  42.4855844  27.4920287  98.2233628  38.4746817
  28.2392106  98.7355025  38.1653939  27.7611876  97.9017681  39.3351211
  25.7646937 100.7192169  35.4573772  24.8558156 100.4351201  35.5546241
  25.7942021 101.1391247  34.5977078  30.9966204 104.3298758  39.2264939
  30.5428531 103.4889668  39.2830130  30.3660171 104.9660157  39.5639719
  29.9399124  95.2590744  40.4565607  29.2021881  94.7468130  40.7875849
  30.1925897  94.8191126  39.6448883  29.4399143 106.1675255  40.1614757
  29.7322118 106.7280312  39.4427123  29.9497764 106.4603816  40.9167916
  30.0410751  88.0366996  41.0507376  30.3469628  87.1764360  40.7633291
  30.7663356  88.6284616  40.8506370  16.3335107  98.4397683  39.4388974
  16.1359507  97.8467043  38.7140040  15.7781771  98.1349893  40.1564913
  24.3131831  98.3320789  41.5583567  24.3680441  97.3794626  41.4826043
  23.5023033  98.4880228  42.0424865  25.4623025 102.2600912  32.7961850
  25.0242455 101.5436771  32.3367487  26.2033465 102.4877027  32.2346941
  22.2524191  96.9497849  39.3173946  21.4392056  97.2492020  39.7239138
  22.7483185  96.5553538  40.0348428  24.4032769 106.9455606  41.2508210
  24.3608947 107.1716452  40.3216742  25.3195467 106.7118981  41.3994012
  27.8498402  97.4139673  48.1488840  28.2047790  97.6411147  49.0083305
  28.4970534  97.7458050  47.5266095  33.5796139 100.5358109  38.8538169
  33.4414038 100.7259705  37.9259358  33.2232358 101.2977492  39.3106220
  21.7438266  94.5216205  44.9335181  22.3837645  94.3804964  44.2358144
  20.9115796  94.2350718  44.5573783  33.6065519 102.6034636  43.8649440
  34.0402026 102.5109925  44.7132494  34.3197100 102.5792137  43.2269456
  22.5198569 103.8218635  41.0470173  23.3139168 103.3268955  40.8452748
  21.8090262 103.2936498  40.6837879  27.3393414 106.2036730  45.3982541
  27.3930436 106.7727667  46.1660257  26.4708195 106.3738616  45.0336578
  18.8281333  97.9661717  37.1229926  17.8978921  97.9046172  37.3399888
  18.9238805  97.4437669  36.3266567  18.7466882  94.4916530  39.7108167
  19.0073699  95.4061863  39.6017328  19.5684054  94.0240972  39.8604780
  20.2191807  95.9054287  46.8806992  20.8914861  95.6971649  46.2319641
  19.3921594  95.7076373  46.4412224  34.4681069 102.6458337  46.3982326
  34.6616959 103.5504148  46.6441600  34.3681687 102.1865756  47.2320911
  26.1217379  92.5316228  48.8972653  25.4745294  93.2306177  48.8037129
  26.8918395  92.9652372  49.2648901  29.5296177 102.7965080  51.9723206
  29.3781684 102.5675631  51.0553290  29.5200857 103.7535681  51.9854551
  26.2981514 100.3696993  46.9569473  27.2273574 100.5208152  46.7838440
  25.8772544 100.4581013  46.1018119  25.0969845 104.3947657  44.7268010
  24.9580931 104.0266441  45.5993948  24.3084442 104.9095296  44.5551968
  25.6917997 109.4956753  36.0693547  25.8669753 109.0244797  36.8839169
  25.0050785 110.1222520  36.2974807  26.6475061 103.7729260  42.1156848
  26.3124893 103.7330030  43.0114498  26.1479006 103.1073976  41.6427258
  20.6219305  99.1796890  47.6409429  20.4839102  98.4477128  48.2420968
  21.5324228  99.0905790  47.3593617  29.5834252 101.1185294  32.3893908
  28.9663423 100.3932122  32.2926960  29.1150741 101.8794654  32.0460982
  23.2501605  98.8916849  47.1293109  23.9601224  98.2510041  47.0879727
  23.2070913  99.1429744  48.0519290  31.2388384 105.8284202  50.0499688
  31.1800930 105.1443422  49.3830271  31.6407902 106.5703192  49.5980314
  21.9630539  95.8782067  48.9488748  21.4267896  95.4272805  49.6010345
  21.3747248  96.0127976  48.2059213  20.2579083 112.6446116  42.8433407
  20.4975681 113.2764640  43.5212425  19.4148279 112.2934156  43.1298766
  21.3732798  95.3370718  31.5115212  20.4962264  95.2159519  31.1477459
  21.8490551  94.5456797  31.2594101  31.2405791 103.7923786  48.2813668
  30.3532570 103.4549708  48.4040067  31.8104342 103.0606817  48.5182433
  12.8934938 100.1247878  41.6056719  13.5805978  99.8109608  41.0177734
  12.7383067 101.0289243  41.3323971  17.6969660  95.0138075  46.0341743
  17.6127849  94.4063744  45.2992153  16.8752367  95.5047093  46.0351239
  24.7706945 108.4525239  45.2474911  24.6977116 109.2580210  45.7594215
  24.3284338 108.6517204  44.4222932  24.5596724 107.6897009  38.7577732
  23.7764246 108.2318689  38.8515957  25.2589469 108.2070988  39.1571974
  27.8693374  93.4991638  41.4011938  28.3662074  92.7461600  41.0813008
  27.0980356  93.5355955  40.8355147  35.7223132  99.2032004  43.0430229
  35.7113008 100.0856719  42.6724162  34.8540511  98.8503554  42.8484766
  27.2305628 108.3512073  47.4033070  27.9433600 108.9859537  47.3308971
  26.7395657 108.4475939  46.5873071  28.9523155 102.2563325  38.9750361
  28.0179434 102.3764788  38.8055066  29.1299823 101.3535792  38.7110371
  24.4528343  95.6409021  41.1283622  24.0826131  95.0880061  41.8164528
  24.9487435  95.0367155  40.5758622  32.3395706  98.0980645  39.5100395
  32.8056159  98.9308636  39.4360698  32.7903207  97.6325626  40.2145654
  22.2817542 106.1006516  48.2238640  22.9827001 106.7342999  48.3768035
  21.8112657 106.4421248  47.4634280  30.4071937 104.4424466  36.5086547
  30.6831781 104.3281060  37.4180421  29.5376436 104.0441951  36.4698721
  30.3112369  90.4661232  43.5491297  29.3975449  90.6965458  43.7173504
  30.7405471  90.5499676  44.4005329  30.0818828  98.6551124  46.0491191
  29.4290278  98.9027031  45.3943644  30.4599207  97.8415262  45.7153668
  27.0426001 108.6910817  40.1519361  27.2248396 107.8732473  40.6147113
  27.8658987 108.9078509  39.7144251  27.3768167 107.6179002  37.4134410
  27.9055933 107.1071456  36.8004572  27.6396387 107.3021532  38.2779943
  26.1306401  99.3970935  52.5357228  25.4547038  99.2965064  53.2059603
  26.9534034  99.2410148  52.9993225  17.8785260 105.6342871  45.1569743
  18.4638696 104.8886559  45.2897647  17.6810098 105.9446828  46.0406407
  20.7323915 108.6694119  40.1732185  20.0634290 109.1540246  39.6896226
  20.5936785 108.9163339  41.0875564  12.4702914  98.2048471  43.8774186
  12.5087014  97.6712062  44.6711304  11.9643207  97.6783677  43.2585163
  24.8729183 110.7037862  46.7714844  25.4247491 110.8669484  47.5363929
  25.2135377 111.2942300  46.0994869  19.8493677  93.0513012  47.3736729
  19.9135003  93.9127843  46.9614126  19.7860797  92.4387014  46.6409087
  19.3245949  95.1236144  51.0209763  19.9517988  94.7413222  51.6347287
  18.4673868  94.9050346  51.3865455  29.7240058 105.5299120  52.6263498
  30.2679962 106.1429078  52.1318453  29.1426903 106.0878698  53.1430511
  16.1011492  96.9312574  36.9528118  16.3964933  96.0223252  36.8995171
  15.1999528  96.9100313  36.6309120  28.0097571 108.6519838  43.7578526
  27.8848710 107.8509577  43.2489471  28.6676662 109.1466031  43.2692496
  19.6305739  95.0068570  42.9355666  18.9092325  95.6204538  42.7963140
  20.4198995  95.5426335  42.8572312  30.0732479 106.4528858  45.3858076
  29.1262815 106.3334209  45.3136403  30.4215252 105.5651356  45.4684338
  22.4332052  92.3422997  49.2096318  22.9566454  92.5885293  49.9722627
  22.2144386  93.1743031  48.7899455  17.8299334  94.6126671  37.0767443
  17.5012040  93.7324050  36.8942549  18.1838704  94.5574340  37.9643832
  27.0778912 106.2481574  41.5862428  26.9303875 105.3198281  41.7669998
  27.9032406 106.2701665  41.1019504  20.9441157  94.8999641  37.4442920
  21.2837229  95.4285562  36.7221529  21.3913277  95.2380047  38.2201487
  30.6813034 107.0710133  42.6727301  31.6059582 106.8652994  42.5351752
  30.5128338 106.8226534  43.5816643  23.6384598  93.2836692  46.8945989
  23.2981418  92.4844505  47.2966668  22.9323604  93.5838403  46.3222822
  24.2901069  90.3686004  45.3473312  25.1127139  89.8946482  45.2252202
  24.5339133  91.1476488  45.8471998  22.9309304  93.3974263  35.6436213
  23.6517666  93.7755515  35.1399930  22.3074608  94.1163139  35.7471191
  27.0740427  94.1019412  36.5794546  27.2904041  94.9844049  36.2783374
  26.5934494  93.7105625  35.8500188  21.8139648  97.0605125  43.1565290
  21.6684229  97.3745428  44.0489572  21.3364852  97.6790025  42.6036189
  23.6736031  94.0507673  43.2046180  23.6597600  93.1548766  42.8678478
  24.3908459  94.0578336  43.8384466  25.5262162  94.4845013  45.2499307
  25.2679940  95.4062084  45.2483638  24.9947202  94.0875447  45.9399771
  30.4708350 107.5895800  38.0289393  30.6445228 107.0242223  37.2763245
  30.9637242 108.3896695  37.8468882  16.2885310  99.6010469  46.0952951
  15.7438778 100.3770277  46.2273226  17.1664660  99.9481274  45.9372073
  23.0772927  92.9322053  38.4733750  23.1988838  92.0038699  38.6724637
  22.7874969  92.9460739  37.5612065  25.9464117  90.6176963  41.6100470
  25.9685814  90.6816297  40.6552449  26.3632176  89.7781472  41.8040976
  36.3247742 100.3532223  39.6479692  36.7678888  99.6039548  39.2498816
  35.4474252 100.3442359  39.2653424  31.4583523 106.9062564  35.1286291
  32.1534428 107.5269257  35.3473605  31.8006673 106.0557916  35.4038669
  17.0751332  98.7280365  48.9883108  16.3333068  98.8763001  49.5747739
  16.7544076  98.9888631  48.1249858  33.3574946 104.3562270  36.6573622
  33.8826270 104.6949543  35.9322942  33.2697299 103.4209285  36.4736756
  25.0194995 108.2696344  48.7863498  25.3282121 108.0245490  49.6586198
  25.8170477 108.4742982  48.2982368  25.0415607 110.4234253  41.0168875
  24.6020597 109.9310632  41.7101731  25.7923724 109.8807221  40.7760950
  17.5207946 106.6145794  41.0193503  18.3465966 106.3149566  40.6392146
  17.1701998 105.8453417  41.4683291  22.4889479 105.9672262  43.0891176
  21.8669488 105.3042967  42.7893404  23.1594346 105.9933394  42.4064824
  15.7216551 104.5332121  41.9782436  14.8848459 104.1054295  41.7966438
  15.6940196 104.7264564  42.9153228  22.5614006  94.4454050  52.6823682
  22.6102162  95.3216173  52.3001452  23.1036521  93.9031443  52.1095326
  33.0468852 104.9895174  51.9624820  32.2564396 104.9719313  51.4229319
  32.8102207 105.5283467  52.7173856  33.1666727 101.8387640  49.2757548
  33.2164732 101.6737647  50.2173071  33.0580651 100.9714899  48.8855429
  22.0502986 104.5176186  36.5649637  22.1991106 105.2011650  35.9116310
  22.8569429 104.4981276  37.0799093  30.4570490  97.8218568  50.5916855
  31.3580352  97.6825033  50.3000853  30.5318464  97.9873023  51.5315032
  24.7913295  95.1985423  49.4370041  23.9216604  95.4918989  49.1652630
  25.0272775  95.7825868  50.1577305  34.6684924 104.2584582  49.5199570
  34.3769732 104.6214562  50.3563031  34.0557055 103.5451590  49.3412902
  35.8680606 101.8237461  42.0402140  36.7027498 102.2627265  42.2039700
  36.0039735 101.3476115  41.2210386  32.9172112  99.3817196  47.9879628
  33.3926234  99.5744842  47.1798479  31.9937678  99.4376382  47.7423011
  19.8055619 100.5441363  37.5710706  19.5601661  99.6403693  37.7690916
  19.9751533 100.5458514  36.6290184  27.4952329  91.4165040  46.9535461
  28.0134273  92.1526067  46.6281950  27.1407462  91.7229033  47.7882221
  19.0751266  96.2769721  35.0696867  18.3820511  96.3514076  34.4136903
  18.8303018  95.5130065  35.5918384  27.7464923  87.8365322  42.4736358
  28.0266677  87.1688511  43.0996785  28.5315530  88.0294418  41.9611022
  25.5498391 107.0124316  34.0361384  24.9772358 107.6314503  33.5831856
  26.1231185 107.5623678  34.5701306  31.6173781  96.2582956  46.2207933
  32.5691204  96.3581054  46.2420157  31.4477232  95.4661225  46.7306018
  29.6388161  93.3438539  46.4067334  29.0438093  93.6243552  45.7113823
  29.3537857  93.8332440  47.1784075  28.7695651 107.2961466  35.1669967
  29.7026324 107.2307028  35.3702842  28.6818864 108.1317733  34.7084499
  31.3983668 106.6127337  32.1273914  31.3197299 106.2787200  33.0209672
  32.2193335 107.1049105  32.1265387  34.0961859  99.4789076  45.3350233
  34.0638179  98.5405077  45.5209917  34.7062483  99.5573113  44.6016058
  25.9345190  98.3485129  31.3777437  26.8804295  98.2191337  31.4465855
  25.5559435  97.6099791  31.8546865  34.2456348  96.2700119  45.3808516
  33.7295396  95.4858576  45.1938445  35.1296296  95.9418836  45.5455035
  31.9067074  90.0141135  41.3404329  31.7091896  89.7056223  42.2247661
  32.5166780  90.7402774  41.4702259  39.9138409 100.5405083  44.4756270
  40.6441797 100.2790371  45.0363973  39.3045354  99.8033805  44.5158338
  37.9953706  98.6812945  45.0730721  37.2686870  98.5468910  44.4647212
  37.5800993  98.9889774  45.8787439  25.8183882 102.4002875  52.8378094
  26.7386892 102.5781474  53.0318140  25.7833465 101.4558920  52.6857793
  24.1188107  96.2735105  31.3132322  23.2119562  95.9768218  31.3895036
  24.3964088  95.9764923  30.4466608  15.0366047  97.5941469  41.7631368
  14.7168832  96.7406777  41.4705743  14.4899476  97.8090047  42.5189336
  18.8145955 100.3103910  45.4800875  19.0331965 101.2421018  45.4988909
  19.2271729  99.9511884  46.2655679  25.7350173  90.8171995  37.4676563
  24.9250901  90.4719080  37.8431809  26.4234590  90.5079539  38.0564175
  27.6640721  89.8950042  39.0900860  28.2171760  90.3145495  39.7490883
  27.9010807  88.9685790  39.1323816  23.6873820  95.8837115  54.8703624
  23.5870547  96.8331472  54.8015715  23.4695362  95.5555354  53.9979694
  22.8886892  93.1322041  31.4544301  23.7506056  93.4576939  31.7140119
  23.0737236  92.3453536  30.9417367  14.9054307 101.2144380  43.7324490
  14.2117779 100.7998333  43.2194444  15.6527298 101.2564917  43.1357909
  31.0419528  92.0050567  38.5979524  30.4618197  92.6635371  38.2157577
  30.7755461  91.1827912  38.1866942  29.4923095  91.4055625  40.8000845
  29.9922873  91.5172159  39.9915163  30.1358702  91.1016678  41.4401653
  23.5505090  99.3134254  53.6868686  23.0672172 100.1134614  53.8932575
  23.6366029  99.3242199  52.7336130  16.8191050 101.1462634  41.6090505
  16.7961738 101.2450321  40.6572388  17.1291686 101.9927785  41.9307671
  19.4778428 103.2038789  45.7237119  20.4321681 103.1722731  45.6567051
  19.2790951 102.7429413  46.5387345  20.0677810 101.7739905  48.2907917
  20.8870699 102.2683984  48.3142754  20.3414618 100.8571873  48.2625485
  29.8244406  94.1650657  37.6535873  28.9370261  94.4500308  37.4356067
  30.2398395  94.0044421  36.8063149  33.1758942  94.1897178  41.3690212
  33.9519332  94.6793631  41.6414829  32.4507076  94.6155233  41.8262081
  35.6131501  94.9024798  42.4264152  36.2075992  94.6620534  41.7157461
  35.6858085  94.1831928  43.0537689  17.8328657 108.7458409  42.7407317
  17.6983125 107.9858809  42.1745315  17.4160719 109.4699308  42.2736106
  28.9687620 103.9295332  31.7483893  29.6723470 104.1345335  32.3641548
  28.2450268 104.4972094  32.0132976  29.7985430  99.6805193  37.8686163
  29.7420631 100.1373745  37.0293795  30.3513772  98.9195878  37.6909005
  33.6090236  95.4694925  38.6936282  33.3527170  95.0691561  39.5244490
  32.9843104  96.1838719  38.5686421  37.9202574  98.2090998  41.2007574
  37.3602132  98.2784188  41.9739136  37.3146077  98.0331983  40.4807070
  20.9897783 109.6427726  42.9525760  20.8730167 110.5873158  42.8504450
  20.1690229 109.3401287  43.3411559  30.8774317 104.3677861  33.7982353
  31.7119921 103.9359060  33.6159827  30.7158660 104.1959875  34.7259247
  30.5320209 100.8709975  35.1638692  30.4769013 100.7054246  34.2227136
  29.9066264 101.5786007  35.3200882  15.3212724  96.1078039  48.9900114
  15.9671588  95.5976993  49.4787339  15.1129875  96.8446721  49.5643539
  27.8466116 103.1758886  54.4892255  28.7157276 103.3499539  54.1278890
  27.3672868 103.9953303  54.3667984  23.8416335  90.3718084  34.7424010
  23.8295005  91.3159923  34.8992281  24.7339757  90.1888229  34.4483471
  22.0152297 110.2955987  46.1681688  22.9179543 110.3279598  46.4848183
  21.7889667 109.3656438  46.1828024  23.7705899 109.0486974  42.8291767
  22.8201530 109.0488836  42.7156139  24.0738385 108.3019709  42.3127802
  27.6568454  86.9660860  38.9969947  26.8900850  86.4119347  39.1426629
  28.0679159  87.0382729  39.8584099  19.6610215  93.2545656  53.0875128
  20.5241677  92.8982461  53.2978453  19.0875626  92.9159551  53.7750533
  39.5058592 114.8847512  43.8937529  40.1437002 114.7654260  43.1900869
  39.3879435 115.8328356  43.9525481  36.3148298 114.8374940  43.8299054
  35.9766810 114.7216005  42.9419589  37.1838067 114.4366106  43.8100060
  32.1735114 116.6910417  39.8195945  31.6099979 116.6000354  39.0512233
  32.0587509 115.8710321  40.2998438  36.7968081 115.9909792  49.7885260
  36.7856722 115.5962590  48.9165763  36.9588721 115.2575865  50.3819031
  29.7199546 118.1861608  42.6580165  30.5120838 117.8452433  42.2426465
  29.9596196 118.2956584  43.5782319  37.7534673 120.3581385  35.1310410
  37.1022653 120.9435465  34.7444424  38.5479036 120.8887579  35.1905447
  31.6790300 117.4470522  35.5297544  32.4521176 116.8999509  35.3910420
  32.0315699 118.3114771  35.7412006  33.5175343 118.7746904  48.7364444
  33.2265209 119.6792535  48.6211110  34.1532327 118.8163432  49.4508513
  34.4431549 116.1523753  45.3265803  35.0395122 115.9279775  44.6122766
  34.5006521 115.4108498  45.9291251  34.0156578 113.6063188  33.1615994
  34.2682098 113.0844709  32.3999457  33.0781137 113.4429333  33.2642678
  39.0599861 112.6098966  40.9690737  39.8462950 112.1918389  40.6181154
  39.3238565 113.5145058  41.1372386  39.2309938 118.0471817  35.6679394
  38.5955771 118.1206443  36.3800299  38.9007344 118.6365415  34.9898473
  44.4608288 112.5474199  41.8723716  45.1933460 111.9773416  42.1061545
  43.7047643 112.1595800  42.3130221  33.7352867 115.5091294  35.3640369
  33.6189125 114.8336197  36.0321453  33.8455126 115.0223668  34.5472522
  36.0784407 114.9701441  39.0687058  35.7142615 114.4432062  39.7799980
  36.9351523 114.5799910  38.8953544  41.9833708 106.2595774  46.3318324
  41.6517033 107.1291184  46.1079539  41.3879321 105.9432058  47.0112355
  35.7189894 109.9991341  34.0648407  35.8864297 110.8671577  34.4318878
  35.5287064 110.1618622  33.1409696  38.4765228 118.4608320  45.7314237
  38.1765951 119.3633358  45.6230044  38.1316287 118.1940503  46.5835390
  31.9277709 114.9122116  41.7650942  31.0028206 114.7798330  41.9728633
  32.1762122 115.6916336  42.2620884  41.8762371 110.9790860  43.4111675
  40.9679249 110.9106268  43.1170436  41.8249967 111.4562805  44.2393500
  35.6979115 112.4548998  35.0495074  35.5778741 112.9006049  35.8880554
  35.0031704 112.8034316  34.4908612  29.2886520 114.5555390  42.5994731
  29.4178901 114.8089869  43.5134142  28.6083971 115.1483098  42.2799386
  33.4586007 125.2252640  38.6985205  33.3810037 126.1760465  38.7773685
  32.8547651 124.8798512  39.3560131  35.9503237 112.3980505  51.3546572
  35.1736571 112.9574425  51.3449436  36.5893800 112.8837288  51.8761442
  43.7424018 109.1807298  45.1889548  43.0998398 109.4739831  44.5429343
  43.2378946 109.0660218  45.9942745  41.3964181 112.9270471  35.8775408
  42.3082038 113.1597858  35.7023105  40.8873829 113.5107515  35.3150486
  34.2049610 115.2065959  50.9164539  34.9464294 115.7451003  50.6399362
  33.4986595 115.8332247  51.0736091  39.6804949 117.3495099  49.5136700
  40.0888305 116.9077510  48.7691333  38.9582211 116.7747727  49.7670893
  36.0336019 112.2867706  46.8870257  36.8797214 112.7107119  47.0304906
  35.9734657 111.6301330  47.5808820  40.0033764 117.9096290  43.2688989
  39.3742626 118.0742004  42.5665057  39.6159426 118.3237899  44.0399953
  43.8822996 118.8450728  40.6233353  43.1974034 119.2249629  40.0730386
  43.9666845 119.4546054  41.3565301  39.1835465 109.9472074  48.5451431
  38.9396396 110.7014135  48.0085707  39.4595395 110.3257422  49.3798678
  41.1373927 116.4910687  47.2228696  41.3490823 117.1342446  46.5463078
  41.0903676 115.6573003  46.7550627  38.7400156 109.1028507  44.1265269
  37.8784635 109.4009761  44.4182006  38.7662591 109.3198906  43.1946301
  35.5561726 117.6470698  40.5339074  36.0200071 117.9258401  39.7443697
  35.2918524 116.7454142  40.3512165  32.4485807 117.1942179  43.4718838
  33.0187164 117.6229448  42.8336322  33.0393919 116.9124764  44.1703023
  34.4930612 113.7693850  37.3428639  35.1954655 114.2214894  37.8102566
  34.1611240 113.1277669  37.9708533  32.9410973 112.3605607  51.7179849
  32.3109634 113.0421888  51.9515246  32.8347061 112.2488688  50.7732987
  28.2355946 112.0277403  42.6445773  27.4455000 112.2834931  42.1685884
  28.7267193 112.8425741  42.7497814  42.2519755 119.3682642  45.3951054
  43.0737199 118.9662829  45.1133735  42.2482158 119.2650876  46.3467170
  30.1870691 112.3921982  39.6029250  29.3901854 112.5040676  40.1212745
  29.9596283 112.7308634  38.7370140  36.0176359 118.9166685  47.5511764
  36.0820791 119.3787093  48.3869936  35.3087283 118.2864050  47.6794074
  26.5193649 112.2807893  45.0760764  26.7701687 113.1654903  45.3418340
  27.0553197 112.1012495  44.3035856  50.3425748 115.7121391  41.7436025
  49.5889457 115.1428789  41.5880030  50.4773290 115.6784055  42.6906660
  35.7324376 120.5834793  37.4190745  35.5970051 121.4286329  37.8475592
  36.2734189 120.7854070  36.6556678  32.2191716 106.6626373  54.0805100
  31.8258662 106.1092571  54.7552744  33.0357856 106.9736951  54.4711617
  29.1853774 118.1010231  37.9918670  29.6978294 118.8953481  38.1424234
  29.8376487 117.4036521  37.9252271  30.9948658 121.2175987  40.0741423
  31.1715287 122.1393952  39.8862407  31.7905492 120.9034406  40.5035803
  35.1359677 108.0784252  51.6725356  35.8769390 108.6791405  51.5929819
  35.3677600 107.3361890  51.1143399  30.2801015 113.2640619  49.9503586
  30.1654530 112.3625876  50.2510685  29.4245533 113.5104316  49.5988403
  37.3592853 121.2058359  51.5491087  36.9156707 120.4194738  51.2311991
  38.0210066 121.3937510  50.8834978  32.1179974 122.7354161  46.0751765
  32.6687399 122.6071224  45.3028759  31.2791450 123.0349050  45.7246658
  39.4574091 121.4861159  49.5772488  39.4392566 122.3070040  49.0852757
  40.3794011 121.3615234  49.8022629  35.9147145 119.0005289  50.4195996
  36.4475482 118.2393577  50.1895304  35.3861226 118.7078941  51.1620151
  39.0816840 104.1065355  45.9489638  38.7381109 104.9966996  45.8728749
  39.4495803 103.9167012  45.0859223  27.1502691 116.4298885  38.7678240
  27.9877913 116.8395894  38.5511948  27.3280958 115.4898327  38.7378434
  39.0467123 114.0973966  34.4562073  38.5313746 114.8678570  34.6950461
  38.7744431 113.4239102  35.0795135  36.6314234 108.9423667  39.5147312
  35.7755830 108.5530517  39.3352950  37.0441185 109.0215627  38.6547097
  38.1613380 106.4770010  43.9138871  37.6578176 106.4400145  43.1006677
  38.4543987 107.3862753  43.9735528  34.4056266 106.5608740  42.9205053
  35.2709263 106.3651548  42.5610943  34.4733775 106.3319091  43.8474410
  44.0201397 116.8506320  36.3915247  43.2430840 116.5117480  35.9470409
  44.6992878 116.8558944  35.7170212  38.8353426 111.9701058  36.2821854
  38.5303561 112.2847207  37.1331998  39.7883868 112.0482478  36.3249187
  37.2799858 118.1291281  37.9314808  36.7521219 117.3944041  37.6188046
  36.7787360 118.9065958  37.6854777  42.2592704 116.3240302  43.0481855
  41.6016378 117.0139563  43.1361983  43.0633103 116.7136734  43.3915841
  32.0118585 108.7910947  40.2921420  32.5862337 108.5686129  39.5594613
  32.5989568 108.8599642  41.0450021  41.0698162 114.6784674  41.0985796
  41.5830044 115.3114666  41.6007506  41.7199386 114.0785870  40.7329156
  32.3388172 110.8215409  34.3117305  31.5025485 111.1590095  34.6326580
  32.1992942 110.6864388  33.3744442  34.3141253 105.6652196  39.0196489
  33.6605665 105.3501214  38.3953104  34.2721727 105.0427937  39.7456312
  35.4252458 115.9471491  30.9349781  34.5179520 115.7160745  31.1340930
  35.9223490 115.1509111  31.1223763  38.3320537 124.6568999  33.8546468
  37.6582235 124.9600695  34.4631425  38.7186359 125.4598079  33.5051925
  37.5478993 112.1534130  43.3444137  36.6301555 112.3749077  43.1865825
  37.9639137 112.2280440  42.4855844  38.3314041 113.5525546  38.4746817
  39.0785860 114.0646943  38.1653939  38.6005631 113.2309598  39.3351211
  36.6040691 116.0484086  35.4573772  35.6951911 115.7643119  35.5546241
  36.6335775 116.4683165  34.5977078  41.8359959 119.6590676  39.2264939
  41.3822286 118.8181586  39.2830130  41.2053925 120.2952074  39.5639719
  40.7792878 110.5882662  40.4565607  40.0415635 110.0760048  40.7875849
  41.0319652 110.1483043  39.6448883  40.2792898 121.4967173  40.1614757
  40.5715872 122.0572230  39.4427123  40.7891519 121.7895734  40.9167916
  40.8804506 103.3658914  41.0507376  41.1863382 102.5056277  40.7633291
  41.6057110 103.9576534  40.8506370  27.1728862 113.7689600  39.4388974
  26.9753261 113.1758961  38.7140040  26.6175526 113.4641811  40.1564913
  35.1525585 113.6612707  41.5583567  35.2074195 112.7086543  41.4826043
  34.3416787 113.8172146  42.0424865  36.3016779 117.5892830  32.7961850
  35.8636209 116.8728689  32.3367487  37.0427220 117.8168945  32.2346941
  33.0917945 112.2789767  39.3173946  32.2785811 112.5783937  39.7239138
  33.5876939 111.8845455  40.0348428  35.2426523 122.2747524  41.2508210
  35.2002702 122.5008370  40.3216742  36.1589222 122.0410898  41.3994012
  38.6892157 112.7431591  48.1488840  39.0441545 112.9703064  49.0083305
  39.3364288 113.0749968  47.5266095  44.4189894 115.8650027  38.8538169
  44.2807792 116.0551623  37.9259358  44.0626113 116.6269410  39.3106220
  32.5832020 109.8508122  44.9335181  33.2231399 109.7096881  44.2358144
  31.7509551 109.5642636  44.5573783  44.4459273 117.9326554  43.8649440
  44.8795780 117.8401843  44.7132494  45.1590854 117.9084055  43.2269456
  33.3592324 119.1510553  41.0470173  34.1532922 118.6560873  40.8452748
  32.6484016 118.6228416  40.6837879  38.1787168 121.5328648  45.3982541
  38.2324191 122.1019584  46.1660257  37.3101950 121.7030533  45.0336578
  29.6675087 113.2953634  37.1229926  28.7372675 113.2338090  37.3399888
  29.7632559 112.7729587  36.3266567  29.5860636 109.8208447  39.7108167
  29.8467454 110.7353780  39.6017328  30.4077809 109.3532890  39.8604780
  31.0585562 111.2346204  46.8806992  31.7308615 111.0263567  46.2319641
  30.2315348 111.0368290  46.4412224  45.3074823 117.9750255  46.3982326
  45.5010713 118.8796065  46.6441600  45.2075441 117.5157674  47.2320911
  36.9611134 107.8608145  48.8972653  36.3139049 108.5598095  48.8037129
  37.7312149 108.2944289  49.2648901  40.3689932 118.1256997  51.9723206
  40.2175438 117.8967549  51.0553290  40.3594611 119.0827599  51.9854551
  37.1375268 115.6988910  46.9569473  38.0667328 115.8500070  46.7838440
  36.7166298 115.7872931  46.1018119  35.9363600 119.7239575  44.7268010
  35.7974686 119.3558359  45.5993948  35.1478196 120.2387214  44.5551968
  36.5311752 124.8248671  36.0693547  36.7063508 124.3536714  36.8839169
  35.8444540 125.4514437  36.2974807  37.4868815 119.1021177  42.1156848
  37.1518648 119.0621947  43.0114498  36.9872761 118.4365893  41.6427258
  31.4613059 114.5088807  47.6409429  31.3232857 113.7769046  48.2420968
  32.3717982 114.4197707  47.3593617  40.4228007 116.4477212  32.3893908
  39.8057177 115.7224040  32.2926960  39.9544495 117.2086572  32.0460982
  34.0895360 114.2208767  47.1293109  34.7994978 113.5801959  47.0879727
  34.0464668 114.4721662  48.0519290  42.0782138 121.1576120  50.0499688
  42.0194685 120.4735340  49.3830271  42.4801657 121.8995110  49.5980314
  32.8024294 111.2073985  48.9488748  32.2661651 110.7564723  49.6010345
  32.2141002 111.3419893  48.2059213  32.2126553 110.6662636  31.5115212
  31.3356019 110.5451437  31.1477459  32.6884306 109.8748714  31.2594101
  42.0799546 119.1215704  48.2813668  41.1926324 118.7841626  48.4040067
  42.6498097 118.3898735  48.5182433  23.7328693 115.4539796  41.6056719
  24.4199733 115.1401526  41.0177734  23.5776821 116.3581160  41.3323971
  28.5363415 110.3429992  46.0341743  28.4521604 109.7355662  45.2992153
  27.7146121 110.8339011  46.0351239  35.6100699 123.7817156  45.2474911
  35.5370870 124.5872128  45.7594215  35.1678092 123.9809122  44.4222932
  35.3990479 123.0188926  38.7577732  34.6158001 123.5610607  38.8515957
  36.0983224 123.5362906  39.1571974  38.7087129 108.8283556  41.4011938
  39.2055828 108.0753518  41.0813008  37.9374110 108.8647872  40.8355147
  46.5616886 114.5323921  43.0430229  46.5506762 115.4148637  42.6724162
  45.6934266 114.1795472  42.8484766  38.0699383 123.6803990  47.4033070
  38.7827355 124.3151455  47.3308971  37.5789411 123.7767856  46.5873071
  39.7916909 117.5855243  38.9750361  38.8573188 117.7056705  38.8055066
  39.9693578 116.6827710  38.7110371  35.2922098 110.9700939  41.1283622
  34.9219885 110.4171979  41.8164528  35.7881190 110.3659072  40.5758622
  43.1789461 113.4272562  39.5100395  43.6449913 114.2600554  39.4360698
  43.6296961 112.9617544  40.2145654  33.1211296 121.4298434  48.2238640
  33.8220756 122.0634917  48.3768035  32.6506411 121.7713165  47.4634280
  41.2465692 119.7716384  36.5086547  41.5225536 119.6572978  37.4180421
  40.3770191 119.3733868  36.4698721  41.1506124 105.7953149  43.5491297
  40.2369203 106.0257376  43.7173504  41.5799225 105.8791593  44.4005329
  40.9212582 113.9843041  46.0491191  40.2684032 114.2318949  45.3943644
  41.2992962 113.1707179  45.7153668  37.8819756 124.0202734  40.1519361
  38.0642150 123.2024390  40.6147113  38.7052742 124.2370427  39.7144251
  38.2161921 122.9470920  37.4134410  38.7449688 122.4363374  36.8004572
  38.4790141 122.6313450  38.2779943  36.9700155 114.7262852  52.5357228
  36.2940792 114.6256982  53.2059603  37.7927789 114.5702066  52.9993225
  28.7179014 120.9634789  45.1569743  29.3032451 120.2178477  45.2897647
  28.5203853 121.2738746  46.0406407  31.5717669 123.9986036  40.1732185
  30.9028045 124.4832164  39.6896226  31.4330539 124.2455257  41.0875564
  23.3096669 113.5340389  43.8774186  23.3480768 113.0003980  44.6711304
  22.8036962 113.0075595  43.2585163  35.7122938 126.0329780  46.7714844
  36.2641246 126.1961401  47.5363929  36.0529131 126.6234218  46.0994869
  30.6887431 108.3804930  47.3736729  30.7528758 109.2419760  46.9614126
  30.6254551 107.7678931  46.6409087  30.1639704 110.4528062  51.0209763
  30.7911743 110.0705139  51.6347287  29.3067623 110.2342264  51.3865455
  40.5633812 120.8591037  52.6263498  41.1073716 121.4720996  52.1318453
  39.9820657 121.4170616  53.1430511  26.9405246 112.2604491  36.9528118
  27.2358688 111.3515170  36.8995171  26.0393282 112.2392231  36.6309120
  38.8491325 123.9811755  43.7578526  38.7242465 123.1801495  43.2489471
  39.5070416 124.4757949  43.2692496  30.4699493 110.3360488  42.9355666
  29.7486079 110.9496455  42.7963140  31.2592749 110.8718253  42.8572312
  40.9126234 121.7820775  45.3858076  39.9656569 121.6626127  45.3136403
  41.2609007 120.8943273  45.4684338  33.2725807 107.6714914  49.2096318
  33.7960209 107.9177211  49.9722627  33.0538140 108.5034949  48.7899455
  28.6693088 109.9418589  37.0767443  28.3405794 109.0615968  36.8942549
  29.0232459 109.8866258  37.9643832  37.9172667 121.5773492  41.5862428
  37.7697629 120.6490199  41.7669998  38.7426160 121.5993582  41.1019504
  31.7834911 110.2291559  37.4442920  32.1230984 110.7577480  36.7221529
  32.2307032 110.5671965  38.2201487  41.5206789 122.4002050  42.6727301
  42.4453336 122.1944912  42.5351752  41.3522092 122.1518451  43.5816643
  34.4778352 108.6128609  46.8945989  34.1375172 107.8136422  47.2966668
  33.7717358 108.9130320  46.3222822  35.1294824 105.6977922  45.3473312
  35.9520893 105.2238400  45.2252202  35.3732887 106.4768406  45.8471998
  33.7703058 108.7266180  35.6436213  34.4911421 109.1047433  35.1399930
  33.1468362 109.4455057  35.7471191  37.9134181 109.4311329  36.5794546
  38.1297796 110.3135967  36.2783374  37.4328248 109.0397543  35.8500188
  32.6533403 112.3897042  43.1565290  32.5077983 112.7037346  44.0489572
  32.1758606 113.0081943  42.6036189  34.5129785 109.3799590  43.2046180
  34.4991354 108.4840684  42.8678478  35.2302214 109.3870254  43.8384466
  36.3655916 109.8136931  45.2499307  36.1073694 110.7354001  45.2483638
  35.8340957 109.4167365  45.9399771  41.3102105 122.9187718  38.0289393
  41.4838982 122.3534140  37.2763245  41.8030996 123.7188613  37.8468882
  27.1279065 114.9302387  46.0952951  26.5832533 115.7062195  46.2273226
  28.0058415 115.2773191  45.9372073  33.9166681 108.2613971  38.4733750
  34.0382593 107.3330617  38.6724637  33.6268724 108.2752657  37.5612065
  36.7857872 105.9468881  41.6100470  36.8079569 106.0108214  40.6552449
  37.2025931 105.1073390  41.8040976  47.1641496 115.6824141  39.6479692
  47.6072642 114.9331466  39.2498816  46.2868006 115.6734277  39.2653424
  42.2977277 122.2354482  35.1286291  42.9928182 122.8561175  35.3473605
  42.6400428 121.3849833  35.4038669  27.9145087 114.0572283  48.9883108
  27.1726823 114.2054918  49.5747739  27.5937831 114.3180549  48.1249858
  44.1968701 119.6854188  36.6573622  44.7220025 120.0241460  35.9322942
  44.1091053 118.7501203  36.4736756  35.8588749 123.5988261  48.7863498
  36.1675876 123.3537408  49.6586198  36.6564231 123.8034900  48.2982368
  35.8809361 125.7526171  41.0168875  35.4414352 125.2602550  41.7101731
  36.6317478 125.2099139  40.7760950  28.3601700 121.9437712  41.0193503
  29.1859720 121.6441484  40.6392146  28.0095752 121.1745334  41.4683291
  33.3283233 121.2964180  43.0891176  32.7063243 120.6334885  42.7893404
  33.9988100 121.3225312  42.4064824  26.5610305 119.8624038  41.9782436
  25.7242214 119.4346213  41.7966438  26.5333951 120.0556482  42.9153228
  33.4007761 109.7745968  52.6823682  33.4495916 110.6508091  52.3001452
  33.9430275 109.2323361  52.1095326  43.8862607 120.3187091  51.9624820
  43.0958150 120.3011230  51.4229319  43.6495961 120.8575385  52.7173856
  44.0060482 117.1679558  49.2757548  44.0558487 117.0029565  50.2173071
  43.8974405 116.3006817  48.8855429  32.8896740 119.8468103  36.5649637
  33.0384861 120.5303568  35.9116310  33.6963184 119.8273193  37.0799093
  41.2964244 113.1510486  50.5916855  42.1974107 113.0116951  50.3000853
  41.3712219 113.3164941  51.5315032  35.6307049 110.5277340  49.4370041
  34.7610359 110.8210907  49.1652630  35.8666530 111.1117785  50.1577305
  45.5078679 119.5876499  49.5199570  45.2163487 119.9506480  50.3563031
  44.8950810 118.8743508  49.3412902  46.7074361 117.1529379  42.0402140
  47.5421252 117.5919183  42.2039700  46.8433490 116.6768032  41.2210386
  43.7565867 114.7109114  47.9879628  44.2319988 114.9036760  47.1798479
  42.8331432 114.7668300  47.7423011  30.6449373 115.8733281  37.5710706
  30.3995415 114.9695611  37.7690916  30.8145288 115.8750431  36.6290184
  38.3346083 106.7456957  46.9535461  38.8528027 107.4817984  46.6281950
  37.9801216 107.0520951  47.7882221  29.9145021 111.6061639  35.0696867
  29.2214266 111.6805994  34.4136903  29.6696773 110.8421982  35.5918384
  38.5858677 103.1657240  42.4736358  38.8660431 102.4980429  43.0996785
  39.3709284 103.3586336  41.9611022  36.3892146 122.3416234  34.0361384
  35.8166113 122.9606421  33.5831856  36.9624940 122.8915596  34.5701306
  42.4567536 111.5874874  46.2207933  43.4084959 111.6872972  46.2420157
  42.2870986 110.7953142  46.7306018  40.4781915 108.6730457  46.4067334
  39.8831847 108.9535470  45.7113823  40.1931612 109.1624358  47.1784075
  39.6089406 122.6253384  35.1669967  40.5420079 122.5598946  35.3702842
  39.5212619 123.4609651  34.7084499  42.2377422 121.9419254  32.1273914
  42.1591054 121.6079118  33.0209672  43.0587089 122.4341022  32.1265387
  44.9355614 114.8080994  45.3350233  44.9031934 113.8696994  45.5209917
  45.5456237 114.8865030  44.6016058  36.7738944 113.6777047  31.3777437
  37.7198049 113.5483255  31.4465855  36.3953189 112.9391709  31.8546865
  45.0850102 111.5992037  45.3808516  44.5689151 110.8150494  45.1938445
  45.9690051 111.2710754  45.5455035  42.7460829 105.3433053  41.3404329
  42.5485650 105.0348141  42.2247661  43.3560535 106.0694692  41.4702259
  50.7532163 115.8697000  44.4756270  51.4835552 115.6082289  45.0363973
  50.1439109 115.1325722  44.5158338  48.8347461 114.0104863  45.0730721
  48.1080624 113.8760828  44.4647212  48.4194747 114.3181692  45.8787439
  36.6577637 117.7294793  52.8378094  37.5780646 117.9073392  53.0318140
  36.6227220 116.7850838  52.6857793  34.9581862 111.6027023  31.3132322
  34.0513317 111.3060136  31.3895036  35.2357843 111.3056841  30.4466608
  25.8759802 112.9233386  41.7631368  25.5562586 112.0698695  41.4705743
  25.3293230 113.1381965  42.5189336  29.6539709 115.6395827  45.4800875
  29.8725719 116.5712935  45.4988909  30.0665483 115.2803802  46.2655679
  36.5743927 106.1463913  37.4676563  35.7644656 105.8010998  37.8431809
  37.2628344 105.8371456  38.0564175  38.5034476 105.2241960  39.0900860
  39.0565514 105.6437413  39.7490883  38.7404562 104.2977708  39.1323816
  34.5267575 111.2129033  54.8703624  34.4264302 112.1623390  54.8015715
  34.3089117 110.8847272  53.9979694  33.7280646 108.4613958  31.4544301
  34.5899810 108.7868857  31.7140119  33.9130990 107.6745454  30.9417367
  25.7448062 116.5436298  43.7324490  25.0511533 116.1290251  43.2194444
  26.4921053 116.5856834  43.1357909  41.8813283 107.3342485  38.5979524
  41.3011952 107.9927289  38.2157577  41.6149215 106.5119829  38.1866942
  40.3316849 106.7347542  40.8000845  40.8316627 106.8464077  39.9915163
  40.9752457 106.4308595  41.4401653  34.3898845 114.6426172  53.6868686
  33.9065927 115.4426532  53.8932575  34.4759784 114.6534117  52.7336130
  27.6584804 116.4754552  41.6090505  27.6355493 116.5742239  40.6572388
  27.9685441 117.3219702  41.9307671  30.3172182 118.5330707  45.7237119
  31.2715436 118.5014649  45.6567051  30.1184706 118.0721330  46.5387345
  30.9071564 117.1031823  48.2907917  31.7264453 117.5975901  48.3142754
  31.1808372 116.1863791  48.2625485  40.6638161 109.4942575  37.6535873
  39.7764016 109.7792226  37.4356067  41.0792150 109.3336338  36.8063149
  44.0152697 109.5189096  41.3690212  44.7913087 110.0085548  41.6414829
  43.2900831 109.9447150  41.8262081  46.4525255 110.2316715  42.4264152
  47.0469746 109.9912451  41.7157461  46.5251839 109.5123846  43.0537689
  28.6722411 124.0750326  42.7407317  28.5376879 123.3150727  42.1745315
  28.2554473 124.7991226  42.2736106  39.8081374 119.2587250  31.7483893
  40.5117224 119.4637252  32.3641548  39.0844023 119.8264012  32.0132976
  40.6379184 115.0097111  37.8686163  40.5814386 115.4665662  37.0293795
  41.1907527 114.2487796  37.6909005  44.4483990 110.7986843  38.6936282
  44.1920925 110.3983479  39.5244490  43.8236858 111.5130637  38.5686421
  48.7596328 113.5382916  41.2007574  48.1995886 113.6076105  41.9739136
  48.1539832 113.3623901  40.4807070  31.8291537 124.9719643  42.9525760
  31.7123921 125.9165076  42.8504450  31.0083983 124.6693205  43.3411559
  41.7168072 119.6969779  33.7982353  42.5513675 119.2650977  33.6159827
  41.5552414 119.5251793  34.7259247  41.3713964 116.2001892  35.1638692
  41.3162768 116.0346164  34.2227136  40.7460019 116.9077925  35.3200882
  26.1606479 111.4369957  48.9900114  26.8065342 110.9268911  49.4787339
  25.9523630 112.1738638  49.5643539  38.6859871 118.5050804  54.4892255
  39.5551031 118.6791456  54.1278890  38.2066622 119.3245221  54.3667984
  34.6810089 105.7010001  34.7424010  34.6688759 106.6451841  34.8992281
  35.5733511 105.5180147  34.4483471  32.8546051 125.6247905  46.1681688
  33.7573298 125.6571515  46.4848183  32.6283421 124.6948356  46.1828024
  34.6099653 124.3778892  42.8291767  33.6595284 124.3780753  42.7156139
  34.9132139 123.6311626  42.3127802  38.4962209 102.2952778  38.9969947
  37.7294604 101.7411265  39.1426629  38.9072914 102.3674647  39.8584099
  30.5003970 108.5837574  53.0875128  31.3635431 108.2274379  53.2978453
  29.9269380 108.2451469  53.7750533  50.3452347 130.2139430  43.8937529
  50.9830757 130.0946177  43.1900869  50.2273190 131.1620274  43.9525481
  47.1542053 130.1666858  43.8299054  46.8160564 130.0507923  42.9419589
  48.0231821 129.7658023  43.8100060  43.0128869 132.0202335  39.8195945
  42.4493734 131.9292271  39.0512233  42.8981264 131.2002239  40.2998438
  47.6361836 131.3201710  49.7885260  47.6250477 130.9254508  48.9165763
  47.7982475 130.5867782  50.3819031  45.2825304 131.4815670  45.3265803
  45.8788876 131.2571693  44.6122766  45.3400275 130.7400416  45.9291251
  44.8550332 128.9355106  33.1615994  45.1075853 128.4136627  32.3999457
  43.9174891 128.7721251  33.2642678  49.8993615 127.9390884  40.9690737
  50.6856704 127.5210307  40.6181154  50.1632319 128.8436976  41.1372386
  50.0703692 133.3763734  35.6679394  49.4349525 133.4498361  36.3800299
  49.7401099 133.9657333  34.9898473  55.3002042 127.8766117  41.8723716
  56.0327214 127.3065334  42.1061545  54.5441398 127.4887718  42.3130221
  44.5746621 130.8383211  35.3640369  44.4582879 130.1628115  36.0321453
  44.6848881 130.3515585  34.5472522  46.9178162 130.2993359  39.0687058
  46.5536369 129.7723980  39.7799980  47.7745278 129.9091828  38.8953544
  52.8227463 121.5887691  46.3318324  52.4910787 122.4583102  46.1079539
  52.2273076 121.2723975  47.0112355  46.5583649 125.3283258  34.0648407
  46.7258051 126.1963495  34.4318878  46.3680818 125.4910540  33.1409696
  49.3158982 133.7900237  45.7314237  49.0159705 134.6925276  45.6230044
  48.9710042 133.5232420  46.5835390  42.7671464 130.2414034  41.7650942
  41.8421960 130.1090248  41.9728633  43.0155877 131.0208253  42.2620884
  52.7156126 126.3082777  43.4111675  51.8073003 126.2398186  43.1170436
  52.6643722 126.7854722  44.2393500  46.5372870 127.7840916  35.0495074
  46.4172495 128.2297967  35.8880554  45.8425458 128.1326233  34.4908612
  40.1280275 129.8847308  42.5994731  40.2572656 130.1381787  43.5134142
  39.4477726 130.4775016  42.2799386  46.7896992 127.7272423  51.3546572
  46.0130326 128.2866343  51.3449436  47.4287555 128.2129206  51.8761442
  54.5817772 124.5099216  45.1889548  53.9392153 124.8031749  44.5429343
  54.0772701 124.3952136  45.9942745  52.2357936 128.2562389  35.8775408
  53.1475792 128.4889776  35.7023105  51.7267583 128.8399433  35.3150486
  45.0443364 130.5357876  50.9164539  45.7858048 131.0742920  50.6399362
  44.3380349 131.1624165  51.0736091  50.5198704 132.6787017  49.5136700
  50.9282060 132.2369427  48.7691333  49.7975965 132.1039644  49.7670893
  46.8729774 127.6159624  46.8870257  47.7190969 128.0399037  47.0304906
  46.8128411 126.9593248  47.5808820  50.8427518 133.2388207  43.2688989
  50.2136381 133.4033922  42.5665057  50.4553180 133.6529817  44.0399953
  54.7216750 134.1742645  40.6233353  54.0367788 134.5541547  40.0730386
  54.8060599 134.7837972  41.3565301  50.0229219 125.2763992  48.5451431
  49.7790151 126.0306052  48.0085707  50.2989150 125.6549340  49.3798678
  51.9767682 131.8202604  47.2228696  52.1884577 132.4634364  46.5463078
  51.9297430 130.9864921  46.7550627  49.5793911 124.4320425  44.1265269
  48.7178390 124.7301678  44.4182006  49.6056345 124.6490824  43.1946301
  46.3955480 132.9762615  40.5339074  46.8593826 133.2550318  39.7443697
  46.1312278 132.0746060  40.3512165  45.3324366 129.0985768  37.3428639
  46.0348410 129.5506812  37.8102566  45.0004995 128.4569587  37.9708533
  43.7804728 127.6897524  51.7179849  43.1503388 128.3713805  51.9515246
  43.6740816 127.5780606  50.7732987  39.0749700 127.3569321  42.6445773
  38.2848754 127.6126849  42.1685884  39.5660948 128.1717658  42.7497814
  53.0913510 134.6974560  45.3951054  53.9130953 134.2954747  45.1133735
  53.0875913 134.5942794  46.3467170  41.0264446 127.7213900  39.6029250
  40.2295609 127.8332594  40.1212745  40.7990038 128.0600552  38.7370140
  37.3587403 127.6099811  45.0760764  37.6095442 128.4946821  45.3418340
  37.8946952 127.4304413  44.3035856  61.1819503 131.0413308  41.7436025
  60.4283211 130.4720706  41.5880030  61.3167044 131.0075973  42.6906660
  43.0585470 121.9918290  54.0805100  42.6652416 121.4384489  54.7552744
  43.8751611 122.3028869  54.4711617  45.9753431 123.4076169  51.6725356
  46.7163145 124.0083323  51.5929819  46.2071354 122.6653807  51.1143399
  41.1194769 128.5932537  49.9503586  41.0048285 127.6917794  50.2510685
  40.2639287 128.8396233  49.5988403  49.9210594 119.4357272  45.9489638
  49.5774864 120.3258914  45.8728749  50.2889557 119.2458930  45.0859223
  49.8860877 129.4265883  34.4562073  49.3707501 130.1970488  34.6950461
  49.6138186 128.7531020  35.0795135  47.4707988 124.2715584  39.5147312
  46.6149584 123.8822435  39.3352950  47.8834940 124.3507545  38.6547097
  49.0007135 121.8061928  43.9138871  48.4971930 121.7692063  43.1006677
  49.2937742 122.7154670  43.9735528  45.2450021 121.8900657  42.9205053
  46.1103017 121.6943466  42.5610943  45.3127530 121.6611009  43.8474410
  54.8595151 132.1798238  36.3915247  54.0824594 131.8409398  35.9470409
  55.5386632 132.1850861  35.7170212  49.6747180 127.2992976  36.2821854
  49.3697316 127.6139125  37.1331998  50.6277622 127.3774395  36.3249187
  53.0986458 131.6532219  43.0481855  52.4410133 132.3431481  43.1361983
  53.9026857 132.0428651  43.3915841  42.8512340 124.1202865  40.2921420
  43.4256092 123.8978047  39.5594613  43.4383322 124.1891560  41.0450021
  51.9091917 130.0076592  41.0985796  52.4223799 130.6406584  41.6007506
  52.5593141 129.4077788  40.7329156  43.1781927 126.1507326  34.3117305
  42.3419239 126.4882013  34.6326580  43.0386697 126.0156306  33.3744442
  45.1535007 120.9944114  39.0196489  44.4999420 120.6793131  38.3953104
  45.1115482 120.3719855  39.7456312  46.2646212 131.2763409  30.9349781
  45.3573274 131.0452663  31.1340930  46.7617244 130.4801028  31.1223763
  48.3872748 127.4826048  43.3444137  47.4695309 127.7040995  43.1865825
  48.8032891 127.5572358  42.4855844  49.1707796 128.8817463  38.4746817
  49.9179615 129.3938861  38.1653939  49.4399385 128.5601516  39.3351211
  47.4434446 131.3776004  35.4573772  46.5345665 131.0935037  35.5546241
  47.4729530 131.7975083  34.5977078  52.6753713 134.9882594  39.2264939
  52.2216040 134.1473503  39.2830130  52.0447680 135.6243992  39.5639719
  51.6186633 125.9174580  40.4565607  50.8809390 125.4051966  40.7875849
  51.8713406 125.4774961  39.6448883  51.7198260 118.6950832  41.0507376
  52.0257137 117.8348195  40.7633291  52.4450865 119.2868452  40.8506370
  38.0122616 129.0981518  39.4388974  37.8147016 128.5050879  38.7140040
  37.4569280 128.7933728  40.1564913  45.9919340 128.9904625  41.5583567
  46.0467950 128.0378461  41.4826043  45.1810542 129.1464064  42.0424865
  47.1410534 132.9184748  32.7961850  46.7029963 132.2020607  32.3367487
  47.8820974 133.1460863  32.2346941  43.9311700 127.6081684  39.3173946
  43.1179565 127.9075855  39.7239138  44.4270694 127.2137373  40.0348428
  49.5285911 128.0723509  48.1488840  49.8835299 128.2994982  49.0083305
  50.1758043 128.4041886  47.5266095  55.2583648 131.1941945  38.8538169
  55.1201547 131.3843541  37.9259358  54.9019867 131.9561328  39.3106220
  43.4225774 125.1800040  44.9335181  44.0625154 125.0388799  44.2358144
  42.5903305 124.8934553  44.5573783  55.2853028 133.2618472  43.8649440
  55.7189535 133.1693761  44.7132494  55.9984609 133.2375972  43.2269456
  40.5068842 128.6245552  37.1229926  39.5766430 128.5630008  37.3399888
  40.6026314 128.1021505  36.3266567  40.4254391 125.1500365  39.7108167
  40.6861208 126.0645698  39.6017328  41.2471563 124.6824807  39.8604780
  41.8979316 126.5638122  46.8806992  42.5702370 126.3555484  46.2319641
  41.0709103 126.3660208  46.4412224  56.1468578 133.3042172  46.3982326
  56.3404468 134.2087983  46.6441600  56.0469196 132.8449591  47.2320911
  47.8004888 123.1900063  48.8972653  47.1532803 123.8890013  48.8037129
  48.5705904 123.6236207  49.2648901  51.2083686 133.4548915  51.9723206
  51.0569193 133.2259467  51.0553290  51.1988366 134.4119517  51.9854551
  47.9769023 131.0280828  46.9569473  48.9061083 131.1791987  46.7838440
  47.5560053 131.1164849  46.1018119  42.3006813 129.8380725  47.6409429
  42.1626611 129.1060964  48.2420968  43.2111737 129.7489625  47.3593617
  51.2621761 131.7769129  32.3893908  50.6450932 131.0515957  32.2926960
  50.7938250 132.5378490  32.0460982  44.9289114 129.5500684  47.1293109
  45.6388733 128.9093877  47.0879727  44.8858422 129.8013579  48.0519290
  43.6418048 126.5365902  48.9488748  43.1055405 126.0856641  49.6010345
  43.0534757 126.6711811  48.2059213  43.0520307 125.9954554  31.5115212
  42.1749773 125.8743354  31.1477459  43.5278060 125.2040632  31.2594101
  52.9193300 134.4507622  48.2813668  52.0320079 134.1133543  48.4040067
  53.4891851 133.7190653  48.5182433  39.3757169 125.6721910  46.0341743
  39.2915358 125.0647579  45.2992153  38.5539876 126.1630928  46.0351239
  49.5480883 124.1575473  41.4011938  50.0449583 123.4045436  41.0813008
  48.7767865 124.1939790  40.8355147  57.4010641 129.8615839  43.0430229
  57.3900517 130.7440554  42.6724162  56.5328020 129.5087390  42.8484766
  50.6310664 132.9147161  38.9750361  49.6966943 133.0348623  38.8055066
  50.8087332 132.0119627  38.7110371  46.1315852 126.2992856  41.1283622
  45.7613640 125.7463897  41.8164528  46.6274944 125.6950990  40.5758622
  54.0183215 128.7564480  39.5100395  54.4843667 129.5892472  39.4360698
  54.4690716 128.2909462  40.2145654  52.0859446 135.1008301  36.5086547
  52.3619290 134.9864896  37.4180421  51.2163945 134.7025786  36.4698721
  51.9899878 121.1245067  43.5491297  51.0762958 121.3549294  43.7173504
  52.4192979 121.2083511  44.4005329  51.7606337 129.3134959  46.0491191
  51.1077787 129.5610866  45.3943644  52.1386716 128.4999097  45.7153668
  47.8093910 130.0554770  52.5357228  47.1334547 129.9548899  53.2059603
  48.6321543 129.8993984  52.9993225  34.1490423 128.8632307  43.8774186
  34.1874523 128.3295897  44.6711304  33.6430716 128.3367512  43.2585163
  41.5281186 123.7096847  47.3736729  41.5922512 124.5711678  46.9614126
  41.4648306 123.0970849  46.6409087  41.0033458 125.7819980  51.0209763
  41.6305497 125.3997057  51.6347287  40.1461377 125.5634182  51.3865455
  37.7799001 127.5896409  36.9528118  38.0752442 126.6807087  36.8995171
  36.8787037 127.5684148  36.6309120  41.3093248 125.6652405  42.9355666
  40.5879834 126.2788373  42.7963140  42.0986504 126.2010170  42.8572312
  44.1119561 123.0006832  49.2096318  44.6353963 123.2469128  49.9722627
  43.8931895 123.8326867  48.7899455  39.5086843 125.2710507  37.0767443
  39.1799549 124.3907885  36.8942549  39.8626213 125.2158175  37.9643832
  42.6228666 125.5583476  37.4442920  42.9624738 126.0869398  36.7221529
  43.0700786 125.8963882  38.2201487  45.3172107 123.9420527  46.8945989
  44.9768927 123.1428340  47.2966668  44.6111113 124.2422238  46.3222822
  45.9688578 121.0269839  45.3473312  46.7914648 120.5530318  45.2252202
  46.2126642 121.8060323  45.8471998  44.6096813 124.0558098  35.6436213
  45.3305175 124.4339351  35.1399930  43.9862117 124.7746975  35.7471191
  48.7527936 124.7603247  36.5794546  48.9691550 125.6427885  36.2783374
  48.2722003 124.3689460  35.8500188  43.4927157 127.7188960  43.1565290
  43.3471738 128.0329263  44.0489572  43.0152361 128.3373860  42.6036189
  45.3523540 124.7091508  43.2046180  45.3385109 123.8132601  42.8678478
  46.0695968 124.7162172  43.8384466  47.2049671 125.1428848  45.2499307
  46.9467449 126.0645919  45.2483638  46.6734711 124.7459283  45.9399771
  44.7560436 123.5905888  38.4733750  44.8776347 122.6622535  38.6724637
  44.4662478 123.6044574  37.5612065  47.6251626 121.2760799  41.6100470
  47.6473323 121.3400132  40.6552449  48.0419685 120.4365307  41.8040976
  58.0035251 131.0116058  39.6479692  58.4466397 130.2623384  39.2498816
  57.1261761 131.0026195  39.2653424  38.7538841 129.3864201  48.9883108
  38.0120577 129.5346836  49.5747739  38.4331585 129.6472466  48.1249858
  55.0362455 135.0146105  36.6573622  55.5613779 135.3533378  35.9322942
  54.9484808 134.0793121  36.4736756  44.2401515 125.1037886  52.6823682
  44.2889671 125.9800009  52.3001452  44.7824030 124.5615279  52.1095326
  54.7256361 135.6479009  51.9624820  53.9351905 135.6303148  51.4229319
  54.4889716 136.1867303  52.7173856  54.8454236 132.4971475  49.2757548
  54.8952241 132.3321483  50.2173071  54.7368160 131.6298734  48.8855429
  52.1357999 128.4802403  50.5916855  53.0367861 128.3408868  50.3000853
  52.2105973 128.6456858  51.5315032  46.4700804 125.8569258  49.4370041
  45.6004113 126.1502824  49.1652630  46.7060284 126.4409703  50.1577305
  56.3472433 134.9168417  49.5199570  56.0557241 135.2798397  50.3563031
  55.7344564 134.2035425  49.3412902  57.5468115 132.4821297  42.0402140
  58.3815007 132.9211101  42.2039700  57.6827244 132.0059950  41.2210386
  54.5959621 130.0401032  47.9879628  55.0713743 130.2328678  47.1798479
  53.6725187 130.0960217  47.7423011  41.4843128 131.2025199  37.5710706
  41.2389170 130.2987529  37.7690916  41.6539042 131.2042349  36.6290184
  49.1739838 122.0748875  46.9535461  49.6921782 122.8109902  46.6281950
  48.8194970 122.3812868  47.7882221  40.7538775 126.9353556  35.0696867
  40.0608020 127.0097911  34.4136903  40.5090527 126.1713900  35.5918384
  49.4252432 118.4949158  42.4736358  49.7054186 117.8272347  43.0996785
  50.2103039 118.6878253  41.9611022  53.2961290 126.9166792  46.2207933
  54.2478713 127.0164889  46.2420157  53.1264741 126.1245060  46.7306018
  51.3175670 124.0022375  46.4067334  50.7225602 124.2827388  45.7113823
  51.0325366 124.4916276  47.1784075  55.7749368 130.1372911  45.3350233
  55.7425688 129.1988912  45.5209917  56.3849992 130.2156948  44.6016058
  47.6132699 129.0068964  31.3777437  48.5591804 128.8775172  31.4465855
  47.2346944 128.2683626  31.8546865  55.9243857 126.9283955  45.3808516
  55.4082905 126.1442411  45.1938445  56.8083805 126.6002671  45.5455035
  53.5854583 120.6724970  41.3404329  53.3879405 120.3640058  42.2247661
  54.1954289 121.3986609  41.4702259  61.5925918 131.1988918  44.4756270
  62.3229306 130.9374206  45.0363973  60.9832863 130.4617640  44.5158338
  59.6741215 129.3396781  45.0730721  58.9474379 129.2052746  44.4647212
  59.2588502 129.6473609  45.8787439  47.4971391 133.0586710  52.8378094
  48.4174401 133.2365309  53.0318140  47.4620974 132.1142756  52.6857793
  45.7975616 126.9318941  31.3132322  44.8907071 126.6352053  31.3895036
  46.0751597 126.6348759  30.4466608  36.7153556 128.2525304  41.7631368
  36.3956341 127.3990612  41.4705743  36.1686985 128.4673882  42.5189336
  47.4137682 121.4755830  37.4676563  46.6038410 121.1302915  37.8431809
  48.1022099 121.1663374  38.0564175  49.3428230 120.5533877  39.0900860
  49.8959269 120.9729331  39.7490883  49.5798316 119.6269625  39.1323816
  45.3661329 126.5420951  54.8703624  45.2658056 127.4915308  54.8015715
  45.1482871 126.2139190  53.9979694  44.5674401 123.7905876  31.4544301
  45.4293565 124.1160774  31.7140119  44.7524745 123.0037372  30.9417367
  52.7207037 122.6634402  38.5979524  52.1405706 123.3219206  38.2157577
  52.4542970 121.8411747  38.1866942  51.1710604 122.0639460  40.8000845
  51.6710382 122.1755995  39.9915163  51.8146211 121.7600513  41.4401653
  45.2292599 129.9718090  53.6868686  44.7459681 130.7718450  53.8932575
  45.3153538 129.9826035  52.7336130  51.5031915 124.8234493  37.6535873
  50.6157770 125.1084143  37.4356067  51.9185904 124.6628256  36.8063149
  54.8546451 124.8481014  41.3690212  55.6306841 125.3377466  41.6414829
  54.1294585 125.2739068  41.8262081  57.2919010 125.5608633  42.4264152
  57.8863501 125.3204369  41.7157461  57.3645594 124.8415763  43.0537689
  51.4772939 130.3389029  37.8686163  51.4208140 130.7957580  37.0293795
  52.0301281 129.5779713  37.6909005  55.2877745 126.1278761  38.6936282
  55.0314679 125.7275396  39.5244490  54.6630613 126.8422554  38.5686421
  59.5990083 128.8674834  41.2007574  59.0389641 128.9368023  41.9739136
  58.9933586 128.6915818  40.4807070  52.5561826 135.0261697  33.7982353
  53.3907430 134.5942895  33.6159827  52.3946169 134.8543710  34.7259247
  52.2107718 131.5293810  35.1638692  52.1556522 131.3638081  34.2227136
  51.5853773 132.2369843  35.3200882  37.0000233 126.7661874  48.9900114
  37.6459097 126.2560828  49.4787339  36.7917384 127.5030556  49.5643539
  49.5253625 133.8342722  54.4892255  50.3944785 134.0083374  54.1278890
  49.0460377 134.6537139  54.3667984  45.5203844 121.0301919  34.7424010
  45.5082513 121.9743759  34.8992281  46.4127266 120.8472064  34.4483471
  49.3355963 117.6244696  38.9969947  48.5688359 117.0703182  39.1426629
  49.7466668 117.6966564  39.8584099  41.3397724 123.9129491  53.0875128
  42.2029186 123.5566296  53.2978453  40.7663135 123.5743386  53.7750533
  63.6621217 136.9179609  46.3318324  63.3304542 137.7875020  46.1079539
  63.0666830 136.6015893  47.0112355  65.4211527 139.8391133  45.1889548
  64.7785907 140.1323667  44.5429343  64.9166455 139.7244054  45.9942745
  60.7604349 134.7649190  45.9489638  60.4168618 135.6550832  45.8728749
  61.1283311 134.5750848  45.0859223  59.8400889 137.1353845  43.9138871
  59.3365685 137.0983980  43.1006677  60.1331496 138.0446588  43.9735528
  56.0843775 137.2192575  42.9205053  56.9496772 137.0235384  42.5610943
  56.1521284 136.9902927  43.8474410  55.9928762 136.3236032  39.0196489
  55.3393174 136.0085049  38.3953104  55.9509236 135.7011772  39.7456312
  62.5592015 134.0242749  41.0507376  62.8650891 133.1640113  40.7633291
  63.2844619 134.6160369  40.8506370  62.8293633 136.4536985  43.5491297
  61.9156712 136.6841211  43.7173504  63.2586734 136.5375429  44.4005329
  56.8082333 136.3561757  45.3473312  57.6308402 135.8822235  45.2252202
  57.0520396 137.1352241  45.8471998  58.4645381 136.6052717  41.6100470
  58.4867078 136.6692050  40.6552449  58.8813440 135.7657225  41.8040976
  60.0133592 137.4040793  46.9535461  60.5315536 138.1401820  46.6281950
  59.6588725 137.7104786  47.7882221  60.2646186 133.8241075  42.4736358
  60.5447940 133.1564264  43.0996785  61.0496793 134.0170171  41.9611022
  64.4248338 136.0016888  41.3404329  64.2273159 135.6931976  42.2247661
  65.0348043 136.7278527  41.4702259  58.2531436 136.8047748  37.4676563
  57.4432165 136.4594833  37.8431809  58.9415853 136.4955292  38.0564175
  60.1821985 135.8825795  39.0900860  60.7353023 136.3021248  39.7490883
  60.4192071 134.9561543  39.1323816  63.5600792 137.9926320  38.5979524
  62.9799461 138.6511124  38.2157577  63.2936724 137.1703665  38.1866942
  62.0104358 137.3931378  40.8000845  62.5104136 137.5047912  39.9915163
  62.6539966 137.0892431  41.4401653  68.1312764 140.8900551  42.4264152
  68.7257255 140.6496287  41.7157461  68.2039348 140.1707681  43.0537689
  56.3597598 136.3593837  34.7424010  56.3476268 137.3035677  34.8992281
  57.2521020 136.1763982  34.4483471  60.1749718 132.9536613  38.9969947
  59.4082113 132.3995100  39.1426629  60.5860423 133.0258482  39.8584099
   1.9499806  33.6644707  33.1227632   2.1435696  34.5690517  33.3686907
   1.8500424  33.2052126  33.9566217   0.6485465  32.8574010  36.0002855
   0.6983470  32.6924017  36.9418377   0.5399388  31.9901269  35.6100735
   2.1503662  35.2770951  36.2444876   1.8588470  35.6400932  37.0808337
   1.5375793  34.5637959  36.0658208   6.9877330  45.9033882  30.6182836
   7.6255740  45.7840629  29.9146176   6.8698173  46.8514726  30.6770788
   3.7967036  45.8561310  30.5544361   3.4585548  45.7402375  29.6664896
   4.6656804  45.4552475  30.5345367   4.2786819  47.0096162  36.5130566
   4.2675460  46.6148960  35.6411070   4.4407459  46.2762234  37.1064338
   5.2353411  51.3767754  21.8555717   4.5841390  51.9621835  21.4689730
   6.0297773  51.9073949  21.9150754   0.9994080  49.7933274  35.4609750
   0.7083946  50.6978904  35.3456417   1.6351065  49.8349801  36.1753820
   1.9250287  47.1710122  32.0511110   2.5213859  46.9466144  31.3368073
   1.9825259  46.4294868  32.6536558   6.5418598  43.6285336  27.6936044
   7.3281688  43.2104759  27.3426461   6.8057303  44.5331428  27.8617692
  11.9427026  43.5660569  28.5969023  12.6752197  42.9959786  28.8306852
  11.1866381  43.1782169  29.0375528   3.5603145  45.9887810  25.7932365
   3.1961352  45.4618431  26.5045286   4.4170261  45.5986280  25.6198850
   9.4652446  37.2782143  33.0563631   9.1335771  38.1477554  32.8324846
   8.8698059  36.9618427  33.7357662   5.9583965  49.4794689  32.4559544
   5.6584689  50.3819728  32.3475351   5.6135025  49.2126872  33.3080697
   9.3581109  41.9977229  30.1356981   8.4497987  41.9292638  29.8415742
   9.3068705  42.4749174  30.9638807   3.4321975  43.4166875  38.0791878
   2.6555309  43.9760795  38.0694743   4.0712538  43.9023658  38.6006749
  11.2242756  40.1993668  31.9134855  10.5817136  40.4926201  31.2674650
  10.7197684  40.0846588  32.7188052   1.6868347  46.2252328  37.6409845
   2.4283032  46.7637372  37.3644669   0.9805333  46.8518617  37.7981397
   7.1623687  48.3681469  36.2382007   7.5707043  47.9263879  35.4936639
   6.4400948  47.7934096  36.4916200   3.5154757  43.3054075  33.6115564
   4.3615952  43.7293489  33.7550213   3.4553395  42.6487700  34.3054127
   7.4852502  48.9282659  29.9934296   6.8561364  49.0928373  29.2910364
   7.0978164  49.3424269  30.7645260  11.3641733  49.8637097  27.3478660
  10.6792772  50.2435999  26.7975693  11.4485583  50.4732424  28.0810607
   6.6654202  40.9658444  35.2696738   6.4215134  41.7200504  34.7331013
   6.9414133  41.3443791  36.1043985   8.6192665  47.5097056  33.9474003
   8.8309560  48.1528816  33.2708384   8.5722413  46.6759373  33.4795933
   6.2218894  40.1214877  30.8510575   5.3603373  40.4196130  31.1427313
   6.2481329  40.3385276  29.9191608   3.0380463  48.6657067  27.2584381
   3.5018809  48.9444770  26.4689003   2.7737262  47.7640512  27.0757472
   9.7338493  50.3869012  32.1196360  10.5555937  49.9849199  31.8379042
   9.7300896  50.2837246  33.0712476   3.4995096  49.9353055  34.2757071
   3.5639529  50.3973462  35.1115243   2.7906020  49.3050420  34.4039381
  17.8244486  46.7307760  28.4681332  17.0708194  46.1615158  28.3125336
  17.9592027  46.6970425  29.4151967   3.2143114  51.6021162  24.1436051
   3.0788789  52.4472698  24.5720899   3.7552927  51.8040440  23.3801985
   2.6178415  39.0970621  38.3970663   3.3588128  39.6977774  38.3175126
   2.8496338  38.3548259  37.8388706   4.8411591  52.2244729  38.2736393
   4.3975445  51.4381107  37.9557298   5.5028804  52.4123879  37.6080284
   6.9392829  52.5047529  36.3017795   6.9211304  53.3256410  35.8098064
   7.8612749  52.3801604  36.5267936   3.3965883  50.0191658  37.1441303
   3.9294220  49.2579946  36.9140611   2.8679964  49.7265310  37.8865457
   6.5635578  35.1251724  32.6734945   6.2199847  36.0153366  32.5974055
   6.9314540  34.9353382  31.8104530   5.6432118  37.4956379  30.6384178
   5.1396914  37.4586515  29.8251983   5.9362725  38.4049122  30.6980835
  11.5020135  47.8692690  23.1160553  10.7249577  47.5303850  22.6715715
  12.1811616  47.8745313  22.4415518   4.7618595  49.1477651  24.6560115
   4.2339957  48.4130410  24.3433352   4.2606098  49.9252327  24.4100083
   9.7411441  47.3426671  29.7727161   9.0835116  48.0325933  29.8607290
  10.5451841  47.7323103  30.1161148   8.5516900  45.6971044  27.8231103
   9.0648782  46.3301036  28.3252813   9.2018124  45.0972239  27.4574463
   5.8139275  55.6755368  20.5791774   5.1400973  55.9787065  21.1876732
   6.2005096  56.4784449  20.2297231   5.0297731  43.1720500  30.0689444
   4.1120292  43.3935447  29.9111132   5.4457875  43.2466810  29.2101151
   5.8132779  44.5711915  25.1992124   6.5604598  45.0833312  24.8899246
   6.0824368  44.2495968  26.0596517   9.3178696  50.6777045  25.9510246
   8.8641024  49.8367955  26.0075436   8.6872663  51.3138444  26.2885026
   8.2611616  41.6069031  27.1810913   7.5234373  41.0946418  27.5121156
   8.5138390  41.1669413  26.3694190   7.7611636  52.5153542  26.8860064
   8.0534610  53.0758599  26.1672429   8.2710256  52.8082103  27.6413223
   2.6344323  44.6799077  28.2828874   2.6892933  43.7272913  28.2071350
   1.8235525  44.8358516  28.7670172   2.7245261  53.2933893  27.9753517
   2.6821440  53.5194739  27.0462049   3.6407960  53.0597268  28.1239318
   6.1710895  43.7617961  34.8734146   6.5260282  43.9889434  35.7328612
   6.8183026  44.0936338  34.2511402  11.9008632  46.8836397  25.5783475
  11.7626530  47.0737993  24.6504665  11.5444850  47.6455779  26.0351526
  11.9278011  48.9512924  30.5894747  12.3614518  48.8588213  31.4377801
  12.6409592  48.9270424  29.9514763   5.6605906  52.5515018  32.1227847
   5.7142928  53.1205954  32.8905563   4.7920688  52.7216903  31.7581885
  12.7893561  48.9936624  33.1227632  12.9829451  49.8982435  33.3686907
  12.6894179  48.5344043  33.9566217   4.4429872  38.8794515  35.6217960
   3.7957787  39.5784465  35.5282436   5.2130887  39.3130659  35.9894208
   7.8508669  49.1443367  38.6968513   7.6994176  48.9153919  37.7798597
   7.8413349  50.1013968  38.7099858   4.6194006  46.7175280  33.6814779
   5.5486066  46.8686439  33.5083747   4.1985036  46.8059301  32.8263426
   3.4182338  50.7425944  31.4513317   3.2793423  50.3744729  32.3239255
   2.6296934  51.2573584  31.2797275   4.0130490  55.8435041  22.7938853
   4.1882245  55.3723084  23.6084476   3.3263278  56.4700807  23.0220114
   4.9687553  50.1207547  28.8402155   4.6337385  50.0808317  29.7359805
   4.4691499  49.4552263  28.3672565   1.5714097  45.2395136  33.8538415
   2.2813716  44.5988328  33.8125034   1.5283406  45.4908031  34.7764596
   9.5600876  52.1762490  36.7744995   9.5013422  51.4921710  36.1075578
   9.9620395  52.9181480  36.3225621   9.5618283  50.1402074  35.0058974
   8.6745062  49.8027995  35.1285373  10.1316834  49.4085105  35.2427740
   3.0919437  54.8003526  31.9720218   3.0189608  55.6058497  32.4839522
   2.6496830  54.9995492  31.1468239   2.8809216  54.0375296  25.4823039
   2.0976738  54.5796976  25.5761264   3.5801962  54.5549276  25.8817280
  14.0435624  45.5510291  29.7675536  14.0325500  46.4335006  29.3969469
  13.1753003  45.1981842  29.5730073   5.5518120  54.6990360  34.1278376
   6.2646093  55.3337825  34.0554278   5.0608149  54.7954226  33.3118378
   7.2735647  48.6041613  25.6995668   6.3391926  48.7243075  25.5300372
   7.4512316  47.7014079  25.4355678  10.6608199  44.4458932  26.2345702
  11.1268651  45.2786923  26.1606005  11.1115699  43.9803913  26.9390961
   8.7284430  50.7902753  23.2331854   9.0044274  50.6759348  24.1425728
   7.8588928  50.3920238  23.1944027   8.6324861  36.8139519  30.2736603
   7.7187941  37.0443746  30.4418810   9.0617963  36.8977963  31.1250636
   8.4031320  45.0029411  32.7736497   7.7502770  45.2505318  32.1188950
   8.7811700  44.1893549  32.4398975   5.3638494  55.0389104  26.8764668
   5.5460888  54.2210760  27.3392420   6.1871480  55.2556796  26.4389558
   5.6980659  53.9657289  24.1379716   6.2268426  53.4549744  23.5249878
   5.9608879  53.6499819  25.0025249   4.4518893  45.7449222  39.2602534
   3.7759530  45.6443351  39.9304910   5.2746527  45.5888436  39.7238532
   3.1941676  57.0516149  33.4960150   3.7459984  57.2147771  34.2609236
   3.5347869  57.6420587  32.8240175   8.0452550  51.8777407  39.3508805
   8.5892454  52.4907365  38.8563760   7.4639395  52.4356985  39.8675818
   6.3310063  54.9998125  30.4823833   6.2061202  54.1987865  29.9734778
   6.9889154  55.4944318  29.9937803   8.3944971  52.8007145  32.1103383
   7.4475307  52.6812496  32.0381709   8.7427744  51.9129643  32.1929644
   0.7544545  38.6901284  35.9341625   1.2778947  38.9363580  36.6967934
   0.5356878  39.5221319  35.5144762   5.3991405  52.5959861  28.3107735
   5.2516367  51.6676569  28.4915305   6.2244898  52.6179952  27.8264810
   9.0025527  53.4188420  29.3972608   9.9272074  53.2131281  29.2597059
   8.8340830  53.1704821  30.3061949   1.9597090  39.6314979  33.6191295
   1.6193910  38.8322792  34.0211975   1.2536096  39.9316690  33.0468128
   2.6113562  36.7164291  32.0718618   3.4339631  36.2424770  31.9497508
   2.8551625  37.4954775  32.5717304   1.9948523  40.3985960  29.9291486
   1.9810092  39.5027053  29.5923784   2.7120951  40.4056624  30.5629772
   3.8474654  40.8323300  31.9744614   3.5892432  41.7540371  31.9728944
   3.3159694  40.4353735  32.6645078   8.7920843  53.9374087  24.7534699
   8.9657720  53.3720510  24.0008552   9.2849734  54.7374982  24.5714189
  14.6460234  46.7010510  26.3724999  15.0891380  45.9517835  25.9744122
  13.7686744  46.6920647  25.9898731   9.7796015  53.2540852  21.8531597
  10.4746920  53.8747544  22.0718912  10.1219165  52.4036203  22.1283975
  11.6787438  50.7040557  23.3818928  12.2038762  51.0427830  22.6568248
  11.5909791  49.7687573  23.1982063   3.3407487  54.6174631  35.5108805
   3.6494613  54.3723778  36.3831504   4.1382969  54.8221269  35.0227675
   3.3628099  56.7712541  27.7414181   2.9233089  56.2788919  28.4347038
   4.1136216  56.2285508  27.5006257   0.8826499  40.7932338  39.4068989
   0.9314654  41.6694460  39.0246759   1.4249013  40.2509731  38.8340632
  11.3681344  51.3373461  38.6870126  10.5776888  51.3197600  38.1474626
  11.1314699  51.8761755  39.4419163  11.4879219  48.1865927  36.0002855
  11.5377224  48.0215935  36.9418377  11.3793143  47.3193186  35.6100735
   8.7782982  44.1696855  37.3162161   9.6792845  44.0303320  37.0246159
   8.8530956  44.3351310  38.2560339   3.1125787  41.5463710  36.1615348
   2.2429097  41.8397276  35.8897936   3.3485268  42.1304155  36.8822611
  12.9897416  50.6062869  36.2444876  12.6982225  50.9692849  37.0808337
  12.3769548  49.8929877  36.0658208  14.1893099  48.1715749  28.7647446
  15.0239990  48.6105553  28.9285007  14.3252227  47.6954402  27.9455692
  11.2384605  45.7295483  34.7124934  11.7138726  45.9223130  33.9043786
  10.3150170  45.7854669  34.4668318   5.8164821  37.7643327  33.6780768
   6.3346765  38.5004354  33.3527257   5.4619954  38.0707320  34.5127527
   9.9386274  42.6061244  32.9453240  10.8903696  42.7059341  32.9665464
   9.7689724  41.8139512  33.4551324   7.9600653  39.6916827  33.1312641
   7.3650585  39.9721839  32.4359129   7.6750350  40.1810728  33.9029382
   7.0908143  53.6439754  21.8915273   8.0238817  53.5785315  22.0948149
   7.0031356  54.4796020  21.4329806   9.7196160  52.9605624  18.8519221
   9.6409792  52.6265487  19.7454979  10.5405827  53.4527392  18.8510693
  12.4174351  45.8267363  32.0595539  12.3850671  44.8883364  32.2455223
  13.0274975  45.9051400  31.3261364  12.5668840  42.6178407  32.1053823
  12.0507888  41.8336863  31.9183752  13.4508788  42.2897123  32.2700342
  10.2279567  36.3619422  28.0649635  10.0304388  36.0534510  28.9492967
  10.8379272  37.0881061  28.1947565  18.2350901  46.8883370  31.2001576
  18.9654290  46.6268658  31.7609280  17.6257847  46.1512092  31.2403644
  16.3166198  45.0291233  31.7976027  15.5899362  44.8947198  31.1892519
  15.9013485  45.3368061  32.6032746   4.1396375  48.7481162  39.5623400
   5.0599384  48.9259761  39.7563447   4.1045958  47.8037208  39.4103100
   2.0086313  42.2315403  41.5948931   1.9083039  43.1809760  41.5261022
   1.7907855  41.9033642  40.7225001   1.8717583  45.6612542  40.4113992
   1.3884664  46.4612902  40.6177881   1.9578522  45.6720486  39.4581436
  11.4971435  40.5375466  28.0935518  12.2731825  41.0271918  28.3660135
  10.7719569  40.9633520  28.5507388  13.9343993  41.2503085  29.1509459
  14.5288484  41.0098821  28.4402767  14.0070577  40.5310215  29.7782995
   8.1197922  46.0283481  24.5931469   8.0633124  46.4852032  23.7539102
   8.6726265  45.2674165  24.4154312  11.9302728  41.8173212  25.4181589
  11.6739662  41.4169848  26.2489797  11.3055596  42.5317006  25.2931728
  16.2415066  44.5569286  27.9252880  15.6814624  44.6262475  28.6984442
  15.6358569  44.3810270  27.2052377   9.1986809  50.7156148  20.5227659
  10.0332413  50.2837347  20.3405134   9.0371152  50.5438162  21.4504554
   6.1678609  49.5237174  41.2137561   7.0369768  49.6977826  40.8524196
   5.6885360  50.3431590  41.0913291   2.0918391  55.3965261  29.5537074
   1.1414022  55.3967123  29.4401446   2.3950877  54.6497996  29.0373108
  17.8271084  61.2325800  30.6182836  18.4649494  61.1132547  29.9146176
  17.7091927  62.1806644  30.6770788  14.6360791  61.1853228  30.5544361
  14.2979302  61.0694292  29.6664896  15.5050559  60.7844393  30.5345367
  10.4947606  63.0388704  26.5441252   9.9312472  62.9478641  25.7757539
  10.3800001  62.2188609  27.0243744  15.1180574  62.3388079  36.5130566
  15.1069214  61.9440878  35.6411070  15.2801213  61.6054152  37.1064338
   8.0412038  64.5339896  29.3825472   8.8333330  64.1930720  28.9671771
   8.2808688  64.6434871  30.3027625  16.0747165  66.7059672  21.8555717
  15.4235145  67.2913752  21.4689730  16.8691528  67.2365867  21.9150754
  10.0002792  63.7948809  22.2542851  10.7733668  63.2477796  22.1155727
  10.3528191  64.6593058  22.4657312  11.8387835  65.1225191  35.4609750
  11.5477701  66.0270822  35.3456417  12.4744819  65.1641719  36.1753820
  12.7644042  62.5002040  32.0511110  13.3607614  62.2758062  31.3368073
  12.8219013  61.7586785  32.6536558  12.3369070  59.9541475  19.8861301
  12.5894591  59.4322996  19.1244764  11.3993629  59.7907621  19.9887984
  17.3812353  58.9577253  27.6936044  18.1675442  58.5396677  27.3426461
  17.6451057  59.8623346  27.8617692  17.5522430  64.3950104  22.3924701
  16.9168263  64.4684730  23.1045605  17.2219837  64.9843703  21.7143780
  22.7820780  58.8952487  28.5969023  23.5145952  58.3251703  28.8306852
  22.0260136  58.5074087  29.0375528  12.0565359  61.8569581  22.0885676
  11.9401617  61.1814484  22.7566760  12.1667619  61.3701955  21.2717829
  14.3996900  61.3179728  25.7932365  14.0355107  60.7910349  26.5045286
  15.2564016  60.9278197  25.6198850  20.3046200  52.6074061  33.0563631
  19.9729525  53.4769472  32.8324846  19.7091814  52.2910345  33.7357662
  14.0402387  56.3469628  20.7893714  14.2076789  57.2149864  21.1564185
  13.8499556  56.5096910  19.8655003  16.7977720  64.8086607  32.4559544
  16.4978443  65.7111646  32.3475351  16.4528779  64.5418790  33.3080697
  10.2490201  61.2600404  28.4896248   9.3240698  61.1276618  28.6973940
  10.4974615  62.0394623  28.9866191  20.1974864  57.3269147  30.1356981
  19.2891741  57.2584555  29.8415742  20.1462459  57.8041092  30.9638807
  14.0191608  58.8027285  21.7740380  13.8991233  59.2484336  22.6125861
  13.3244196  59.1512603  21.2153918   7.6099012  60.9033677  29.3240037
   7.7391394  61.1568156  30.2379449   6.9296464  61.4961385  29.0044692
  11.7798500  71.5730927  25.4230512  11.7022529  72.5238752  25.5018992
  11.1760143  71.2276800  26.0805438  14.2715729  58.7458793  38.0791878
  13.4949064  59.3052713  38.0694743  14.9106293  59.2315576  38.6006749
  22.0636510  55.5285585  31.9134855  21.4210890  55.8218118  31.2674650
  21.5591439  55.4138506  32.7188052  19.7176674  59.2748759  22.6020714
  20.6294530  59.5076145  22.4268412  19.2086321  59.8585803  22.0395793
  12.5262102  61.5544246  37.6409845  13.2676786  62.0929290  37.3644669
  11.8199087  62.1810535  37.7981397  18.0017441  63.6973386  36.2382007
  18.4100797  63.2555797  35.4936639  17.2794703  63.1226014  36.4916200
  14.3548511  58.6345993  33.6115564  15.2009707  59.0585407  33.7550213
  14.2947149  57.9779617  34.3054127  18.3246256  64.2574577  29.9934296
  17.6955119  64.4220291  29.2910364  17.9371918  64.6716187  30.7645260
  22.2035488  65.1929015  27.3478660  21.5186526  65.5727916  26.7975693
  22.2879337  65.8024341  28.0810607  17.5047957  56.2950361  35.2696738
  17.2608889  57.0492422  34.7331013  17.7807887  56.6735709  36.1043985
  19.4586420  62.8388974  33.9474003  19.6703315  63.4820734  33.2708384
  19.4116168  62.0051290  33.4795933  17.0612649  55.4506794  30.8510575
  16.1997128  55.7488048  31.1427313  17.0875083  55.6677193  29.9191608
  13.8774218  63.9948985  27.2584381  14.3412563  64.2736688  26.4689003
  13.6131016  63.0932430  27.0757472  10.7698299  63.5420467  30.1964144
  11.3399656  63.9707735  29.5581629  11.3606411  63.2603051  30.8948330
  12.8143104  60.1172137  24.0673946  13.5167147  60.5693181  24.5347872
  12.4823733  59.4755956  24.6953839  11.2623466  58.7083894  38.4425155
  10.6322126  59.3900175  38.6760552  11.1559553  58.5966976  37.4978294
   6.5568438  58.3755690  29.3691080   5.7667492  58.6313219  28.8931190
   7.0479685  59.1904028  29.4743120  20.5732248  65.7160929  32.1196360
  21.3949691  65.3141117  31.8379042  20.5694650  65.6129163  33.0712476
   8.5083183  58.7400269  26.3274556   7.7114347  58.8518964  26.8458052
   8.2808776  59.0786922  25.4615447  14.3388851  65.2644973  34.2757071
  14.4033283  65.7265380  35.1115243  13.6299775  64.6342337  34.4039381
   4.8406141  58.6286181  31.8006070   5.0914179  59.5133190  32.0663646
   5.3765689  58.4490782  31.0281162  28.6638241  62.0599678  28.4681332
  27.9101949  61.4907076  28.3125336  28.7985782  62.0262342  29.4151967
  14.0536869  66.9313080  24.1436051  13.9182543  67.7764616  24.5720899
  14.5946681  67.1332358  23.3801985  10.5404208  53.0104660  40.8050407
  10.1471154  52.4570858  41.4798051  11.3570349  53.3215238  41.1956924
   7.5066266  64.4488518  24.7163976   8.0190787  65.2431768  24.8669541
   8.1588979  63.7514809  24.6497578   9.3161151  67.5654274  26.7986730
   9.4927779  68.4872239  26.6107713  10.1117984  67.2512694  27.2281109
  13.4572169  54.4262539  38.3970663  14.1981883  55.0269692  38.3175126
  13.6890092  53.6840177  37.8388706   8.6013507  59.6118906  36.6748893
   8.4867022  58.7104163  36.9755992   7.7458025  59.8582603  36.3233709
  15.6805345  67.5536647  38.2736393  15.2369199  66.7673025  37.9557298
  16.3422559  67.7415797  37.6080284  10.4392466  69.0832448  32.7997072
  10.9899891  68.9549512  32.0274066   9.6003942  69.3827337  32.4491965
  17.7786583  67.8339446  36.3017795  17.7605058  68.6548328  35.8098064
  18.7006503  67.7093522  36.5267936  14.2359637  65.3483576  37.1441303
  14.7687974  64.5871864  36.9140611  13.7073718  65.0557228  37.8865457
  17.4029332  50.4543642  32.6734945  17.0593602  51.3445284  32.5974055
  17.7708295  50.2645300  31.8104530   5.4715183  62.7777172  25.4923547
   6.3090405  63.1874181  25.2757255   5.6493450  61.8376615  25.4623741
  17.3679615  60.4452253  21.1807380  16.8526238  61.2156858  21.4195767
  17.0956923  59.7717389  21.8040441  14.9526726  55.2901954  26.2392618
  14.0968322  54.9008804  26.0598257  15.3653678  55.3693915  25.3792404
  16.4825873  52.8248297  30.6384178  15.9790668  52.7878432  29.8251983
  16.7756479  53.7341040  30.6980835  12.7268758  52.9087027  29.6450360
  13.5921755  52.7129835  29.2856249  12.7946267  52.6797379  30.5719716
  22.3413889  63.1984608  23.1160553  21.5643332  62.8595767  22.6715715
  23.0205370  63.2037231  22.4415518  17.1565918  58.3179345  23.0067161
  16.8516054  58.6325494  23.8577304  18.1096360  58.3960765  23.0494494
  15.6012350  64.4769568  24.6560115  15.0733712  63.7422328  24.3433352
  15.0999853  65.2544245  24.4100083  20.5805196  62.6718589  29.7727161
  19.9228870  63.3617850  29.8607290  21.3845595  63.0615021  30.1161148
  10.3331078  55.1389235  27.0166727  10.9074829  54.9164416  26.2839920
  10.9202060  55.2077929  27.7695328  19.3910655  61.0262962  27.8231103
  19.9042537  61.6592953  28.3252813  20.0411879  60.4264157  27.4574463
  10.6600665  57.1693696  21.0362612   9.8237977  57.5068382  21.3571887
  10.5205434  57.0342676  20.0989749  12.6353745  52.0130484  25.7441796
  11.9818158  51.6979501  25.1198411  12.5934219  51.3906224  26.4701619
  13.7464950  62.2949779  17.6595088  12.8392012  62.0639032  17.8586237
  14.2435982  61.4987398  17.8469070  16.6533029  71.0047286  20.5791774
  15.9794728  71.3078983  21.1876732  17.0398851  71.8076366  20.2297231
  15.8691486  58.5012417  30.0689444  14.9514047  58.7227364  29.9111132
  16.2851629  58.5758728  29.2101151  16.6526533  59.9003833  25.1992124
  17.3998352  60.4125230  24.8899246  16.9218123  59.5787886  26.0596517
  14.9253184  62.3962374  22.1819078  14.0164403  62.1121406  22.2791548
  14.9548267  62.8161452  21.3222385  20.1572451  66.0068963  25.9510246
  19.7034778  65.1659873  26.0075436  19.5266418  66.6430361  26.2885026
  19.1005371  56.9360949  27.1810913  18.3628127  56.4238335  27.5121156
  19.3532144  56.4961331  26.3694190  18.6005390  67.8445460  26.8860064
  18.8928365  68.4050517  26.1672429  19.1104011  68.1374021  27.6413223
  19.2016998  49.7137201  27.7752682  19.5075875  48.8534565  27.4878598
  19.9269603  50.3054821  27.5751676   5.4941354  60.1167888  26.1634280
   5.2965754  59.5237248  25.4385347   4.9388018  59.8120098  26.8810219
  13.4738078  60.0090994  28.2828874  13.5286687  59.0564831  28.2071350
  12.6629280  60.1650433  28.7670172  14.6229271  63.9371117  19.5207157
  14.1848701  63.2206976  19.0612794  15.3639712  64.1647232  18.9592248
  11.4130438  58.6268054  26.0419252  10.5998303  58.9262224  26.4484445
  11.9089432  58.2323743  26.7593735  13.5639015  68.6225811  27.9753517
  13.5215194  68.8486657  27.0462049  14.4801714  68.3889185  28.1239318
  17.0104649  59.0909878  34.8734146  17.3654037  59.3181352  35.7328612
  17.6576780  59.4228255  34.2511402  22.7402386  62.2128314  25.5783475
  22.6020285  62.4029910  24.6504665  22.3838605  62.9747697  26.0351526
  10.9044512  56.1986409  31.6580487  11.5443892  56.0575169  30.9603451
  10.0722043  55.9120923  31.2819089  22.7671766  64.2804841  30.5894747
  23.2008272  64.1880130  31.4377801  23.4803346  64.2562342  29.9514763
  11.6804816  65.4988840  27.7715480  12.4745415  65.0039160  27.5698055
  10.9696509  64.9706703  27.4083185  16.4999661  67.8806935  32.1227847
  16.5536683  68.4497872  32.8905563  15.6314442  68.0508820  31.7581885
   7.9887580  59.6431922  23.8475232   7.0585168  59.5816377  24.0645195
   8.0845052  59.1207874  23.0511874   7.9073129  56.1686734  26.4353474
   8.1679946  57.0832068  26.3262635   8.7290301  55.7011177  26.5850087
   9.3798054  57.5824492  33.6052299  10.0521107  57.3741854  32.9564948
   8.5527841  57.3846578  33.1657531  23.6287315  64.3228542  33.1227632
  23.8223205  65.2274352  33.3686907  23.5287933  63.8635961  33.9566217
  15.2823626  54.2086433  35.6217960  14.6351541  54.9076382  35.5282436
  16.0524641  54.6422576  35.9894208  18.6902424  64.4735285  38.6968513
  18.5387930  64.2445836  37.7798597  18.6807103  65.4305886  38.7099858
  15.4587760  62.0467197  33.6814779  16.3879820  62.1978357  33.5083747
  15.0378790  62.1351218  32.8263426  14.2576092  66.0717862  31.4513317
  14.1187178  65.7036646  32.3239255  13.4690688  66.5865501  31.2797275
  14.8524244  71.1726958  22.7938853  15.0276000  70.7015002  23.6084476
  14.1657032  71.7992725  23.0220114  15.8081307  65.4499465  28.8402155
  15.4731140  65.4100235  29.7359805  15.3085253  64.7844180  28.3672565
   9.7825551  60.8567095  34.3654736   9.6445349  60.1247333  34.9666275
  10.6930475  60.7675995  34.0838924  18.7440499  62.7955499  19.1139214
  18.1269670  62.0702327  19.0172267  18.2756987  63.5564859  18.7706289
  12.4107852  60.5687054  33.8538415  13.1207470  59.9280246  33.8125034
  12.3677160  60.8199949  34.7764596  20.3994631  67.5054407  36.7744995
  20.3407177  66.8213627  36.1075578  20.8014149  68.2473397  36.3225621
  11.1236786  57.5552272  35.6734055  10.5874143  57.1043010  36.3255651
  10.5353494  57.6898181  34.9304519   9.4185329  74.3216321  29.5678714
   9.6581928  74.9534845  30.2457732   8.5754526  73.9704361  29.8544073
  10.5339045  57.0140923  18.2360519   9.6568511  56.8929724  17.8722765
  11.0096798  56.2227002  17.9839407  20.4012038  65.4693991  35.0058974
  19.5138817  65.1319913  35.1285373  20.9710589  64.7377022  35.2427740
   2.0541185  61.8018083  28.3302026   2.7412225  61.4879813  27.7423041
   1.8989314  62.7059448  28.0569277   6.8575907  56.6908279  32.7587049
   6.7734096  56.0833949  32.0237459   6.0358614  57.1817298  32.7596546
  13.9313191  70.1295444  31.9720218  13.8583363  70.9350415  32.4839522
  13.4890584  70.3287409  31.1468239  13.7202971  69.3667214  25.4823039
  12.9370493  69.9088894  25.5761264  14.4195716  69.8841193  25.8817280
  17.0299621  55.1761843  28.1257244  17.5268321  54.4231805  27.8058315
  16.2586603  55.2126160  27.5600454  24.8829378  60.8802209  29.7675536
  24.8719255  61.7626924  29.3969469  24.0146758  60.5273759  29.5730073
  16.3911875  70.0282278  34.1278376  17.1039847  70.6629742  34.0554278
  15.9001903  70.1246144  33.3118378  18.1129402  63.9333530  25.6995668
  17.1785680  64.0534993  25.5300372  18.2906070  63.0305997  25.4355678
  13.6134590  57.3179226  27.8528929  13.2432377  56.7650266  28.5409835
  14.1093682  56.7137359  27.3003929  21.5001953  59.7750850  26.2345702
  21.9662405  60.6078841  26.1606005  21.9509454  59.3095831  26.9390961
  11.4423788  67.7776721  34.9483947  12.1433248  68.4113204  35.1013341
  10.9718903  68.1191453  34.1879586  19.5678184  66.1194671  23.2331854
  19.8438028  66.0051265  24.1425728  18.6982683  65.7212156  23.1944027
  19.4718616  52.1431437  30.2736603  18.5581696  52.3735663  30.4418810
  19.9011717  52.2269881  31.1250636  19.2425074  60.3321328  32.7736497
  18.5896525  60.5797236  32.1188950  19.6205454  59.5185467  32.4398975
  16.2032248  70.3681022  26.8764668  16.3854643  69.5502678  27.3392420
  17.0265234  70.5848714  26.4389558  16.5374414  69.2949207  24.1379716
  17.0662180  68.7841661  23.5249878  16.8002633  68.9791737  25.0025249
  15.2912647  61.0741140  39.2602534  14.6153284  60.9735269  39.9304910
  16.1140281  60.9180353  39.7238532   7.0391506  67.3113076  31.8815050
   7.6244943  66.5656764  32.0142954   6.8416345  67.6217033  32.7651714
   9.8930162  70.3464323  26.8977492   9.2240537  70.8310451  26.4141532
   9.7543031  70.5933544  27.8120871   1.6309161  59.8818676  30.6019493
   1.6693261  59.3482267  31.3956611   1.1249454  59.3553882  29.9830470
  14.0335430  72.3808067  33.4960150  14.5853738  72.5439688  34.2609236
  14.3741624  72.9712505  32.8240175   9.0099923  54.7283217  34.0982035
   9.0741250  55.5898048  33.6859433   8.9467044  54.1157218  33.3654394
   8.4852196  56.8006349  37.7455069   9.1124235  56.4183427  38.3592594
   7.6280115  56.5820551  38.1110762  18.8846305  67.2069325  39.3508805
  19.4286209  67.8199283  38.8563760  18.3033149  67.7648903  39.8675818
   5.2617739  58.6082778  23.6773424   5.5571180  57.6993457  23.6240478
   4.3605774  58.5870518  23.3554427  17.1703817  70.3290043  30.4823833
  17.0454957  69.5279782  29.9734778  17.8282909  70.8236236  29.9937803
   8.7911986  56.6838775  29.6600973   8.0698571  57.2974743  29.5208446
   9.5805241  57.2196540  29.5817619  19.2338726  68.1299063  32.1103383
  18.2869061  68.0104414  32.0381709  19.5821499  67.2421561  32.1929644
  11.5938299  54.0193202  35.9341625  12.1172701  54.2655498  36.6967934
  11.3750633  54.8513236  35.5144762   6.9905580  56.2896876  23.8012749
   6.6618286  55.4094255  23.6187855   7.3444951  56.2344545  24.6889139
  16.2385159  67.9251779  28.3107735  16.0910122  66.9968486  28.4915305
  17.0638653  67.9471870  27.8264810  10.1047403  56.5769846  24.1688227
  10.4443476  57.1055767  23.4466835  10.5519524  56.9150252  24.9446794
  19.8419281  68.7480338  29.3972608  20.7665828  68.5423199  29.2597059
  19.6734584  68.4996739  30.3061949  12.7990844  54.9606897  33.6191295
  12.4587665  54.1614710  34.0211975  12.0929851  55.2608607  33.0468128
  13.4507316  52.0456209  32.0718618  14.2733385  51.5716687  31.9497508
  13.6945380  52.8246693  32.5717304  12.0915551  55.0744467  22.3681520
  12.8123913  55.4525720  21.8645237  11.4680855  55.7933344  22.4716498
  16.2346673  55.7789616  23.3039852  16.4510288  56.6614254  23.0028680
  15.7540741  55.3875830  22.5745494  10.9745895  58.7375330  29.8810597
  10.8290476  59.0515633  30.7734878  10.4971098  59.3560230  29.3281495
  12.8342278  55.7277878  29.9291486  12.8203847  54.8318971  29.5923784
  13.5514706  55.7348541  30.5629772  14.6868408  56.1615218  31.9744614
  14.4286186  57.0832289  31.9728944  14.1553449  55.7645652  32.6645078
  19.6314597  69.2666005  24.7534699  19.8051475  68.7012427  24.0008552
  20.1243488  70.0666900  24.5714189   5.4491557  61.2780674  32.8198258
   4.9045025  62.0540482  32.9518532   6.3270907  61.6251479  32.6617379
  12.2379174  54.6092258  25.1979056  12.3595085  53.6808904  25.3969944
  11.9481216  54.6230944  24.2857372  15.1070364  52.2947168  28.3345776
  15.1292061  52.3586501  27.3797756  15.5238423  51.4551677  28.5286282
  25.4853988  62.0302428  26.3724999  25.9285134  61.2809753  25.9744122
  24.6080499  62.0212564  25.9898731  20.6189770  68.5832769  21.8531597
  21.3140674  69.2039462  22.0718912  20.9612920  67.7328121  22.1283975
   6.2357579  60.4050570  35.7128415   5.4939315  60.5533206  36.2993045
   5.9150323  60.6658836  34.8495164  22.5181193  66.0332475  23.3818928
  23.0432517  66.3719748  22.6568248  22.4303545  65.0979490  23.1982063
  14.1801242  69.9466549  35.5108805  14.4888368  69.7015695  36.3831504
  14.9776724  70.1513187  35.0227675  14.2021854  72.1004458  27.7414181
  13.7626844  71.6080837  28.4347038  14.9529971  71.5577426  27.5006257
   6.6814193  68.2915999  27.7438809   7.5072212  67.9919771  27.3637453
   6.3308245  67.5223622  28.1928598  11.6495726  67.6442467  29.8136483
  11.0275735  66.9813172  29.5138711  12.3200593  67.6703599  29.1310131
   4.8822798  66.2102326  28.7027743   4.0454706  65.7824500  28.5211744
   4.8546443  66.4034769  29.6398534  11.7220253  56.1224255  39.4068989
  11.7708409  56.9986378  39.0246759  12.2642767  55.5801648  38.8340632
  22.2075099  66.6665379  38.6870126  21.4170643  66.6489517  38.1474626
  21.9708453  67.2053672  39.4419163  22.3272974  63.5157845  36.0002855
  22.3770979  63.3507852  36.9418377  22.2186897  62.6485104  35.6100735
  11.2109233  66.1946391  23.2894944  11.3597353  66.8781855  22.6361616
  12.0175676  66.1751481  23.8044399  19.6176736  59.4988773  37.3162161
  20.5186599  59.3595238  37.0246159  19.6924711  59.6643228  38.2560339
  13.9519542  56.8755628  36.1615348  13.0822851  57.1689194  35.8897936
  14.1879022  57.4596073  36.8822611  23.8291171  65.9354786  36.2444876
  23.5375979  66.2984767  37.0808337  23.2163302  65.2221795  36.0658208
  25.0286853  63.5007666  28.7647446  25.8633744  63.9397470  28.9285007
  25.1645982  63.0246319  27.9455692  22.0778359  61.0587401  34.7124934
  22.5532481  61.2515047  33.9043786  21.1543924  61.1146587  34.4668318
   8.9661866  62.2211568  24.2956013   8.7207908  61.3173898  24.4936223
   9.1357780  62.2228719  23.3535491  16.6558576  53.0935245  33.6780768
  17.1740519  53.8296272  33.3527257  16.3013708  53.3999238  34.5127527
   8.2357513  57.9539926  21.7942174   7.5426758  58.0284281  21.1382210
   7.9909265  57.1900269  22.3163691  16.9071170  49.5135527  29.1981665
  17.1872923  48.8458716  29.8242091  17.6921777  49.7064623  28.6856329
  14.7104638  68.6894521  20.7606691  14.1378605  69.3084708  20.3077163
  15.2837432  69.2393883  21.2946613  20.7780028  57.9353161  32.9453240
  21.7297451  58.0351259  32.9665464  20.6083478  57.1431430  33.4551324
  18.7994407  55.0208744  33.1312641  18.2044340  55.3013757  32.4359129
  18.5144104  55.5102645  33.9029382  17.9301898  68.9731671  21.8915273
  18.8632571  68.9077233  22.0948149  17.8425111  69.8087938  21.4329806
  20.5589915  68.2897542  18.8519221  20.4803546  67.9557405  19.7454979
  21.3799581  68.7819309  18.8510693  23.2568106  61.1559281  32.0595539
  23.2244426  60.2175282  32.2455223  23.8668729  61.2343318  31.3261364
  15.0951437  60.0255334  18.1022744  16.0410541  59.8961542  18.1711162
  14.7165682  59.2869996  18.5792172  23.4062594  57.9470324  32.1053823
  22.8901643  57.1628781  31.9183752  24.2902543  57.6189041  32.2700342
  21.0673321  51.6911340  28.0649635  20.8698142  51.3826428  28.9492967
  21.6773027  52.4172979  28.1947565  29.0744656  62.2175288  31.2001576
  29.8048044  61.9560576  31.7609280  28.4651601  61.4804010  31.2403644
  27.1559953  60.3583150  31.7976027  26.4293116  60.2239115  31.1892519
  26.7407240  60.6659979  32.6032746  14.9790129  64.0773080  39.5623400
  15.8993139  64.2551679  39.7563447  14.9439712  63.1329125  39.4103100
  13.2794354  57.9505310  18.0377629  12.3725809  57.6538423  18.1140342
  13.5570335  57.6535128  17.1711915   4.1972294  59.2711674  28.4876675
   3.8775079  58.4176982  28.1951049   3.6505722  59.4860252  29.2434642
   7.9752202  61.9874115  32.2046182   8.1938212  62.9191222  32.2234215
   8.3877976  61.6282089  32.9900985  14.8956420  52.4942200  24.1921870
  14.0857148  52.1489285  24.5677116  15.5840836  52.1849744  24.7809482
  16.8246968  51.5720247  25.8146167  17.3778006  51.9915700  26.4736190
  17.0617054  50.6455995  25.8569123  12.8480067  57.5607320  41.5948931
  12.7476794  58.5101677  41.5261022  12.6301609  57.2325559  40.7225001
  12.0493138  54.8092245  18.1789608  12.9112302  55.1347144  18.4385425
  12.2343483  54.0223741  17.6662674   4.0660554  62.8914585  30.4569797
   3.3724026  62.4768538  29.9439751   4.8133545  62.9335122  29.8603216
  20.2025775  53.6820772  25.3224831  19.6224444  54.3405576  24.9402883
  19.9361708  52.8598117  24.9112248  18.6529341  53.0825830  27.5246151
  19.1529120  53.1942364  26.7160470  19.2964949  52.7786882  28.1646960
  12.7111337  60.9904459  40.4113992  12.2278419  61.7904819  40.6177881
  12.7972276  61.0012404  39.4581436   5.9797297  62.8232839  28.3335812
   5.9567985  62.9220526  27.3817695   6.2897933  63.6697990  28.6552978
   8.6384675  64.8808994  32.4482426   9.5927928  64.8492936  32.3812358
   8.4397198  64.4199618  33.2632652   9.2284057  63.4510110  35.0153224
  10.0476946  63.9454189  35.0388061   9.5020864  62.5342078  34.9870791
  18.9850653  55.8420862  24.3781179  18.0976508  56.1270513  24.1601374
  19.4004642  55.6814626  23.5308456  22.3365189  55.8667383  28.0935518
  23.1125579  56.3563836  28.3660135  21.6113323  56.2925437  28.5507388
  24.7737748  56.5795002  29.1509459  25.3682239  56.3390738  28.4402767
  24.8464331  55.8602133  29.7782995   6.9934903  70.4228613  29.4652624
   6.8589371  69.6629014  28.8990622   6.5766966  71.1469513  28.9981413
  18.1293866  65.6065537  18.4729199  18.8329717  65.8115539  19.0886855
  17.4056515  66.1742299  18.7378283  18.9591677  61.3575398  24.5931469
  18.9026878  61.8143950  23.7539102  19.5120019  60.5966083  24.4154312
  22.7696483  57.1465130  25.4181589  22.5133417  56.7461766  26.2489797
  22.1449351  57.8608924  25.2931728  27.0808820  59.8861203  27.9252880
  26.5208378  59.9554393  28.6984442  26.4752324  59.7102188  27.2052377
  10.1504029  71.3197930  29.6771067  10.0336413  72.2643363  29.5749757
   9.3296476  71.0171492  30.0656866  20.0380564  66.0448066  20.5227659
  20.8726168  65.6129265  20.3405134  19.8764907  65.8730080  21.4504554
  19.6926456  62.5480179  21.8883999  19.6375260  62.3824451  20.9472443
  19.0672511  63.2556212  22.0446188   4.4818971  57.7848244  35.7145421
   5.1277835  57.2747198  36.2032646   4.2736122  58.5216925  36.2888846
  17.0072363  64.8529091  41.2137561  17.8763523  65.0269744  40.8524196
  16.5279115  65.6723508  41.0913291  13.0022581  52.0488288  21.4669317
  12.9901251  52.9930128  21.6237588  13.8946003  51.8658434  21.1728778
  11.1758543  71.9726192  32.8926995  12.0785790  72.0049803  33.2093490
  10.9495913  71.0426643  32.9073331  12.9312145  70.7257179  29.5537074
  11.9807776  70.7259040  29.4401446  13.2344632  69.9789913  29.0373108
  16.8174701  48.6431065  25.7215254  16.0507097  48.0889552  25.8671936
  17.2285406  48.7152934  26.5829405   8.8216462  54.9315861  39.8120435
   9.6847924  54.5752666  40.0223760   8.2481873  54.5929756  40.4995839
  28.6664839  76.5617717  30.6182836  29.3043249  76.4424465  29.9146176
  28.5485682  77.5098561  30.6770788  25.4754545  76.5145145  30.5544361
  25.1373057  76.3986210  29.6664896  26.3444313  76.1136310  30.5345367
  21.3341361  78.3680622  26.5441252  20.7706226  78.2770559  25.7757539
  21.2193756  77.5480526  27.0243744  25.9574328  77.6679997  36.5130566
  25.9462969  77.2732795  35.6411070  26.1194968  76.9346070  37.1064338
  18.8805793  79.8631813  29.3825472  19.6727085  79.5222638  28.9671771
  19.1202443  79.9726788  30.3027625  26.9140920  82.0351589  21.8555717
  26.2628899  82.6205670  21.4689730  27.7085282  82.5657784  21.9150754
  20.8396547  79.1240727  22.2542851  21.6127423  78.5769714  22.1155727
  21.1921946  79.9884976  22.4657312  22.6781589  80.4517109  35.4609750
  22.3871455  81.3562740  35.3456417  23.3138574  80.4933637  36.1753820
  23.6037796  77.8293957  32.0511110  24.2001368  77.6049980  31.3368073
  23.6612768  77.0878703  32.6536558  23.1762825  75.2833393  19.8861301
  23.4288345  74.7614914  19.1244764  22.2387384  75.1199538  19.9887984
  28.2206107  74.2869171  27.6936044  29.0069197  73.8688594  27.3426461
  28.4844812  75.1915263  27.8617692  28.3916185  79.7242021  22.3924701
  27.7562018  79.7976648  23.1045605  28.0613591  80.3135620  21.7143780
  33.6214535  74.2244404  28.5969023  34.3539706  73.6543621  28.8306852
  32.8653890  73.8366005  29.0375528  22.8959113  77.1861499  22.0885676
  22.7795371  76.5106402  22.7566760  23.0061373  76.6993873  21.2717829
  25.2390654  76.6471646  25.7932365  24.8748861  76.1202267  26.5045286
  26.0957770  76.2570115  25.6198850  31.1439955  67.9365978  33.0563631
  30.8123280  68.8061389  32.8324846  30.5485568  67.6202262  33.7357662
  24.8796141  71.6761546  20.7893714  25.0470544  72.5441782  21.1564185
  24.6893310  71.8388827  19.8655003  27.6371474  80.1378524  32.4559544
  27.3372197  81.0403563  32.3475351  27.2922534  79.8710708  33.3080697
  21.0883956  76.5892321  28.4896248  20.1634452  76.4568535  28.6973940
  21.3368369  77.3686541  28.9866191  31.0368618  72.6561065  30.1356981
  30.1285496  72.5876473  29.8415742  30.9856214  73.1333010  30.9638807
  24.8585362  74.1319203  21.7740380  24.7384987  74.5776254  22.6125861
  24.1637950  74.4804521  21.2153918  18.4492767  76.2325595  29.3240037
  18.5785148  76.4860074  30.2379449  17.7690218  76.8253303  29.0044692
  22.6192254  86.9022845  25.4230512  22.5416284  87.8530670  25.5018992
  22.0153898  86.5568717  26.0805438  25.1109484  74.0750710  38.0791878
  24.3342818  74.6344630  38.0694743  25.7500047  74.5607493  38.6006749
  32.9030265  70.8577503  31.9134855  32.2604645  71.1510036  31.2674650
  32.3985193  70.7430423  32.7188052  30.5570428  74.6040676  22.6020714
  31.4688284  74.8368063  22.4268412  30.0480075  75.1877720  22.0395793
  23.3655856  76.8836164  37.6409845  24.1070541  77.4221208  37.3644669
  22.6592842  77.5102452  37.7981397  28.8411196  79.0265304  36.2382007
  29.2494552  78.5847715  35.4936639  28.1188457  78.4517932  36.4916200
  25.1942266  73.9637911  33.6115564  26.0403461  74.3877324  33.7550213
  25.1340904  73.3071535  34.3054127  29.1640011  79.5866495  29.9934296
  28.5348873  79.7512209  29.2910364  28.7765673  80.0008104  30.7645260
  33.0429242  80.5220932  27.3478660  32.3580281  80.9019834  26.7975693
  33.1273092  81.1316259  28.0810607  28.3441711  71.6242279  35.2696738
  28.1002643  72.3784340  34.7331013  28.6201642  72.0027627  36.1043985
  30.2980174  78.1680892  33.9474003  30.5097069  78.8112651  33.2708384
  30.2509922  77.3343208  33.4795933  27.9006403  70.7798712  30.8510575
  27.0390882  71.0779966  31.1427313  27.9268838  70.9969111  29.9191608
  24.7167972  79.3240903  27.2584381  25.1806318  79.6028606  26.4689003
  24.4524771  78.4224347  27.0757472  21.6092054  78.8712384  30.1964144
  22.1793411  79.2999653  29.5581629  22.2000165  78.5894969  30.8948330
  23.6536859  75.4464055  24.0673946  24.3560902  75.8985099  24.5347872
  23.3217487  74.8047874  24.6953839  22.1017220  74.0375812  38.4425155
  21.4715881  74.7192093  38.6760552  21.9953308  73.9258893  37.4978294
  17.3962192  73.7047608  29.3691080  16.6061246  73.9605136  28.8931190
  17.8873440  74.5195946  29.4743120  31.4126002  81.0452847  32.1196360
  32.2343446  80.6433034  31.8379042  31.4088405  80.9421081  33.0712476
  19.3476938  74.0692187  26.3274556  18.5508101  74.1810881  26.8458052
  19.1202530  74.4078839  25.4615447  25.1782605  80.5936890  34.2757071
  25.2427038  81.0557297  35.1115243  24.4693529  79.9634255  34.4039381
  15.6799895  73.9578098  31.8006070  15.9307934  74.8425108  32.0663646
  16.2159444  73.7782700  31.0281162  39.5031995  77.3891595  28.4681332
  38.7495703  76.8198993  28.3125336  39.6379536  77.3554260  29.4151967
  24.8930623  82.2604998  24.1436051  24.7576298  83.1056533  24.5720899
  25.4340436  82.4624275  23.3801985  21.3797963  68.3396578  40.8050407
  20.9864908  67.7862776  41.4798051  22.1964103  68.6507156  41.1956924
  18.3460021  79.7780436  24.7163976  18.8584541  80.5723686  24.8669541
  18.9982733  79.0806726  24.6497578  20.1554905  82.8946192  26.7986730
  20.3321534  83.8164157  26.6107713  20.9511739  82.5804611  27.2281109
  24.2965924  69.7554457  38.3970663  25.0375637  70.3561610  38.3175126
  24.5283847  69.0132094  37.8388706  19.4407262  74.9410824  36.6748893
  19.3260777  74.0396081  36.9755992  18.5851780  75.1874521  36.3233709
  26.5199099  82.8828564  38.2736393  26.0762954  82.0964943  37.9557298
  27.1816313  83.0707715  37.6080284  21.2786221  84.4124366  32.7997072
  21.8293646  84.2841429  32.0274066  20.4397697  84.7119255  32.4491965
  28.6180338  83.1631364  36.3017795  28.5998813  83.9840245  35.8098064
  29.5400258  83.0385439  36.5267936  25.0753392  80.6775494  37.1441303
  25.6081729  79.9163782  36.9140611  24.5467473  80.3849145  37.8865457
  28.2423087  65.7835560  32.6734945  27.8987356  66.6737201  32.5974055
  28.6102049  65.5937217  31.8104530  16.3108937  78.1069090  25.4923547
  17.1484159  78.5166098  25.2757255  16.4887205  77.1668532  25.4623741
  28.2073369  75.7744171  21.1807380  27.6919993  76.5448775  21.4195767
  27.9350678  75.1009307  21.8040441  25.7920480  70.6193871  26.2392618
  24.9362077  70.2300722  26.0598257  26.2047432  70.6985832  25.3792404
  27.3219627  68.1540215  30.6384178  26.8184423  68.1170350  29.8251983
  27.6150234  69.0632957  30.6980835  23.5662513  68.2378944  29.6450360
  24.4315510  68.0421753  29.2856249  23.6340022  68.0089296  30.5719716
  33.1807644  78.5276525  23.1160553  32.4037086  78.1887685  22.6715715
  33.8599125  78.5329149  22.4415518  27.9959673  73.6471263  23.0067161
  27.6909808  73.9617412  23.8577304  28.9490115  73.7252683  23.0494494
  26.4406104  79.8061486  24.6560115  25.9127466  79.0714246  24.3433352
  25.9393607  80.5836162  24.4100083  31.4198950  78.0010507  29.7727161
  30.7622625  78.6909768  29.8607290  32.2239350  78.3906939  30.1161148
  21.1724832  70.4681152  27.0166727  21.7468584  70.2456334  26.2839920
  21.7595814  70.5369847  27.7695328  30.2304409  76.3554879  27.8231103
  30.7436291  76.9884871  28.3252813  30.8805633  75.7556075  27.4574463
  21.4994419  72.4985613  21.0362612  20.6631731  72.8360300  21.3571887
  21.3599189  72.3634593  20.0989749  23.4747500  67.3422401  25.7441796
  22.8211912  67.0271418  25.1198411  23.4327974  66.7198142  26.4701619
  24.5858705  77.6241696  17.6595088  23.6785766  77.3930950  17.8586237
  25.0829737  76.8279316  17.8469070  27.4926783  86.3339204  20.5791774
  26.8188482  86.6370900  21.1876732  27.8792605  87.1368284  20.2297231
  26.7085240  73.8304335  30.0689444  25.7907801  74.0519282  29.9111132
  27.1245384  73.9050645  29.2101151  27.4920288  75.2295751  25.1992124
  28.2392107  75.7417148  24.8899246  27.7611877  74.9079803  26.0596517
  25.7646938  77.7254291  22.1819078  24.8558157  77.4413324  22.2791548
  25.7942022  78.1453370  21.3222385  30.9966205  81.3360881  25.9510246
  30.5428533  80.4951791  26.0075436  30.3660172  81.9722279  26.2885026
  29.9399125  72.2652867  27.1810913  29.2021882  71.7530253  27.5121156
  30.1925899  71.8253248  26.3694190  29.4399145  83.1737377  26.8860064
  29.7322119  83.7342435  26.1672429  29.9497765  83.4665938  27.6413223
  30.0410752  65.0429119  27.7752682  30.3469629  64.1826482  27.4878598
  30.7663357  65.6346739  27.5751676  16.3335108  75.4459805  26.1634280
  16.1359508  74.8529166  25.4385347  15.7781772  75.1412016  26.8810219
  24.3131832  75.3382912  28.2828874  24.3680442  74.3856748  28.2071350
  23.5023034  75.4942351  28.7670172  25.4623026  79.2663035  19.5207157
  25.0242456  78.5498894  19.0612794  26.2033467  79.4939150  18.9592248
  22.2524192  73.9559972  26.0419252  21.4392058  74.2554142  26.4484445
  22.7483186  73.5615660  26.7593735  24.4032770  83.9517729  27.9753517
  24.3608949  84.1778575  27.0462049  25.3195469  83.7181103  28.1239318
  27.8498404  74.4201796  34.8734146  28.2047791  74.6473269  35.7328612
  28.4970535  74.7520173  34.2511402  33.5796141  77.5420232  25.5783475
  33.4414039  77.7321828  24.6504665  33.2232359  78.3039615  26.0351526
  21.7438267  71.5278327  31.6580487  22.3837646  71.3867086  30.9603451
  20.9115797  71.2412841  31.2819089  33.6065520  79.6096759  30.5894747
  34.0402027  79.5172048  31.4377801  34.3197101  79.5854259  29.9514763
  22.5198571  80.8280758  27.7715480  23.3139169  80.3331078  27.5698055
  21.8090263  80.2998621  27.4083185  27.3393415  83.2098853  32.1227847
  27.3930437  83.7789789  32.8905563  26.4708197  83.3800738  31.7581885
  18.8281334  74.9723839  23.8475232  17.8978922  74.9108295  24.0645195
  18.9238806  74.4499792  23.0511874  18.7466883  71.4978652  26.4353474
  19.0073700  72.4123985  26.3262635  19.5684056  71.0303095  26.5850087
  20.2191809  72.9116409  33.6052299  20.8914862  72.7033771  32.9564948
  19.3921595  72.7138495  33.1657531  34.4681070  79.6520460  33.1227632
  34.6616960  80.5566270  33.3686907  34.3681688  79.1927879  33.9566217
  26.1217381  69.5378350  35.6217960  25.4745296  70.2368300  35.5282436
  26.8918396  69.9714494  35.9894208  29.5296178  79.8027202  38.6968513
  29.3781685  79.5737754  37.7798597  29.5200858  80.7597804  38.7099858
  26.2981515  77.3759115  33.6814779  27.2273575  77.5270275  33.5083747
  25.8772545  77.4643136  32.8263426  25.0969847  81.4009780  31.4513317
  24.9580932  81.0328564  32.3239255  24.3084443  81.9157419  31.2797275
  25.6917999  86.5018876  22.7938853  25.8669754  86.0306919  23.6084476
  25.0050787  87.1284642  23.0220114  26.6475062  80.7791382  28.8402155
  26.3124894  80.7392152  29.7359805  26.1479007  80.1136098  28.3672565
  20.6219306  76.1859012  34.3654736  20.4839104  75.4539251  34.9666275
  21.5324229  76.0967912  34.0838924  29.5834253  78.1247417  19.1139214
  28.9663424  77.3994245  19.0172267  29.1150742  78.8856777  18.7706289
  23.2501606  75.8978972  33.8538415  23.9601225  75.2572164  33.8125034
  23.2070915  76.1491866  34.7764596  31.2388385  82.8346325  36.7744995
  31.1800931  82.1505545  36.1075578  31.6407903  83.5765315  36.3225621
  21.9630540  72.8844189  35.6734055  21.4267897  72.4334928  36.3255651
  21.3747249  73.0190098  34.9304519  20.2579084  89.6508239  29.5678714
  20.4975682  90.2826763  30.2457732  19.4148280  89.2996279  29.8544073
  21.3732799  72.3432841  18.2360519  20.4962266  72.2221642  17.8722765
  21.8490552  71.5518919  17.9839407  31.2405792  80.7985909  35.0058974
  30.3532571  80.4611831  35.1285373  31.8104343  80.0668940  35.2427740
  12.8934940  77.1310001  28.3302026  13.5805979  76.8171731  27.7423041
  12.7383068  78.0351365  28.0569277  17.6969662  72.0200197  32.7587049
  17.6127850  71.4125867  32.0237459  16.8752368  72.5109215  32.7596546
  24.7706946  85.4587361  31.9720218  24.6977117  86.2642333  32.4839522
  24.3284339  85.6579327  31.1468239  24.5596725  84.6959131  25.4823039
  23.7764247  85.2380811  25.5761264  25.2589471  85.2133111  25.8817280
  27.8693376  70.5053761  28.1257244  28.3662075  69.7523723  27.8058315
  27.0980357  70.5418077  27.5600454  35.7223133  76.2094126  29.7675536
  35.7113009  77.0918842  29.3969469  34.8540512  75.8565677  29.5730073
  27.2305629  85.3574195  34.1278376  27.9433602  85.9921660  34.0554278
  26.7395658  85.4538061  33.3118378  28.9523156  79.2625448  25.6995668
  28.0179435  79.3826910  25.5300372  29.1299825  78.3597915  25.4355678
  24.4528344  72.6471144  27.8528929  24.0826132  72.0942184  28.5409835
  24.9487437  72.0429277  27.3003929  32.3395708  75.1042767  26.2345702
  32.8056160  75.9370759  26.1606005  32.7903208  74.6387749  26.9390961
  22.2817543  83.1068639  34.9483947  22.9827002  83.7405122  35.1013341
  21.8112658  83.4483370  34.1879586  30.4071939  81.4486588  23.2331854
  30.6831783  81.3343183  24.1425728  29.5376437  81.0504073  23.1944027
  30.3112370  67.4723354  30.2736603  29.3975450  67.7027581  30.4418810
  30.7405472  67.5561798  31.1250636  30.0818829  75.6613246  32.7736497
  29.4290279  75.9089154  32.1188950  30.4599209  74.8477384  32.4398975
  27.0426003  85.6972939  26.8764668  27.2248397  84.8794595  27.3392420
  27.8658989  85.9140632  26.4389558  27.3768168  84.6241124  24.1379716
  27.9055935  84.1133579  23.5249878  27.6396388  84.3083655  25.0025249
  26.1306402  76.4033057  39.2602534  25.4547039  76.3027187  39.9304910
  26.9534036  76.2472271  39.7238532  17.8785261  82.6404994  31.8815050
  18.4638698  81.8948682  32.0142954  17.6810099  82.9508950  32.7651714
  20.7323916  85.6756241  26.8977492  20.0634291  86.1602369  26.4141532
  20.5936786  85.9225462  27.8120871  12.4702916  75.2110594  30.6019493
  12.5087015  74.6774185  31.3956611  11.9643208  74.6845799  29.9830470
  24.8729185  87.7099985  33.4960150  25.4247493  87.8731606  34.2609236
  25.2135378  88.3004422  32.8240175  19.8493678  70.0575134  34.0982035
  19.9135004  70.9189965  33.6859433  19.7860798  69.4449136  33.3654394
  19.3245950  72.1298267  37.7455069  19.9517989  71.7475344  38.3592594
  18.4673869  71.9112469  38.1110762  29.7240059  82.5361242  39.3508805
  30.2679963  83.1491200  38.8563760  29.1426904  83.0940821  39.8675818
  16.1011493  73.9374696  23.6773424  16.3964934  73.0285375  23.6240478
  15.1999529  73.9162436  23.3554427  28.0097572  85.6581960  30.4823833
  27.8848711  84.8571700  29.9734778  28.6676663  86.1528154  29.9937803
  19.6305740  72.0130693  29.6600973  18.9092326  72.6266660  29.5208446
  20.4198996  72.5488458  29.5817619  30.0732480  83.4590980  32.1103383
  29.1262816  83.3396331  32.0381709  30.4215253  82.5713478  32.1929644
  22.4332054  69.3485119  35.9341625  22.9566456  69.5947416  36.6967934
  22.2144387  70.1805154  35.5144762  17.8299335  71.6188794  23.8012749
  17.5012041  70.7386173  23.6187855  18.1838705  71.5636462  24.6889139
  27.0778914  83.2543696  28.3107735  26.9303876  82.3260404  28.4915305
  27.9032407  83.2763787  27.8264810  20.9441158  71.9061764  24.1688227
  21.2837230  72.4347685  23.4466835  21.3913278  72.2442170  24.9446794
  30.6813036  84.0772255  29.3972608  31.6059583  83.8715117  29.2597059
  30.5128339  83.8288656  30.3061949  23.6384599  70.2898814  33.6191295
  23.2981419  69.4906627  34.0211975  22.9323605  70.5900525  33.0468128
  24.2901071  67.3748127  32.0718618  25.1127140  66.9008605  31.9497508
  24.5339134  68.1538610  32.5717304  22.9309305  70.4036385  22.3681520
  23.6517668  70.7817638  21.8645237  22.3074609  71.1225262  22.4716498
  27.0740428  71.1081534  23.3039852  27.2904042  71.9906172  23.0028680
  26.5934495  70.7167748  22.5745494  21.8139649  74.0667247  29.8810597
  21.6684230  74.3807550  30.7734878  21.3364853  74.6852148  29.3281495
  23.6736032  71.0569795  29.9291486  23.6597601  70.1610889  29.5923784
  24.3908460  71.0640459  30.5629772  25.5262163  71.4907136  31.9744614
  25.2679941  72.4124206  31.9728944  24.9947203  71.0937570  32.6645078
  30.4708352  84.5957923  24.7534699  30.6445229  84.0304345  24.0008552
  30.9637243  85.3958818  24.5714189  16.2885312  76.6072592  32.8198258
  15.7438780  77.3832400  32.9518532  17.1664661  76.9543396  32.6617379
  23.0772928  69.9384176  25.1979056  23.1988839  69.0100822  25.3969944
  22.7874971  69.9522862  24.2857372  25.9464119  67.6239086  28.3345776
  25.9685815  67.6878419  27.3797756  26.3632178  66.7843595  28.5286282
  36.3247743  77.3594346  26.3724999  36.7678889  76.6101671  25.9744122
  35.4474253  77.3504482  25.9898731  31.4583524  83.9124687  21.8531597
  32.1534429  84.5331380  22.0718912  31.8006674  83.0620038  22.1283975
  17.0751333  75.7342488  35.7128415  16.3333069  75.8825123  36.2993045
  16.7544078  75.9950754  34.8495164  33.3574947  81.3624393  23.3818928
  33.8826271  81.7011665  22.6568248  33.2697300  80.4271408  23.1982063
  25.0194996  85.2758466  35.5108805  25.3282122  85.0307613  36.3831504
  25.8170478  85.4805105  35.0227675  25.0415608  87.4296376  27.7414181
  24.6020598  86.9372755  28.4347038  25.7923725  86.8869344  27.5006257
  17.5207947  83.6207917  27.7438809  18.3465967  83.3211689  27.3637453
  17.1701999  82.8515539  28.1928598  22.4889480  82.9734385  29.8136483
  21.8669490  82.3105090  29.5138711  23.1594347  82.9995517  29.1310131
  15.7216552  81.5394243  28.7027743  14.8848460  81.1116418  28.5211744
  15.6940198  81.7326687  29.6398534  22.5614008  71.4516173  39.4068989
  22.6102163  72.3278296  39.0246759  23.1036522  70.9093566  38.8340632
  33.0468853  81.9957296  38.6870126  32.2564397  81.9781435  38.1474626
  32.8102208  82.5345590  39.4419163  33.1666728  78.8449763  36.0002855
  33.2164733  78.6799770  36.9418377  33.0580652  77.9777022  35.6100735
  22.0502987  81.5238308  23.2894944  22.1991108  82.2073773  22.6361616
  22.8569431  81.5043398  23.8044399  30.4570491  74.8280691  37.3162161
  31.3580354  74.6887156  37.0246159  30.5318465  74.9935145  38.2560339
  24.7913296  72.2047545  36.1615348  23.9216606  72.4981111  35.8897936
  25.0272777  72.7887990  36.8822611  34.6684925  81.2646704  36.2444876
  34.3769734  81.6276685  37.0808337  34.0557057  80.5513712  36.0658208
  35.8680608  78.8299584  28.7647446  36.7027499  79.2689388  28.9285007
  36.0039736  78.3538237  27.9455692  32.9172114  76.3879319  34.7124934
  33.3926235  76.5806965  33.9043786  31.9937679  76.4438505  34.4668318
  19.8055620  77.5503486  24.2956013  19.5601662  76.6465816  24.4936223
  19.9751535  77.5520636  23.3535491  27.4952330  68.4227162  33.6780768
  28.0134274  69.1588189  33.3527257  27.1407463  68.7291156  34.5127527
  19.0751268  73.2831844  21.7942174  18.3820513  73.3576199  21.1382210
  18.8303020  72.5192187  22.3163691  27.7464924  64.8427445  29.1981665
  28.0266678  64.1750634  29.8242091  28.5315531  65.0356540  28.6856329
  25.5498393  84.0186439  20.7606691  24.9772360  84.6376626  20.3077163
  26.1231186  84.5685800  21.2946613  31.6173783  73.2645079  32.9453240
  32.5691205  73.3643177  32.9665464  31.4477233  72.4723347  33.4551324
  29.6388162  70.3500662  33.1312641  29.0438094  70.6305675  32.4359129
  29.3537859  70.8394563  33.9029382  28.7695652  84.3023589  21.8915273
  29.7026326  84.2369151  22.0948149  28.6818865  85.1379856  21.4329806
  31.3983669  83.6189459  18.8519221  31.3197301  83.2849323  19.7454979
  32.2193336  84.1111227  18.8510693  34.0961860  76.4851199  32.0595539
  34.0638180  75.5467199  32.2455223  34.7062484  76.5635235  31.3261364
  25.9345191  75.3547252  18.1022744  26.8804296  75.2253460  18.1711162
  25.5559436  74.6161913  18.5792172  34.2456349  73.2762242  32.1053823
  33.7295397  72.4920699  31.9183752  35.1296297  72.9480959  32.2700342
  31.9067076  67.0203258  28.0649635  31.7091897  66.7118346  28.9492967
  32.5166781  67.7464896  28.1947565  39.9138410  77.5467205  31.2001576
  40.6441799  77.2852494  31.7609280  39.3045356  76.8095927  31.2403644
  37.9953707  75.6875068  31.7976027  37.2686871  75.5531033  31.1892519
  37.5800994  75.9951897  32.6032746  25.8183884  79.4064998  39.5623400
  26.7386893  79.5843597  39.7563447  25.7833467  78.4621043  39.4103100
  24.1188108  73.2797228  18.0377629  23.2119564  72.9830341  18.1140342
  24.3964089  72.9827046  17.1711915  15.0366049  74.6003591  28.4876675
  14.7168833  73.7468900  28.1951049  14.4899477  74.8152169  29.2434642
  18.8145956  77.3166032  32.2046182  19.0331966  78.2483140  32.2234215
  19.2271730  76.9574007  32.9900985  25.7350174  67.8234118  24.1921870
  24.9250902  67.4781203  24.5677116  26.4234591  67.5141661  24.7809482
  27.6640722  66.9012164  25.8146167  28.2171761  67.3207618  26.4736190
  27.9010809  65.9747913  25.8569123  23.6873822  72.8899238  41.5948931
  23.5870548  73.8393595  41.5261022  23.4695364  72.5617477  40.7225001
  22.8886893  70.1384163  18.1789608  23.7506057  70.4639061  18.4385425
  23.0737237  69.3515659  17.6662674  14.9054309  78.2206503  30.4569797
  14.2117780  77.8060456  29.9439751  15.6527300  78.2627039  29.8603216
  31.0419529  69.0112690  25.3224831  30.4618198  69.6697494  24.9402883
  30.7755462  68.1890034  24.9112248  29.4923096  68.4117747  27.5246151
  29.9922874  68.5234282  26.7160470  30.1358704  68.1078800  28.1646960
  23.5505092  76.3196377  40.4113992  23.0672173  77.1196737  40.6177881
  23.6366031  76.3304322  39.4581436  16.8191051  78.1524757  28.3335812
  16.7961739  78.2512444  27.3817695  17.1291688  78.9989907  28.6552978
  19.4778429  80.2100912  32.4482426  20.4321683  80.1784854  32.3812358
  19.2790953  79.7491535  33.2632652  20.0677811  78.7802028  35.0153224
  20.8870700  79.2746106  35.0388061  20.3414619  77.8633996  34.9870791
  29.8244407  71.1712780  24.3781179  28.9370262  71.4562431  24.1601374
  30.2398397  71.0106543  23.5308456  33.1758944  71.1959301  28.0935518
  33.9519334  71.6855753  28.3660135  32.4507078  71.6217355  28.5507388
  35.6131502  71.9086920  29.1509459  36.2075993  71.6682656  28.4402767
  35.6858086  71.1894051  29.7782995  17.8328658  85.7520531  29.4652624
  17.6983126  84.9920932  28.8990622  17.4160720  86.4761431  28.9981413
  28.9687621  80.9357455  18.4729199  29.6723471  81.1407457  19.0886855
  28.2450270  81.5034217  18.7378283  29.7985431  76.6867316  24.5931469
  29.7420633  77.1435867  23.7539102  30.3513774  75.9258001  24.4154312
  33.6090237  72.4757048  25.4181589  33.3527171  72.0753683  26.2489797
  32.9843105  73.1900842  25.2931728  37.9202575  75.2153121  27.9252880
  37.3602133  75.2846310  28.6984442  37.3146078  75.0394106  27.2052377
  20.9897784  86.6489848  29.6771067  20.8730168  87.5935281  29.5749757
  20.1690230  86.3463410  30.0656866  30.8774318  81.3739984  20.5227659
  31.7119922  80.9421182  20.3405134  30.7158661  81.2021998  21.4504554
  30.5320210  77.8772097  21.8883999  30.4769014  77.7116369  20.9472443
  29.9066266  78.5848130  22.0446188  15.3212725  73.1140162  35.7145421
  15.9671589  72.6039116  36.2032646  15.1129877  73.8508843  36.2888846
  27.8466118  80.1821009  41.2137561  28.7157277  80.3561661  40.8524196
  27.3672869  81.0015426  41.0913291  23.8416336  67.3780206  21.4669317
  23.8295006  68.3222046  21.6237588  24.7339758  67.1950352  21.1728778
  22.0152298  87.3018110  32.8926995  22.9179545  87.3341720  33.2093490
  21.7889668  86.3718561  32.9073331  23.7705900  86.0549097  29.5537074
  22.8201531  86.0550958  29.4401446  24.0738386  85.3081831  29.0373108
  27.6568455  63.9722983  25.7215254  26.8900851  63.4181469  25.8671936
  28.0679160  64.0444852  26.5829405  19.6610216  70.2607779  39.8120435
  20.5241678  69.9044583  40.0223760  19.0875627  69.9221673  40.4995839
  39.5058593  91.8909635  30.6182836  40.1437003  91.7716382  29.9146176
  39.3879436  92.8390479  30.6770788  36.3148300  91.8437063  30.5544361
  35.9766811  91.7278128  29.6664896  37.1838068  91.4428228  30.5345367
  32.1735115  93.6972539  26.5441252  31.6099981  93.6062476  25.7757539
  32.0587510  92.8772444  27.0243744  36.7968083  92.9971915  36.5130566
  36.7856723  92.6024713  35.6411070  36.9588722  92.2637987  37.1064338
  29.7199547  95.1923731  29.3825472  30.5120839  94.8514556  28.9671771
  29.9596197  95.3018706  30.3027625  37.7534674  97.3643507  21.8555717
  37.1022654  97.9497588  21.4689730  38.5479037  97.8949702  21.9150754
  31.6790301  94.4532644  22.2542851  32.4521177  93.9061631  22.1155727
  32.0315700  95.3176894  22.4657312  33.5175344  95.7809027  35.4609750
  33.2265210  96.6854657  35.3456417  34.1532328  95.8225554  36.1753820
  34.4431551  93.1585875  32.0511110  35.0395123  92.9341898  31.3368073
  34.5006522  92.4170621  32.6536558  34.0156579  90.6125310  19.8861301
  34.2682100  90.0906832  19.1244764  33.0781138  90.4491456  19.9887984
  39.0599862  89.6161089  27.6936044  39.8462951  89.1980512  27.3426461
  39.3238566  90.5207181  27.8617692  39.2309939  95.0533939  22.3924701
  38.5955772  95.1268566  23.1045605  38.9007346  95.6427538  21.7143780
  44.4608289  89.5536322  28.5969023  45.1933461  88.9835539  28.8306852
  43.7047645  89.1657922  29.0375528  33.7352868  92.5153416  22.0885676
  33.6189126  91.8398320  22.7566760  33.8455128  92.0285790  21.2717829
  36.0784409  91.9763563  25.7932365  35.7142616  91.4494184  26.5045286
  36.9351525  91.5862033  25.6198850  41.9833709  83.2657896  33.0563631
  41.6517034  84.1353307  32.8324846  41.3879323  82.9494180  33.7357662
  35.7189896  87.0053463  20.7893714  35.8864298  87.8733700  21.1564185
  35.5287065  87.1680745  19.8655003  38.4765229  95.4670442  32.4559544
  38.1765952  96.3695481  32.3475351  38.1316288  95.2002625  33.3080697
  31.9277710  91.9184239  28.4896248  31.0028207  91.7860453  28.6973940
  32.1762124  92.6978458  28.9866191  41.8762373  87.9852982  30.1356981
  40.9679250  87.9168391  29.8415742  41.8249968  88.4624927  30.9638807
  35.6979117  89.4611121  21.7740380  35.5778742  89.9068171  22.6125861
  35.0031705  89.8096438  21.2153918  29.2886521  91.5617512  29.3240037
  29.4178903  91.8151991  30.2379449  28.6083973  92.1545220  29.0044692
  33.4586009 102.2314762  25.4230512  33.3810038 103.1822588  25.5018992
  32.8547652 101.8860635  26.0805438  35.9503238  89.4042628  38.0791878
  35.1736573  89.9636548  38.0694743  36.5893802  89.8899411  38.6006749
  43.7424019  86.1869421  31.9134855  43.0998399  86.4801954  31.2674650
  43.2378948  86.0722341  32.7188052  41.3964183  89.9332594  22.6020714
  42.3082039  90.1659981  22.4268412  40.8873830  90.5169638  22.0395793
  34.2049611  92.2128081  37.6409845  34.9464295  92.7513125  37.3644669
  33.4986596  92.8394370  37.7981397  39.6804950  94.3557222  36.2382007
  40.0888306  93.9139632  35.4936639  38.9582212  93.7809849  36.4916200
  36.0336020  89.2929828  33.6115564  36.8797216  89.7169242  33.7550213
  35.9734658  88.6363453  34.3054127  40.0033765  94.9158412  29.9934296
  39.3742627  95.0804126  29.2910364  39.6159427  95.3300022  30.7645260
  43.8822997  95.8512850  27.3478660  43.1974035  96.2311752  26.7975693
  43.9666846  96.4608177  28.0810607  39.1835466  86.9534197  35.2696738
  38.9396398  87.7076257  34.7331013  39.4595396  87.3319544  36.1043985
  41.1373929  93.4972809  33.9474003  41.3490824  94.1404569  33.2708384
  41.0903677  92.6635126  33.4795933  38.7400158  86.1090630  30.8510575
  37.8784637  86.4071883  31.1427313  38.7662592  86.3261029  29.9191608
  35.5561727  94.6532820  27.2584381  36.0200072  94.9320523  26.4689003
  35.2918525  93.7516265  27.0757472  32.4485808  94.2004302  30.1964144
  33.0187165  94.6291570  29.5581629  33.0393920  93.9186887  30.8948330
  34.4930613  90.7755973  24.0673946  35.1954656  91.2277016  24.5347872
  34.1611241  90.1339792  24.6953839  32.9410975  89.3667729  38.4425155
  32.3109635  90.0484010  38.6760552  32.8347062  89.2550811  37.4978294
  28.2355947  89.0339525  29.3691080  27.4455001  89.2897054  28.8931190
  28.7267194  89.8487863  29.4743120  42.2519757  96.3744765  32.1196360
  43.0737200  95.9724952  31.8379042  42.2482159  96.2712999  33.0712476
  30.1870692  89.3984105  26.3274556  29.3901856  89.5102799  26.8458052
  29.9596285  89.7370757  25.4615447  36.0176360  95.9228808  34.2757071
  36.0820792  96.3849215  35.1115243  35.3087284  95.2926173  34.4039381
  26.5193650  89.2870016  31.8006070  26.7701688  90.1717026  32.0663646
  27.0553198  89.1074617  31.0281162  50.3425750  92.7183513  28.4681332
  49.5889458  92.1490911  28.3125336  50.4773291  92.6846178  29.4151967
  35.7324378  97.5896915  24.1436051  35.5970052  98.4348451  24.5720899
  36.2734190  97.7916193  23.3801985  32.2191717  83.6688495  40.8050407
  31.8258663  83.1154694  41.4798051  33.0357858  83.9799074  41.1956924
  29.1853775  95.1072353  24.7163976  29.6978296  95.9015604  24.8669541
  29.8376488  94.4098644  24.6497578  30.9948660  98.2238110  26.7986730
  31.1715288  99.1456074  26.6107713  31.7905493  97.9096529  27.2281109
  35.1359678  85.0846374  38.3970663  35.8769392  85.6853527  38.3175126
  35.3677601  84.3424012  37.8388706  30.2801016  90.2702742  36.6748893
  30.1654531  89.3687999  36.9755992  29.4245534  90.5166438  36.3233709
  37.3592854  98.2120482  38.2736393  36.9156708  97.4256860  37.9557298
  38.0210068  98.3999632  37.6080284  32.1179975  99.7416284  32.7997072
  32.6687400  99.6133347  32.0274066  31.2791451 100.0411173  32.4491965
  39.4574092  98.4923282  36.3017795  39.4392567  99.3132163  35.8098064
  40.3794012  98.3677357  36.5267936  35.9147146  96.0067411  37.1441303
  36.4475483  95.2455700  36.9140611  35.3861227  95.7141063  37.8865457
  39.0816841  81.1127477  32.6734945  38.7381111  82.0029119  32.5974055
  39.4495804  80.9229135  31.8104530  27.1502692  93.4361008  25.4923547
  27.9877914  93.8458016  25.2757255  27.3280959  92.4960450  25.4623741
  39.0467124  91.1036088  21.1807380  38.5313747  91.8740693  21.4195767
  38.7744432  90.4301225  21.8040441  36.6314235  85.9485789  26.2392618
  35.7755831  85.5592640  26.0598257  37.0441187  86.0277750  25.3792404
  38.1613382  83.4832132  30.6384178  37.6578177  83.4462268  29.8251983
  38.4543988  84.3924875  30.6980835  34.4056267  83.5670862  29.6450360
  35.2709264  83.3713671  29.2856249  34.4733776  83.3381214  30.5719716
  44.0201398  93.8568443  23.1160553  43.2430841  93.5179603  22.6715715
  44.6992879  93.8621066  22.4415518  38.8353427  88.9763180  23.0067161
  38.5303563  89.2909330  23.8577304  39.7883869  89.0544600  23.0494494
  37.2799859  95.1353404  24.6560115  36.7521220  94.4006163  24.3433352
  36.7787362  95.9128080  24.4100083  42.2592705  93.3302424  29.7727161
  41.6016379  94.0201686  29.8607290  43.0633104  93.7198856  30.1161148
  32.0118587  85.7973070  27.0166727  32.5862338  85.5748252  26.2839920
  32.5989569  85.8661765  27.7695328  41.0698164  91.6846797  27.8231103
  41.5830045  92.3176789  28.3252813  41.7199388  91.0847992  27.4574463
  32.3388174  87.8277531  21.0362612  31.5025486  88.1652218  21.3571887
  32.1992943  87.6926511  20.0989749  34.3141254  82.6714319  25.7441796
  33.6605667  82.3563336  25.1198411  34.2721728  82.0490059  26.4701619
  35.4252459  92.9533614  17.6595088  34.5179521  92.7222868  17.8586237
  35.9223491  92.1571233  17.8469070  38.3320538 101.6631121  20.5791774
  37.6582237 101.9662818  21.1876732  38.7186360 102.4660202  20.2297231
  37.5478995  89.1596253  30.0689444  36.6301556  89.3811200  29.9111132
  37.9639138  89.2342563  29.2101151  38.3314042  90.5587668  25.1992124
  39.0785861  91.0709065  24.8899246  38.6005632  90.2371721  26.0596517
  36.6040693  93.0546209  22.1819078  35.6951912  92.7705242  22.2791548
  36.6335776  93.4745287  21.3222385  41.8359960  96.6652798  25.9510246
  41.3822287  95.8243708  26.0075436  41.2053927  97.3014197  26.2885026
  40.7792880  87.5944784  27.1810913  40.0415636  87.0822171  27.5121156
  41.0319653  87.1545166  26.3694190  40.2792899  98.5029295  26.8860064
  40.5715874  99.0634352  26.1672429  40.7891520  98.7957856  27.6413223
  40.8804507  80.3721036  27.7752682  41.1863384  79.5118400  27.4878598
  41.6057112  80.9638657  27.5751676  27.1728863  90.7751723  26.1634280
  26.9753263  90.1821084  25.4385347  26.6175527  90.4703933  26.8810219
  35.1525587  90.6674830  28.2828874  35.2074196  89.7148666  28.2071350
  34.3416789  90.8234269  28.7670172  36.3016780  94.5954953  19.5207157
  35.8636210  93.8790812  19.0612794  37.0427221  94.8231067  18.9592248
  33.0917946  89.2851889  26.0419252  32.2785812  89.5846060  26.4484445
  33.5876941  88.8907578  26.7593735  35.2426524  99.2809646  27.9753517
  35.2002703  99.5070493  27.0462049  36.1589223  99.0473021  28.1239318
  38.6892158  89.7493714  34.8734146  39.0441546  89.9765187  35.7328612
  39.3364289  90.0812091  34.2511402  44.4189895  92.8712150  25.5783475
  44.2807794  93.0613746  24.6504665  44.0626114  93.6331532  26.0351526
  32.5832021  86.8570245  31.6580487  33.2231401  86.7159004  30.9603451
  31.7509552  86.5704758  31.2819089  44.4459275  94.9388677  30.5894747
  44.8795781  94.8463966  31.4377801  45.1590855  94.9146177  29.9514763
  33.3592325  96.1572675  27.7715480  34.1532924  95.6622995  27.5698055
  32.6484018  95.6290538  27.4083185  38.1787170  98.5390771  32.1227847
  38.2324192  99.1081707  32.8905563  37.3101951  98.7092656  31.7581885
  29.6675089  90.3015757  23.8475232  28.7372677  90.2400212  24.0645195
  29.7632561  89.7791710  23.0511874  29.5860638  86.8270570  26.4353474
  29.8467455  87.7415903  26.3262635  30.4077810  86.3595012  26.5850087
  31.0585563  88.2408327  33.6052299  31.7308616  88.0325689  32.9564948
  30.2315350  88.0430413  33.1657531  45.3074824  94.9812377  33.1227632
  45.5010714  95.8858188  33.3686907  45.2075442  94.5219796  33.9566217
  36.9611135  84.8670268  35.6217960  36.3139050  85.5660218  35.5282436
  37.7312150  85.3006412  35.9894208  40.3689933  95.1319120  38.6968513
  40.2175439  94.9029672  37.7798597  40.3594612  96.0889721  38.7099858
  37.1375269  92.7051033  33.6814779  38.0667329  92.8562192  33.5083747
  36.7166299  92.7935054  32.8263426  35.9363601  96.7301697  31.4513317
  35.7974687  96.3620482  32.3239255  35.1478197  97.2449337  31.2797275
  36.5311753 101.8310794  22.7938853  36.7063509 101.3598837  23.6084476
  35.8444541 102.4576560  23.0220114  37.4868816  96.1083300  28.8402155
  37.1518649  96.0684070  29.7359805  36.9872762  95.4428016  28.3672565
  31.4613060  91.5150930  34.3654736  31.3232858  90.7831169  34.9666275
  32.3717984  91.4259830  34.0838924  40.4228008  93.4539334  19.1139214
  39.8057179  92.7286162  19.0172267  39.9544496  94.2148695  18.7706289
  34.0895361  91.2270889  33.8538415  34.7994979  90.5864081  33.8125034
  34.0464669  91.4783784  34.7764596  42.0782140  98.1638243  36.7744995
  42.0194686  97.4797463  36.1075578  42.4801658  98.9057233  36.3225621
  32.8024295  88.2136107  35.6734055  32.2661652  87.7626846  36.3255651
  32.2141003  88.3482016  34.9304519  31.0972838 104.9800156  29.5678714
  31.3369437 105.6118681  30.2457732  30.2542035 104.6288196  29.8544073
  32.2126554  87.6724759  18.2360519  31.3356020  87.5513559  17.8722765
  32.6884307  86.8810837  17.9839407  42.0799547  96.1277827  35.0058974
  41.1926326  95.7903748  35.1285373  42.6498098  95.3960858  35.2427740
  23.7328694  92.4601918  28.3302026  24.4199734  92.1463648  27.7423041
  23.5776823  93.3643283  28.0569277  28.5363416  87.3492115  32.7587049
  28.4521605  86.7417784  32.0237459  27.7146123  87.8401133  32.7596546
  35.6100700 100.7879279  31.9720218  35.5370872 101.5934250  32.4839522
  35.1678093 100.9871245  31.1468239  35.3990480 100.0251049  25.4823039
  34.6158002 100.5672729  25.5761264  36.0983225 100.5425029  25.8817280
  38.7087130  85.8345678  28.1257244  39.2055830  85.0815641  27.8058315
  37.9374112  85.8709995  27.5600454  46.5616887  91.5386044  29.7675536
  46.5506764  92.4210759  29.3969469  45.6934267  91.1857595  29.5730073
  38.0699384 100.6866113  34.1278376  38.7827356 101.3213578  34.0554278
  37.5789412 100.7829979  33.3118378  39.7916911  94.5917366  25.6995668
  38.8573189  94.7118828  25.5300372  39.9693579  93.6889832  25.4355678
  35.2922099  87.9763061  27.8528929  34.9219886  87.4234102  28.5409835
  35.7881191  87.3721195  27.3003929  43.1789462  90.4334685  26.2345702
  43.6449914  91.2662676  26.1606005  43.6296963  89.9679666  26.9390961
  33.1211297  98.4360556  34.9483947  33.8220757  99.0697039  35.1013341
  32.6506412  98.7775288  34.1879586  41.2465693  96.7778506  23.2331854
  41.5225537  96.6635101  24.1425728  40.3770192  96.3795991  23.1944027
  41.1506125  82.8015272  30.2736603  40.2369205  83.0319499  30.4418810
  41.5799226  82.8853716  31.1250636  40.9212583  90.9905164  32.7736497
  40.2684034  91.2381071  32.1188950  41.2992963  90.1769302  32.4398975
  37.8819757 101.0264857  26.8764668  38.0642152 100.2086513  27.3392420
  38.7052743 101.2432549  26.4389558  38.2161923  99.9533042  24.1379716
  38.7449689  99.4425497  23.5249878  38.4790142  99.6375572  25.0025249
  36.9700156  91.7324975  39.2602534  36.2940793  91.6319104  39.9304910
  37.7927790  91.5764189  39.7238532  28.7179015  97.9696911  31.8815050
  29.3032452  97.2240599  32.0142954  28.5203854  98.2800868  32.7651714
  31.5717671 101.0048159  26.8977492  30.9028046 101.4894286  26.4141532
  31.4330540 101.2517379  27.8120871  23.3096670  90.5402512  30.6019493
  23.3480770  90.0066102  31.3956611  22.8036963  90.0137717  29.9830470
  35.7122939 103.0391902  33.4960150  36.2641247 103.2023524  34.2609236
  36.0529133 103.6296340  32.8240175  30.6887432  85.3867052  34.0982035
  30.7528759  86.2481883  33.6859433  30.6254553  84.7741054  33.3654394
  30.1639705  87.4590185  37.7455069  30.7911744  87.0767262  38.3592594
  29.3067624  87.2404387  38.1110762  40.5633814  97.8653160  39.3508805
  41.1073717  98.4783118  38.8563760  39.9820658  98.4232738  39.8675818
  26.9405248  89.2666614  23.6773424  27.2358689  88.3577292  23.6240478
  26.0393283  89.2454353  23.3554427  38.8491326 100.9873878  30.4823833
  38.7242466 100.1863618  29.9734778  39.5070418 101.4820071  29.9937803
  30.4699495  87.3422610  29.6600973  29.7486080  87.9558578  29.5208446
  31.2592750  87.8780375  29.5817619  40.9126235  98.7882898  32.1103383
  39.9656570  98.6688249  32.0381709  41.2609008  97.9005396  32.1929644
  33.2725808  84.6777037  35.9341625  33.7960210  84.9239333  36.6967934
  33.0538141  85.5097072  35.5144762  28.6693089  86.9480711  23.8012749
  28.3405795  86.0678090  23.6187855  29.0232460  86.8928380  24.6889139
  37.9172668  98.5835614  28.3107735  37.7697631  97.6552322  28.4915305
  38.7426162  98.6055705  27.8264810  31.7834912  87.2353681  24.1688227
  32.1230985  87.7639603  23.4466835  32.2307033  87.5734087  24.9446794
  41.5206790  99.4064173  29.3972608  42.4453337  99.2007034  29.2597059
  41.3522093  99.1580574  30.3061949  34.4778353  85.6190732  33.6191295
  34.1375174  84.8198545  34.0211975  33.7717360  85.9192443  33.0468128
  35.1294825  82.7040044  32.0718618  35.9520894  82.2300523  31.9497508
  35.3732889  83.4830528  32.5717304  33.7703060  85.7328303  22.3681520
  34.4911422  86.1109556  21.8645237  33.1468364  86.4517180  22.4716498
  37.9134182  86.4373452  23.3039852  38.1297797  87.3198090  23.0028680
  37.4328250  86.0459665  22.5745494  32.6533404  89.3959165  29.8810597
  32.5077985  89.7099468  30.7734878  32.1758607  90.0144065  29.3281495
  34.5129787  86.3861713  29.9291486  34.4991355  85.4902806  29.5923784
  35.2302215  86.3932377  30.5629772  36.3655917  86.8199053  31.9744614
  36.1073695  87.7416124  31.9728944  35.8340958  86.4229488  32.6645078
  41.3102106  99.9249840  24.7534699  41.4838984  99.3596263  24.0008552
  41.8030997 100.7250735  24.5714189  27.1279066  91.9364509  32.8198258
  26.5832534  92.7124317  32.9518532  28.0058416  92.2835314  32.6617379
  33.9166683  85.2676093  25.1979056  34.0382594  84.3392739  25.3969944
  33.6268725  85.2814779  24.2857372  36.7857873  82.9531004  28.3345776
  36.8079570  83.0170337  27.3797756  37.2025932  82.1135512  28.5286282
  47.1641497  92.6886263  26.3724999  47.6072643  91.9393588  25.9744122
  46.2868008  92.6796400  25.9898731  42.2977279  99.2416605  21.8531597
  42.9928183  99.8623297  22.0718912  42.6400429  98.3911956  22.1283975
  27.9145088  91.0634406  35.7128415  27.1726824  91.2117041  36.2993045
  27.5937832  91.3242671  34.8495164  44.1968702  96.6916310  23.3818928
  44.7220026  97.0303583  22.6568248  44.1091054  95.7563326  23.1982063
  35.8588751 100.6050384  35.5108805  36.1675877 100.3599531  36.3831504
  36.6564233 100.8097022  35.0227675  35.8809363 102.7588294  27.7414181
  35.4414353 102.2664672  28.4347038  36.6317480 102.2161261  27.5006257
  28.3601702  98.9499834  27.7438809  29.1859721  98.6503606  27.3637453
  28.0095754  98.1807457  28.1928598  33.3283235  98.3026303  29.8136483
  32.7063244  97.6397008  29.5138711  33.9988102  98.3287435  29.1310131
  26.5610307  96.8686161  28.7027743  25.7242215  96.4408335  28.5211744
  26.5333952  97.0618604  29.6398534  33.4007762  86.7808091  39.4068989
  33.4495918  87.6570213  39.0246759  33.9430276  86.2385484  38.8340632
  43.8862608  97.3249214  38.6870126  43.0958152  97.3073353  38.1474626
  43.6495962  97.8637508  39.4419163  44.0060483  94.1741680  36.0002855
  44.0558488  94.0091688  36.9418377  43.8974406  93.3068939  35.6100735
  32.8896742  96.8530226  23.2894944  33.0384862  97.5365690  22.6361616
  33.6963185  96.8335316  23.8044399  41.2964245  90.1572608  37.3162161
  42.1974108  90.0179073  37.0246159  41.3712220  90.3227063  38.2560339
  35.6307051  87.5339463  36.1615348  34.7610360  87.8273029  35.8897936
  35.8666531  88.1179908  36.8822611  45.5078680  96.5938622  36.2444876
  45.2163488  96.9568602  37.0808337  44.8950811  95.8805630  36.0658208
  46.7074362  94.1591502  28.7647446  47.5421253  94.5981306  28.9285007
  46.8433491  93.6830155  27.9455692  43.7565868  91.7171236  34.7124934
  44.2319990  91.9098883  33.9043786  42.8331433  91.7730422  34.4668318
  30.6449375  92.8795404  24.2956013  30.3995417  91.9757734  24.4936223
  30.8145289  92.8812554  23.3535491  38.3346084  83.7519080  33.6780768
  38.8528028  84.4880107  33.3527257  37.9801217  84.0583073  34.5127527
  29.9145022  88.6123761  21.7942174  29.2214267  88.6868116  21.1382210
  29.6696774  87.8484105  22.3163691  38.5858679  80.1719363  29.1981665
  38.8660432  79.5042552  29.8242091  39.3709286  80.3648458  28.6856329
  36.3892147  99.3478356  20.7606691  35.8166114  99.9668544  20.3077163
  36.9624941  99.8977718  21.2946613  42.4567537  88.5936997  32.9453240
  43.4084960  88.6935094  32.9665464  42.2870987  87.8015265  33.4551324
  40.4781916  85.6792580  33.1312641  39.8831849  85.9597592  32.4359129
  40.1931613  86.1686481  33.9029382  39.6089407  99.6315507  21.8915273
  40.5420080  99.5661068  22.0948149  39.5212620 100.4671773  21.4329806
  42.2377424  98.9481377  18.8519221  42.1591055  98.6141241  19.7454979
  43.0587090  99.4403145  18.8510693  44.9355615  91.8143116  32.0595539
  44.9031935  90.8759117  32.2455223  45.5456238  91.8927153  31.3261364
  36.7738946  90.6839169  18.1022744  37.7198050  90.5545377  18.1711162
  36.3953191  89.9453831  18.5792172  45.0850103  88.6054160  32.1053823
  44.5689152  87.8212616  31.9183752  45.9690052  88.2772876  32.2700342
  42.7460830  82.3495175  28.0649635  42.5485651  82.0410263  28.9492967
  43.3560536  83.0756814  28.1947565  50.7532165  92.8759123  31.2001576
  51.4835553  92.6144411  31.7609280  50.1439110  92.1387845  31.2403644
  48.8347462  91.0166986  31.7976027  48.1080625  90.8822951  31.1892519
  48.4194749  91.3243814  32.6032746  36.6577638  94.7356915  39.5623400
  37.5780648  94.9135514  39.7563447  36.6227221  93.7912961  39.4103100
  34.9581863  88.6089146  18.0377629  34.0513318  88.3122258  18.1140342
  35.2357844  88.3118964  17.1711915  25.8759803  89.9295509  28.4876675
  25.5562588  89.0760817  28.1951049  25.3293231  90.1444087  29.2434642
  29.6539711  92.6457950  32.2046182  29.8725721  93.5775058  32.2234215
  30.0665485  92.2865924  32.9900985  36.5743929  83.1526035  24.1921870
  35.7644657  82.8073120  24.5677116  37.2628345  82.8433579  24.7809482
  38.5034477  82.2304082  25.8146167  39.0565515  82.6499536  26.4736190
  38.7404563  81.3039830  25.8569123  34.5267576  88.2191156  41.5948931
  34.4264303  89.1685513  41.5261022  34.3089118  87.8909395  40.7225001
  33.7280647  85.4676081  18.1789608  34.5899811  85.7930979  18.4385425
  33.9130992  84.6807577  17.6662674  25.7448063  93.5498420  30.4569797
  25.0511535  93.1352373  29.9439751  26.4921054  93.5918957  29.8603216
  41.8813284  84.3404607  25.3224831  41.3011953  84.9989411  24.9402883
  41.6149217  83.5181952  24.9112248  40.3316850  83.7409665  27.5246151
  40.8316629  83.8526199  26.7160470  40.9752458  83.4370718  28.1646960
  34.3898846  91.6488295  40.4113992  33.9065928  92.4488655  40.6177881
  34.4759785  91.6596239  39.4581436  27.6584806  93.4816674  28.3335812
  27.6355494  93.5804362  27.3817695  27.9685442  94.3281825  28.6552978
  30.3172184  95.5392829  32.4482426  31.2715437  95.5076772  32.3812358
  30.1184707  95.0783453  33.2632652  30.9071566  94.1093945  35.0153224
  31.7264455  94.6038024  35.0388061  31.1808373  93.1925913  34.9870791
  40.6638162  86.5004698  24.3781179  39.7764017  86.7854348  24.1601374
  41.0792151  86.3398461  23.5308456  44.0152698  86.5251219  28.0935518
  44.7913088  87.0147671  28.3660135  43.2900832  86.9509273  28.5507388
  46.4525257  87.2378838  29.1509459  47.0469747  86.9974574  28.4402767
  46.5251840  86.5185968  29.7782995  28.6722412 101.0812449  29.4652624
  28.5376880 100.3212850  28.8990622  28.2554475 101.8053349  28.9981413
  39.8081375  96.2649372  18.4729199  40.5117226  96.4699375  19.0886855
  39.0844024  96.8326134  18.7378283  40.6379186  92.0159234  24.5931469
  40.5814387  92.4727785  23.7539102  41.1907528  91.2549918  24.4154312
  44.4483992  87.8048965  25.4181589  44.1920926  87.4045601  26.2489797
  43.8236860  88.5192759  25.2931728  48.7596329  90.5445039  27.9252880
  48.1995887  90.6138228  28.6984442  48.1539833  90.3686023  27.2052377
  31.8291538 101.9781766  29.6771067  31.7123922 102.9227198  29.5749757
  31.0083985 101.6755327  30.0656866  41.7168073  96.7031902  20.5227659
  42.5513677  96.2713100  20.3405134  41.5552416  96.5313915  21.4504554
  41.3713965  93.2064015  21.8883999  41.3162769  93.0408286  20.9472443
  40.7460020  93.9140048  22.0446188  26.1606480  88.4432079  35.7145421
  26.8065344  87.9331033  36.2032646  25.9523631  89.1800761  36.2888846
  38.6859872  95.5112927  41.2137561  39.5551032  95.6853579  40.8524196
  38.2066624  96.3307344  41.0913291  34.6810090  82.7072124  21.4669317
  34.6688760  83.6513964  21.6237588  35.5733512  82.5242269  21.1728778
  32.8546052 102.6310028  32.8926995  33.7573299 102.6633638  33.2093490
  32.6283422 101.7010479  32.9073331  34.6099654 101.3841014  29.5537074
  33.6595285 101.3842876  29.4401446  34.9132141 100.6373749  29.0373108
  38.4962210  79.3014900  25.7215254  37.7294606  78.7473387  25.8671936
  38.9072915  79.3736769  26.5829405  30.5003971  85.5899696  39.8120435
  31.3635433  85.2336501  40.0223760  29.9269382  85.2513591  40.4995839
  50.3452348 107.2201553  30.6182836  50.9830758 107.1008300  29.9146176
  50.2273191 108.1682397  30.6770788  47.1542054 107.1728981  30.5544361
  46.8160566 107.0570045  29.6664896  48.0231822 106.7720146  30.5345367
  43.0128870 109.0264457  26.5441252  42.4493735 108.9354394  25.7757539
  42.8981265 108.2064362  27.0243744  47.6361837 108.3263832  36.5130566
  47.6250478 107.9316631  35.6411070  47.7982477 107.5929905  37.1064338
  40.5593302 110.5215649  29.3825472  41.3514594 110.1806473  28.9671771
  40.7989952 110.6310624  30.3027625  48.5928429 112.6935425  21.8555717
  47.9416408 113.2789505  21.4689730  49.3872791 113.2241620  21.9150754
  42.5184056 109.7824562  22.2542851  43.2914932 109.2353549  22.1155727
  42.8709455 110.6468811  22.4657312  44.3569098 111.1100944  35.4609750
  44.0658964 112.0146575  35.3456417  44.9926083 111.1517472  36.1753820
  45.2825305 108.4877793  32.0511110  45.8788877 108.2633815  31.3368073
  45.3400277 107.7462538  32.6536558  44.8550334 105.9417228  19.8861301
  45.1075854 105.4198749  19.1244764  43.9174893 105.7783374  19.9887984
  49.8993616 104.9453006  27.6936044  50.6856706 104.5272430  27.3426461
  50.1632321 105.8499099  27.8617692  50.0703694 110.3825857  22.3924701
  49.4349527 110.4560483  23.1045605  49.7401100 110.9719456  21.7143780
  55.3002044 104.8828240  28.5969023  56.0327215 104.3127456  28.8306852
  54.5441399 104.4949840  29.0375528  44.5746622 107.8445334  22.0885676
  44.4582880 107.1690237  22.7566760  44.6848882 107.3577708  21.2717829
  46.9178163 107.3055481  25.7932365  46.5536370 106.7786102  26.5045286
  47.7745279 106.9153950  25.6198850  52.8227464  98.5949814  33.0563631
  52.4910789  99.4645225  32.8324846  52.2273077  98.2786098  33.7357662
  46.5583650 102.3345381  20.7893714  46.7258053 103.2025617  21.1564185
  46.3680819 102.4972663  19.8655003  49.3158983 110.7962360  32.4559544
  49.0159706 111.6987399  32.3475351  48.9710043 110.5294543  33.3080697
  42.7671465 107.2476157  28.4896248  41.8421961 107.1152371  28.6973940
  43.0155878 108.0270376  28.9866191  52.7156127 103.3144900  30.1356981
  51.8073005 103.2460308  29.8415742  52.6643723 103.7916845  30.9638807
  46.5372871 104.7903038  21.7740380  46.4172496 105.2360089  22.6125861
  45.8425459 105.1388356  21.2153918  40.1280276 106.8909430  29.3240037
  40.2572657 107.1443909  30.2379449  39.4477727 107.4837138  29.0044692
  44.2979763 117.5606680  25.4230512  44.2203793 118.5114505  25.5018992
  43.6941407 117.2152553  26.0805438  46.7896993 104.7334546  38.0791878
  46.0130327 105.2928466  38.0694743  47.4287556 105.2191329  38.6006749
  54.5817774 101.5161338  31.9134855  53.9392154 101.8093872  31.2674650
  54.0772702 101.4014259  32.7188052  52.2357937 105.2624512  22.6020714
  53.1475793 105.4951898  22.4268412  51.7267584 105.8461556  22.0395793
  45.0443365 107.5419999  37.6409845  45.7858050 108.0805043  37.3644669
  44.3380351 108.1686288  37.7981397  50.5198705 109.6849139  36.2382007
  50.9282061 109.2431550  35.4936639  49.7975966 109.1101767  36.4916200
  46.8729775 104.6221746  33.6115564  47.7190970 105.0461160  33.7550213
  46.8128413 103.9655370  34.3054127  50.8427520 110.2450330  29.9934296
  50.2136382 110.4096044  29.2910364  50.4553182 110.6591940  30.7645260
  54.7216751 111.1804768  27.3478660  54.0367790 111.5603669  26.7975693
  54.8060601 111.7900095  28.0810607  50.0229220 102.2826115  35.2696738
  49.7790152 103.0368175  34.7331013  50.2989151 102.6611462  36.1043985
  51.9767683 108.8264727  33.9474003  52.1884578 109.4696487  33.2708384
  51.9297431 107.9927043  33.4795933  49.5793912 101.4382548  30.8510575
  48.7178391 101.7363801  31.1427313  49.6056347 101.6552946  29.9191608
  46.3955481 109.9824738  27.2584381  46.8593827 110.2612441  26.4689003
  46.1312280 109.0808183  27.0757472  43.2879562 109.5296220  30.1964144
  43.8580920 109.9583488  29.5581629  43.8787674 109.2478804  30.8948330
  45.3324367 106.1047890  24.0673946  46.0348411 106.5568934  24.5347872
  45.0004996 105.4631709  24.6953839  43.7804729 104.6959647  38.4425155
  43.1503390 105.3775928  38.6760552  43.6740817 104.5842729  37.4978294
  39.0749701 104.3631443  29.3691080  38.2848755 104.6188972  28.8931190
  39.5660949 105.1779781  29.4743120  53.0913511 111.7036682  32.1196360
  53.9130955 111.3016870  31.8379042  53.0875914 111.6004916  33.0712476
  41.0264447 104.7276022  26.3274556  40.2295610 104.8394717  26.8458052
  40.7990039 105.0662675  25.4615447  46.8570114 111.2520726  34.2757071
  46.9214547 111.7141133  35.1115243  46.1481038 110.6218091  34.4039381
  37.3587404 104.6161934  31.8006070  37.6095443 105.5008943  32.0663646
  37.8946953 104.4366535  31.0281162  61.1819504 108.0475431  28.4681332
  60.4283212 107.4782829  28.3125336  61.3167045 108.0138095  29.4151967
  46.5718132 112.9188833  24.1436051  46.4363807 113.7640369  24.5720899
  47.1127945 113.1208111  23.3801985  43.0585472  98.9980413  40.8050407
  42.6652417  98.4446611  41.4798051  43.8751612  99.3090991  41.1956924
  40.0247529 110.4364271  24.7163976  40.5372050 111.2307521  24.8669541
  40.6770242 109.7390562  24.6497578  41.8342414 113.5530027  26.7986730
  42.0109043 114.4747992  26.6107713  42.6299248 113.2388447  27.2281109
  45.9753433 100.4138292  38.3970663  46.7163146 101.0145445  38.3175126
  46.2071356  99.6715930  37.8388706  41.1194771 105.5994659  36.6748893
  41.0048286 104.6979917  36.9755992  40.2639288 105.8458356  36.3233709
  48.1986608 113.5412400  38.2736393  47.7550463 112.7548778  37.9557298
  48.8603822 113.7291550  37.6080284  42.9573730 115.0708201  32.7997072
  43.5081155 114.9425265  32.0274066  42.1185206 115.3703090  32.4491965
  50.2967847 113.8215200  36.3017795  50.2786322 114.6424081  35.8098064
  51.2187767 113.6969275  36.5267936  46.7540901 111.3359329  37.1441303
  47.2869237 110.5747617  36.9140611  46.2254982 111.0432981  37.8865457
  49.9210596  96.4419395  32.6734945  49.5774865  97.3321037  32.5974055
  50.2889558  96.2521053  31.8104530  37.9896446 108.7652925  25.4923547
  38.8271668 109.1749934  25.2757255  38.1674714 107.8252368  25.4623741
  49.8860878 106.4328006  21.1807380  49.3707502 107.2032611  21.4195767
  49.6138187 105.7593142  21.8040441  47.4707989 101.2777707  26.2392618
  46.6149586 100.8884557  26.0598257  47.8834941 101.3569668  25.3792404
  49.0007136  98.8124050  30.6384178  48.4971932  98.7754185  29.8251983
  49.2937743  99.7216793  30.6980835  45.2450022  98.8962780  29.6450360
  46.1103019  98.7005589  29.2856249  45.3127531  98.6673132  30.5719716
  54.8595153 109.1860361  23.1160553  54.0824595 108.8471520  22.6715715
  55.5386633 109.1912984  22.4415518  49.6747182 104.3055098  23.0067161
  49.3697317 104.6201247  23.8577304  50.6277624 104.3836518  23.0494494
  48.1193613 110.4645321  24.6560115  47.5914975 109.7298081  24.3433352
  47.6181116 111.2419998  24.4100083  53.0986459 108.6594342  29.7727161
  52.4410134 109.3493603  29.8607290  53.9026859 109.0490774  30.1161148
  42.8512341 101.1264988  27.0166727  43.4256093 100.9040169  26.2839920
  43.4383323 101.1953682  27.7695328  51.9091918 107.0138715  27.8231103
  52.4223800 107.6468706  28.3252813  52.5593142 106.4139910  27.4574463
  43.1781928 103.1569449  21.0362612  42.3419240 103.4944135  21.3571887
  43.0386698 103.0218429  20.0989749  45.1535009  98.0006237  25.7441796
  44.4999421  97.6855254  25.1198411  45.1115483  97.3781977  26.4701619
  46.2646214 108.2825532  17.6595088  45.3573275 108.0514785  17.8586237
  46.7617246 107.4863151  17.8469070  49.1714292 116.9923039  20.5791774
  48.4975991 117.2954736  21.1876732  49.5580114 117.7952119  20.2297231
  48.3872749 104.4888170  30.0689444  47.4695310 104.7103117  29.9111132
  48.8032893 104.5634481  29.2101151  49.1707797 105.8879586  25.1992124
  49.9179616 106.4000983  24.8899246  49.4399386 105.5663639  26.0596517
  47.4434447 108.3838127  22.1819078  46.5345666 108.0997159  22.2791548
  47.4729531 108.8037205  21.3222385  52.6753714 111.9944716  25.9510246
  52.2216042 111.1535626  26.0075436  52.0447681 112.6306114  26.2885026
  51.6186634 102.9236702  27.1810913  50.8809391 102.4114088  27.5121156
  51.8713408 102.4837084  26.3694190  51.1186654 113.8321213  26.8860064
  51.4109628 114.3926270  26.1672429  51.6285274 114.1249774  27.6413223
  51.7198261  95.7012954  27.7752682  52.0257138  94.8410318  27.4878598
  52.4450866  96.2930574  27.5751676  38.0122617 106.1043641  26.1634280
  37.8147017 105.5113001  25.4385347  37.4569281 105.7995851  26.8810219
  45.9919341 105.9966747  28.2828874  46.0467951 105.0440584  28.2071350
  45.1810543 106.1526186  28.7670172  47.1410535 109.9246870  19.5207157
  46.7029965 109.2082729  19.0612794  47.8820976 110.1522985  18.9592248
  43.9311701 104.6143807  26.0419252  43.1179567 104.9137978  26.4484445
  44.4270695 104.2199496  26.7593735  46.0820279 114.6101564  27.9753517
  46.0396458 114.8362410  27.0462049  46.9982978 114.3764938  28.1239318
  49.5285913 105.0785631  34.8734146  49.8835300 105.3057105  35.7328612
  50.1758044 105.4104008  34.2511402  55.2583650 108.2004067  25.5783475
  55.1201548 108.3905663  24.6504665  54.9019868 108.9623450  26.0351526
  43.4225776 102.1862162  31.6580487  44.0625155 102.0450922  30.9603451
  42.5903306 101.8996676  31.2819089  55.2853029 110.2680594  30.5894747
  55.7189536 110.1755883  31.4377801  55.9984610 110.2438095  29.9514763
  44.1986080 111.4864593  27.7715480  44.9926678 110.9914913  27.5698055
  43.4877772 110.9582456  27.4083185  49.0180924 113.8682688  32.1227847
  49.0717946 114.4373625  32.8905563  48.1495705 114.0384573  31.7581885
  40.5068843 105.6307675  23.8475232  39.5766431 105.5692130  24.0645195
  40.6026315 105.1083627  23.0511874  40.4254392 102.1562487  26.4353474
  40.6861209 103.0707821  26.3262635  41.2471564 101.6886930  26.5850087
  41.8979317 103.5700245  33.6052299  42.5702371 103.3617607  32.9564948
  41.0709104 103.3722331  33.1657531  56.1468579 110.3104295  33.1227632
  56.3404469 111.2150105  33.3686907  56.0469197 109.8511714  33.9566217
  47.8004890 100.1962186  35.6217960  47.1532805 100.8952135  35.5282436
  48.5705905 100.6298329  35.9894208  51.2083687 110.4611038  38.6968513
  51.0569194 110.2321589  37.7798597  51.1988367 111.4181639  38.7099858
  47.9769024 108.0342950  33.6814779  48.9061084 108.1854110  33.5083747
  47.5560054 108.1226971  32.8263426  46.7757356 112.0593615  31.4513317
  46.6368441 111.6912399  32.3239255  45.9871952 112.5741254  31.2797275
  47.3705508 117.1602711  22.7938853  47.5457263 116.6890755  23.6084476
  46.6838296 117.7868478  23.0220114  48.3262571 111.4375218  28.8402155
  47.9912403 111.3975988  29.7359805  47.8266516 110.7719934  28.3672565
  42.3006815 106.8442848  34.3654736  42.1626613 106.1123086  34.9666275
  43.2111738 106.7551748  34.0838924  51.2621762 108.7831252  19.1139214
  50.6450933 108.0578080  19.0172267  50.7938251 109.5440612  18.7706289
  44.9289115 106.5562807  33.8538415  45.6388734 105.9155999  33.8125034
  44.8858424 106.8075702  34.7764596  52.9175894 113.4930160  36.7744995
  52.8588440 112.8089380  36.1075578  53.3195412 114.2349150  36.3225621
  43.6418049 103.5428025  35.6734055  43.1055406 103.0918763  36.3255651
  43.0534758 103.6773934  34.9304519  41.9366593 120.3092074  29.5678714
  42.1763191 120.9410598  30.2457732  41.0935789 119.9580114  29.8544073
  43.0520308 103.0016676  18.2360519  42.1749775 102.8805477  17.8722765
  43.5278061 102.2102755  17.9839407  52.9193301 111.4569744  35.0058974
  52.0320080 111.1195666  35.1285373  53.4891852 110.7252775  35.2427740
  34.5722448 107.7893836  28.3302026  35.2593488 107.4755566  27.7423041
  34.4170577 108.6935201  28.0569277  39.3757171 102.6784033  32.7587049
  39.2915359 102.0709702  32.0237459  38.5539877 103.1693051  32.7596546
  46.4494455 116.1171197  31.9720218  46.3764626 116.9226168  32.4839522
  46.0071848 116.3163162  31.1468239  46.2384234 115.3542967  25.4823039
  45.4551756 115.8964647  25.5761264  46.9376980 115.8716946  25.8817280
  49.5480884 101.1637596  28.1257244  50.0449584 100.4107558  27.8058315
  48.7767866 101.2001913  27.5600454  57.4010642 106.8677962  29.7675536
  57.3900518 107.7502677  29.3969469  56.5328021 106.5149512  29.5730073
  48.9093138 116.0158031  34.1278376  49.6221110 116.6505495  34.0554278
  48.4183167 116.1121897  33.3118378  50.6310665 109.9209283  25.6995668
  49.6966944 110.0410746  25.5300372  50.8087334 109.0181750  25.4355678
  46.1315853 103.3054979  27.8528929  45.7613641 102.7526019  28.5409835
  46.6274946 102.7013113  27.3003929  54.0183217 105.7626603  26.2345702
  54.4843669 106.5954594  26.1606005  54.4690717 105.2971584  26.9390961
  43.9605052 113.7652474  34.9483947  44.6614511 114.3988957  35.1013341
  43.4900167 114.1067206  34.1879586  52.0859448 112.1070424  23.2331854
  52.3619292 111.9927018  24.1425728  51.2163946 111.7087909  23.1944027
  51.9899879  98.1307190  30.2736603  51.0762959  98.3611416  30.4418810
  52.4192981  98.2145634  31.1250636  51.7606338 106.3197082  32.7736497
  51.1077788 106.5672989  32.1188950  52.1386718 105.5061220  32.4398975
  48.7213512 116.3556775  26.8764668  48.9035906 115.5378431  27.3392420
  49.5446498 116.5724467  26.4389558  49.0555677 115.2824960  24.1379716
  49.5843444 114.7717414  23.5249878  49.3183897 114.9667490  25.0025249
  47.8093911 107.0616893  39.2602534  47.1334548 106.9611022  39.9304910
  48.6321545 106.9056106  39.7238532  39.5572770 113.2988829  31.8815050
  40.1426207 112.5532517  32.0142954  39.3597608 113.6092786  32.7651714
  42.4111425 116.3340077  26.8977492  41.7421800 116.8186204  26.4141532
  42.2724295 116.5809297  27.8120871  34.1490425 105.8694429  30.6019493
  34.1874524 105.3358020  31.3956611  33.6430717 105.3429635  29.9830470
  46.5516694 118.3683820  33.4960150  47.1035002 118.5315442  34.2609236
  46.8922887 118.9588258  32.8240175  41.5281187 100.7158970  34.0982035
  41.5922513 101.5773801  33.6859433  41.4648307 100.1032971  33.3654394
  41.0033459 102.7882102  37.7455069  41.6305498 102.4059180  38.3592594
  40.1461378 102.5696304  38.1110762  51.4027568 113.1945078  39.3508805
  51.9467472 113.8075036  38.8563760  50.8214413 113.7524656  39.8675818
  37.7799002 104.5958531  23.6773424  38.0752443 103.6869210  23.6240478
  36.8787038 104.5746271  23.3554427  49.6885081 116.3165796  30.4823833
  49.5636220 115.5155535  29.9734778  50.3464172 116.8111989  29.9937803
  41.3093249 102.6714528  29.6600973  40.5879835 103.2850496  29.5208446
  42.0986505 103.2072293  29.5817619  51.7519989 114.1174816  32.1103383
  50.8050325 113.9980167  32.0381709  52.1002762 113.2297314  32.1929644
  44.1119563 100.0068955  35.9341625  44.6353965 100.2531251  36.6967934
  43.8931896 100.8388989  35.5144762  39.5086844 102.2772629  23.8012749
  39.1799550 101.3970008  23.6187855  39.8626214 102.2220298  24.6889139
  48.7566423 113.9127532  28.3107735  48.6091385 112.9844239  28.4915305
  49.5819916 113.9347623  27.8264810  42.6228667 102.5645599  24.1688227
  42.9624739 103.0931520  23.4466835  43.0700787 102.9026005  24.9446794
  52.3600544 114.7356091  29.3972608  53.2847092 114.5298952  29.2597059
  52.1915848 114.4872492  30.3061949  45.3172108 100.9482650  33.6191295
  44.9768928 100.1490463  34.0211975  44.6111114 101.2484360  33.0468128
  45.9688580  98.0331962  32.0718618  46.7914649  97.5592440  31.9497508
  46.2126643  98.8122446  32.5717304  44.6096814 101.0620221  22.3681520
  45.3305177 101.4401473  21.8645237  43.9862118 101.7809097  22.4716498
  48.7527937 101.7665369  23.3039852  48.9691551 102.6490007  23.0028680
  48.2722004 101.3751583  22.5745494  43.4927158 104.7251083  29.8810597
  43.3471739 105.0391386  30.7734878  43.0152362 105.3435983  29.3281495
  45.3523541 101.7153631  29.9291486  45.3385110 100.8194724  29.5923784
  46.0695969 101.7224294  30.5629772  47.2049672 102.1490971  31.9744614
  46.9467450 103.0708042  31.9728944  46.6734712 101.7521405  32.6645078
  52.1495861 115.2541758  24.7534699  52.3232738 114.6888181  24.0008552
  52.6424752 116.0542653  24.5714189  37.9672820 107.2656427  32.8198258
  37.4226289 108.0416235  32.9518532  38.8452170 107.6127232  32.6617379
  44.7560437 100.5968011  25.1979056  44.8776348  99.6684657  25.3969944
  44.4662480 100.6106697  24.2857372  47.6251628  98.2822921  28.3345776
  47.6473324  98.3462255  27.3797756  48.0419687  97.4427430  28.5286282
  58.0035252 108.0178181  26.3724999  58.4466398 107.2685506  25.9744122
  57.1261762 108.0088317  25.9898731  53.1371033 114.5708522  21.8531597
  53.8321938 115.1915215  22.0718912  53.4794183 113.7203874  22.1283975
  38.7538842 106.3926323  35.7128415  38.0120578 106.5408959  36.2993045
  38.4331587 106.6534589  34.8495164  55.0362456 112.0208228  23.3818928
  55.5613780 112.3595501  22.6568248  54.9484809 111.0855243  23.1982063
  46.6982505 115.9342302  35.5108805  47.0069631 115.6891448  36.3831504
  47.4957987 116.1388940  35.0227675  46.7203117 118.0880211  27.7414181
  46.2808107 117.5956590  28.4347038  47.4711234 117.5453179  27.5006257
  39.1995456 114.2791752  27.7438809  40.0253476 113.9795524  27.3637453
  38.8489508 113.5099375  28.1928598  44.1676989 113.6318220  29.8136483
  43.5456998 112.9688925  29.5138711  44.8381856 113.6579352  29.1310131
  37.4004061 112.1978079  28.7027743  36.5635969 111.7700253  28.5211744
  37.3727707 112.3910522  29.6398534  44.2401517 102.1100008  39.4068989
  44.2889672 102.9862131  39.0246759  44.7824031 101.5677401  38.8340632
  54.7256362 112.6541132  38.6870126  53.9351906 112.6365270  38.1474626
  54.4889717 113.1929425  39.4419163  54.8454237 109.5033598  36.0002855
  54.8952242 109.3383605  36.9418377  54.7368161 108.6360857  35.6100735
  43.7290496 112.1822144  23.2894944  43.8778616 112.8657608  22.6361616
  44.5356940 112.1627234  23.8044399  52.1358000 105.4864526  37.3162161
  53.0367863 105.3470991  37.0246159  52.2105974 105.6518981  38.2560339
  46.4700805 102.8631381  36.1615348  45.6004115 103.1564947  35.8897936
  46.7060285 103.4471826  36.8822611  56.3472434 111.9230539  36.2444876
  56.0557243 112.2860520  37.0808337  55.7344566 111.2097548  36.0658208
  57.5468117 109.4883419  28.7647446  58.3815008 109.9273223  28.9285007
  57.6827245 109.0122072  27.9455692  54.5959622 107.0463154  34.7124934
  55.0713744 107.2390800  33.9043786  53.6725188 107.1022340  34.4668318
  41.4843129 108.2087321  24.2956013  41.2389171 107.3049651  24.4936223
  41.6539044 108.2104472  23.3535491  49.1739839  99.0810998  33.6780768
  49.6921783  99.8172025  33.3527257  48.8194972  99.3874991  34.5127527
  40.7538777 103.9415679  21.7942174  40.0608022 104.0160034  21.1382210
  40.5090529 103.1776023  22.3163691  49.4252433  95.5011280  29.1981665
  49.7054187  94.8334469  29.8242091  50.2103040  95.6940376  28.6856329
  47.2285902 114.6770274  20.7606691  46.6559869 115.2960461  20.3077163
  47.8018695 115.2269636  21.2946613  53.2961291 103.9228914  32.9453240
  54.2478714 104.0227012  32.9665464  53.1264742 103.1307183  33.4551324
  51.3175671 101.0084497  33.1312641  50.7225603 101.2889510  32.4359129
  51.0325368 101.4978398  33.9029382  50.4483161 114.9607424  21.8915273
  51.3813835 114.8952986  22.0948149  50.3606374 115.7963691  21.4329806
  53.0771178 114.2773295  18.8519221  52.9984810 113.9433158  19.7454979
  53.8980845 114.7695063  18.8510693  55.7749369 107.1435034  32.0595539
  55.7425689 106.2051035  32.2455223  56.3849993 107.2219071  31.3261364
  47.6132700 106.0131087  18.1022744  48.5591805 105.8837295  18.1711162
  47.2346945 105.2745749  18.5792172  55.9243858 103.9346077  32.1053823
  55.4082906 103.1504534  31.9183752  56.8083806 103.6064794  32.2700342
  53.5854585  97.6787093  28.0649635  53.3879406  97.3702181  28.9492967
  54.1954290  98.4048732  28.1947565  61.5925919 108.2051041  31.2001576
  62.3229308 107.9436329  31.7609280  60.9832865 107.4679763  31.2403644
  59.6741216 106.3458903  31.7976027  58.9474380 106.2114868  31.1892519
  59.2588503 106.6535732  32.6032746  47.4971393 110.0648833  39.5623400
  48.4174402 110.2427432  39.7563447  47.4620976 109.1204878  39.4103100
  45.7975617 103.9381063  18.0377629  44.8907073 103.6414176  18.1140342
  46.0751598 103.6410881  17.1711915  36.7153558 105.2587427  28.4876675
  36.3956342 104.4052735  28.1951049  36.1686986 105.4736005  29.2434642
  40.4933465 107.9749868  32.2046182  40.7119475 108.9066975  32.2234215
  40.9059239 107.6157842  32.9900985  47.4137683  98.4817953  24.1921870
  46.6038411  98.1365038  24.5677116  48.1022100  98.1725497  24.7809482
  49.3428231  97.5596000  25.8146167  49.8959270  97.9791453  26.4736190
  49.5798318  96.6331748  25.8569123  45.3661331 103.5483073  41.5948931
  45.2658057 104.4977430  41.5261022  45.1482873 103.2201312  40.7225001
  44.5674402 100.7967998  18.1789608  45.4293566 101.1222897  18.4385425
  44.7524746 100.0099494  17.6662674  36.5841818 108.8790338  30.4569797
  35.8905289 108.4644291  29.9439751  37.3314809 108.9210875  29.8603216
  52.7207038  99.6696525  25.3224831  52.1405707 100.3281329  24.9402883
  52.4542971  98.8473870  24.9112248  51.1710605  99.0701583  27.5246151
  51.6710383  99.1818117  26.7160470  51.8146213  98.7662635  28.1646960
  45.2292601 106.9780212  40.4113992  44.7459682 107.7780572  40.6177881
  45.3153540 106.9888157  39.4581436  38.4978560 108.8108592  28.3335812
  38.4749248 108.9096279  27.3817695  38.8079197 109.6573743  28.6552978
  41.1565938 110.8684747  32.4482426  42.1109192 110.8368689  32.3812358
  40.9578462 110.4075371  33.2632652  41.7465320 109.4385863  35.0153224
  42.5658209 109.9329942  35.0388061  42.0202128 108.5217831  34.9870791
  51.5031916 101.8296615  24.3781179  50.6157771 102.1146266  24.1601374
  51.9185905 101.6690379  23.5308456  54.8546453 101.8543136  28.0935518
  55.6306843 102.3439589  28.3660135  54.1294587 102.2801190  28.5507388
  57.2919011 102.5670756  29.1509459  57.8863502 102.3266491  28.4402767
  57.3645595 101.8477886  29.7782995  39.5116167 116.4104366  29.4652624
  39.3770635 115.6504767  28.8990622  39.0948229 117.1345266  28.9981413
  50.6475130 111.5941290  18.4729199  51.3510980 111.7991292  19.0886855
  49.9237779 112.1618052  18.7378283  51.4772940 107.3451151  24.5931469
  51.4208142 107.8019703  23.7539102  52.0301283 106.5841836  24.4154312
  55.2877746 103.1340883  25.4181589  55.0314680 102.7337519  26.2489797
  54.6630614 103.8484677  25.2931728  59.5990084 105.8736956  27.9252880
  59.0389642 105.9430146  28.6984442  58.9933587 105.6977941  27.2052377
  42.6685293 117.3073683  29.6771067  42.5517677 118.2519116  29.5749757
  41.8477739 117.0047245  30.0656866  52.5561827 112.0323819  20.5227659
  53.3907431 111.6005018  20.3405134  52.3946170 111.8605833  21.4504554
  52.2107719 108.5355933  21.8883999  52.1556523 108.3700204  20.9472443
  51.5853775 109.2431965  22.0446188  37.0000234 103.7723997  35.7145421
  37.6459098 103.2622951  36.2032646  36.7917386 104.5092679  36.2888846
  49.5253627 110.8404844  41.2137561  50.3944786 111.0145497  40.8524196
  49.0460378 111.6599261  41.0913291  45.5203845  98.0364042  21.4669317
  45.5082515  98.9805881  21.6237588  46.4127267  97.8534187  21.1728778
  43.6939807 117.9601945  32.8926995  44.5967054 117.9925556  33.2093490
  43.4677177 117.0302396  32.9073331  45.4493409 116.7132932  29.5537074
  44.4989040 116.7134794  29.4401446  45.7525895 115.9665666  29.0373108
  49.3355964  94.6306818  25.7215254  48.5688360  94.0765305  25.8671936
  49.7466669  94.7028687  26.5829405  41.3397725 100.9191614  39.8120435
  42.2029187 100.5628419  40.0223760  40.7663136 100.5805509  40.4995839
  61.1846102 122.5493470  30.6182836  61.8224512 122.4300218  29.9146176
  61.0666945 123.4974314  30.6770788  57.9935809 122.5020898  30.5544361
  57.6554320 122.3861963  29.6664896  58.8625577 122.1012063  30.5345367
  53.8522624 124.3556375  26.5441252  53.2887489 124.2646312  25.7757539
  53.7375019 123.5356279  27.0243744  58.4755592 123.6555750  36.5130566
  58.4644232 123.2608548  35.6411070  58.6376231 122.9221823  37.1064338
  51.3987056 125.8507566  29.3825472  52.1908348 125.5098391  28.9671771
  51.6383706 125.9602541  30.3027625  59.4322183 128.0227343  21.8555717
  58.7810163 128.6081423  21.4689730  60.2266546 128.5533537  21.9150754
  53.3577810 125.1116480  22.2542851  54.1308686 124.5645467  22.1155727
  53.7103209 125.9760729  22.4657312  55.1962853 126.4392862  35.4609750
  54.9052719 127.3438493  35.3456417  55.8319837 126.4809390  36.1753820
  56.1219060 123.8169710  32.0511110  56.7182632 123.5925733  31.3368073
  56.1794031 123.0754456  32.6536558  55.6944088 121.2709146  19.8861301
  55.9469609 120.7490667  19.1244764  54.7568647 121.1075291  19.9887984
  60.7387371 120.2744924  27.6936044  61.5250460 119.8564347  27.3426461
  61.0026075 121.1791016  27.8617692  60.9097448 125.7117774  22.3924701
  60.2743281 125.7852401  23.1045605  60.5794855 126.3011373  21.7143780
  66.1395798 120.2120157  28.5969023  66.8720970 119.6419374  28.8306852
  65.3835154 119.8241758  29.0375528  55.4140377 123.1737252  22.0885676
  55.2976635 122.4982155  22.7566760  55.5242637 122.6869626  21.2717829
  57.7571918 122.6347399  25.7932365  57.3930125 122.1078020  26.5045286
  58.6139034 122.2445868  25.6198850  63.6621218 113.9241731  33.0563631
  63.3304543 114.7937142  32.8324846  63.0666832 113.6078015  33.7357662
  57.3977405 117.6637299  20.7893714  57.5651807 118.5317535  21.1564185
  57.2074574 117.8264580  19.8655003  60.1552738 126.1254277  32.4559544
  59.8553461 127.0279316  32.3475351  59.8103797 125.8586461  33.3080697
  53.6065219 122.5768074  28.4896248  52.6815716 122.4444288  28.6973940
  53.8549633 123.3562294  28.9866191  63.5549882 118.6436818  30.1356981
  62.6466759 118.5752226  29.8415742  63.5037477 119.1208763  30.9638807
  57.3766626 120.1194956  21.7740380  57.2566251 120.5652007  22.6125861
  56.6819214 120.4680274  21.2153918  50.9674030 122.2201348  29.3240037
  51.0966412 122.4735827  30.2379449  50.2871482 122.8129056  29.0044692
  55.1373518 132.8898598  25.4230512  55.0597547 133.8406423  25.5018992
  54.5335161 132.5444470  26.0805438  57.6290747 120.0626463  38.0791878
  56.8524082 120.6220383  38.0694743  58.2681310 120.5483246  38.6006749
  65.4211528 116.8453256  31.9134855  64.7785908 117.1385789  31.2674650
  64.9166457 116.7306176  32.7188052  63.0751692 120.5916429  22.6020714
  63.9869548 120.8243816  22.4268412  62.5661339 121.1753473  22.0395793
  55.8837120 122.8711917  37.6409845  56.6251804 123.4096961  37.3644669
  55.1774105 123.4978205  37.7981397  61.3592459 125.0141057  36.2382007
  61.7675815 124.5723468  35.4936639  60.6369721 124.4393685  36.4916200
  57.7123529 119.9513664  33.6115564  58.5584725 120.3753077  33.7550213
  57.6522167 119.2947288  34.3054127  61.6821274 125.5742248  29.9934296
  61.0530136 125.7387962  29.2910364  61.2946936 125.9883857  30.7645260
  65.5610506 126.5096686  27.3478660  64.8761544 126.8895587  26.7975693
  65.6454355 127.1192012  28.0810607  60.8622975 117.6118032  35.2696738
  60.6183907 118.3660093  34.7331013  61.1382905 117.9903380  36.1043985
  62.8161438 124.1556645  33.9474003  63.0278333 124.7988404  33.2708384
  62.7691186 123.3218961  33.4795933  60.4187666 116.7674465  30.8510575
  59.5572146 117.0655719  31.1427313  60.4450101 116.9844864  29.9191608
  57.2349236 125.3116656  27.2584381  57.6987581 125.5904359  26.4689003
  56.9706034 124.4100100  27.0757472  54.1273317 124.8588137  30.1964144
  54.6974674 125.2875406  29.5581629  54.7181429 124.5770722  30.8948330
  56.1718122 121.4339808  24.0673946  56.8742165 121.8860852  24.5347872
  55.8398750 120.7923627  24.6953839  54.6198483 120.0251565  38.4425155
  53.9897144 120.7067846  38.6760552  54.5134571 119.9134646  37.4978294
  49.9143456 119.6923361  29.3691080  49.1242510 119.9480889  28.8931190
  50.4054703 120.5071699  29.4743120  63.9307265 127.0328600  32.1196360
  64.7524709 126.6308787  31.8379042  63.9269668 126.9296834  33.0712476
  51.8658201 120.0567940  26.3274556  51.0689365 120.1686634  26.8458052
  51.6383794 120.3954592  25.4615447  57.6963869 126.5812643  34.2757071
  57.7608301 127.0433051  35.1115243  56.9874793 125.9510008  34.4039381
  48.1981159 119.9453851  31.8006070  48.4489197 120.8300861  32.0663646
  48.7340707 119.7658453  31.0281162  72.0213259 123.3767348  28.4681332
  71.2676967 122.8074747  28.3125336  72.1560800 123.3430013  29.4151967
  57.4111887 128.2480751  24.1436051  57.2757561 129.0932286  24.5720899
  57.9521699 128.4500028  23.3801985  53.8979226 114.3272331  40.8050407
  53.5046172 113.7738529  41.4798051  54.7145367 114.6382909  41.1956924
  50.8641284 125.7656189  24.7163976  51.3765805 126.5599439  24.8669541
  51.5163997 125.0682479  24.6497578  52.6736169 128.8821945  26.7986730
  52.8502797 129.8039910  26.6107713  53.4693002 128.5680364  27.2281109
  56.8147187 115.7430210  38.3970663  57.5556901 116.3437363  38.3175126
  57.0465110 115.0007847  37.8388706  51.9588525 120.9286577  36.6748893
  51.8442040 120.0271834  36.9755992  51.1033043 121.1750274  36.3233709
  59.0380363 128.8704317  38.2736393  58.5944217 128.0840696  37.9557298
  59.6997577 129.0583468  37.6080284  53.7967484 130.4000119  32.7997072
  54.3474909 130.2717182  32.0274066  52.9578960 130.6995008  32.4491965
  61.1361601 129.1507117  36.3017795  61.1180076 129.9715998  35.8098064
  62.0581521 129.0261192  36.5267936  57.5934655 126.6651247  37.1441303
  58.1262992 125.9039535  36.9140611  57.0648736 126.3724898  37.8865457
  60.7604350 111.7711313  32.6734945  60.4168620 112.6612954  32.5974055
  61.1283313 111.5812970  31.8104530  48.8290201 124.0944843  25.4923547
  49.6665423 124.5041851  25.2757255  49.0068468 123.1544285  25.4623741
  60.7254633 121.7619924  21.1807380  60.2101256 122.5324528  21.4195767
  60.4531941 121.0885060  21.8040441  58.3101744 116.6069625  26.2392618
  57.4543340 116.2176475  26.0598257  58.7228696 116.6861585  25.3792404
  59.8400891 114.1415968  30.6384178  59.3365686 114.1046103  29.8251983
  60.1331497 115.0508711  30.6980835  56.0843776 114.2254698  29.6450360
  56.9496773 114.0297506  29.2856249  56.1521285 113.9965049  30.5719716
  65.6988907 124.5152278  23.1160553  64.9218350 124.1763438  22.6715715
  66.3780388 124.5204902  22.4415518  60.5140936 119.6347016  23.0067161
  60.2091072 119.9493165  23.8577304  61.4671378 119.7128436  23.0494494
  58.9587368 125.7937239  24.6560115  58.4308729 125.0589999  24.3433352
  58.4574871 126.5711916  24.4100083  63.9380214 123.9886260  29.7727161
  63.2803888 124.6785521  29.8607290  64.7420613 124.3782692  30.1161148
  53.6906096 116.4556905  27.0166727  54.2649847 116.2332087  26.2839920
  54.2777078 116.5245600  27.7695328  62.7485673 122.3430632  27.8231103
  63.2617554 122.9760624  28.3252813  63.3986897 121.7431828  27.4574463
  54.0175683 118.4861366  21.0362612  53.1812995 118.8236053  21.3571887
  53.8780452 118.3510346  20.0989749  55.9928763 113.3298154  25.7441796
  55.3393176 113.0147172  25.1198411  55.9509237 112.7073895  26.4701619
  57.1039968 123.6117449  17.6595088  56.1967030 123.3806703  17.8586237
  57.6011000 122.8155069  17.8469070  60.0108047 132.3214957  20.5791774
  59.3369746 132.6246653  21.1876732  60.3973869 133.1244037  20.2297231
  59.2266504 119.8180088  30.0689444  58.3089065 120.0395035  29.9111132
  59.6426647 119.8926398  29.2101151  60.0101551 121.2171504  25.1992124
  60.7573370 121.7292901  24.8899246  60.2793141 120.8955556  26.0596517
  58.2828202 123.7130044  22.1819078  57.3739421 123.4289077  22.2791548
  58.3123285 124.1329123  21.3222385  63.5147469 127.3236634  25.9510246
  63.0609796 126.4827544  26.0075436  62.8841436 127.9598032  26.2885026
  62.4580388 118.2528620  27.1810913  61.7203145 117.7406006  27.5121156
  62.7107162 117.8129001  26.3694190  61.9580408 129.1613130  26.8860064
  62.2503383 129.7218188  26.1672429  62.4679029 129.4541691  27.6413223
  62.5592016 111.0304872  27.7752682  62.8650893 110.1702235  27.4878598
  63.2844621 111.6222492  27.5751676  48.8516372 121.4335558  26.1634280
  48.6540772 120.8404919  25.4385347  48.2963036 121.1287769  26.8810219
  56.8313096 121.3258665  28.2828874  56.8861705 120.3732501  28.2071350
  56.0204298 121.4818104  28.7670172  57.9804289 125.2538788  19.5207157
  57.5423719 124.5374647  19.0612794  58.7214730 125.4814903  18.9592248
  54.7705455 119.9435725  26.0419252  53.9573321 120.2429895  26.4484445
  55.2664450 119.5491413  26.7593735  56.9214033 129.9393482  27.9753517
  56.8790212 130.1654328  27.0462049  57.8376732 129.7056856  28.1239318
  60.3679667 120.4077549  34.8734146  60.7229055 120.6349022  35.7328612
  61.0151798 120.7395926  34.2511402  66.0977404 123.5295985  25.5783475
  65.9595303 123.7197581  24.6504665  65.7413623 124.2915368  26.0351526
  54.2619530 117.5154080  31.6580487  54.9018910 117.3742839  30.9603451
  53.4297061 117.2288594  31.2819089  66.1246784 125.5972512  30.5894747
  66.5583290 125.5047801  31.4377801  66.8378364 125.5730012  29.9514763
  55.0379834 126.8156511  27.7715480  55.8320433 126.3206831  27.5698055
  54.3271527 126.2874374  27.4083185  59.8574679 129.1974606  32.1227847
  59.9111701 129.7665542  32.8905563  58.9889460 129.3676491  31.7581885
  51.3462598 120.9599592  23.8475232  50.4160186 120.8984048  24.0645195
  51.4420070 120.4375545  23.0511874  51.2648147 117.4854405  26.4353474
  51.5254964 118.3999738  26.3262635  52.0865319 117.0178848  26.5850087
  52.7373072 118.8992162  33.6052299  53.4096125 118.6909524  32.9564948
  51.9102859 118.7014248  33.1657531  66.9862333 125.6396213  33.1227632
  67.1798223 126.5442023  33.3686907  66.8862951 125.1803632  33.9566217
  58.6398644 115.5254103  35.6217960  57.9926559 116.2244053  35.5282436
  59.4099659 115.9590247  35.9894208  62.0477442 125.7902955  38.6968513
  61.8962948 125.5613507  37.7798597  62.0382121 126.7473557  38.7099858
  58.8162778 123.3634868  33.6814779  59.7454838 123.5146028  33.5083747
  58.3953808 123.4518889  32.8263426  57.6151110 127.3885533  31.4513317
  57.4762196 127.0204317  32.3239255  56.8265706 127.9033172  31.2797275
  58.2099262 132.4894629  22.7938853  58.3851018 132.0182672  23.6084476
  57.5232050 133.1160395  23.0220114  59.1656325 126.7667135  28.8402155
  58.8306158 126.7267905  29.7359805  58.6660271 126.1011851  28.3672565
  53.1400569 122.1734765  34.3654736  53.0020367 121.4415004  34.9666275
  54.0505493 122.0843665  34.0838924  62.1015517 124.1123170  19.1139214
  61.4844688 123.3869998  19.0172267  61.6332005 124.8732530  18.7706289
  55.7682870 121.8854725  33.8538415  56.4782488 121.2447917  33.8125034
  55.7252178 122.1367619  34.7764596  63.7569649 128.8222078  36.7744995
  63.6982195 128.1381298  36.1075578  64.1589167 129.5641068  36.3225621
  54.4811804 118.8719943  35.6734055  53.9449161 118.4210681  36.3255651
  53.8928512 119.0065851  34.9304519  53.8914063 118.3308594  18.2360519
  53.0143529 118.2097395  17.8722765  54.3671816 117.5394672  17.9839407
  63.7587056 126.7861662  35.0058974  62.8713835 126.4487584  35.1285373
  64.3285607 126.0544693  35.2427740  45.4116203 123.1185754  28.3302026
  46.0987243 122.8047484  27.7423041  45.2564332 124.0227118  28.0569277
  50.2150925 118.0075950  32.7587049  50.1309114 117.4001620  32.0237459
  49.3933632 118.4984969  32.7596546  57.2888209 131.4463114  31.9720218
  57.2158381 132.2518086  32.4839522  56.8465602 131.6455080  31.1468239
  57.0777989 130.6834884  25.4823039  56.2945511 131.2256564  25.5761264
  57.7770734 131.2008864  25.8817280  60.3874639 116.4929514  28.1257244
  60.8843339 115.7399476  27.8058315  59.6161620 116.5293830  27.5600454
  68.2404396 122.1969879  29.7675536  68.2294273 123.0794595  29.3969469
  67.3721776 121.8441430  29.5730073  59.7486893 131.3449948  34.1278376
  60.4614865 131.9797413  34.0554278  59.2576921 131.4413814  33.3118378
  61.4704420 125.2501201  25.6995668  60.5360698 125.3702663  25.5300372
  61.6481088 124.3473668  25.4355678  56.9709608 118.6346897  27.8528929
  56.6007395 118.0817937  28.5409835  57.4668700 118.0305030  27.3003929
  64.8576971 121.0918520  26.2345702  65.3237423 121.9246512  26.1606005
  65.3084472 120.6263502  26.9390961  54.7998806 129.0944392  34.9483947
  55.5008266 129.7280875  35.1013341  54.3293921 129.4359123  34.1879586
  62.9253202 127.4362342  23.2331854  63.2013046 127.3218936  24.1425728
  62.0557701 127.0379826  23.1944027  62.8293634 113.4599107  30.2736603
  61.9156714 113.6903334  30.4418810  63.2586735 113.5437551  31.1250636
  62.6000092 121.6488999  32.7736497  61.9471543 121.8964907  32.1188950
  62.9780472 120.8353137  32.4398975  59.5607266 131.6848692  26.8764668
  59.7429661 130.8670348  27.3392420  60.3840252 131.9016385  26.4389558
  59.8949432 130.6116877  24.1379716  60.4237198 130.1009332  23.5249878
  60.1577651 130.2959408  25.0025249  58.6487665 122.3908810  39.2602534
  57.9728302 122.2902940  39.9304910  59.4715299 122.2348024  39.7238532
  50.3966524 128.6280747  31.8815050  50.9819961 127.8824435  32.0142954
  50.1991363 128.9384703  32.7651714  53.2505180 131.6631994  26.8977492
  52.5815555 132.1478122  26.4141532  53.1118049 131.9101215  27.8120871
  44.9884179 121.1986347  30.6019493  45.0268279 120.6649938  31.3956611
  44.4824472 120.6721553  29.9830470  57.3910448 133.6975738  33.4960150
  57.9428756 133.8607359  34.2609236  57.7316642 134.2880176  32.8240175
  52.3674941 116.0450888  34.0982035  52.4316268 116.9065718  33.6859433
  52.3042062 115.4324889  33.3654394  51.8427214 118.1174020  37.7455069
  52.4699253 117.7351097  38.3592594  50.9855133 117.8988222  38.1110762
  62.2421322 128.5236995  39.3508805  62.7861226 129.1366953  38.8563760
  61.6608167 129.0816574  39.8675818  48.6192757 119.9250449  23.6773424
  48.9146198 119.0161128  23.6240478  47.7180792 119.9038189  23.3554427
  60.5278835 131.6457713  30.4823833  60.4029975 130.8447453  29.9734778
  61.1857927 132.1403907  29.9937803  52.1487004 118.0006446  29.6600973
  51.4273589 118.6142413  29.5208446  52.9380259 118.5364211  29.5817619
  62.5913744 129.4466733  32.1103383  61.6444079 129.3272084  32.0381709
  62.9396517 128.5589231  32.1929644  54.9513317 115.3360872  35.9341625
  55.4747719 115.5823169  36.6967934  54.7325650 116.1680907  35.5144762
  50.3480598 117.6064547  23.8012749  50.0193304 116.7261926  23.6187855
  50.7019969 117.5512216  24.6889139  59.5960177 129.2419450  28.3107735
  59.4485140 128.3136157  28.4915305  60.4213671 129.2639540  27.8264810
  53.4622421 117.8937517  24.1688227  53.8018494 118.4223438  23.4466835
  53.9094542 118.2317923  24.9446794  63.1994299 130.0648008  29.3972608
  64.1240846 129.8590870  29.2597059  63.0309602 129.8164409  30.3061949
  56.1565862 116.2774567  33.6191295  55.8162683 115.4782380  34.0211975
  55.4504869 116.5776278  33.0468128  56.8082334 113.3623880  32.0718618
  57.6308403 112.8884358  31.9497508  57.0520398 114.1414364  32.5717304
  55.4490569 116.3912138  22.3681520  56.1698931 116.7693391  21.8645237
  54.8255873 117.1101015  22.4716498  59.5921691 117.0957287  23.3039852
  59.8085306 117.9781925  23.0028680  59.1115759 116.7043501  22.5745494
  54.3320913 120.0543000  29.8810597  54.1865494 120.3683303  30.7734878
  53.8546116 120.6727901  29.3281495  56.1917296 117.0445548  29.9291486
  56.1778864 116.1486642  29.5923784  56.9089724 117.0516212  30.5629772
  58.0443426 117.4782889  31.9744614  57.7861204 118.3999959  31.9728944
  57.5128467 117.0813323  32.6645078  62.9889615 130.5833676  24.7534699
  63.1626493 130.0180098  24.0008552  63.4818506 131.3834571  24.5714189
  48.8066575 122.5948345  32.8198258  48.2620043 123.3708153  32.9518532
  49.6845925 122.9419149  32.6617379  55.5954192 115.9259929  25.1979056
  55.7170103 114.9976575  25.3969944  55.3056234 115.9398615  24.2857372
  58.4645382 113.6114839  28.3345776  58.4867079 113.6754172  27.3797756
  58.8813441 112.7719348  28.5286282  68.8429006 123.3470099  26.3724999
  69.2860152 122.5977424  25.9744122  67.9655517 123.3380235  25.9898731
  63.9764788 129.9000440  21.8531597  64.6715692 130.5207133  22.0718912
  64.3187938 129.0495791  22.1283975  49.5932597 121.7218241  35.7128415
  48.8514333 121.8700876  36.2993045  49.2725341 121.9826507  34.8495164
  65.8756211 127.3500146  23.3818928  66.4007535 127.6887418  22.6568248
  65.7878563 126.4147161  23.1982063  57.5376259 131.2634219  35.5108805
  57.8463386 131.0183366  36.3831504  58.3351742 131.4680858  35.0227675
  57.5596872 133.4172129  27.7414181  57.1201862 132.9248508  28.4347038
  58.3104988 132.8745097  27.5006257  50.0389211 129.6083670  27.7438809
  50.8647230 129.3087442  27.3637453  49.6883263 128.8391292  28.1928598
  55.0070744 128.9610138  29.8136483  54.3850753 128.2980843  29.5138711
  55.6775611 128.9871270  29.1310131  48.2397816 127.5269996  28.7027743
  47.4029724 127.0992171  28.5211744  48.2121461 127.7202440  29.6398534
  55.0795271 117.4391926  39.4068989  55.1283427 118.3154049  39.0246759
  55.6217785 116.8969319  38.8340632  65.5650117 127.9833049  38.6870126
  64.7745661 127.9657188  38.1474626  65.3283471 128.5221343  39.4419163
  65.6847992 124.8325516  36.0002855  65.7345997 124.6675523  36.9418377
  65.5761915 123.9652775  35.6100735  54.5684251 127.5114061  23.2894944
  54.7172371 128.1949526  22.6361616  55.3750694 127.4919151  23.8044399
  62.9751754 120.8156444  37.3162161  63.8761617 120.6762909  37.0246159
  63.0499729 120.9810899  38.2560339  57.3094560 118.1923298  36.1615348
  56.4397869 118.4856864  35.8897936  57.5454040 118.7763743  36.8822611
  67.1866189 127.2522457  36.2444876  66.8950997 127.6152438  37.0808337
  66.5738320 126.5389465  36.0658208  68.3861871 124.8175337  28.7647446
  69.2208762 125.2565141  28.9285007  68.5221000 124.3413990  27.9455692
  65.4353377 122.3755072  34.7124934  65.9107499 122.5682718  33.9043786
  64.5118942 122.4314258  34.4668318  52.3236884 123.5379239  24.2956013
  52.0782926 122.6341569  24.4936223  52.4932798 123.5396389  23.3535491
  60.0133593 114.4102915  33.6780768  60.5315537 115.1463942  33.3527257
  59.6588726 114.7166909  34.5127527  51.5932531 119.2707597  21.7942174
  50.9001776 119.3451952  21.1382210  51.3484283 118.5067940  22.3163691
  60.2646188 110.8303198  29.1981665  60.5447941 110.1626387  29.8242091
  61.0496795 111.0232294  28.6856329  58.0679656 130.0062192  20.7606691
  57.4953623 130.6252379  20.3077163  58.6412450 130.5561553  21.2946613
  64.1355046 119.2520832  32.9453240  65.0872469 119.3518930  32.9665464
  63.9658496 118.4599100  33.4551324  62.1569425 116.3376415  33.1312641
  61.5619358 116.6181428  32.4359129  61.8719122 116.8270316  33.9029382
  61.2876916 130.2899342  21.8915273  62.2207589 130.2244904  22.0948149
  61.2000129 131.1255609  21.4329806  63.9164933 129.6065212  18.8519221
  63.8378564 129.2725076  19.7454979  64.7374599 130.0986980  18.8510693
  66.6143124 122.4726952  32.0595539  66.5819444 121.5342952  32.2455223
  67.2243747 122.5510988  31.3261364  58.4526455 121.3423005  18.1022744
  59.3985559 121.2129213  18.1711162  58.0740700 120.6037666  18.5792172
  66.7637612 119.2637995  32.1053823  66.2476661 118.4796452  31.9183752
  67.6477561 118.9356712  32.2700342  64.4248339 113.0079011  28.0649635
  64.2273160 112.6994099  28.9492967  65.0348045 113.7340649  28.1947565
  72.4319674 123.5342958  31.2001576  73.1623062 123.2728247  31.7609280
  71.8226619 122.7971680  31.2403644  70.5134971 121.6750821  31.7976027
  69.7868134 121.5406786  31.1892519  70.0982258 121.9827650  32.6032746
  58.3365147 125.3940751  39.5623400  59.2568157 125.5719350  39.7563447
  58.3014730 124.4496796  39.4103100  56.6369372 119.2672981  18.0377629
  55.7300827 118.9706094  18.1140342  56.9145353 118.9702799  17.1711915
  47.5547312 120.5879344  28.4876675  47.2350097 119.7344653  28.1951049
  47.0080740 120.8027922  29.2434642  51.3327220 123.3041785  32.2046182
  51.5513229 124.2358893  32.2234215  51.7452994 122.9449760  32.9900985
  58.2531438 113.8109871  24.1921870  57.4432166 113.4656956  24.5677116
  58.9415854 113.5017414  24.7809482  60.1821986 112.8887917  25.8146167
  60.7353024 113.3083371  26.4736190  60.4192072 111.9623666  25.8569123
  56.2055085 118.8774991  41.5948931  56.1051812 119.8269348  41.5261022
  55.9876627 118.5493230  40.7225001  55.4068156 116.1259916  18.1789608
  56.2687320 116.4514814  18.4385425  55.5918501 115.3391412  17.6662674
  47.4235572 124.2082256  30.4569797  46.7299044 123.7936209  29.9439751
  48.1708563 124.2502792  29.8603216  63.5600793 114.9988443  25.3224831
  62.9799462 115.6573247  24.9402883  63.2936726 114.1765787  24.9112248
  62.0104359 114.3993500  27.5246151  62.5104138 114.5110035  26.7160470
  62.6539967 114.0954553  28.1646960  56.0686355 122.3072130  40.4113992
  55.5853437 123.1072490  40.6177881  56.1547294 122.3180075  39.4581436
  49.3372315 124.1400510  28.3335812  49.3143003 124.2388197  27.3817695
  49.6472951 124.9865660  28.6552978  51.9959693 126.1976665  32.4482426
  52.9502946 126.1660607  32.3812358  51.7972216 125.7367288  33.2632652
  52.5859075 124.7677781  35.0153224  53.4051964 125.2621859  35.0388061
  52.8595882 123.8509749  34.9870791  62.3425671 117.1588533  24.3781179
  61.4551526 117.4438184  24.1601374  62.7579660 116.9982296  23.5308456
  65.6940207 117.1835054  28.0935518  66.4700597 117.6731506  28.3660135
  64.9688341 117.6093108  28.5507388  68.1312766 117.8962673  29.1509459
  68.7257256 117.6558409  28.4402767  68.2039349 117.1769804  29.7782995
  50.3509921 131.7396284  29.4652624  50.2164389 130.9796685  28.8990622
  49.9341984 132.4637184  28.9981413  61.4868884 126.9233208  18.4729199
  62.1904734 127.1283210  19.0886855  60.7631533 127.4909970  18.7378283
  62.3166695 122.6743069  24.5931469  62.2601896 123.1311620  23.7539102
  62.8695037 121.9133754  24.4154312  66.1271501 118.4632801  25.4181589
  65.8708435 118.0629436  26.2489797  65.5024369 119.1776595  25.2931728
  70.4383838 121.2028874  27.9252880  69.8783396 121.2722063  28.6984442
  69.8327342 121.0269859  27.2052377  53.5079047 132.6365601  29.6771067
  53.3911431 133.5811034  29.5749757  52.6871493 132.3339163  30.0656866
  63.3955582 127.3615737  20.5227659  64.2301186 126.9296935  20.3405134
  63.2339925 127.1897751  21.4504554  63.0501474 123.8647850  21.8883999
  62.9950278 123.6992122  20.9472443  62.4247529 124.5723883  22.0446188
  47.8393989 119.1015915  35.7145421  48.4852853 118.5914869  36.2032646
  47.6311140 119.8384596  36.2888846  60.3647381 126.1696762  41.2137561
  61.2338541 126.3437414  40.8524196  59.8854133 126.9891179  41.0913291
  56.3597599 113.3655959  21.4669317  56.3476269 114.3097799  21.6237588
  57.2521021 113.1826105  21.1728778  54.5333561 133.2893863  32.8926995
  55.4360808 133.3217473  33.2093490  54.3070931 132.3594314  32.9073331
  56.2887163 132.0424850  29.5537074  55.3382794 132.0426711  29.4401446
  56.5919650 131.2957584  29.0373108  60.1749719 109.9598736  25.7215254
  59.4082115 109.4057223  25.8671936  60.5860424 110.0320605  26.5829405
  52.1791480 116.2483532  39.8120435  53.0422941 115.8920336  40.0223760
  51.6056891 115.9097426  40.4995839  72.0239857 137.8785388  30.6182836
  72.6618267 137.7592135  29.9146176  71.9060700 138.8266232  30.6770788
  68.8329563 137.8312816  30.5544361  68.4948075 137.7153881  29.6664896
  69.7019331 137.4303981  30.5345367  64.6916379 139.6848292  26.5441252
  64.1281244 139.5938229  25.7757539  64.5768774 138.8648197  27.0243744
  69.3149346 138.9847668  36.5130566  69.3037987 138.5900466  35.6411070
  69.4769986 138.2513740  37.1064338  66.9612814 139.1461628  32.0511110
  67.5576386 138.9217651  31.3368073  67.0187786 138.4046374  32.6536558
  71.5781125 135.6036842  27.6936044  72.3644215 135.1856265  27.3426461
  71.8419830 136.5082934  27.8617692  76.9789552 135.5412075  28.5969023
  77.7114724 134.9711292  28.8306852  76.2228908 135.1533675  29.0375528
  68.5965672 137.9639317  25.7932365  68.2323879 137.4369937  26.5045286
  69.4532788 137.5737786  25.6198850  74.5014973 129.2533649  33.0563631
  74.1698298 130.1229060  32.8324846  73.9060586 128.9369933  33.7357662
  70.9946492 141.4546195  32.4559544  70.6947215 142.3571234  32.3475351
  70.6497552 141.1878378  33.3080697  64.4458974 137.9059992  28.4896248
  63.5209470 137.7736206  28.6973940  64.6943387 138.6854211  28.9866191
  74.3943636 133.9728735  30.1356981  73.4860513 133.9044144  29.8415742
  74.3431232 134.4500680  30.9638807  61.8067785 137.5493266  29.3240037
  61.9360166 137.8027744  30.2379449  61.1265236 138.1420974  29.0044692
  68.4684502 135.3918381  38.0791878  67.6917836 135.9512301  38.0694743
  69.1075065 135.8775164  38.6006749  76.2605283 132.1745174  31.9134855
  75.6179663 132.4677707  31.2674650  75.7560211 132.0598094  32.7188052
  66.7230874 138.2003834  37.6409845  67.4645559 138.7388878  37.3644669
  66.0167860 138.8270123  37.7981397  72.1986214 140.3432975  36.2382007
  72.6069570 139.9015385  35.4936639  71.4763475 139.7685602  36.4916200
  68.5517284 135.2805581  33.6115564  69.3978479 135.7044995  33.7550213
  68.4915922 134.6239206  34.3054127  72.5215029 140.9034165  29.9934296
  71.8923891 141.0679879  29.2910364  72.1340691 141.3175775  30.7645260
  71.7016729 132.9409950  35.2696738  71.4577661 133.6952010  34.7331013
  71.9776660 133.3195297  36.1043985  73.6555192 139.4848562  33.9474003
  73.8672087 140.1280322  33.2708384  73.6084940 138.6510879  33.4795933
  71.2581421 132.0966383  30.8510575  70.3965900 132.3947636  31.1427313
  71.2843856 132.3136782  29.9191608  68.0742990 140.6408573  27.2584381
  68.5381336 140.9196276  26.4689003  67.8099789 139.7392018  27.0757472
  67.0111876 136.7631726  24.0673946  67.7135920 137.2152769  24.5347872
  66.6792505 136.1215545  24.6953839  65.4592238 135.3543482  38.4425155
  64.8290899 136.0359763  38.6760552  65.3528326 135.2426564  37.4978294
  60.7537210 135.0215278  29.3691080  59.9636264 135.2772807  28.8931190
  61.2448458 135.8363616  29.4743120  74.7701020 142.3620518  32.1196360
  75.5918464 141.9600705  31.8379042  74.7663423 142.2588752  33.0712476
  62.7051956 135.3859858  26.3274556  61.9083119 135.4978552  26.8458052
  62.4777548 135.7246510  25.4615447  59.0374913 135.2745769  31.8006070
  59.2882952 136.1592779  32.0663646  59.5734462 135.0950370  31.0281162
  64.7372981 129.6564248  40.8050407  64.3439926 129.1030447  41.4798051
  65.5539121 129.9674827  41.1956924  67.6540942 131.0722127  38.3970663
  68.3950655 131.6729281  38.3175126  67.8858865 130.3299765  37.8388706
  62.7982280 136.2578495  36.6748893  62.6835795 135.3563752  36.9755992
  61.9426797 136.5042191  36.3233709  71.5998105 127.1003230  32.6734945
  71.2562374 127.9904872  32.5974055  71.9677067 126.9104888  31.8104530
  69.1495498 131.9361542  26.2392618  68.2937095 131.5468393  26.0598257
  69.5622450 132.0153503  25.3792404  70.6794645 129.4707885  30.6384178
  70.1759441 129.4338021  29.8251983  70.9725252 130.3800628  30.6980835
  66.9237531 129.5546615  29.6450360  67.7890528 129.3589424  29.2856249
  66.9915040 129.3256967  30.5719716  74.7773968 139.3178177  29.7727161
  74.1197643 140.0077439  29.8607290  75.5814368 139.7074609  30.1161148
  64.5299850 131.7848823  27.0166727  65.1043602 131.5624005  26.2839920
  65.1170832 131.8537518  27.7695328  73.5879427 137.6722550  27.8231103
  74.1011309 138.3052542  28.3252813  74.2380651 137.0723746  27.4574463
  66.8322518 128.6590072  25.7441796  66.1786930 128.3439089  25.1198411
  66.7902992 128.0365812  26.4701619  70.0660258 135.1472006  30.0689444
  69.1482819 135.3686953  29.9111132  70.4820402 135.2218316  29.2101151
  73.2974143 133.5820538  27.1810913  72.5596900 133.0697924  27.5121156
  73.5500917 133.1420919  26.3694190  73.3985770 126.3596790  27.7752682
  73.7044647 125.4994153  27.4878598  74.1238375 126.9514410  27.5751676
  59.6910126 136.7627476  26.1634280  59.4934526 136.1696837  25.4385347
  59.1356790 136.4579686  26.8810219  67.6706850 136.6550583  28.2828874
  67.7255460 135.7024419  28.2071350  66.8598052 136.8110022  28.7670172
  65.6099210 135.2727642  26.0419252  64.7967075 135.5721813  26.4484445
  66.1058204 134.8783331  26.7593735  71.2073422 135.7369467  34.8734146
  71.5622809 135.9640940  35.7328612  71.8545553 136.0687844  34.2511402
  65.1013285 132.8445998  31.6580487  65.7412664 132.7034757  30.9603451
  64.2690815 132.5580511  31.2819089  62.1856352 136.2891510  23.8475232
  61.2553940 136.2275965  24.0645195  62.2813824 135.7667463  23.0511874
  62.1041901 132.8146323  26.4353474  62.3648718 133.7291656  26.3262635
  62.9259073 132.3470765  26.5850087  63.5766826 134.2284080  33.6052299
  64.2489880 134.0201442  32.9564948  62.7496613 134.0306166  33.1657531
  77.8256088 140.9688130  33.1227632  78.0191978 141.8733941  33.3686907
  77.7256706 140.5095549  33.9566217  69.4792398 130.8546021  35.6217960
  68.8320314 131.5535971  35.5282436  70.2493414 131.2882165  35.9894208
  72.8871196 141.1194873  38.6968513  72.7356703 140.8905425  37.7798597
  72.8775876 142.0765475  38.7099858  69.6556533 138.6926786  33.6814779
  70.5848593 138.8437945  33.5083747  69.2347563 138.7810807  32.8263426
  63.9794324 137.5026683  34.3654736  63.8414122 136.7706922  34.9666275
  64.8899247 137.4135583  34.0838924  66.6076624 137.2146642  33.8538415
  67.3176243 136.5739834  33.8125034  66.5645933 137.4659537  34.7764596
  65.3205558 134.2011860  35.6734055  64.7842915 133.7502599  36.3255651
  64.7322267 134.3357769  34.9304519  74.5980810 142.1153580  35.0058974
  73.7107589 141.7779501  35.1285373  75.1679361 141.3836611  35.2427740
  61.0544680 133.3367868  32.7587049  60.9702868 132.7293537  32.0237459
  60.2327386 133.8276886  32.7596546  71.2268393 131.8221431  28.1257244
  71.7237093 131.0691394  27.8058315  70.4555375 131.8585748  27.5600454
  79.0798151 137.5261797  29.7675536  79.0688027 138.4086512  29.3969469
  78.2115530 137.1733348  29.5730073  67.8103362 133.9638814  27.8528929
  67.4401150 133.4109855  28.5409835  68.3062455 133.3596948  27.3003929
  73.6687388 128.7891025  30.2736603  72.7550468 129.0195252  30.4418810
  74.0980490 128.8729469  31.1250636  73.4393847 136.9780917  32.7736497
  72.7865297 137.2256824  32.1188950  73.8174227 136.1645055  32.4398975
  69.4881420 137.7200728  39.2602534  68.8122057 137.6194857  39.9304910
  70.3109054 137.5639942  39.7238532  55.8277934 136.5278265  30.6019493
  55.8662033 135.9941855  31.3956611  55.3218226 136.0013470  29.9830470
  63.2068696 131.3742805  34.0982035  63.2710022 132.2357636  33.6859433
  63.1435816 130.7616807  33.3654394  62.6820968 133.4465938  37.7455069
  63.3093007 133.0643015  38.3592594  61.8248887 133.2280140  38.1110762
  59.4586511 135.2542367  23.6773424  59.7539952 134.3453045  23.6240478
  58.5574547 135.2330106  23.3554427  62.9880758 133.3298363  29.6600973
  62.2667344 133.9434331  29.5208446  63.7774014 133.8656128  29.5817619
  65.7907072 130.6652790  35.9341625  66.3141474 130.9115086  36.6967934
  65.5719405 131.4972825  35.5144762  61.1874353 132.9356464  23.8012749
  60.8587059 132.0553843  23.6187855  61.5413723 132.8804133  24.6889139
  64.3016176 133.2229434  24.1688227  64.6412248 133.7515356  23.4466835
  64.7488296 133.5609840  24.9446794  66.9959617 131.6066485  33.6191295
  66.6556437 130.8074298  34.0211975  66.2898623 131.9068196  33.0468128
  67.6476089 128.6915797  32.0718618  68.4702158 128.2176276  31.9497508
  67.8914152 129.4706281  32.5717304  66.2884323 131.7204056  22.3681520
  67.0092686 132.0985309  21.8645237  65.6649627 132.4392933  22.4716498
  70.4315446 132.4249205  23.3039852  70.6479060 133.3073843  23.0028680
  69.9509513 132.0335418  22.5745494  65.1714667 135.3834918  29.8810597
  65.0259248 135.6975221  30.7734878  64.6939871 136.0019818  29.3281495
  67.0311050 132.3737466  29.9291486  67.0172619 131.4778559  29.5923784
  67.7483478 132.3808130  30.5629772  68.8837181 132.8074806  31.9744614
  68.6254959 133.7291877  31.9728944  68.3522221 132.4105241  32.6645078
  66.4347946 131.2551846  25.1979056  66.5563857 130.3268493  25.3969944
  66.1449989 131.2690532  24.2857372  69.3039137 128.9406757  28.3345776
  69.3260833 129.0046090  27.3797756  69.7207196 128.1011265  28.5286282
  60.4326351 137.0510159  35.7128415  59.6908087 137.1992794  36.2993045
  60.1119096 137.3118424  34.8495164  65.9189026 132.7683844  39.4068989
  65.9677181 133.6445967  39.0246759  66.4611540 132.2261237  38.8340632
  76.4043871 143.3124967  38.6870126  75.6139415 143.2949106  38.1474626
  76.1677226 143.8513261  39.4419163  76.5241746 140.1617433  36.0002855
  76.5739751 139.9967441  36.9418377  76.4155670 139.2944692  35.6100735
  73.8145509 136.1448361  37.3162161  74.7155372 136.0054826  37.0246159
  73.8893483 136.3102816  38.2560339  68.1488314 133.5215216  36.1615348
  67.2791624 133.8148782  35.8897936  68.3847794 134.1055661  36.8822611
  78.0259943 142.5814375  36.2444876  77.7344752 142.9444355  37.0808337
  77.4132075 141.8681383  36.0658208  76.2747131 137.7046989  34.7124934
  76.7501253 137.8974636  33.9043786  75.3512697 137.7606175  34.4668318
  63.1630638 138.8671157  24.2956013  62.9176680 137.9633487  24.4936223
  63.3326553 138.8688307  23.3535491  70.8527348 129.7394833  33.6780768
  71.3709292 130.4755860  33.3527257  70.4982481 130.0458826  34.5127527
  62.4326286 134.5999514  21.7942174  61.7395531 134.6743869  21.1382210
  62.1878038 133.8359858  22.3163691  71.1039942 126.1595116  29.1981665
  71.3841696 125.4918305  29.8242091  71.8890549 126.3524211  28.6856329
  74.9748800 134.5812750  32.9453240  75.9266223 134.6810847  32.9665464
  74.8052251 133.7891018  33.4551324  72.9963180 131.6668333  33.1312641
  72.4013112 131.9473345  32.4359129  72.7112877 132.1562234  33.9029382
  77.4536878 137.8018869  32.0595539  77.4213198 136.8634870  32.2455223
  78.0637502 137.8802906  31.3261364  77.6031367 134.5929913  32.1053823
  77.0870415 133.8088369  31.9183752  78.4871315 134.2648629  32.2700342
  75.2642094 128.3370928  28.0649635  75.0666915 128.0286016  28.9492967
  75.8741799 129.0632567  28.1947565  83.2713428 138.8634876  31.2001576
  84.0016817 138.6020164  31.7609280  82.6620374 138.1263598  31.2403644
  81.3528725 137.0042739  31.7976027  80.6261889 136.8698704  31.1892519
  80.9376012 137.3119567  32.6032746  69.1758902 140.7232668  39.5623400
  70.0961911 140.9011267  39.7563447  69.1408485 139.7788714  39.4103100
  58.3941067 135.9171262  28.4876675  58.0743851 135.0636570  28.1951049
  57.8474495 136.1319840  29.2434642  69.0925192 129.1401788  24.1921870
  68.2825920 128.7948873  24.5677116  69.7809609 128.8309332  24.7809482
  71.0215740 128.2179835  25.8146167  71.5746779 128.6375289  26.4736190
  71.2585827 127.2915583  25.8569123  67.0448840 134.2066909  41.5948931
  66.9445566 135.1561266  41.5261022  66.8270382 133.8785148  40.7225001
  74.3994547 130.3280360  25.3224831  73.8193216 130.9865164  24.9402883
  74.1330480 129.5057705  24.9112248  72.8498114 129.7285418  27.5246151
  73.3497892 129.8401953  26.7160470  73.4933722 129.4246471  28.1646960
  66.9080110 137.6364048  40.4113992  66.4247191 138.4364408  40.6177881
  66.9941049 137.6471992  39.4581436  73.1819425 132.4880451  24.3781179
  72.2945280 132.7730101  24.1601374  73.5973414 132.3274214  23.5308456
  76.5333962 132.5126972  28.0935518  77.3094352 133.0023424  28.3660135
  75.8082096 132.9385026  28.5507388  78.9706520 133.2254591  29.1509459
  79.5651011 132.9850327  28.4402767  79.0433104 132.5061721  29.7782995
  58.6787743 134.4307832  35.7145421  59.3246607 133.9206786  36.2032646
  58.4704895 135.1676514  36.2888846  71.2041136 141.4988680  41.2137561
  72.0732295 141.6729332  40.8524196  70.7247887 142.3183097  41.0913291
  67.1991354 128.6947877  21.4669317  67.1870024 129.6389717  21.6237588
  68.0914776 128.5118022  21.1728778  71.0143473 125.2890653  25.7215254
  70.2475869 124.7349140  25.8671936  71.4254178 125.3612522  26.5829405
  63.0185234 131.5775449  39.8120435  63.8816696 131.2212254  40.0223760
  62.4450645 131.2389344  40.4995839  15.6805346  44.5598769  24.9981700
  15.2369200  43.7735148  24.6802605  16.3422560  44.7477920  24.3325591
  17.7786584  44.8401569  23.0263101  17.7605060  45.6610450  22.5343370
  18.7006504  44.7155644  23.2513242  14.2359638  42.3545699  23.8686610
  14.7687975  41.5933987  23.6385918  13.7073720  42.0619350  24.6110764
  23.6287317  41.3290665  19.8472939  23.8223207  42.2336475  20.0932214
  23.5287935  40.8698084  20.6811524  18.6902425  41.4797407  25.4213819
  18.5387932  41.2507959  24.5043903  18.6807105  42.4368009  25.4345164
  20.3994632  44.5116530  23.4990301  20.3407178  43.8275750  22.8320884
  20.8014150  45.2535520  23.0470927  20.4012039  42.4756114  21.7304281
  19.5138818  42.1382036  21.8530680  20.9710590  41.7439145  21.9673046
  16.3911876  47.0344400  20.8523683  17.1039848  47.6691865  20.7799584
  15.9001905  47.1308266  20.0363685  15.2912649  38.0803262  25.9847841
  14.6153286  37.9797391  26.6550216  16.1140282  37.9242476  26.4483838
  14.0335431  49.3870190  20.2205457  14.5853740  49.5501811  20.9854542
  14.3741625  49.9774627  19.5485482  18.8846306  44.2131447  26.0754112
  19.4286210  44.8261405  25.5809066  18.3033151  44.7711026  26.5921125
  14.1801243  46.9528671  22.2354111  14.4888369  46.7077818  23.1076811
  14.9776725  47.1575310  21.7472982  22.2075100  43.6727501  25.4115433
  21.4170644  43.6551640  24.8719932  21.9708455  44.2115795  26.1664469
  22.3272975  40.5219968  22.7248161  22.3770980  40.3569975  23.6663684
  22.2186899  39.6547227  22.3346042  19.6176738  36.5050896  24.0407468
  20.5186600  36.3657360  23.7491466  19.6924712  36.6705350  24.9805645
  23.8291172  42.9416909  22.9690183  23.5375980  43.3046890  23.8053644
  23.2163303  42.2283917  22.7903515  14.9790130  41.0835203  26.2868707
  15.8993140  41.2613802  26.4808754  14.9439713  40.1391248  26.1348406
  12.7111338  37.9966582  27.1359299  12.2278420  38.7966942  27.3423188
  12.7972277  38.0074527  26.1826743  17.0072364  41.8591214  27.9382868
  17.8763524  42.0331866  27.5769503  16.5279116  42.6785631  27.8158597
  28.6664840  53.5679840  17.3428143  29.3043250  53.4486587  16.6391483
  28.5485683  54.5160684  17.4016095  25.4754546  53.5207268  17.2789667
  25.1373058  53.4048333  16.3910202  26.3444315  53.1198433  17.2590673
  25.9574329  54.6742120  23.2375873  25.9462970  54.2794918  22.3656377
  26.1194969  53.9408192  23.8309644  18.8805794  56.8693936  16.1070779
  19.6727086  56.5284761  15.6917078  19.1202444  56.9788911  17.0272932
  26.9140921  59.0413712   8.5801023  26.2628901  59.6267793   8.1935037
  27.7085284  59.5719907   8.6396061  22.6781591  57.4579232  22.1855057
  22.3871457  58.3624862  22.0701723  23.3138575  57.4995759  22.8999126
  23.6037797  54.8356080  18.7756416  24.2001370  54.6112102  18.0613379
  23.6612769  54.0940826  19.3781864  28.2206109  51.2931294  14.4181351
  29.0069198  50.8750717  14.0671768  28.4844813  52.1977386  14.5862999
  33.6214536  51.2306527  15.3214329  34.3539708  50.6605744  15.5552159
  32.8653891  50.8428127  15.7620835  25.2390655  53.6533768  12.5177672
  24.8748863  53.1264389  13.2290593  26.0957771  53.2632237  12.3444157
  31.1439956  44.9428101  19.7808938  30.8123281  45.8123512  19.5570153
  30.5485570  44.6264385  20.4602968  27.6371476  57.1440647  19.1804851
  27.3372199  58.0465686  19.0720658  27.2922535  56.8772830  20.0326003
  21.0883957  53.5954444  15.2141555  20.1634454  53.4630658  15.4219247
  21.3368370  54.3748663  15.7111497  31.0368619  49.6623187  16.8602288
  30.1285497  49.5938596  16.5661049  30.9856215  50.1395132  17.6884113
  18.4492768  53.2387717  16.0485344  18.5785149  53.4922196  16.9624756
  17.7690219  53.8315425  15.7289999  22.6192255  63.9084967  12.1475818
  22.5416285  64.8592792  12.2264299  22.0153899  63.5630840  12.8050745
  25.1109485  51.0812833  24.8037185  24.3342819  51.6406753  24.7940050
  25.7500048  51.5669616  25.3252055  32.9030266  47.8639626  18.6380162
  32.2604646  48.1572159  17.9919956  32.3985194  47.7492546  19.4433358
  23.3655858  53.8898286  24.3655152  24.1070542  54.4283330  24.0889976
  22.6592843  54.5164575  24.5226704  28.8411197  56.0327427  22.9627314
  29.2494553  55.5909837  22.2181946  28.1188459  55.4580054  23.2161506
  25.1942267  50.9700033  20.3360871  26.0403462  51.3939447  20.4795520
  25.1340905  50.3133658  21.0299434  29.1640012  56.5928617  16.7179602
  28.5348874  56.7574331  16.0155670  28.7765674  57.0070227  17.4890567
  33.0429244  57.5283055  14.0723966  32.3580282  57.9081956  13.5221000
  33.1273093  58.1378382  14.8055914  28.3441713  48.6304402  21.9942044
  28.1002644  49.3846462  21.4576320  28.6201643  49.0089749  22.8289291
  30.2980175  55.1743014  20.6719310  30.5097071  55.8174774  19.9953691
  30.2509924  54.3405331  20.2041240  27.9006404  47.7860835  17.5755882
  27.0390883  48.0842088  17.8672619  27.9268839  48.0031234  16.6436915
  24.7167974  56.3303025  13.9829688  25.1806319  56.6090728  13.1934310
  24.4524772  55.4286470  13.8002778  21.6092055  55.8774507  16.9209451
  22.1793412  56.3061775  16.2826935  22.2000167  55.5957092  17.6193636
  22.1017221  51.0437934  25.1670462  21.4715882  51.7254215  25.4005859
  21.9953309  50.9321016  24.2223600  31.4126003  58.0514970  18.8441667
  32.2343447  57.6495157  18.5624349  31.4088406  57.9483204  19.7957783
  25.1782607  57.5999013  21.0002378  25.2427039  58.0619420  21.8360549
  24.4693531  56.9696378  21.1284687  15.6799897  50.9640221  18.5251377
  15.9307935  51.8487231  18.7908953  16.2159445  50.7844822  17.7526469
  39.5031996  54.3953718  15.1926639  38.7495705  53.8261116  15.0370643
  39.6379538  54.3616383  16.1397273  24.8930624  59.2667120  10.8681358
  24.7576299  60.1118656  11.2966206  25.4340437  59.4686398  10.1047292
  21.3797964  45.3458700  27.5295713  20.9864910  44.7924899  28.2043357
  22.1964104  45.6569279  27.9202231  20.1554906  59.9008315  13.5232036
  20.3321535  60.8226279  13.3353020  20.9511740  59.5866734  13.9526416
  24.2965925  46.7616579  25.1215970  25.0375638  47.3623732  25.0420432
  24.5283848  46.0194217  24.5634012  19.4407263  51.9472947  23.3994199
  19.3260778  51.0458204  23.7001298  18.5851781  52.1936643  23.0479016
  26.5199101  59.8890687  24.9981700  26.0762955  59.1027065  24.6802605
  27.1816314  60.0769837  24.3325591  21.2786222  61.4186488  19.5242379
  21.8293647  61.2903552  18.7519372  20.4397698  61.7181377  19.1737271
  28.6180339  60.1693487  23.0263101  28.5998814  60.9902368  22.5343370
  29.5400259  60.0447562  23.2513242  25.0753393  57.6837616  23.8686610
  25.6081730  56.9225904  23.6385918  24.5467474  57.3911268  24.6110764
  28.2423088  42.7897682  19.3980251  27.8987357  43.6799324  19.3219362
  28.6102051  42.5999340  18.5349836  27.3219628  45.1602337  17.3629485
  26.8184424  45.1232473  16.5497290  27.6150235  46.0695080  17.4226141
  33.1807645  55.5338648   9.8405860  32.4037088  55.1949807   9.3961022
  33.8599126  55.5391271   9.1660825  26.4406106  56.8123609  11.3805422
  25.9127467  56.0776368  11.0678659  25.9393608  57.5898285  11.1345390
  31.4198952  55.0072629  16.4972468  30.7622626  55.6971891  16.5852597
  32.2239351  55.3969061  16.8406454  30.2304411  53.3617002  14.5476410
  30.7436292  53.9946994  15.0498119  30.8805634  52.7618197  14.1819770
  27.4926785  63.3401326   7.3037081  26.8188484  63.6433023   7.9122039
  27.8792607  64.1430407   6.9542538  26.7085241  50.8366457  16.7934750
  25.7907803  51.0581404  16.6356438  27.1245385  50.9112768  15.9346458
  27.4920289  52.2357873  11.9237431  28.2392108  52.7479270  11.6144553
  27.7611879  51.9141926  12.7841824  30.9966207  58.3423003  12.6755552
  30.5428534  57.5013913  12.7320743  30.3660173  58.9784402  13.0130333
  29.9399126  49.2714989  13.9056220  29.2021883  48.7592376  14.2366462
  30.1925900  48.8315371  13.0939497  29.4399146  60.1799500  13.6105371
  29.7322120  60.7404557  12.8917736  29.9497767  60.4728061  14.3658530
  24.3131833  52.3445034  15.0074180  24.3680443  51.3918871  14.9316657
  23.5023035  52.5004474  15.4915479  24.4032771  60.9579851  14.6998824
  24.3608950  61.1840697  13.7707356  25.3195470  60.7243226  14.8484625
  27.8498405  51.4263919  21.5979453  28.2047793  51.6535392  22.4573919
  28.4970536  51.7582295  20.9756708  33.5796142  54.5482355  12.3028782
  33.4414040  54.7383951  11.3749971  33.2232361  55.3101737  12.7596833
  21.7438268  48.5340450  18.3825794  22.3837647  48.3929209  17.6848757
  20.9115799  48.2474963  18.0064396  33.6065521  56.6158882  17.3140053
  34.0402028  56.5234171  18.1623107  34.3197102  56.5916382  16.6760069
  22.5198572  57.8342880  14.4960786  23.3139170  57.3393200  14.2943361
  21.8090264  57.3060743  14.1328492  27.3393416  60.2160976  18.8473154
  27.3930439  60.7851912  19.6150870  26.4708198  60.3862861  18.4827191
  20.2191810  49.9178532  20.3297605  20.8914863  49.7095894  19.6810254
  19.3921596  49.7200618  19.8902838  34.4681071  56.6582582  19.8472939
  34.6616961  57.5628393  20.0932214  34.3681689  56.1990001  20.6811524
  26.1217382  46.5440473  22.3463266  25.4745297  47.2430422  22.2527743
  26.8918397  46.9776617  22.7139514  29.5296180  56.8089325  25.4213819
  29.3781686  56.5799877  24.5043903  29.5200859  57.7659926  25.4345164
  26.2981516  54.3821238  20.4060086  27.2273576  54.5332397  20.2329053
  25.8772546  54.4705259  19.5508732  25.0969848  58.4071902  18.1758624
  24.9580934  58.0390687  19.0484562  24.3084444  58.9219542  18.0042581
  25.6918000  63.5080999   9.5184160  25.8669756  63.0369042  10.3329783
  25.0050788  64.1346765   9.7465421  26.6475063  57.7853505  15.5647461
  26.3124896  57.7454275  16.4605111  26.1479009  57.1198221  15.0917872
  20.6219307  53.1921135  21.0900042  20.4839105  52.4601374  21.6911582
  21.5324230  53.1030035  20.8084230  23.2501608  52.9041094  20.5783722
  23.9601226  52.2634286  20.5370341  23.2070916  53.1553989  21.5009903
  31.2388386  59.8408448  23.4990301  31.1800933  59.1567668  22.8320884
  31.6407905  60.5827438  23.0470927  21.9630542  49.8906312  22.3979362
  21.4267899  49.4397051  23.0500958  21.3747250  50.0252221  21.6549826
  20.2579085  66.6570361  16.2924020  20.4975683  67.2888886  16.9703039
  19.4148282  66.3058401  16.5789379  31.2405794  57.8048031  21.7304281
  30.3532572  57.4673953  21.8530680  31.8104345  57.0731063  21.9673046
  17.6969663  49.0262320  19.4832356  17.6127852  48.4187989  18.7482766
  16.8752369  49.5171338  19.4841852  24.7706947  62.4649484  18.6965524
  24.6977119  63.2704455  19.2084829  24.3284340  62.6641450  17.8713546
  24.5596727  61.7021254  12.2068346  23.7764249  62.2442934  12.3006570
  25.2589472  62.2195233  12.6062587  35.7223134  53.2156249  16.4920843
  35.7113010  54.0980964  16.1214776  34.8540514  52.8627800  16.2975380
  27.2305631  62.3636318  20.8523683  27.9433603  62.9983783  20.7799584
  26.7395659  62.4600184  20.0363685  28.9523157  56.2687571  12.4240975
  28.0179436  56.3889033  12.2545679  29.1299826  55.3660037  12.1600984
  32.3395709  52.1104890  12.9591009  32.8056161  52.9432881  12.8851311
  32.7903209  51.6449871  13.6636267  22.2817544  60.1130761  21.6729254
  22.9827004  60.7467244  21.8258648  21.8112659  60.4545493  20.9124893
  30.4071940  58.4548711   9.9577161  30.6831784  58.3405306  10.8671035
  29.5376439  58.0566196   9.9189334  30.3112372  44.4785477  16.9981910
  29.3975451  44.7089704  17.1664117  30.7405473  44.5623921  17.8495942
  30.0818830  52.6675369  19.4981804  29.4290280  52.9151276  18.8434257
  30.4599210  51.8539507  19.1644281  27.0426004  62.7035062  13.6009974
  27.2248398  61.8856718  14.0637727  27.8658990  62.9202754  13.1634864
  27.3768169  61.6303247  10.8625023  27.9055936  61.1195702  10.2495185
  27.6396389  61.3145777  11.7270556  26.1306403  53.4095180  25.9847841
  25.4547040  53.3089309  26.6550216  26.9534037  53.2534394  26.4483838
  17.8785262  59.6467116  18.6060356  18.4638699  58.9010804  18.7388261
  17.6810101  59.9571073  19.4897020  20.7323917  62.6818364  13.6222799
  20.0634293  63.1664491  13.1386839  20.5936787  62.9287584  14.5366177
  24.8729186  64.7162107  20.2205457  25.4247494  64.8793729  20.9854542
  25.2135379  65.3066545  19.5485482  19.8493679  47.0637257  20.8227342
  19.9135006  47.9252088  20.4104740  19.7860799  46.4511259  20.0899700
  19.3245952  49.1360390  24.4700376  19.9517991  48.7537467  25.0837900
  18.4673871  48.9174592  24.8356069  29.7240060  59.5423365  26.0754112
  30.2679964  60.1553323  25.5809066  29.1426905  60.1002943  26.5921125
  28.0097573  62.6644083  17.2069139  27.8848713  61.8633823  16.6980085
  28.6676664  63.1590276  16.7183109  30.0732482  60.4653103  18.8348689
  29.1262817  60.3458454  18.7627016  30.4215255  59.5775601  18.9174951
  22.4332055  46.3547242  22.6586931  22.9566457  46.6009538  23.4213241
  22.2144388  47.1867277  22.2390069  27.0778915  60.2605819  15.0353042
  26.9303877  59.3322527  15.2160612  27.9032408  60.2825910  14.5510117
  30.6813037  61.0834378  16.1217914  31.6059584  60.8777239  15.9842365
  30.5128340  60.8350779  17.0307256  23.6384600  47.2960937  20.3436602
  23.2981420  46.4968750  20.7457282  22.9323606  47.5962648  19.7713435
  24.2901072  44.3810249  18.7963925  25.1127141  43.9070728  18.6742815
  24.5339135  45.1600733  19.2962611  21.8139651  51.0729370  16.6055903
  21.6684231  51.3869673  17.4980185  21.3364854  51.6914270  16.0526802
  23.6736033  48.0631918  16.6536793  23.6597602  47.1673011  16.3169091
  24.3908462  48.0702582  17.2875079  25.5262164  48.4969258  18.6989920
  25.2679942  49.4186329  18.6974251  24.9947205  48.0999693  19.3890385
  30.4708353  61.6020045  11.4780006  30.6445231  61.0366468  10.7253858
  30.9637244  62.4020940  11.2959496  16.2885313  53.6134714  19.5443565
  15.7438781  54.3894522  19.6763839  17.1664663  53.9605519  19.3862686
  36.3247744  54.3656468  13.0970306  36.7678890  53.6163793  12.6989429
  35.4474254  54.3566605  12.7144038  31.4583525  60.9186810   8.5776904
  32.1534430  61.5393502   8.7964219  31.8006676  60.0682161   8.8529282
  17.0751335  52.7404611  22.4373721  16.3333071  52.8887246  23.0238352
  16.7544079  53.0012876  21.5740471  33.3574949  58.3686515  10.1064235
  33.8826273  58.7073788   9.3813555  33.2697301  57.4333531   9.9227369
  25.0194997  62.2820589  22.2354111  25.3282124  62.0369736  23.1076811
  25.8170479  62.4867227  21.7472982  25.0415609  64.4358498  14.4659488
  24.6020600  63.9434877  15.1592345  25.7923726  63.8931466  14.2251563
  17.5207948  60.6270039  14.4684116  18.3465968  60.3273811  14.0882760
  17.1702000  59.8577662  14.9173905  22.4889481  59.9796508  16.5381790
  21.8669491  59.3167213  16.2384018  23.1594348  60.0057639  15.8555437
  15.7216553  58.5456366  15.4273050  14.8848462  58.1178540  15.2457051
  15.6940199  58.7388809  16.3643841  22.5614009  48.4578296  26.1314296
  22.6102164  49.3340418  25.7492065  23.1036523  47.9155689  25.5585939
  33.0468855  59.0019419  25.4115433  32.2564398  58.9843558  24.8719932
  32.8102209  59.5407713  26.1664469  33.1666730  55.8511885  22.7248161
  33.2164735  55.6861893  23.6663684  33.0580653  54.9839144  22.3346042
  30.4570492  51.8342813  24.0407468  31.3580355  51.6949278  23.7491466
  30.5318467  51.9997268  24.9805645  24.7913297  49.2109668  22.8860654
  23.9216607  49.5043234  22.6143243  25.0272778  49.7950113  23.6067918
  34.6684927  58.2708827  22.9690183  34.3769735  58.6338807  23.8053644
  34.0557058  57.5575835  22.7903515  35.8680609  55.8361707  15.4892753
  36.7027500  56.2751511  15.6530313  36.0039738  55.3600360  14.6700999
  32.9172115  53.3941441  21.4370241  33.3926236  53.5869088  20.6289092
  31.9937680  53.4500627  21.1913625  27.4952331  45.4289285  20.4026075
  28.0134275  46.1650312  20.0772563  27.1407464  45.7353278  21.2372834
  31.6173784  50.2707201  19.6698546  32.5691207  50.3705299  19.6910771
  31.4477234  49.4785470  20.1796631  29.6388163  47.3562785  19.8557947
  29.0438095  47.6367797  19.1604436  29.3537860  47.8456686  20.6274688
  28.7695654  61.3085711   8.6160580  29.7026327  61.2431273   8.8193455
  28.6818867  62.1441978   8.1575113  31.3983670  60.6251582   5.5764528
  31.3197302  60.2911445   6.4700285  32.2193337  61.1173350   5.5756000
  34.0961862  53.4913321  18.7840846  34.0638182  52.5529322  18.9700530
  34.7062485  53.5697358  18.0506671  34.2456350  50.2824365  18.8299129
  33.7295399  49.4982821  18.6429058  35.1296299  49.9543081  18.9945649
  31.9067077  44.0265380  14.7894942  31.7091898  43.7180468  15.6738274
  32.5166783  44.7527019  14.9192872  39.9138411  54.5529328  17.9246883
  40.6441800  54.2914616  18.4854586  39.3045357  53.8158050  17.9648951
  37.9953709  52.6937191  18.5221334  37.2686872  52.5593156  17.9137826
  37.5800995  53.0014019  19.3278052  25.8183885  56.4127120  26.2868707
  26.7386894  56.5905719  26.4808754  25.7833468  55.4683166  26.1348406
  18.8145957  54.3228155  18.9291488  19.0331967  55.2545263  18.9479522
  19.2271731  53.9636129  19.7146292  23.6873823  49.8961361  28.3194237
  23.5870550  50.8455718  28.2506328  23.4695365  49.5679600  27.4470307
  14.9054310  55.2268625  17.1815103  14.2117781  54.8122578  16.6685058
  15.6527301  55.2689162  16.5848522  23.5505093  53.3258500  27.1359299
  23.0672175  54.1258860  27.3423188  23.6366032  53.3366444  26.1826743
  19.4778430  57.2163034  19.1727733  20.4321684  57.1846977  19.1057664
  19.2790954  56.7553658  19.9877959  20.0677812  55.7864150  21.7398530
  20.8870701  56.2808229  21.7633368  20.3414620  54.8696118  21.7116098
  33.1758945  48.2021424  14.8180825  33.9519335  48.6917876  15.0905442
  32.4507079  48.6279478  15.2752695  35.6131503  48.9149043  15.8754766
  36.2075994  48.6744779  15.1648074  35.6858087  48.1956173  16.5028302
  17.8328659  62.7582654  16.1897931  17.6983127  61.9983055  15.6235929
  17.4160721  63.4823554  15.7226719  29.7985432  53.6929438  11.3176776
  29.7420634  54.1497990  10.4784408  30.3513775  52.9320123  11.1399619
  33.6090238  49.4819170  12.1426895  33.3527173  49.0815806  12.9735103
  32.9843106  50.1962964  12.0177035  37.9202576  52.2215244  14.6498187
  37.3602134  52.2908433  15.4229749  37.3146080  52.0456228  13.9297683
  20.9897785  63.6551971  16.4016373  20.8730169  64.5997403  16.2995063
  20.1690231  63.3525532  16.7902172  30.8774320  58.3802106   7.2472966
  31.7119923  57.9483305   7.0650441  30.7158662  58.2084120   8.1749860
  15.3212727  50.1202284  22.4390727  15.9671590  49.6101238  22.9277953
  15.1129878  50.8570966  23.0134153  27.8466119  57.1883132  27.9382868
  28.7157279  57.3623784  27.5769503  27.3672870  58.0077548  27.8158597
  22.0152299  64.3080233  19.6172302  22.9179546  64.3403843  19.9338797
  21.7889669  63.3780684  19.6318637  23.7705901  63.0611219  16.2782380
  22.8201532  63.0613081  16.1646753  24.0738387  62.3143954  15.7618415
  19.6610218  47.2669901  26.5365742  20.5241679  46.9106706  26.7469066
  19.0875628  46.9283796  27.2241146  39.5058595  68.8971758  17.3428143
  40.1437005  68.7778505  16.6391483  39.3879438  69.8452602  17.4016095
  36.3148301  68.8499186  17.2789667  35.9766812  68.7340250  16.3910202
  37.1838069  68.4490351  17.2590673  32.1735117  70.7034662  13.2686558
  31.6099982  70.6124599  12.5002846  32.0587512  69.8834567  13.7489051
  36.7968084  70.0034037  23.2375873  36.7856725  69.6086836  22.3656377
  36.9588723  69.2700110  23.8309644  29.7199549  72.1985854  16.1070779
  30.5120840  71.8576678  15.6917078  29.9596199  72.3080829  17.0272932
  37.7534675  74.3705630   8.5801023  37.1022655  74.9559710   8.1935037
  38.5479038  74.9011825   8.6396061  31.6790302  71.4594767   8.9788158
  32.4521178  70.9123754   8.8401033  32.0315701  72.3239016   9.1902619
  33.5175345  72.7871149  22.1855057  33.2265211  73.6916780  22.0701723
  34.1532329  72.8287677  22.8999126  34.4431552  70.1647998  18.7756416
  35.0395124  69.9404020  18.0613379  34.5006523  69.4232743  19.3781864
  34.0156580  67.6187433   6.6106607  34.2682101  67.0968954   5.8490070
  33.0781139  67.4553578   6.7133291  39.0599863  66.6223211  14.4181351
  39.8462952  66.2042635  14.0671768  39.3238567  67.5269304  14.5862999
  39.2309940  72.0596062   9.1170007  38.5955773  72.1330688   9.8290912
  38.9007347  72.6489661   8.4389087  44.4608290  66.5598445  15.3214329
  45.1933462  65.9897661  15.5552159  43.7047646  66.1720045  15.7620835
  33.7352869  69.5215539   8.8130982  33.6189127  68.8460442   9.4812067
  33.8455129  69.0347913   7.9963135  36.0784410  68.9825686  12.5177672
  35.7142617  68.4556307  13.2290593  36.9351526  68.5924155  12.3444157
  41.9833711  60.2720019  19.7808938  41.6517035  61.1415430  19.5570153
  41.3879324  59.9556303  20.4602968  35.7189897  64.0115586   7.5139020
  35.8864299  64.8795822   7.8809491  35.5287066  64.1742867   6.5900309
  38.4765230  72.4732565  19.1804851  38.1765953  73.3757604  19.0720658
  38.1316290  72.2064748  20.0326003  31.9277712  68.9246362  15.2141555
  31.0028208  68.7922576  15.4219247  32.1762125  69.7040581  15.7111497
  41.8762374  64.9915105  16.8602288  40.9679251  64.9230513  16.5661049
  41.8249970  65.4687050  17.6884113  35.6979118  66.4673243   8.4985687
  35.5778743  66.9130294   9.3371167  35.0031706  66.8158561   7.9399225
  29.2886523  68.5679635  16.0485344  29.4178904  68.8214114  16.9624756
  28.6083974  69.1607343  15.7289999  33.4586010  79.2376885  12.1475818
  33.3810040  80.1884710  12.2264299  32.8547654  78.8922758  12.8050745
  35.9503240  66.4104750  24.8037185  35.1736574  66.9698671  24.7940050
  36.5893803  66.8961533  25.3252055  43.7424020  63.1931543  18.6380162
  43.0998401  63.4864076  17.9919956  43.2378949  63.0784464  19.4433358
  41.3964184  66.9394716   9.3266021  42.3082040  67.1722103   9.1513719
  40.8873831  67.5231761   8.7641100  34.2049612  69.2190204  24.3655152
  34.9464296  69.7575248  24.0889976  33.4986597  69.8456493  24.5226704
  39.6804952  71.3619344  22.9627314  40.0888308  70.9201755  22.2181946
  38.9582213  70.7871972  23.2161506  36.0336022  66.2991951  20.3360871
  36.8797217  66.7231365  20.4795520  35.9734659  65.6425575  21.0299434
  40.0033766  71.9220535  16.7179602  39.3742629  72.0866249  16.0155670
  39.6159428  72.3362144  17.4890567  43.8822998  72.8574973  14.0723966
  43.1974036  73.2373874  13.5221000  43.9666848  73.4670299  14.8055914
  39.1835467  63.9596319  21.9942044  38.9396399  64.7138380  21.4576320
  39.4595398  64.3381667  22.8289291  41.1373930  70.5034932  20.6719310
  41.3490825  71.1466692  19.9953691  41.0903678  69.6697248  20.2041240
  38.7400159  63.1152752  17.5755882  37.8784638  63.4134006  17.8672619
  38.7662593  63.3323151  16.6436915  35.5561728  71.6594943  13.9829688
  36.0200074  71.9382646  13.1934310  35.2918526  70.7578388  13.8002778
  32.4485809  71.2066425  16.9209451  33.0187166  71.6353693  16.2826935
  33.0393921  70.9249009  17.6193636  34.4930614  67.7818095  10.7919253
  35.1954658  68.2339139  11.2593179  34.1611243  67.1401914  11.4199146
  32.9410976  66.3729852  25.1670462  32.3109636  67.0546133  25.4005859
  32.8347064  66.2612934  24.2223600  28.2355948  66.0401648  16.0936386
  27.4455002  66.2959177  15.6176497  28.7267196  66.8549986  16.1988427
  42.2519758  73.3806887  18.8441667  43.0737201  72.9787074  18.5624349
  42.2482161  73.2775121  19.7957783  30.1870694  66.4046227  13.0519863
  29.3901857  66.5164922  13.5703359  29.9596286  66.7432880  12.1860754
  36.0176361  72.9290931  21.0002378  36.0820794  73.3911338  21.8360549
  35.3087285  72.2988295  21.1284687  26.5193651  66.2932138  18.5251377
  26.7701690  67.1779148  18.7908953  27.0553200  66.1136740  17.7526469
  50.3425751  69.7245636  15.1926639  49.5889459  69.1553034  15.0370643
  50.4773292  69.6908300  16.1397273  35.7324379  74.5959038  10.8681358
  35.5970054  75.4410574  11.2966206  36.2734191  74.7978316  10.1047292
  32.2191718  60.6750618  27.5295713  31.8258664  60.1216816  28.2043357
  33.0357859  60.9861196  27.9202231  29.1853776  72.1134476  11.4409283
  29.6978297  72.9077726  11.5914848  29.8376489  71.4160766  11.3742884
  30.9948661  75.2300232  13.5232036  31.1715289  76.1518197  13.3353020
  31.7905494  74.9158652  13.9526416  35.1359679  62.0908497  25.1215970
  35.8769393  62.6915650  25.0420432  35.3677602  61.3486135  24.5634012
  30.2801018  67.2764864  23.3994199  30.1654533  66.3750121  23.7001298
  29.4245535  67.5228561  23.0479016  37.3592855  75.2182605  24.9981700
  36.9156709  74.4318983  24.6802605  38.0210069  75.4061755  24.3325591
  32.1179976  76.7478406  19.5242379  32.6687402  76.6195469  18.7519372
  31.2791452  77.0473295  19.1737271  39.4574093  75.4985404  23.0263101
  39.4392569  76.3194285  22.5343370  40.3794013  75.3739480  23.2513242
  35.9147147  73.0129534  23.8686610  36.4475484  72.2517822  23.6385918
  35.3861229  72.7203186  24.6110764  39.0816842  58.1189600  19.3980251
  38.7381112  59.0091242  19.3219362  39.4495805  57.9291258  18.5349836
  27.1502693  70.4423130  12.2168854  27.9877915  70.8520139  12.0002561
  27.3280961  69.5022573  12.1869047  39.0467125  68.1098211   7.9052687
  38.5313749  68.8802816   8.1441074  38.7744434  67.4363347   8.5285748
  36.6314236  62.9547912  12.9637925  35.7755833  62.5654762  12.7843564
  37.0441188  63.0339873  12.1037710  38.1613383  60.4894255  17.3629485
  37.6578178  60.4524390  16.5497290  38.4543990  61.3986998  17.4226141
  34.4056269  60.5732985  16.3695666  35.2709265  60.3775793  16.0101556
  34.4733778  60.3443337  17.2965023  44.0201399  70.8630566   9.8405860
  43.2430842  70.5241725   9.3961022  44.6992880  70.8683189   9.1660825
  38.8353428  65.9825303   9.7312468  38.5303564  66.2971452  10.5822611
  39.7883870  66.0606723   9.7739801  37.2799860  72.1415526  11.3805422
  36.7521222  71.4068286  11.0678659  36.7787363  72.9190203  11.1345390
  42.2592706  70.3364547  16.4972468  41.6016381  71.0263808  16.5852597
  43.0633105  70.7260979  16.8406454  32.0118588  62.8035193  13.7412033
  32.5862340  62.5810374  13.0085226  32.5989570  62.8723887  14.4940634
  41.0698165  68.6908920  14.5476410  41.5830047  69.3238911  15.0498119
  41.7199389  68.0910115  14.1819770  32.3388175  64.8339654   7.7607918
  31.5025487  65.1714340   8.0817193  32.1992945  64.6988634   6.8235055
  34.3141255  59.6776442  12.4687103  33.6605668  59.3625459  11.8443717
  34.2721730  59.0552182  13.1946926  35.4252460  69.9595737   4.3840395
  34.5179522  69.7284990   4.5831544  35.9223492  69.1633356   4.5714376
  38.3320539  78.6693244   7.3037081  37.6582238  78.9724941   7.9122039
  38.7186361  79.4722324   6.9542538  37.5478996  66.1658375  16.7934750
  36.6301557  66.3873322  16.6356438  37.9639139  66.2404686  15.9346458
  38.3314044  67.5649791  11.9237431  39.0785863  68.0771188  11.6144553
  38.6005633  67.2433844  12.7841824  36.6040694  70.0608332   8.9064385
  35.6951913  69.7767364   9.0036855  36.6335778  70.4807410   8.0467692
  41.8359961  73.6714921  12.6755552  41.3822288  72.8305831  12.7320743
  41.2053928  74.3076319  13.0130333  40.7792881  64.6006907  13.9056220
  40.0415638  64.0884293  14.2366462  41.0319654  64.1607289  13.0939497
  40.2792900  75.5091418  13.6105371  40.5715875  76.0696475  12.8917736
  40.7891521  75.8019979  14.3658530  40.8804508  57.3783159  14.4997989
  41.1863385  56.5180522  14.2123904  41.6057113  57.9700779  14.2996983
  27.1728864  67.7813846  12.8879587  26.9753264  67.1883206  12.1630654
  26.6175528  67.4766056  13.6055526  35.1525588  67.6736952  15.0074180
  35.2074198  66.7210789  14.9316657  34.3416790  67.8296391  15.4915479
  36.3016782  71.6017075   6.2452463  35.8636212  70.8852934   5.7858101
  37.0427222  71.8293190   5.6837555  33.0917948  66.2914012  12.7664559
  32.2785813  66.5908182  13.1729751  33.5876942  65.8969701  13.4839041
  35.2426526  76.2871769  14.6998824  35.2002704  76.5132615  13.7707356
  36.1589224  76.0535143  14.8484625  38.6892159  66.7555836  21.5979453
  39.0441547  66.9827309  22.4573919  39.3364291  67.0874213  20.9756708
  44.4189896  69.8774272  12.3028782  44.2807795  70.0675868  11.3749971
  44.0626115  70.6393655  12.7596833  32.5832023  63.8632367  18.3825794
  33.2231402  63.7221127  17.6848757  31.7509553  63.5766881  18.0064396
  44.4459276  71.9450799  17.3140053  44.8795783  71.8526088  18.1623107
  45.1590857  71.9208300  16.6760069  33.3592326  73.1634798  14.4960786
  34.1532925  72.6685118  14.2943361  32.6484019  72.6352661  14.1328492
  38.1787171  75.5452893  18.8473154  38.2324193  76.1143830  19.6150870
  37.3101952  75.7154778  18.4827191  29.6675090  67.3077880  10.5720539
  28.7372678  67.2462335  10.7890501  29.7632562  66.7853832   9.7757180
  29.5860639  63.8332692  13.1598781  29.8467456  64.7478026  13.0507941
  30.4077811  63.3657135  13.3095394  31.0585564  65.2470450  20.3297605
  31.7308618  65.0387812  19.6810254  30.2315351  65.0492536  19.8902838
  45.3074826  71.9874500  19.8472939  45.5010716  72.8920310  20.0932214
  45.2075444  71.5281919  20.6811524  36.9611136  61.8732390  22.3463266
  36.3139051  62.5722340  22.2527743  37.7312152  62.3068534  22.7139514
  40.3689934  72.1381243  25.4213819  40.2175441  71.9091794  24.5043903
  40.3594614  73.0951844  25.4345164  37.1375271  69.7113155  20.4060086
  38.0667331  69.8624315  20.2329053  36.7166301  69.7997176  19.5508732
  35.9363602  73.7363820  18.1758624  35.7974688  73.3682604  19.0484562
  35.1478199  74.2511459  18.0042581  36.5311754  78.8372916   9.5184160
  36.7063510  78.3660959  10.3329783  35.8444542  79.4638682   9.7465421
  37.4868818  73.1145423  15.5647461  37.1518650  73.0746192  16.4605111
  36.9872763  72.4490138  15.0917872  31.4613062  68.5213053  21.0900042
  31.3232859  67.7893291  21.6911582  32.3717985  68.4321953  20.8084230
  40.4228009  70.4601457   5.8384521  39.8057180  69.7348285   5.7417574
  39.9544498  71.2210817   5.4951595  34.0895362  68.2333012  20.5783722
  34.7994981  67.5926204  20.5370341  34.0464670  68.4845907  21.5009903
  42.0782141  75.1700365  23.4990301  42.0194687  74.4859585  22.8320884
  42.4801659  75.9119355  23.0470927  32.8024296  65.2198230  22.3979362
  32.2661653  64.7688968  23.0500958  32.2141005  65.3544139  21.6549826
  31.0972840  81.9862279  16.2924020  31.3369438  82.6180803  16.9703039
  30.2542036  81.6350319  16.5789379  32.2126555  64.6786881   4.9605825
  31.3356021  64.5575682   4.5968072  32.6884308  63.8872959   4.7084714
  42.0799548  73.1339949  21.7304281  41.1926327  72.7965871  21.8530680
  42.6498099  72.4022980  21.9673046  23.7328695  69.4664041  15.0547332
  24.4199735  69.1525771  14.4668348  23.5776824  70.3705406  14.7814584
  28.5363417  64.3554237  19.4832356  28.4521606  63.7479907  18.7482766
  27.7146124  64.8463256  19.4841852  35.6100702  77.7941401  18.6965524
  35.5370873  78.5996373  19.2084829  35.1678095  77.9933367  17.8713546
  35.3990481  77.0313172  12.2068346  34.6158003  77.5734852  12.3006570
  36.0983226  77.5487151  12.6062587  38.7087131  62.8407801  14.8502551
  39.2055831  62.0877763  14.5303621  37.9374113  62.8772118  14.2845760
  46.5616889  68.5448167  16.4920843  46.5506765  69.4272882  16.1214776
  45.6934268  68.1919717  16.2975380  38.0699385  77.6928236  20.8523683
  38.7827357  78.3275700  20.7799584  37.5789414  77.7892102  20.0363685
  39.7916912  71.5979488  12.4240975  38.8573191  71.7180951  12.2545679
  39.9693580  70.6951955  12.1600984  35.2922100  64.9825184  14.5774236
  34.9219888  64.4296224  15.2655141  35.7881192  64.3783317  14.0249236
  43.1789463  67.4396807  12.9591009  43.6449916  68.2724799  12.8851311
  43.6296964  66.9741789  13.6636267  33.1211299  75.4422679  21.6729254
  33.8220758  76.0759162  21.8258648  32.6506414  75.7837411  20.9124893
  41.2465694  73.7840629   9.9577161  41.5225538  73.6697223  10.8671035
  40.3770193  73.3858114   9.9189334  41.1506126  59.8077394  16.9981910
  40.2369206  60.0381621  17.1664117  41.5799228  59.8915839  17.8495942
  40.9212585  67.9967286  19.4981804  40.2684035  68.2443194  18.8434257
  41.2992964  67.1831425  19.1644281  37.8819758  78.0326980  13.6009974
  38.0642153  77.2148636  14.0637727  38.7052744  78.2494672  13.1634864
  38.2161924  76.9595165  10.8625023  38.7449690  76.4487619  10.2495185
  38.4790144  76.6437695  11.7270556  36.9700158  68.7387097  25.9847841
  36.2940795  68.6381227  26.6550216  37.7927791  68.5826311  26.4483838
  28.7179017  74.9759034  18.6060356  29.3032453  74.2302722  18.7388261
  28.5203855  75.2862991  19.4897020  31.5717672  78.0110281  13.6222799
  30.9028047  78.4956409  13.1386839  31.4330542  78.2579502  14.5366177
  23.3096671  67.5464634  17.3264800  23.3480771  67.0128225  18.1201918
  22.8036964  67.0199840  16.7075777  35.7122940  80.0454025  20.2205457
  36.2641248  80.2085646  20.9854542  36.0529134  80.6358463  19.5485482
  30.6887434  62.3929175  20.8227342  30.7528760  63.2544006  20.4104740
  30.6254554  61.7803176  20.0899700  30.1639706  64.4652307  24.4700376
  30.7911745  64.0829385  25.0837900  29.3067625  64.2466509  24.8356069
  40.5633815  74.8715282  26.0754112  41.1073719  75.4845241  25.5809066
  39.9820660  75.4294861  26.5921125  26.9405249  66.2728736  10.4018731
  27.2358690  65.3639415  10.3485785  26.0393285  66.2516476  10.0799733
  38.8491328  77.9936000  17.2069139  38.7242467  77.1925740  16.6980085
  39.5070419  78.4882194  16.7183109  30.4699496  64.3484733  16.3846280
  29.7486082  64.9620701  16.2453753  31.2592752  64.8842498  16.3062925
  40.9126236  75.7945021  18.8348689  39.9656572  75.6750372  18.7627016
  41.2609009  74.9067519  18.9174951  33.2725809  61.6839159  22.6586931
  33.7960211  61.9301456  23.4213241  33.0538143  62.5159194  22.2390069
  28.6693091  63.9542834  10.5258056  28.3405797  63.0740213  10.3433162
  29.0232461  63.8990503  11.4134445  37.9172669  75.5897737  15.0353042
  37.7697632  74.6614444  15.2160612  38.7426163  75.6117827  14.5510117
  31.7834914  64.2415804  10.8933534  32.1230986  64.7701725  10.1712142
  32.2307034  64.5796210  11.6692100  41.5206791  76.4126295  16.1217914
  42.4453339  76.2069157  15.9842365  41.3522095  76.1642697  17.0307256
  34.4778355  62.6252855  20.3436602  34.1375175  61.8260668  20.7457282
  33.7717361  62.9254565  19.7713435  35.1294826  59.7102167  18.7963925
  35.9520896  59.2362645  18.6742815  35.3732890  60.4892651  19.2962611
  33.7703061  62.7390425   9.0926826  34.4911423  63.1171678   8.5890543
  33.1468365  63.4579302   9.1961804  37.9134184  63.4435574  10.0285159
  38.1297798  64.3260212   9.7273987  37.4328251  63.0521788   9.2990801
  32.6533405  66.4021288  16.6055903  32.5077986  66.7161591  17.4980185
  32.1758609  67.0206188  16.0526802  34.5129788  63.3923836  16.6536793
  34.4991357  62.4964929  16.3169091  35.2302216  63.3994499  17.2875079
  36.3655919  63.8261176  18.6989920  36.1073697  64.7478246  18.6974251
  35.8340959  63.4291610  19.3890385  41.3102107  76.9311963  11.4780006
  41.4838985  76.3658385  10.7253858  41.8030999  77.7312858  11.2959496
  27.1279067  68.9426632  19.5443565  26.5832535  69.7186440  19.6763839
  28.0058417  69.2897437  19.3862686  33.9166684  62.2738216  11.9224363
  34.0382595  61.3454862  12.1215251  33.6268726  62.2876902  11.0102679
  36.7857874  59.9593126  15.0591083  36.8079571  60.0232459  14.1043063
  37.2025933  59.1197635  15.2531589  47.1641499  69.6948386  13.0970306
  47.6072645  68.9455711  12.6989429  46.2868009  69.6858522  12.7144038
  42.2977280  76.2478727   8.5776904  42.9928185  76.8685420   8.7964219
  42.6400430  75.3974079   8.8529282  27.9145089  68.0696528  22.4373721
  27.1726825  68.2179164  23.0238352  27.5937833  68.3304794  21.5740471
  44.1968703  73.6978433  10.1064235  44.7220027  74.0365706   9.3813555
  44.1091056  72.7625448   9.9227369  35.8588752  77.6112507  22.2354111
  36.1675878  77.3661653  23.1076811  36.6564234  77.8159145  21.7472982
  35.8809364  79.7650416  14.4659488  35.4414354  79.2726795  15.1592345
  36.6317481  79.2223384  14.2251563  28.3601703  75.9561957  14.4684116
  29.1859723  75.6565729  14.0882760  28.0095755  75.1869579  14.9173905
  33.3283236  75.3088425  16.5381790  32.7063245  74.6459130  16.2384018
  33.9988103  75.3349557  15.8555437  26.5610308  73.8748283  15.4273050
  25.7242216  73.4470458  15.2457051  26.5333953  74.0680727  16.3643841
  33.4007763  63.7870213  26.1314296  33.4495919  64.6632336  25.7492065
  33.9430278  63.2447606  25.5585939  43.8862609  74.3311337  25.4115433
  43.0958153  74.3135475  24.8719932  43.6495964  74.8699630  26.1664469
  44.0060484  71.1803803  22.7248161  44.0558489  71.0153810  23.6663684
  43.8974408  70.3131062  22.3346042  32.8896743  73.8592349  10.0140250
  33.0384863  74.5427813   9.3606923  33.6963186  73.8397439  10.5289706
  41.2964247  67.1634731  24.0407468  42.1974109  67.0241196  23.7491466
  41.3712221  67.3289186  24.9805645  35.6307052  64.5401586  22.8860654
  34.7610361  64.8335152  22.6143243  35.8666532  65.1242031  23.6067918
  45.5078681  73.6000744  22.9690183  45.2163489  73.9630725  23.8053644
  44.8950812  72.8867753  22.7903515  46.7074363  71.1653624  15.4892753
  47.5421255  71.6043428  15.6530313  46.8433492  70.6892277  14.6700999
  43.7565869  68.7233359  21.4370241  44.2319991  68.9161005  20.6289092
  42.8331435  68.7792545  21.1913625  30.6449376  69.8857526  11.0201319
  30.3995418  68.9819856  11.2181529  30.8145290  69.8874677  10.0780797
  38.3346086  60.7581203  20.4026075  38.8528030  61.4942230  20.0772563
  37.9801219  61.0645196  21.2372834  29.9145023  65.6185884   8.5187481
  29.2214268  65.6930239   7.8627517  29.6696775  64.8546227   9.0408998
  38.5858680  57.1781485  15.9226971  38.8660434  56.5104674  16.5487398
  39.3709287  57.3710581  15.4101635  36.3892148  76.3540479   7.4851998
  35.8166115  76.9730666   7.0322470  36.9624942  76.9039841   8.0191920
  42.4567538  65.5999119  19.6698546  43.4084961  65.6997217  19.6910771
  42.2870989  64.8077388  20.1796631  40.4781918  62.6854702  19.8557947
  39.8831850  62.9659715  19.1604436  40.1931614  63.1748603  20.6274688
  39.6089408  76.6377629   8.6160580  40.5420081  76.5723191   8.8193455
  39.5212621  77.4733896   8.1575113  42.2377425  75.9543500   5.5764528
  42.1591056  75.6203363   6.4700285  43.0587092  76.4465267   5.5756000
  44.9355616  68.8205239  18.7840846  44.9031936  67.8821240  18.9700530
  45.5456240  68.8989276  18.0506671  36.7738947  67.6901292   4.8268050
  37.7198052  67.5607500   4.8956468  36.3953192  66.9515954   5.3037478
  45.0850105  65.6116282  18.8299129  44.5689153  64.8274739  18.6429058
  45.9690053  65.2834999  18.9945649  42.7460831  59.3557298  14.7894942
  42.5485653  59.0472386  15.6738274  43.3560537  60.0818937  14.9192872
  50.7532166  69.8821246  17.9246883  51.4835554  69.6206534  18.4854586
  50.1439111  69.1449968  17.9648951  48.8347463  68.0229108  18.5221334
  48.1080627  67.8885073  17.9137826  48.4194750  68.3305937  19.3278052
  36.6577639  71.7419038  26.2868707  37.5780649  71.9197637  26.4808754
  36.6227222  70.7975083  26.1348406  34.9581864  65.6151268   4.7622935
  34.0513319  65.3184381   4.8385649  35.2357845  65.3181086   3.8957222
  25.8759804  66.9357632  15.2121982  25.5562589  66.0822940  14.9196356
  25.3293233  67.1506210  15.9679949  29.6539712  69.6520073  18.9291488
  29.8725722  70.5837180  18.9479522  30.0665486  69.2928047  19.7146292
  36.5743930  60.1588158  10.9167177  35.7644658  59.8135243  11.2922423
  37.2628347  59.8495702  11.5054788  38.5034478  59.2366205  12.5391473
  39.0565517  59.6561658  13.1981496  38.7404564  58.3101953  12.5814429
  34.5267577  65.2253278  28.3194237  34.4264304  66.1747635  28.2506328
  34.3089119  64.8971517  27.4470307  33.7280649  62.4738203   4.9034915
  34.5899813  62.7993102   5.1630732  33.9130993  61.6869699   4.3907980
  25.7448064  70.5560543  17.1815103  25.0511536  70.1414496  16.6685058
  26.4921055  70.5981080  16.5848522  41.8813285  61.3466730  12.0470138
  41.3011954  62.0051534  11.6648190  41.6149218  60.5244074  11.6357555
  40.3316852  60.7471788  14.2491458  40.8316630  60.8588322  13.4405777
  40.9752459  60.4432840  14.8892266  34.3898847  68.6550417  27.1359299
  33.9065929  69.4550777  27.3423188  34.4759786  68.6658362  26.1826743
  27.6584807  70.4878797  15.0581118  27.6355495  70.5866484  14.1063001
  27.9685443  71.3343948  15.3798284  30.3172185  72.5454952  19.1727733
  31.2715438  72.5138894  19.1057664  30.1184708  72.0845576  19.9877959
  30.9071567  71.1156068  21.7398530  31.7264456  71.6100147  21.7633368
  31.1808375  70.1988036  21.7116098  40.6638163  63.5066820  11.1026486
  39.7764018  63.7916471  10.8846681  41.0792152  63.3460584  10.2553763
  44.0152699  63.5313341  14.8180825  44.7913089  64.0209794  15.0905442
  43.2900833  63.9571395  15.2752695  46.4525258  64.2440960  15.8754766
  47.0469749  64.0036696  15.1648074  46.5251842  63.5248091  16.5028302
  28.6722414  78.0874571  16.1897931  28.5376882  77.3274972  15.6235929
  28.2554476  78.8115471  15.7226719  39.8081377  73.2711495   5.1974506
  40.5117227  73.4761497   5.8132161  39.0844025  73.8388257   5.4623589
  40.6379187  69.0221356  11.3176776  40.5814388  69.4789908  10.4784408
  41.1907529  68.2612041  11.1399619  44.4483993  64.8111088  12.1426895
  44.1920927  64.4107724  12.9735103  43.8236861  65.5254882  12.0177035
  48.7596331  67.5507161  14.6498187  48.1995889  67.6200351  15.4229749
  48.1539834  67.3748146  13.9297683  31.8291540  78.9843888  16.4016373
  31.7123924  79.9289321  16.2995063  31.0083986  78.6817450  16.7902172
  41.7168074  73.7094024   7.2472966  42.5513678  73.2775223   7.0650441
  41.5552417  73.5376038   8.1749860  41.3713966  70.2126137   8.6129305
  41.3162770  70.0470409   7.6717749  40.7460022  70.9202170   8.7691495
  26.1606481  65.4494202  22.4390727  26.8065345  64.9393156  22.9277953
  25.9523632  66.1862883  23.0134153  38.6859873  72.5175049  27.9382868
  39.5551033  72.6915702  27.5769503  38.2066625  73.3369466  27.8158597
  34.6810092  59.7134246   8.1914624  34.6688762  60.6576086   8.3482894
  35.5733514  59.5304392   7.8974085  32.8546054  79.6372150  19.6172302
  33.7573300  79.6695761  19.9338797  32.6283424  78.7072601  19.6318637
  34.6099656  78.3903137  16.2782380  33.6595287  78.3904998  16.1646753
  34.9132142  77.6435871  15.7618415  38.4962211  56.3077023  12.4460560
  37.7294607  55.7535510  12.5917243  38.9072916  56.3798892  13.3074712
  30.5003972  62.5961819  26.5365742  31.3635434  62.2398624  26.7469066
  29.9269383  62.2575714  27.2241146  50.3452349  84.2263675  17.3428143
  50.9830759  84.1070423  16.6391483  50.2273192  85.1744519  17.4016095
  47.1542055  84.1791103  17.2789667  46.8160567  84.0632168  16.3910202
  48.0231824  83.7782268  17.2590673  43.0128871  86.0326580  13.2686558
  42.4493736  85.9416517  12.5002846  42.8981266  85.2126484  13.7489051
  47.6361838  85.3325955  23.2375873  47.6250479  84.9378753  22.3656377
  47.7982478  84.5992028  23.8309644  40.5593303  87.5277771  16.1070779
  41.3514595  87.1868596  15.6917078  40.7989953  87.6372746  17.0272932
  48.5928430  89.6997547   8.5801023  47.9416410  90.2851628   8.1935037
  49.3872793  90.2303742   8.6396061  42.5184057  86.7886685   8.9788158
  43.2914933  86.2415672   8.8401033  42.8709456  87.6530934   9.1902619
  44.3569100  88.1163067  22.1855057  44.0658966  89.0208698  22.0701723
  44.9926084  88.1579594  22.8999126  45.2825306  85.4939915  18.7756416
  45.8788879  85.2695938  18.0613379  45.3400278  84.7524661  19.3781864
  44.8550335  82.9479351   6.6106607  45.1075855  82.4260872   5.8490070
  43.9174894  82.7845496   6.7133291  49.8993618  81.9515129  14.4181351
  50.6856707  81.5334552  14.0671768  50.1632322  82.8561221  14.5862999
  50.0703695  87.3887979   9.1170007  49.4349528  87.4622606   9.8290912
  49.7401101  87.9781578   8.4389087  55.3002045  81.8890362  15.3214329
  56.0327217  81.3189579  15.5552159  54.5441400  81.5011963  15.7620835
  44.5746624  84.8507457   8.8130982  44.4582882  84.1752360   9.4812067
  44.6848883  84.3639831   7.9963135  46.9178164  84.3117604  12.5177672
  46.5536372  83.7848225  13.2290593  47.7745280  83.9216073  12.3444157
  52.8227465  75.6011936  19.7808938  52.4910790  76.4707347  19.5570153
  52.2273078  75.2848220  20.4602968  46.5583651  79.3407503   7.5139020
  46.7258054  80.2087740   7.8809491  46.3680821  79.5034785   6.5900309
  49.3158985  87.8024482  19.1804851  49.0159708  88.7049521  19.0720658
  48.9710044  87.5356666  20.0326003  42.7671466  84.2538279  15.2141555
  41.8421963  84.1214493  15.4219247  43.0155879  85.0332498  15.7111497
  52.7156128  80.3207023  16.8602288  51.8073006  80.2522431  16.5661049
  52.6643724  80.7978967  17.6884113  46.5372872  81.7965161   8.4985687
  46.4172498  82.2422212   9.3371167  45.8425461  82.1450479   7.9399225
  40.1280277  83.8971553  16.0485344  40.2572658  84.1506032  16.9624756
  39.4477728  84.4899261  15.7289999  44.2979764  94.5668803  12.1475818
  44.2203794  95.5176628  12.2264299  43.6941408  94.2214675  12.8050745
  46.7896994  81.7396668  24.8037185  46.0130328  82.2990588  24.7940050
  47.4287557  82.2253451  25.3252055  54.5817775  78.5223461  18.6380162
  53.9392155  78.8155994  17.9919956  54.0772703  78.4076381  19.4433358
  52.2357938  82.2686634   9.3266021  53.1475795  82.5014021   9.1513719
  51.7267586  82.8523678   8.7641100  45.0443367  84.5482122  24.3655152
  45.7858051  85.0867165  24.0889976  44.3380352  85.1748410  24.5226704
  50.5198706  86.6911262  22.9627314  50.9282062  86.2493672  22.2181946
  49.7975968  86.1163889  23.2161506  46.8729776  81.6283869  20.3360871
  47.7190971  82.0523282  20.4795520  46.8128414  80.9717493  21.0299434
  50.8427521  87.2512453  16.7179602  50.2136383  87.4158167  16.0155670
  50.4553183  87.6654062  17.4890567  54.7216753  88.1866890  14.0723966
  54.0367791  88.5665792  13.5221000  54.8060602  88.7962217  14.8055914
  50.0229222  79.2888237  21.9942044  49.7790153  80.0430298  21.4576320
  50.2989152  79.6673585  22.8289291  51.9767684  85.8326849  20.6719310
  52.1884580  86.4758609  19.9953691  51.9297433  84.9989166  20.2041240
  49.5793913  78.4444670  17.5755882  48.7178392  78.7425924  17.8672619
  49.6056348  78.6615069  16.6436915  46.3955483  86.9886861  13.9829688
  46.8593828  87.2674564  13.1934310  46.1312281  86.0870305  13.8002778
  43.2879564  86.5358342  16.9209451  43.8580921  86.9645611  16.2826935
  43.8787676  86.2540927  17.6193636  45.3324369  83.1110013  10.7919253
  46.0348412  83.5631057  11.2593179  45.0004997  82.4693832  11.4199146
  43.7804730  81.7021770  25.1670462  43.1503391  82.3838051  25.4005859
  43.6740818  81.5904851  24.2223600  39.0749703  81.3693566  16.0936386
  38.2848757  81.6251094  15.6176497  39.5660950  82.1841904  16.1988427
  53.0913512  88.7098805  18.8441667  53.9130956  88.3078992  18.5624349
  53.0875915  88.6067039  19.7957783  41.0264448  81.7338145  13.0519863
  40.2295611  81.8456839  13.5703359  40.7990040  82.0724797  12.1860754
  46.8570116  88.2582848  21.0002378  46.9214548  88.7203255  21.8360549
  46.1481040  87.6280213  21.1284687  37.3587406  81.6224056  18.5251377
  37.6095444  82.5071066  18.7908953  37.8946954  81.4428658  17.7526469
  61.1819505  85.0537553  15.1926639  60.4283214  84.4844951  15.0370643
  61.3167047  85.0200218  16.1397273  46.5718133  89.9250956  10.8681358
  46.4363808  90.7702491  11.2966206  47.1127946  90.1270233  10.1047292
  43.0585473  76.0042536  27.5295713  42.6652419  75.4508734  28.2043357
  43.8751613  76.3153114  27.9202231  40.0247531  87.4426394  11.4409283
  40.5372051  88.2369644  11.5914848  40.6770244  86.7452684  11.3742884
  41.8342415  90.5592150  13.5232036  42.0109044  91.4810115  13.3353020
  42.6299249  90.2450569  13.9526416  45.9753434  77.4200415  25.1215970
  46.7163147  78.0207568  25.0420432  46.2071357  76.6778052  24.5634012
  41.1194772  82.6056782  23.3994199  41.0048287  81.7042039  23.7001298
  40.2639290  82.8520479  23.0479016  48.1986610  90.5474522  24.9981700
  47.7550464  89.7610901  24.6802605  48.8603823  90.7353673  24.3325591
  42.9573731  92.0770324  19.5242379  43.5081156  91.9487387  18.7519372
  42.1185207  92.3765213  19.1737271  50.2967848  90.8277322  23.0263101
  50.2786323  91.6486203  22.5343370  51.2187768  90.7031397  23.2513242
  46.7540902  88.3421452  23.8686610  47.2869239  87.5809740  23.6385918
  46.2254983  88.0495103  24.6110764  49.9210597  73.4481518  19.3980251
  49.5774866  74.3383159  19.3219362  50.2889560  73.2583175  18.5349836
  37.9896448  85.7715048  12.2168854  38.8271670  86.1812056  12.0002561
  38.1674715  84.8314490  12.1869047  49.8860880  83.4390129   7.9052687
  49.3707503  84.2094733   8.1441074  49.6138188  82.7655265   8.5285748
  47.4707991  78.2839829  12.9637925  46.6149587  77.8946680  12.7843564
  47.8834942  78.3631790  12.1037710  49.0007137  75.8186173  17.3629485
  48.4971933  75.7816308  16.5497290  49.2937744  76.7278915  17.4226141
  45.2450023  75.9024902  16.3695666  46.1103020  75.7067711  16.0101556
  45.3127532  75.6735254  17.2965023  54.8595154  86.1922483   9.8405860
  54.0824597  85.8533643   9.3961022  55.5386635  86.1975106   9.1660825
  49.6747183  81.3117221   9.7312468  49.3697318  81.6263370  10.5822611
  50.6277625  81.3898641   9.7739801  48.1193615  87.4707444  11.3805422
  47.5914976  86.7360204  11.0678659  47.6181117  88.2482120  11.1345390
  53.0986461  85.6656465  16.4972468  52.4410135  86.3555726  16.5852597
  53.9026860  86.0552897  16.8406454  42.8512342  78.1327110  13.7412033
  43.4256094  77.9102292  13.0085226  43.4383325  78.2015805  14.4940634
  51.9091919  84.0200837  14.5476410  52.4223801  84.6530829  15.0498119
  52.5593143  83.4202033  14.1819770  43.1781929  80.1631571   7.7607918
  42.3419242  80.5006258   8.0817193  43.0386699  80.0280551   6.8235055
  45.1535010  75.0068359  12.4687103  44.4999422  74.6917376  11.8443717
  45.1115484  74.3844100  13.1946926  46.2646215  85.2887654   4.3840395
  45.3573277  85.0576908   4.5831544  46.7617247  84.4925274   4.5714376
  49.1714294  93.9985162   7.3037081  48.4975992  94.3016858   7.9122039
  49.5580116  94.8014242   6.9542538  48.3872750  81.4950293  16.7934750
  47.4695312  81.7165240  16.6356438  48.8032894  81.5696603  15.9346458
  49.1707798  82.8941708  11.9237431  49.9179617  83.4063106  11.6144553
  49.4399388  82.5725761  12.7841824  47.4434448  85.3900249   8.9064385
  46.5345668  85.1059282   9.0036855  47.4729532  85.8099328   8.0467692
  52.6753716  89.0006839  12.6755552  52.2216043  88.1597749  12.7320743
  52.0447682  89.6368237  13.0130333  51.6186635  79.9298825  13.9056220
  50.8809392  79.4176211  14.2366462  51.8713409  79.4899206  13.0939497
  51.1186655  90.8383335  13.6105371  51.4109629  91.3988393  12.8917736
  51.6285276  91.1311896  14.3658530  51.7198263  72.7075077  14.4997989
  52.0257139  71.8472440  14.2123904  52.4450867  73.2992697  14.2996983
  38.0122619  83.1105763  12.8879587  37.8147018  82.5175124  12.1630654
  37.4569283  82.8057974  13.6055526  45.9919342  83.0028870  15.0074180
  46.0467952  82.0502706  14.9316657  45.1810544  83.1588309  15.4915479
  47.1410536  86.9308993   6.2452463  46.7029966  86.2144852   5.7858101
  47.8820977  87.1585108   5.6837555  43.9311702  81.6205930  12.7664559
  43.1179568  81.9200100  13.1729751  44.4270696  81.2261618  13.4839041
  46.0820280  91.6163686  14.6998824  46.0396459  91.8424533  13.7707356
  46.9982979  91.3827061  14.8484625  49.5285914  82.0847754  21.5979453
  49.8835302  82.3119227  22.4573919  50.1758045  82.4166131  20.9756708
  55.2583651  85.2066190  12.3028782  55.1201549  85.3967786  11.3749971
  54.9019870  85.9685573  12.7596833  43.4225777  79.1924285  18.3825794
  44.0625156  79.0513044  17.6848757  42.5903308  78.9058798  18.0064396
  55.2853030  87.2742717  17.3140053  55.7189537  87.1818006  18.1623107
  55.9984611  87.2500217  16.6760069  44.1986081  88.4926715  14.4960786
  44.9926679  87.9977036  14.2943361  43.4877773  87.9644579  14.1328492
  49.0180925  90.8744811  18.8473154  49.0717948  91.4435747  19.6150870
  48.1495707  91.0446696  18.4827191  40.5068844  82.6369797  10.5720539
  39.5766432  82.5754253  10.7890501  40.6026316  82.1145750   9.7757180
  40.4254393  79.1624610  13.1598781  40.6861211  80.0769943  13.0507941
  41.2471566  78.6949053  13.3095394  41.8979319  80.5762367  20.3297605
  42.5702372  80.3679729  19.6810254  41.0709105  80.3784453  19.8902838
  56.1468580  87.3166418  19.8472939  56.3404470  88.2212228  20.0932214
  56.0469198  86.8573837  20.6811524  47.8004891  77.2024308  22.3463266
  47.1532806  77.9014258  22.2527743  48.5705906  77.6360452  22.7139514
  51.2083689  87.4673160  25.4213819  51.0569195  87.2383712  24.5043903
  51.1988368  88.4243762  25.4345164  47.9769025  85.0405073  20.4060086
  48.9061085  85.1916233  20.2329053  47.5560055  85.1289094  19.5508732
  46.7757357  89.0655737  18.1758624  46.6368443  88.6974522  19.0484562
  45.9871953  89.5803377  18.0042581  47.3705509  94.1664834   9.5184160
  47.5457265  93.6952877  10.3329783  46.6838297  94.7930600   9.7465421
  48.3262572  88.4437340  15.5647461  47.9912405  88.4038110  16.4605111
  47.8266518  87.7782056  15.0917872  42.3006816  83.8504970  21.0900042
  42.1626614  83.1185209  21.6911582  43.2111739  83.7613870  20.8084230
  51.2621764  85.7893375   5.8384521  50.6450934  85.0640203   5.7417574
  50.7938252  86.5502735   5.4951595  44.9289117  83.5624930  20.5783722
  45.6388735  82.9218122  20.5370341  44.8858425  83.8137824  21.5009903
  52.9175895  90.4992283  23.4990301  52.8588442  89.8151503  22.8320884
  53.3195414  91.2411273  23.0470927  43.6418051  80.5490147  22.3979362
  43.1055408  80.0980886  23.0500958  43.0534759  80.6836056  21.6549826
  41.9366594  97.3154197  16.2924020  42.1763192  97.9472721  16.9703039
  41.0935791  96.9642237  16.5789379  43.0520310  80.0078799   4.9605825
  42.1749776  79.8867600   4.5968072  43.5278063  79.2164877   4.7084714
  52.9193303  88.4631867  21.7304281  52.0320081  88.1257789  21.8530680
  53.4891854  87.7314898  21.9673046  34.5722450  84.7955959  15.0547332
  35.2593490  84.4817689  14.4668348  34.4170578  85.6997323  14.7814584
  39.3757172  79.6846155  19.4832356  39.2915361  79.0771825  18.7482766
  38.5539878  80.1755173  19.4841852  46.4494456  93.1233319  18.6965524
  46.3764627  93.9288291  19.2084829  46.0071849  93.3225285  17.8713546
  46.2384236  92.3605089  12.2068346  45.4551758  92.9026769  12.3006570
  46.9376981  92.8779069  12.6062587  49.5480886  78.1699719  14.8502551
  50.0449585  77.4169681  14.5303621  48.7767867  78.2064035  14.2845760
  57.4010643  83.8740084  16.4920843  57.3900519  84.7564800  16.1214776
  56.5328023  83.5211635  16.2975380  48.9093140  93.0220153  20.8523683
  49.6221112  93.6567618  20.7799584  48.4183168  93.1184019  20.0363685
  50.6310666  86.9271406  12.4240975  49.6966945  87.0472868  12.2545679
  50.8087335  86.0243873  12.1600984  46.1315855  80.3117102  14.5774236
  45.7613642  79.7588142  15.2655141  46.6274947  79.7075235  14.0249236
  54.0183218  82.7688725  12.9591009  54.4843670  83.6016717  12.8851311
  54.4690718  82.3033707  13.6636267  43.9605053  90.7714597  21.6729254
  44.6614513  91.4051080  21.8258648  43.4900168  91.1129328  20.9124893
  52.0859449  89.1132546   9.9577161  52.3619293  88.9989141  10.8671035
  51.2163948  88.7150031   9.9189334  51.9899881  75.1369312  16.9981910
  51.0762960  75.3673539  17.1664117  52.4192982  75.2207756  17.8495942
  51.7606339  83.3259204  19.4981804  51.1077789  83.5735112  18.8434257
  52.1386719  82.5123342  19.1644281  48.7213513  93.3618897  13.6009974
  48.9035907  92.5440553  14.0637727  49.5446499  93.5786590  13.1634864
  49.0555678  92.2887082  10.8625023  49.5843445  91.7779537  10.2495185
  49.3183898  91.9729613  11.7270556  47.8093912  84.0679015  25.9847841
  47.1334549  83.9673144  26.6550216  48.6321546  83.9118229  26.4483838
  39.5572771  90.3050952  18.6060356  40.1426208  89.5594640  18.7388261
  39.3597610  90.6154908  19.4897020  42.4111426  93.3402199  13.6222799
  41.7421802  93.8248327  13.1386839  42.2724296  93.5871420  14.5366177
  34.1490426  82.8756552  17.3264800  34.1874525  82.3420143  18.1201918
  33.6430719  82.3491757  16.7075777  46.5516695  95.3745943  20.2205457
  47.1035003  95.5377564  20.9854542  46.8922888  95.9650380  19.5485482
  41.5281188  77.7221092  20.8227342  41.5922515  78.5835923  20.4104740
  41.4648308  77.1095094  20.0899700  41.0033461  79.7944225  24.4700376
  41.6305500  79.4121302  25.0837900  40.1461380  79.5758427  24.8356069
  51.4027569  90.2007200  26.0754112  51.9467473  90.8137158  25.5809066
  50.8214414  90.7586779  26.5921125  37.7799003  81.6020654  10.4018731
  38.0752445  80.6931332  10.3485785  36.8787039  81.5808394  10.0799733
  49.6885082  93.3227918  17.2069139  49.5636222  92.5217658  16.6980085
  50.3464173  93.8174112  16.7183109  41.3093250  79.6776651  16.3846280
  40.5879836  80.2912618  16.2453753  42.0986506  80.2134415  16.3062925
  51.7519991  91.1236938  18.8348689  50.8050326  91.0042289  18.7627016
  52.1002764  90.2359436  18.9174951  44.1119564  77.0131077  22.6586931
  44.6353966  77.2593374  23.4213241  43.8931897  77.8451112  22.2390069
  39.5086845  79.2834752  10.5258056  39.1799551  78.4032131  10.3433162
  39.8626216  79.2282420  11.4134445  48.7566424  90.9189654  15.0353042
  48.6091386  89.9906362  15.2160612  49.5819917  90.9409745  14.5510117
  42.6228668  79.5707722  10.8933534  42.9624741  80.0993643  10.1712142
  43.0700789  79.9088128  11.6692100  52.3600546  91.7418213  16.1217914
  53.2847093  91.5361075  15.9842365  52.1915849  91.4934614  17.0307256
  45.3172109  77.9544772  20.3436602  44.9768929  77.1552585  20.7457282
  44.6111115  78.2546483  19.7713435  45.9688581  75.0394085  18.7963925
  46.7914650  74.5654563  18.6742815  46.2126644  75.8184568  19.2962611
  44.6096815  78.0682343   9.0926826  45.3305178  78.4463596   8.5890543
  43.9862119  78.7871220   9.1961804  48.7527938  78.7727492  10.0285159
  48.9691553  79.6552130   9.7273987  48.2722005  78.3813705   9.2990801
  43.4927160  81.7313205  16.6055903  43.3471740  82.0453508  17.4980185
  43.0152363  82.3498106  16.0526802  45.3523542  78.7215753  16.6536793
  45.3385111  77.8256847  16.3169091  46.0695971  78.7286417  17.2875079
  47.2049673  79.1553094  18.6989920  46.9467451  80.0770164  18.6974251
  46.6734714  78.7583528  19.3890385  52.1495862  92.2603881  11.4780006
  52.3232739  91.6950303  10.7253858  52.6424753  93.0604776  11.2959496
  37.9672822  84.2718550  19.5443565  37.4226290  85.0478358  19.6763839
  38.8452172  84.6189354  19.3862686  44.7560438  77.6030134  11.9224363
  44.8776350  76.6746780  12.1215251  44.4662481  77.6168820  11.0102679
  47.6251629  75.2885044  15.0591083  47.6473326  75.3524377  14.1043063
  48.0419688  74.4489553  15.2531589  58.0035253  85.0240304  13.0970306
  58.4466399  84.2747629  12.6989429  57.1261763  85.0150440  12.7144038
  53.1371034  91.5770645   8.5776904  53.8321939  92.1977338   8.7964219
  53.4794185  90.7265996   8.8529282  38.7538844  83.3988446  22.4373721
  38.0120580  83.5471081  23.0238352  38.4331588  83.6596712  21.5740471
  55.0362458  89.0270351  10.1064235  55.5613782  89.3657623   9.3813555
  54.9484810  88.0917366   9.9227369  46.6982506  92.9404424  22.2354111
  47.0069633  92.6953571  23.1076811  47.4957988  93.1451063  21.7472982
  46.7203118  95.0942334  14.4659488  46.2808109  94.6018713  15.1592345
  47.4711235  94.5515302  14.2251563  39.1995457  91.2853875  14.4684116
  40.0253477  90.9857647  14.0882760  38.8489509  90.5161497  14.9173905
  44.1676990  90.6380343  16.5381790  43.5457000  89.9751048  16.2384018
  44.8381857  90.6641475  15.8555437  37.4004062  89.2040201  15.4273050
  36.5635971  88.7762376  15.2457051  37.3727708  89.3972644  16.3643841
  44.2401518  79.1162131  26.1314296  44.2889673  79.9924254  25.7492065
  44.7824032  78.5739524  25.5585939  54.7256364  89.6603254  25.4115433
  53.9351907  89.6427393  24.8719932  54.4889718  90.1991548  26.1664469
  54.8454239  86.5095721  22.7248161  54.8952244  86.3445728  23.6663684
  54.7368162  85.6422980  22.3346042  43.7290497  89.1884266  10.0140250
  43.8778618  89.8719731   9.3606923  44.5356941  89.1689356  10.5289706
  52.1358001  82.4926649  24.0407468  53.0367864  82.3533113  23.7491466
  52.2105976  82.6581103  24.9805645  46.4700806  79.8693503  22.8860654
  45.6004116  80.1627069  22.6143243  46.7060287  80.4533948  23.6067918
  56.3472436  88.9292662  22.9690183  56.0557244  89.2922643  23.8053644
  55.7344567  88.2159670  22.7903515  57.5468118  86.4945542  15.4892753
  58.3815009  86.9335346  15.6530313  57.6827247  86.0184195  14.6700999
  54.5959624  84.0525277  21.4370241  55.0713745  84.2452923  20.6289092
  53.6725189  84.1084463  21.1913625  41.4843130  85.2149444  11.0201319
  41.2389172  84.3111774  11.2181529  41.6539045  85.2166594  10.0780797
  49.1739840  76.0873120  20.4026075  49.6921784  76.8234147  20.0772563
  48.8194973  76.3937114  21.2372834  40.7538778  80.9477801   8.5187481
  40.0608023  81.0222156   7.8627517  40.5090530  80.1838145   9.0408998
  49.4252434  72.5073403  15.9226971  49.7054188  71.8396592  16.5487398
  50.2103041  72.7002498  15.4101635  47.2285903  91.6832397   7.4851998
  46.6559870  92.3022584   7.0322470  47.8018697  92.2331758   8.0191920
  53.2961293  80.9291037  19.6698546  54.2478716  81.0289134  19.6910771
  53.1264743  80.1369305  20.1796631  51.3175672  78.0146620  19.8557947
  50.7225604  78.2951633  19.1604436  51.0325369  78.5040521  20.6274688
  50.4483163  91.9669547   8.6160580  51.3813836  91.9015109   8.8193455
  50.3606376  92.8025814   8.1575113  53.0771179  91.2835417   5.5764528
  52.9984811  90.9495281   6.4700285  53.8980846  91.7757185   5.5756000
  55.7749371  84.1497156  18.7840846  55.7425691  83.2113157  18.9700530
  56.3849994  84.2281193  18.0506671  47.6132701  83.0193209   4.8268050
  48.5591806  82.8899418   4.8956468  47.2346946  82.2807871   5.3037478
  55.9243859  80.9408200  18.8299129  55.4082908  80.1566657  18.6429058
  56.8083808  80.6126917  18.9945649  53.5854586  74.6849215  14.7894942
  53.3879407  74.3764304  15.6738274  54.1954292  75.4110854  14.9192872
  61.5925920  85.2113163  17.9246883  62.3229309  84.9498451  18.4854586
  60.9832866  84.4741885  17.9648951  59.6741218  83.3521026  18.5221334
  58.9474381  83.2176991  17.9137826  59.2588504  83.6597855  19.3278052
  47.4971394  87.0710956  26.2868707  48.4174403  87.2489555  26.4808754
  47.4620977  86.1267001  26.1348406  45.7975619  80.9443186   4.7622935
  44.8907074  80.6476299   4.8385649  46.0751600  80.6473004   3.8957222
  36.7153559  82.2649549  15.2121982  36.3956343  81.4114857  14.9196356
  36.1686987  82.4798127  15.9679949  40.4933466  84.9811990  18.9291488
  40.7119476  85.9129098  18.9479522  40.9059240  84.6219965  19.7146292
  47.4137684  75.4880076  10.9167177  46.6038413  75.1427161  11.2922423
  48.1022101  75.1787619  11.5054788  49.3428233  74.5658122  12.5391473
  49.8959271  74.9853576  13.1981496  49.5798319  73.6393870  12.5814429
  45.3661332  80.5545196  28.3194237  45.2658059  81.5039553  28.2506328
  45.1482874  80.2263435  27.4470307  44.5674403  77.8030121   4.9034915
  45.4293567  78.1285019   5.1630732  44.7524747  77.0161617   4.3907980
  36.5841819  85.8852461  17.1815103  35.8905290  85.4706414  16.6685058
  37.3314810  85.9272997  16.5848522  52.7207040  76.6758648  12.0470138
  52.1405709  77.3343452  11.6648190  52.4542972  75.8535992  11.6357555
  51.1710606  76.0763705  14.2491458  51.6710384  76.1880240  13.4405777
  51.8146214  75.7724758  14.8892266  45.2292602  83.9842335  27.1359299
  44.7459684  84.7842695  27.3423188  45.3153541  83.9950280  26.1826743
  38.4978561  85.8170715  15.0581118  38.4749250  85.9158402  14.1063001
  38.8079198  86.6635865  15.3798284  41.1565939  87.8746870  19.1727733
  42.1109193  87.8430812  19.1057664  40.9578463  87.4137493  19.9877959
  41.7465321  86.4447986  21.7398530  42.5658210  86.9392064  21.7633368
  42.0202129  85.5279954  21.7116098  51.5031918  78.8358738  11.1026486
  50.6157773  79.1208389  10.8846681  51.9185907  78.6752501  10.2553763
  54.8546454  78.8605259  14.8180825  55.6306844  79.3501711  15.0905442
  54.1294588  79.2863313  15.2752695  57.2919012  79.5732878  15.8754766
  57.8863503  79.3328614  15.1648074  57.3645596  78.8540009  16.5028302
  39.5116168  93.4166489  16.1897931  39.3770636  92.6566890  15.6235929
  39.0948230  94.1407389  15.7226719  50.6475131  88.6003413   5.1974506
  51.3510981  88.8053415   5.8132161  49.9237780  89.1680174   5.4623589
  51.4772941  84.3513274  11.3176776  51.4208143  84.8081825  10.4784408
  52.0301284  83.5903958  11.1399619  55.2877747  80.1403006  12.1426895
  55.0314682  79.7399641  12.9735103  54.6630615  80.8546800  12.0177035
  59.5990085  82.8799079  14.6498187  59.0389643  82.9492268  15.4229749
  58.9933589  82.7040064  13.9297683  42.6685294  94.3135806  16.4016373
  42.5517678  95.2581239  16.2995063  41.8477740  94.0109368  16.7902172
  52.5561829  89.0385942   7.2472966  53.3907432  88.6067140   7.0650441
  52.3946171  88.8667955   8.1749860  52.2107721  85.5418055   8.6129305
  52.1556525  85.3762327   7.6717749  51.5853776  86.2494088   8.7691495
  37.0000236  80.7786119  22.4390727  37.6459099  80.2685073  22.9277953
  36.7917387  81.5154801  23.0134153  49.5253628  87.8466967  27.9382868
  50.3944788  88.0207619  27.5769503  49.0460379  88.6661384  27.8158597
  45.5203846  75.0426164   8.1914624  45.5082516  75.9868004   8.3482894
  46.4127268  74.8596310   7.8974085  43.6939808  94.9664068  19.6172302
  44.5967055  94.9987678  19.9338797  43.4677178  94.0364519  19.6318637
  45.4493410  93.7195055  16.2782380  44.4989041  93.7196916  16.1646753
  45.7525896  92.9727789  15.7618415  49.3355966  71.6368941  12.4460560
  48.5688361  71.0827427  12.5917243  49.7466671  71.7090810  13.3074712
  41.3397727  77.9253737  26.5365742  42.2029188  77.5690541  26.7469066
  40.7663137  77.5867631  27.2241146  61.1846104  99.5555593  17.3428143
  61.8224514  99.4362340  16.6391483  61.0666947 100.5036437  17.4016095
  57.9935810  99.5083021  17.2789667  57.6554321  99.3924086  16.3910202
  58.8625578  99.1074186  17.2590673  53.8522626 101.3618497  13.2686558
  53.2887491 101.2708434  12.5002846  53.7375021 100.5418402  13.7489051
  58.4755593 100.6617873  23.2375873  58.4644234 100.2670671  22.3656377
  58.6376232  99.9283945  23.8309644  51.3987058 102.8569689  16.1070779
  52.1908349 102.5160514  15.6917078  51.6383708 102.9664664  17.0272932
  59.4322184 105.0289465   8.5801023  58.7810164 105.6143546   8.1935037
  60.2266547 105.5595660   8.6396061  53.3577811 102.1178602   8.9788158
  54.1308687 101.5707589   8.8401033  53.7103210 102.9822852   9.1902619
  55.1962854 103.4454985  22.1855057  54.9052720 104.3500615  22.0701723
  55.8319838 103.4871512  22.8999126  56.1219061 100.8231833  18.7756416
  56.7182633 100.5987855  18.0613379  56.1794032 100.0816579  19.3781864
  55.6944089  98.2771268   6.6106607  55.9469610  97.7552790   5.8490070
  54.7568648  98.1137414   6.7133291  60.7387372  97.2807047  14.4181351
  61.5250461  96.8626470  14.0671768  61.0026076  98.1853139  14.5862999
  60.9097449 102.7179897   9.1170007  60.2743282 102.7914524   9.8290912
  60.5794856 103.3073496   8.4389087  66.1395799  97.2182280  15.3214329
  66.8720971  96.6481497  15.5552159  65.3835155  96.8303880  15.7620835
  55.4140378 100.1799374   8.8130982  55.2976636  99.5044278   9.4812067
  55.5242638  99.6931748   7.9963135  57.7571919  99.6409521  12.5177672
  57.3930126  99.1140142  13.2290593  58.6139035  99.2507991  12.3444157
  63.6621220  90.9303854  19.7808938  63.3304544  91.7999265  19.5570153
  63.0666833  90.6140138  20.4602968  57.3977406  94.6699421   7.5139020
  57.5651808  95.5379658   7.8809491  57.2074575  94.8326703   6.5900309
  60.1552739 103.1316400  19.1804851  59.8553462 104.0341439  19.0720658
  59.8103799 102.8648583  20.0326003  53.6065221  99.5830197  15.2141555
  52.6815717  99.4506411  15.4219247  53.8549634 100.3624416  15.7111497
  63.5549883  95.6498940  16.8602288  62.6466760  95.5814349  16.5661049
  63.5037479  96.1270885  17.6884113  57.3766627  97.1257079   8.4985687
  57.2566252  97.5714129   9.3371167  56.6819215  97.4742396   7.9399225
  50.9674032  99.2263470  16.0485344  51.0966413  99.4797949  16.9624756
  50.2871483  99.8191178  15.7289999  55.1373519 109.8960720  12.1475818
  55.0597549 110.8468545  12.2264299  54.5335163 109.5506593  12.8050745
  57.6290749  97.0688586  24.8037185  56.8524083  97.6282506  24.7940050
  58.2681312  97.5545369  25.3252055  65.4211529  93.8515379  18.6380162
  64.7785910  94.1447912  17.9919956  64.9166458  93.7368299  19.4433358
  63.0751693  97.5978552   9.3266021  63.9869549  97.8305939   9.1513719
  62.5661340  98.1815596   8.7641100  55.8837121  99.8774039  24.3655152
  56.6251805 100.4159083  24.0889976  55.1774106 100.5040328  24.5226704
  61.3592461 102.0203180  22.9627314  61.7675817 101.5785590  22.2181946
  60.6369722 101.4455807  23.2161506  57.7123531  96.9575786  20.3360871
  58.5584726  97.3815200  20.4795520  57.6522168  96.3009411  21.0299434
  61.6821275 102.5804370  16.7179602  61.0530138 102.7450084  16.0155670
  61.2946937 102.9945980  17.4890567  65.5610507 103.5158808  14.0723966
  64.8761545 103.8957709  13.5221000  65.6454356 104.1254135  14.8055914
  60.8622976  94.6180155  21.9942044  60.6183908  95.3722215  21.4576320
  61.1382907  94.9965502  22.8289291  62.8161439 101.1618767  20.6719310
  63.0278334 101.8050527  19.9953691  62.7691187 100.3281084  20.2041240
  60.4187668  93.7736588  17.5755882  59.5572147  94.0717841  17.8672619
  60.4450102  93.9906987  16.6436915  57.2349237 102.3178778  13.9829688
  57.6987583 102.5966481  13.1934310  56.9706035 101.4162223  13.8002778
  54.1273318 101.8650260  16.9209451  54.6974675 102.2937528  16.2826935
  54.7181430 101.5832845  17.6193636  56.1718123  98.4401931  10.7919253
  56.8742167  98.8922974  11.2593179  55.8398752  97.7985750  11.4199146
  54.6198485  97.0313687  25.1670462  53.9897145  97.7129968  25.4005859
  54.5134573  96.9196769  24.2223600  49.9143457  96.6985483  16.0936386
  49.1242511  96.9543012  15.6176497  50.4054705  97.5133821  16.1988427
  63.9307267 104.0390723  18.8441667  64.7524710 103.6370910  18.5624349
  63.9269670 103.9358957  19.7957783  51.8658203  97.0630063  13.0519863
  51.0689366  97.1748757  13.5703359  51.6383795  97.4016715  12.1860754
  57.6963870 103.5874766  21.0002378  57.7608303 104.0495173  21.8360549
  56.9874794 102.9572131  21.1284687  48.1981160  96.9515974  18.5251377
  48.4489199  97.8362984  18.7908953  48.7340709  96.7720575  17.7526469
  72.0213260 100.3829471  15.1926639  71.2676968  99.8136869  15.0370643
  72.1560801 100.3492136  16.1397273  57.4111888 105.2542873  10.8681358
  57.2757563 106.0994409  11.2966206  57.9521700 105.4562151  10.1047292
  53.8979227  91.3334453  27.5295713  53.5046173  90.7800652  28.2043357
  54.7145368  91.6445032  27.9202231  50.8641285 102.7718311  11.4409283
  51.3765806 103.5661562  11.5914848  51.5163998 102.0744602  11.3742884
  52.6736170 105.8884068  13.5232036  52.8502798 106.8102032  13.3353020
  53.4693003 105.5742487  13.9526416  56.8147188  92.7492332  25.1215970
  57.5556902  93.3499485  25.0420432  57.0465111  92.0069970  24.5634012
  51.9588526  97.9348700  23.3994199  51.8442042  97.0333957  23.7001298
  51.1033044  98.1812396  23.0479016  59.0380364 105.8766440  24.9981700
  58.5944218 105.0902818  24.6802605  59.6997578 106.0645590  24.3325591
  53.7967485 107.4062241  19.5242379  54.3474911 107.2779305  18.7519372
  52.9578961 107.7057130  19.1737271  61.1361602 106.1569240  23.0263101
  61.1180078 106.9778121  22.5343370  62.0581522 106.0323315  23.2513242
  57.5934656 103.6713369  23.8686610  58.1262993 102.9101657  23.6385918
  57.0648738 103.3787021  24.6110764  60.7604351  88.7773435  19.3980251
  60.4168621  89.6675077  19.3219362  61.1283314  88.5875093  18.5349836
  48.8290202 101.1006966  12.2168854  49.6665424 101.5103974  12.0002561
  49.0068470 100.1606408  12.1869047  60.7254634  98.7682046   7.9052687
  60.2101258  99.5386651   8.1441074  60.4531943  98.0947182   8.5285748
  58.3101745  93.6131747  12.9637925  57.4543342  93.2238598  12.7843564
  58.7228697  93.6923708  12.1037710  59.8400892  91.1478090  17.3629485
  59.3365687  91.1108226  16.5497290  60.1331499  92.0570833  17.4226141
  56.0843778  91.2316820  16.3695666  56.9496774  91.0359629  16.0101556
  56.1521287  91.0027172  17.2965023  65.6988908 101.5214401   9.8405860
  64.9218351 101.1825560   9.3961022  66.3780389 101.5267024   9.1660825
  60.5140937  96.6409138   9.7312468  60.2091073  96.9555288  10.5822611
  61.4671379  96.7190558   9.7739801  58.9587369 102.7999362  11.3805422
  58.4308731 102.0652121  11.0678659  58.4574872 103.5774038  11.1345390
  63.9380215 100.9948382  16.4972468  63.2803890 101.6847644  16.5852597
  64.7420614 101.3844814  16.8406454  53.6906097  93.4619028  13.7412033
  54.2649849  93.2394210  13.0085226  54.2777079  93.5307723  14.4940634
  62.7485674  99.3492755  14.5476410  63.2617556  99.9822747  15.0498119
  63.3986898  98.7493950  14.1819770  54.0175684  95.4923489   7.7607918
  53.1812996  95.8298176   8.0817193  53.8780454  95.3572469   6.8235055
  55.9928764  90.3360277  12.4687103  55.3393177  90.0209294  11.8443717
  55.9509239  89.7136017  13.1946926  57.1039969 100.6179572   4.3840395
  56.1967031 100.3868825   4.5831544  57.6011001  99.8217191   4.5714376
  60.0108048 109.3277079   7.3037081  59.3369747 109.6308776   7.9122039
  60.3973870 110.1306160   6.9542538  59.2266505  96.8242210  16.7934750
  58.3089066  97.0457157  16.6356438  59.6426648  96.8988521  15.9346458
  60.0101553  98.2233626  11.9237431  60.7573372  98.7355023  11.6144553
  60.2793142  97.9017679  12.7841824  58.2828203 100.7192167   8.9064385
  57.3739422 100.4351200   9.0036855  58.3123287 101.1391245   8.0467692
  63.5147470 104.3298756  12.6755552  63.0609797 103.4889666  12.7320743
  62.8841437 104.9660155  13.0130333  62.4580390  95.2590742  13.9056220
  61.7203147  94.7468129  14.2366462  62.7107163  94.8191124  13.0939497
  61.9580409 106.1675253  13.6105371  62.2503384 106.7280310  12.8917736
  62.4679030 106.4603814  14.3658530  62.5592017  88.0366994  14.4997989
  62.8650894  87.1764358  14.2123904  63.2844622  88.6284615  14.2996983
  48.8516373  98.4397681  12.8879587  48.6540773  97.8467042  12.1630654
  48.2963037  98.1349891  13.6055526  56.8313097  98.3320787  15.0074180
  56.8861707  97.3794624  14.9316657  56.0204299  98.4880227  15.4915479
  57.9804291 102.2600911   6.2452463  57.5423720 101.5436769   5.7858101
  58.7214731 102.4877025   5.6837555  54.7705457  96.9497847  12.7664559
  53.9573322  97.2492018  13.1729751  55.2664451  96.5553536  13.4839041
  56.9214035 106.9455604  14.6998824  56.8790213 107.1716450  13.7707356
  57.8376733 106.7118979  14.8484625  60.3679668  97.4139672  21.5979453
  60.7229056  97.6411145  22.4573919  61.0151800  97.7458048  20.9756708
  66.0977405 100.5358108  12.3028782  65.9595304 100.7259704  11.3749971
  65.7413624 101.2977490  12.7596833  54.2619531  94.5216203  18.3825794
  54.9018911  94.3804962  17.6848757  53.4297062  94.2350716  18.0064396
  66.1246785 102.6034635  17.3140053  66.5583292 102.5109924  18.1623107
  66.8378366 102.5792135  16.6760069  55.0379835 103.8218633  14.4960786
  55.8320434 103.3268953  14.2943361  54.3271528 103.2936496  14.1328492
  59.8574680 106.2036729  18.8473154  59.9111702 106.7727665  19.6150870
  58.9889461 106.3738614  18.4827191  51.3462599  97.9661715  10.5720539
  50.4160187  97.9046170  10.7890501  51.4420071  97.4437668   9.7757180
  51.2648148  94.4916528  13.1598781  51.5254965  95.4061861  13.0507941
  52.0865320  94.0240970  13.3095394  52.7373073  95.9054285  20.3297605
  53.4096127  95.6971647  19.6810254  51.9102860  95.7076371  19.8902838
  66.9862335 102.6458335  19.8472939  67.1798225 103.5504146  20.0932214
  66.8862953 102.1865754  20.6811524  58.6398645  92.5316226  22.3463266
  57.9926560  93.2306175  22.2527743  59.4099661  92.9652370  22.7139514
  62.0477443 102.7965078  25.4213819  61.8962950 102.5675630  24.5043903
  62.0382123 103.7535679  25.4345164  58.8162780 100.3696991  20.4060086
  59.7454840 100.5208150  20.2329053  58.3953810 100.4581012  19.5508732
  57.6151111 104.3947655  18.1758624  57.4762197 104.0266440  19.0484562
  56.8265708 104.9095295  18.0042581  58.2099263 109.4956752   9.5184160
  58.3851019 109.0244795  10.3329783  57.5232051 110.1222518   9.7465421
  59.1656327 103.7729258  15.5647461  58.8306159 103.7330028  16.4605111
  58.6660272 103.1073974  15.0917872  53.1400570  99.1796888  21.0900042
  53.0020368  98.4477127  21.6911582  54.0505494  99.0905788  20.8084230
  62.1015518 101.1185292   5.8384521  61.4844689 100.3932120   5.7417574
  61.6332007 101.8794652   5.4951595  55.7682871  98.8916847  20.5783722
  56.4782490  98.2510039  20.5370341  55.7252179  99.1429742  21.5009903
  63.7569650 105.8284201  23.4990301  63.6982196 105.1443421  22.8320884
  64.1589168 106.5703191  23.0470927  54.4811805  95.8782065  22.3979362
  53.9449162  95.4272804  23.0500958  53.8928514  96.0127974  21.6549826
  52.7760349 112.6446114  16.2924020  53.0156947 113.2764639  16.9703039
  51.9329545 112.2934154  16.5789379  53.8914064  95.3370717   4.9605825
  53.0143530  95.2159517   4.5968072  54.3671817  94.5456795   4.7084714
  63.7587057 103.7923784  21.7304281  62.8713836 103.4549706  21.8530680
  64.3285608 103.0606816  21.9673046  45.4116204 100.1247876  15.0547332
  46.0987244  99.8109606  14.4668348  45.2564333 101.0289241  14.7814584
  50.2150926  95.0138073  19.4832356  50.1309115  94.4063742  18.7482766
  49.3933633  95.5047091  19.4841852  57.2888211 108.4525237  18.6965524
  57.2158382 109.2580208  19.2084829  56.8465604 108.6517203  17.8713546
  57.0777990 107.6897007  12.2068346  56.2945512 108.2318687  12.3006570
  57.7770735 108.2070987  12.6062587  60.3874640  93.4991636  14.8502551
  60.8843340  92.7461599  14.5303621  59.6161622  93.5355953  14.2845760
  68.2404398  99.2032002  16.4920843  68.2294274 100.0856717  16.1214776
  67.3721777  98.8503553  16.2975380  59.7486894 108.3512071  20.8523683
  60.4614866 108.9859536  20.7799584  59.2576923 108.4475937  20.0363685
  61.4704421 102.2563324  12.4240975  60.5360700 102.3764786  12.2545679
  61.6481089 101.3535790  12.1600984  56.9709609  95.6409019  14.5774236
  56.6007397  95.0880060  15.2655141  57.4668701  95.0367153  14.0249236
  64.8576972  98.0980643  12.9591009  65.3237424  98.9308634  12.8851311
  65.3084473  97.6325624  13.6636267  54.7998808 106.1006514  21.6729254
  55.5008267 106.7342997  21.8258648  54.3293923 106.4421246  20.9124893
  62.9253203 104.4424464   9.9577161  63.2013047 104.3281059  10.8671035
  62.0557702 104.0441949   9.9189334  62.8293635  90.4661230  16.9981910
  61.9156715  90.6965457  17.1664117  63.2586736  90.5499674  17.8495942
  62.6000094  98.6551122  19.4981804  61.9471544  98.9027029  18.8434257
  62.9780473  97.8415260  19.1644281  59.5607267 108.6910815  13.6009974
  59.7429662 107.8732471  14.0637727  60.3840253 108.9078507  13.1634864
  59.8949433 107.6179000  10.8625023  60.4237199 107.1071455  10.2495185
  60.1577652 107.3021530  11.7270556  58.6487667  99.3970933  25.9847841
  57.9728304  99.2965062  26.6550216  59.4715300  99.2410147  26.4483838
  50.3966526 105.6342869  18.6060356  50.9819962 104.8886557  18.7388261
  50.1991364 105.9446826  19.4897020  53.2505181 108.6694117  13.6222799
  52.5815556 109.1540244  13.1386839  53.1118051 108.9163337  14.5366177
  44.9884180  98.2048470  17.3264800  45.0268280  97.6712060  18.1201918
  44.4824473  97.6783675  16.7075777  57.3910449 110.7037860  20.2205457
  57.9428757 110.8669482  20.9854542  57.7316643 111.2942298  19.5485482
  52.3674943  93.0513010  20.8227342  52.4316269  93.9127841  20.4104740
  52.3042063  92.4387012  20.0899700  51.8427215  95.1236143  24.4700376
  52.4699254  94.7413220  25.0837900  50.9855134  94.9050345  24.8356069
  62.2421324 105.5299118  26.0754112  62.7861228 106.1429076  25.5809066
  61.6608169 106.0878696  26.5921125  48.6192758  96.9312572  10.4018731
  48.9146199  96.0223250  10.3485785  47.7180794  96.9100311  10.0799733
  60.5278837 108.6519836  17.2069139  60.4029976 107.8509576  16.6980085
  61.1857928 109.1466029  16.7183109  52.1487005  95.0068568  16.3846280
  51.4273591  95.6204536  16.2453753  52.9380261  95.5426333  16.3062925
  62.5913745 106.4528856  18.8348689  61.6444081 106.3334207  18.7627016
  62.9396518 105.5651354  18.9174951  54.9513318  92.3422995  22.6586931
  55.4747720  92.5885291  23.4213241  54.7325652  93.1743030  22.2390069
  50.3480600  94.6126669  10.5258056  50.0193306  93.7324048  10.3433162
  50.7019970  94.5574338  11.4134445  59.5960178 106.2481572  15.0353042
  59.4485141 105.3198280  15.2160612  60.4213672 106.2701663  14.5510117
  53.4622423  94.8999639  10.8933534  53.8018495  95.4285560  10.1712142
  53.9094543  95.2380045  11.6692100  63.1994300 107.0710131  16.1217914
  64.1240848 106.8652992  15.9842365  63.0309604 106.8226532  17.0307256
  56.1565864  93.2836690  20.3436602  55.8162684  92.4844503  20.7457282
  55.4504870  93.5838401  19.7713435  56.8082335  90.3686002  18.7963925
  57.6308405  89.8946481  18.6742815  57.0520399  91.1476486  19.2962611
  55.4490570  93.3974261   9.0926826  56.1698932  93.7755514   8.5890543
  54.8255874  94.1163138   9.1961804  59.5921693  94.1019410  10.0285159
  59.8085307  94.9844048   9.7273987  59.1115760  93.7105623   9.2990801
  54.3320914  97.0605123  16.6055903  54.1865495  97.3745426  17.4980185
  53.8546118  97.6790023  16.0526802  56.1917297  94.0507671  16.6536793
  56.1778866  93.1548764  16.3169091  56.9089725  94.0578335  17.2875079
  58.0443428  94.4845011  18.6989920  57.7861206  95.4062082  18.6974251
  57.5128468  94.0875446  19.3890385  62.9889616 107.5895798  11.4780006
  63.1626494 107.0242221  10.7253858  63.4818508 108.3896693  11.2959496
  48.8066576  99.6010467  19.5443565  48.2620044 100.3770275  19.6763839
  49.6845926  99.9481272  19.3862686  55.5954193  92.9322051  11.9224363
  55.7170104  92.0038697  12.1215251  55.3056235  92.9460737  11.0102679
  58.4645383  90.6176962  15.0591083  58.4867080  90.6816295  14.1043063
  58.8813442  89.7781470  15.2531589  68.8429008 100.3532221  13.0970306
  69.2860154  99.6039546  12.6989429  67.9655518 100.3442358  12.7144038
  63.9764789 106.9062563   8.5776904  64.6715694 107.5269255   8.7964219
  64.3187939 106.0557914   8.8529282  49.5932598  98.7280364  22.4373721
  48.8514334  98.8762999  23.0238352  49.2725342  98.9888629  21.5740471
  65.8756212 104.3562268  10.1064235  66.4007536 104.6949541   9.3813555
  65.7878565 103.4209284   9.9227369  57.5376261 108.2696342  22.2354111
  57.8463387 108.0245489  23.1076811  58.3351743 108.4742980  21.7472982
  57.5596873 110.4234252  14.4659488  57.1201863 109.9310630  15.1592345
  58.3104990 109.8807219  14.2251563  50.0389212 106.6145792  14.4684116
  50.8647232 106.3149564  14.0882760  49.6883264 105.8453415  14.9173905
  55.0070745 105.9672261  16.5381790  54.3850754 105.3042966  16.2384018
  55.6775612 105.9933392  15.8555437  48.2397817 104.5332119  15.4273050
  47.4029725 104.1054293  15.2457051  48.2121462 104.7264562  16.3643841
  55.0795272  94.4454049  26.1314296  55.1283428  95.3216171  25.7492065
  55.6217787  93.9031442  25.5585939  65.5650118 104.9895172  25.4115433
  64.7745662 104.9719311  24.8719932  65.3283473 105.5283466  26.1664469
  65.6847993 101.8387638  22.7248161  65.7345998 101.6737646  23.6663684
  65.5761917 100.9714897  22.3346042  54.5684252 104.5176184  10.0140250
  54.7172372 105.2011648   9.3606923  55.3750695 104.4981274  10.5289706
  62.9751756  97.8218566  24.0407468  63.8761618  97.6825031  23.7491466
  63.0499730  97.9873021  24.9805645  57.3094561  95.1985421  22.8860654
  56.4397870  95.4918987  22.6143243  57.5454041  95.7825866  23.6067918
  67.1866190 104.2584580  22.9690183  66.8950998 104.6214560  23.8053644
  66.5738321 103.5451588  22.7903515  68.3861872 101.8237460  15.4892753
  69.2208764 102.2627264  15.6530313  68.5221001 101.3476113  14.6700999
  65.4353378  99.3817194  21.4370241  65.9107500  99.5744841  20.6289092
  64.5118944  99.4376380  21.1913625  52.3236885 100.5441362  11.0201319
  52.0782927  99.6403692  11.2181529  52.4932799 100.5458512  10.0780797
  60.0133595  91.4165038  20.4026075  60.5315539  92.1526065  20.0772563
  59.6588727  91.7229031  21.2372834  51.5932532  96.2769719   8.5187481
  50.9001777  96.3514074   7.8627517  51.3484284  95.5130063   9.0408998
  60.2646189  87.8365320  15.9226971  60.5447943  87.1688510  16.5487398
  61.0496796  88.0294416  15.4101635  58.0679657 107.0124314   7.4851998
  57.4953624 107.6314502   7.0322470  58.6412451 107.5623676   8.0191920
  64.1355047  96.2582954  19.6698546  65.0872470  96.3581052  19.6910771
  63.9658498  95.4661223  20.1796631  62.1569427  93.3438538  19.8557947
  61.5619359  93.6243550  19.1604436  61.8719123  93.8332439  20.6274688
  61.2876917 107.2961465   8.6160580  62.2207590 107.2307026   8.8193455
  61.2000130 108.1317731   8.1575113  63.9164934 106.6127335   5.5764528
  63.8378565 106.2787198   6.4700285  64.7374601 107.1049103   5.5756000
  66.6143125  99.4789074  18.7840846  66.5819445  98.5405075  18.9700530
  67.2243749  99.5573111  18.0506671  58.4526456  98.3485127   4.8268050
  59.3985561  98.2191335   4.8956468  58.0740701  97.6099789   5.3037478
  66.7637614  96.2700118  18.8299129  66.2476662  95.4858574  18.6429058
  67.6477562  95.9418834  18.9945649  64.4248340  90.0141133  14.7894942
  64.2273162  89.7056221  15.6738274  65.0348046  90.7402772  14.9192872
  72.4319675 100.5405081  17.9246883  73.1623063 100.2790369  18.4854586
  71.8226620  99.8033803  17.9648951  70.5134972  98.6812944  18.5221334
  69.7868136  98.5468909  17.9137826  70.0982259  98.9889772  19.3278052
  58.3365148 102.4002873  26.2868707  59.2568158 102.5781472  26.4808754
  58.3014731 101.4558919  26.1348406  56.6369373  96.2735104   4.7622935
  55.7300828  95.9768216   4.8385649  56.9145354  95.9764922   3.8957222
  47.5547313  97.5941467  15.2121982  47.2350098  96.7406775  14.9196356
  47.0080742  97.8090045  15.9679949  51.3327221 100.3103908  18.9291488
  51.5513231 101.2421016  18.9479522  51.7452995  99.9511882  19.7146292
  58.2531439  90.8171993  10.9167177  57.4432167  90.4719078  11.2922423
  58.9415856  90.5079537  11.5054788  60.1821987  89.8950040  12.5391473
  60.7353026  90.3145493  13.1981496  60.4192073  88.9685788  12.5814429
  56.2055086  95.8837114  28.3194237  56.1051813  96.8331471  28.2506328
  55.9876628  95.5555353  27.4470307  55.4068158  93.1322039   4.9034915
  56.2687322  93.4576937   5.1630732  55.5918502  92.3453535   4.3907980
  47.4235573 101.2144378  17.1815103  46.7299045 100.7998331  16.6685058
  48.1708564 101.2564915  16.5848522  63.5600794  92.0050565  12.0470138
  62.9799463  92.6635369  11.6648190  63.2936727  91.1827910  11.6357555
  62.0104361  91.4055623  14.2491458  62.5104139  91.5172157  13.4405777
  62.6539968  91.1016676  14.8892266  56.0686356  99.3134253  27.1359299
  55.5853438 100.1134613  27.3423188  56.1547295  99.3242197  26.1826743
  49.3372316 101.1462632  15.0581118  49.3143004 101.2450319  14.1063001
  49.6472952 101.9927783  15.3798284  51.9959694 103.2038787  19.1727733
  52.9502947 103.1722730  19.1057664  51.7972217 102.7429411  19.9877959
  52.5859076 101.7739903  21.7398530  53.4051965 102.2683982  21.7633368
  52.8595884 100.8571871  21.7116098  62.3425672  94.1650656  11.1026486
  61.4551527  94.4500306  10.8846681  62.7579661  94.0044419  10.2553763
  65.6940208  94.1897177  14.8180825  66.4700598  94.6793629  15.0905442
  64.9688342  94.6155231  15.2752695  68.1312767  94.9024796  15.8754766
  68.7257258  94.6620532  15.1648074  68.2039351  94.1831926  16.5028302
  50.3509923 108.7458407  16.1897931  50.2164391 107.9858808  15.6235929
  49.9341985 109.4699307  15.7226719  61.4868886 103.9295330   5.1974506
  62.1904736 104.1345333   5.8132161  60.7631534 104.4972092   5.4623589
  62.3166696  99.6805192  11.3176776  62.2601897 100.1373743  10.4784408
  62.8695038  98.9195876  11.1399619  66.1271502  95.4694923  12.1426895
  65.8708436  95.0691559  12.9735103  65.5024370  96.1838717  12.0177035
  70.4383840  98.2090997  14.6498187  69.8783398  98.2784186  15.4229749
  69.8327343  98.0331981  13.9297683  53.5079048 109.6427724  16.4016373
  53.3911433 110.5873156  16.2995063  52.6871495 109.3401285  16.7902172
  63.3955583 104.3677859   7.2472966  64.2301187 103.9359058   7.0650441
  63.2339926 104.1959873   8.1749860  63.0501475 100.8709973   8.6129305
  62.9950279 100.7054244   7.6717749  62.4247530 101.5786006   8.7691495
  47.8393990  96.1078037  22.4390727  48.4852854  95.5976991  22.9277953
  47.6311141  96.8446719  23.0134153  60.3647382 103.1758885  27.9382868
  61.2338542 103.3499537  27.5769503  59.8854134 103.9953301  27.8158597
  56.3597601  90.3718082   8.1914624  56.3476270  91.3159922   8.3482894
  57.2521023  90.1888227   7.8974085  54.5333563 110.2955986  19.6172302
  55.4360809 110.3279596  19.9338797  54.3070933 109.3656437  19.6318637
  56.2887165 109.0486972  16.2782380  55.3382796 109.0488834  16.1646753
  56.5919651 108.3019707  15.7618415  60.1749720  86.9660858  12.4460560
  59.4082116  86.4119345  12.5917243  60.5860425  87.0382727  13.3074712
  52.1791481  93.2545654  26.5365742  53.0422943  92.8982459  26.7469066
  51.6056892  92.9159549  27.2241146  72.0239858 114.8847511  17.3428143
  72.6618268 114.7654258  16.6391483  71.9060701 115.8328355  17.4016095
  68.8329564 114.8374939  17.2789667  68.4948076 114.7216003  16.3910202
  69.7019333 114.4366104  17.2590673  64.6916380 116.6910415  13.2686558
  64.1281245 116.6000352  12.5002846  64.5768775 115.8710320  13.7489051
  69.3149347 115.9909790  23.2375873  69.3037988 115.5962589  22.3656377
  69.4769987 115.2575863  23.8309644  62.2380812 118.1861607  16.1070779
  63.0302104 117.8452431  15.6917078  62.4777462 118.2956582  17.0272932
  66.0356609 118.7746902  22.1855057  65.7446475 119.6792533  22.0701723
  66.6713593 118.8163430  22.8999126  66.9612815 116.1523751  18.7756416
  67.5576388 115.9279773  18.0613379  67.0187787 115.4108496  19.3781864
  71.5781127 112.6098964  14.4181351  72.3644216 112.1918388  14.0671768
  71.8419831 113.5145057  14.5862999  76.9789554 112.5474198  15.3214329
  77.7114726 111.9773414  15.5552159  76.2228909 112.1595798  15.7620835
  68.5965673 114.9701439  12.5177672  68.2323881 114.4432060  13.2290593
  69.4532789 114.5799908  12.3444157  74.5014974 106.2595772  19.7808938
  74.1698299 107.1291183  19.5570153  73.9060587 105.9432056  20.4602968
  70.9946494 118.4608318  19.1804851  70.6947217 119.3633357  19.0720658
  70.6497553 118.1940501  20.0326003  64.4458975 114.9122115  15.2141555
  63.5209472 114.7798329  15.4219247  64.6943388 115.6916334  15.7111497
  74.3943637 110.9790858  16.8602288  73.4860515 110.9106266  16.5661049
  74.3431233 111.4562803  17.6884113  61.8067786 114.5555388  16.0485344
  61.9360167 114.8089867  16.9624756  61.1265237 115.1483096  15.7289999
  68.4684503 112.3980504  24.8037185  67.6917837 112.9574424  24.7940050
  69.1075066 112.8837286  25.3252055  76.2605284 109.1807296  18.6380162
  75.6179664 109.4739829  17.9919956  75.7560212 109.0660217  19.4433358
  66.7230875 115.2065957  24.3655152  67.4645560 115.7451001  24.0889976
  66.0167861 115.8332246  24.5226704  72.1986215 117.3495097  22.9627314
  72.6069571 116.9077508  22.2181946  71.4763477 116.7747725  23.2161506
  68.5517285 112.2867704  20.3360871  69.3978480 112.7107118  20.4795520
  68.4915923 111.6301328  21.0299434  72.5215030 117.9096288  16.7179602
  71.8923892 118.0742002  16.0155670  72.1340692 118.3237898  17.4890567
  71.7016731 109.9472072  21.9942044  71.4577662 110.7014133  21.4576320
  71.9776661 110.3257420  22.8289291  73.6555193 116.4910685  20.6719310
  73.8672089 117.1342445  19.9953691  73.6084942 115.6573001  20.2041240
  71.2581422 109.1028505  17.5755882  70.3965901 109.4009759  17.8672619
  71.2843857 109.3198904  16.6436915  68.0742992 117.6470696  13.9829688
  68.5381337 117.9258399  13.1934310  67.8099790 116.7454141  13.8002778
  64.9667073 117.1942178  16.9209451  65.5368430 117.6229446  16.2826935
  65.5575185 116.9124762  17.6193636  67.0111878 113.7693848  10.7919253
  67.7135921 114.2214892  11.2593179  66.6792506 113.1277667  11.4199146
  65.4592239 112.3605605  25.1670462  64.8290900 113.0421886  25.4005859
  65.3528327 112.2488687  24.2223600  60.7537212 112.0277401  16.0936386
  59.9636266 112.2834930  15.6176497  61.2448459 112.8425739  16.1988427
  74.7701021 119.3682640  18.8441667  75.5918465 118.9662828  18.5624349
  74.7663424 119.2650874  19.7957783  62.7051957 112.3921980  13.0519863
  61.9083120 112.5040675  13.5703359  62.4777549 112.7308633  12.1860754
  68.5357625 118.9166684  21.0002378  68.6002057 119.3787091  21.8360549
  67.8268549 118.2864048  21.1284687  59.0374915 112.2807892  18.5251377
  59.2882953 113.1654901  18.7908953  59.5734463 112.1012493  17.7526469
  64.7372982 106.6626371  27.5295713  64.3439928 106.1092569  28.2043357
  65.5539122 106.9736949  27.9202231  61.7035040 118.1010229  11.4409283
  62.2159560 118.8953479  11.5914848  62.3557753 117.4036520  11.3742884
  67.6540943 108.0784250  25.1215970  68.3950656 108.6791403  25.0420432
  67.8858866 107.3361888  24.5634012  62.7982281 113.2640617  23.3994199
  62.6835796 112.3625874  23.7001298  61.9426799 113.5104314  23.0479016
  69.8774119 121.2058358  24.9981700  69.4337973 120.4194736  24.6802605
  70.5391332 121.3937508  24.3325591  64.6361240 122.7354159  19.5242379
  65.1868665 122.6071222  18.7519372  63.7972716 123.0349048  19.1737271
  71.9755357 121.4861157  23.0263101  71.9573832 122.3070039  22.5343370
  72.8975277 121.3615233  23.2513242  68.4328411 119.0005287  23.8686610
  68.9656748 118.2393575  23.6385918  67.9042492 118.7078939  24.6110764
  71.5998106 104.1065353  19.3980251  71.2562375 104.9966995  19.3219362
  71.9677069 103.9167011  18.5349836  59.6683957 116.4298883  12.2168854
  60.5059179 116.8395892  12.0002561  59.8462224 115.4898326  12.1869047
  69.1495500 108.9423665  12.9637925  68.2937096 108.5530515  12.7843564
  69.5622451 109.0215626  12.1037710  70.6794646 106.4770008  17.3629485
  70.1759442 106.4400143  16.5497290  70.9725253 107.3862751  17.4226141
  66.9237532 106.5608738  16.3695666  67.7890529 106.3651546  16.0101556
  66.9915041 106.3319090  17.2965023  74.7773970 116.3240300  16.4972468
  74.1197644 117.0139561  16.5852597  75.5814369 116.7136732  16.8406454
  64.5299851 108.7910946  13.7412033  65.1043603 108.5686127  13.0085226
  65.1170834 108.8599640  14.4940634  73.5879428 114.6784673  14.5476410
  74.1011310 115.3114664  15.0498119  74.2380652 114.0785868  14.1819770
  66.8322519 105.6652195  12.4687103  66.1786931 105.3501212  11.8443717
  66.7902993 105.0427935  13.1946926  70.0660259 112.1534128  16.7934750
  69.1482821 112.3749075  16.6356438  70.4820403 112.2280439  15.9346458
  73.2974144 110.5882660  13.9056220  72.5596901 110.0760046  14.2366462
  73.5500918 110.1483042  13.0939497  73.3985772 103.3658912  14.4997989
  73.7044648 102.5056276  14.2123904  74.1238376 103.9576532  14.2996983
  59.6910128 113.7689599  12.8879587  59.4934527 113.1758959  12.1630654
  59.1356792 113.4641809  13.6055526  67.6706851 113.6612705  15.0074180
  67.7255461 112.7086542  14.9316657  66.8598053 113.8172144  15.4915479
  65.6099211 112.2789765  12.7664559  64.7967077 112.5783935  13.1729751
  66.1058205 111.8845454  13.4839041  71.2073423 112.7431589  21.5979453
  71.5622811 112.9703063  22.4573919  71.8545554 113.0749966  20.9756708
  65.1013286 109.8508120  18.3825794  65.7412665 109.7096880  17.6848757
  64.2690817 109.5642634  18.0064396  65.8773590 119.1510551  14.4960786
  66.6714188 118.6560871  14.2943361  65.1665282 118.6228414  14.1328492
  70.6968434 121.5328646  18.8473154  70.7505457 122.1019583  19.6150870
  69.8283216 121.7030531  18.4827191  62.1856353 113.2953633  10.5720539
  61.2553941 113.2338088  10.7890501  62.2813825 112.7729585   9.7757180
  62.1041902 109.8208445  13.1598781  62.3648720 110.7353779  13.0507941
  62.9259075 109.3532888  13.3095394  63.5766828 111.2346203  20.3297605
  64.2489881 111.0263565  19.6810254  62.7496614 111.0368289  19.8902838
  77.8256089 117.9750253  19.8472939  78.0191979 118.8796063  20.0932214
  77.7256707 117.5157672  20.6811524  69.4792400 107.8608144  22.3463266
  68.8320315 108.5598093  22.2527743  70.2493415 108.2944287  22.7139514
  72.8871198 118.1256996  25.4213819  72.7356704 117.8967547  24.5043903
  72.8775877 119.0827597  25.4345164  69.6556534 115.6988908  20.4060086
  70.5848594 115.8500068  20.2329053  69.2347564 115.7872929  19.5508732
  68.4544866 119.7239573  18.1758624  68.3155952 119.3558357  19.0484562
  67.6659462 120.2387212  18.0042581  70.0050081 119.1021176  15.5647461
  69.6699914 119.0621946  16.4605111  69.5054027 118.4365891  15.0917872
  63.9794325 114.5088806  21.0900042  63.8414123 113.7769044  21.6911582
  64.8899248 114.4197706  20.8084230  66.6076626 114.2208765  20.5783722
  67.3176244 113.5801957  20.5370341  66.5645934 114.4721660  21.5009903
  74.5963404 121.1576118  23.4990301  74.5375950 120.4735338  22.8320884
  74.9982923 121.8995108  23.0470927  65.3205560 111.2073983  22.3979362
  64.7842917 110.7564721  23.0500958  64.7322268 111.3419892  21.6549826
  74.5980812 119.1215702  21.7304281  73.7107590 118.7841624  21.8530680
  75.1679363 118.3898733  21.9673046  56.2509959 115.4539794  15.0547332
  56.9380999 115.1401524  14.4668348  56.0958087 116.3581159  14.7814584
  61.0544681 110.3429990  19.4832356  60.9702870 109.7355660  18.7482766
  60.2327387 110.8339009  19.4841852  68.1281965 123.7817155  18.6965524
  68.0552136 124.5872126  19.2084829  67.6859358 123.9809120  17.8713546
  71.2268395 108.8283554  14.8502551  71.7237094 108.0753516  14.5303621
  70.4555376 108.8647871  14.2845760  79.0798152 114.5323920  16.4920843
  79.0688028 115.4148635  16.1214776  78.2115532 114.1795470  16.2975380
  70.5880649 123.6803989  20.8523683  71.3008621 124.3151453  20.7799584
  70.0970677 123.7767855  20.0363685  67.8103363 110.9700937  14.5774236
  67.4401151 110.4171977  15.2655141  68.3062456 110.3659070  14.0249236
  65.6392562 121.4298432  21.6729254  66.3402022 122.0634915  21.8258648
  65.1687677 121.7713164  20.9124893  73.6687390 105.7953147  16.9981910
  72.7550469 106.0257374  17.1664117  74.0980491 105.8791592  17.8495942
  73.4393848 113.9843039  19.4981804  72.7865298 114.2318947  18.8434257
  73.8174228 113.1707178  19.1644281  69.4881421 114.7262851  25.9847841
  68.8122058 114.6256980  26.6550216  70.3109055 114.5702064  26.4483838
  61.2360280 120.9634787  18.6060356  61.8213717 120.2178475  18.7388261
  61.0385119 121.2738744  19.4897020  55.8277935 113.5340387  17.3264800
  55.8662034 113.0003978  18.1201918  55.3218228 113.0075593  16.7075777
  68.2304204 126.0329778  20.2205457  68.7822512 126.1961399  20.9854542
  68.5710397 126.6234216  19.5485482  63.2068697 108.3804928  20.8227342
  63.2710024 109.2419759  20.4104740  63.1435817 107.7678929  20.0899700
  62.6820970 110.4528060  24.4700376  63.3093008 110.0705138  25.0837900
  61.8248889 110.2342262  24.8356069  73.0815078 120.8591035  26.0754112
  73.6254982 121.4720994  25.5809066  72.5001923 121.4170614  26.5921125
  59.4586512 112.2604489  10.4018731  59.7539954 111.3515168  10.3485785
  58.5574548 112.2392229  10.0799733  62.9880759 110.3360486  16.3846280
  62.2667345 110.9496454  16.2453753  63.7774015 110.8718251  16.3062925
  73.4307500 121.7820774  18.8348689  72.4837835 121.6626125  18.7627016
  73.7790273 120.8943272  18.9174951  65.7907073 107.6714912  22.6586931
  66.3141475 107.9177209  23.4213241  65.5719406 108.5034947  22.2390069
  61.1874354 109.9418587  10.5258056  60.8587060 109.0615966  10.3433162
  61.5413725 109.8866256  11.4134445  64.3016177 110.2291557  10.8933534
  64.6412250 110.7577478  10.1712142  64.7488298 110.5671963  11.6692100
  66.9959618 108.6128608  20.3436602  66.6556438 107.8136421  20.7457282
  66.2898624 108.9130318  19.7713435  67.6476090 105.6977920  18.7963925
  68.4702159 105.2238398  18.6742815  67.8914153 106.4768404  19.2962611
  66.2884324 108.7266178   9.0926826  67.0092687 109.1047431   8.5890543
  65.6649628 109.4455055   9.1961804  70.4315447 109.4311327  10.0285159
  70.6479062 110.3135965   9.7273987  69.9509514 109.0397541   9.2990801
  65.1714669 112.3897041  16.6055903  65.0259249 112.7037344  17.4980185
  64.6939872 113.0081941  16.0526802  67.0311051 109.3799589  16.6536793
  67.0172620 108.4840682  16.3169091  67.7483480 109.3870252  17.2875079
  68.8837182 109.8136929  18.6989920  68.6254960 110.7354000  18.6974251
  68.3522223 109.4167363  19.3890385  59.6460331 114.9302385  19.5443565
  59.1013799 115.7062193  19.6763839  60.5239681 115.2773190  19.3862686
  66.4347947 108.2613969  11.9224363  66.5563859 107.3330615  12.1215251
  66.1449990 108.2752655  11.0102679  69.3039138 105.9468879  15.0591083
  69.3260835 106.0108212  14.1043063  69.7207197 105.1073388  15.2531589
  60.4326353 114.0572281  22.4373721  59.6908089 114.2054917  23.0238352
  60.1119097 114.3180547  21.5740471  68.3770015 123.5988260  22.2354111
  68.6857142 123.3537406  23.1076811  69.1745497 123.8034898  21.7472982
  60.8782966 121.9437710  14.4684116  61.7040986 121.6441482  14.0882760
  60.5277018 121.1745332  14.9173905  65.8464499 121.2964178  16.5381790
  65.2244509 120.6334883  16.2384018  66.5169366 121.3225310  15.8555437
  59.0791571 119.8624037  15.4273050  58.2423480 119.4346211  15.2457051
  59.0515217 120.0556480  16.3643841  65.9189027 109.7745966  26.1314296
  65.9677182 110.6508089  25.7492065  66.4611541 109.2323359  25.5585939
  76.4043873 120.3187090  25.4115433  75.6139416 120.3011228  24.8719932
  76.1677227 120.8575383  26.1664469  76.5241748 117.1679556  22.7248161
  76.5739753 117.0029563  23.6663684  76.4155671 116.3006815  22.3346042
  73.8145510 113.1510484  24.0407468  74.7155373 113.0116949  23.7491466
  73.8893485 113.3164939  24.9805645  68.1488315 110.5277339  22.8860654
  67.2791625 110.8210905  22.6143243  68.3847796 111.1117784  23.6067918
  78.0259944 119.5876497  22.9690183  77.7344753 119.9506478  23.8053644
  77.4132076 118.8743506  22.7903515  76.2747133 114.7109112  21.4370241
  76.7501254 114.9036758  20.6289092  75.3512698 114.7668298  21.1913625
  63.1630639 115.8733279  11.0201319  62.9176681 114.9695609  11.2181529
  63.3326554 115.8750430  10.0780797  70.8527349 106.7456956  20.4026075
  71.3709293 107.4817983  20.0772563  70.4982482 107.0520949  21.2372834
  62.4326287 111.6061637   8.5187481  61.7395532 111.6805992   7.8627517
  62.1878039 110.8421980   9.0408998  71.1039943 103.1657238  15.9226971
  71.3841697 102.4980427  16.5487398  71.8890550 103.3586334  15.4101635
  74.9748802 111.5874872  19.6698546  75.9266225 111.6872970  19.6910771
  74.8052252 110.7953141  20.1796631  72.9963181 108.6730455  19.8557947
  72.4013113 108.9535468  19.1604436  72.7112878 109.1624356  20.6274688
  77.4536880 114.8080992  18.7840846  77.4213200 113.8696993  18.9700530
  78.0637503 114.8865029  18.0506671  77.6031368 111.5992035  18.8299129
  77.0870417 110.8150492  18.6429058  78.4871317 111.2710752  18.9945649
  75.2642095 105.3433051  14.7894942  75.0666916 105.0348139  15.6738274
  75.8741800 106.0694690  14.9192872  83.2713429 115.8696999  17.9246883
  84.0016818 115.6082287  18.4854586  82.6620375 115.1325721  17.9648951
  81.3528726 114.0104861  18.5221334  80.6261890 113.8760826  17.9137826
  80.9376013 114.3181690  19.3278052  69.1758903 117.7294791  26.2868707
  70.0961912 117.9073390  26.4808754  69.1408486 116.7850836  26.1348406
  58.3941068 112.9233385  15.2121982  58.0743852 112.0698693  14.9196356
  57.8474496 113.1381963  15.9679949  62.1720975 115.6395826  18.9291488
  62.3906985 116.5712933  18.9479522  62.5846749 115.2803800  19.7146292
  69.0925193 106.1463911  10.9167177  68.2825922 105.8010996  11.2922423
  69.7809610 105.8371455  11.5054788  71.0215742 105.2241958  12.5391473
  71.5746780 105.6437411  13.1981496  71.2585828 104.2977706  12.5814429
  67.0448841 111.2129031  28.3194237  66.9445568 112.1623388  28.2506328
  66.8270383 110.8847270  27.4470307  58.2629328 116.5436296  17.1815103
  57.5692799 116.1290249  16.6685058  59.0102319 116.5856833  16.5848522
  74.3994549 107.3342483  12.0470138  73.8193218 107.9927287  11.6648190
  74.1330481 106.5119827  11.6357555  72.8498115 106.7347541  14.2491458
  73.3497893 106.8464075  13.4405777  73.4933723 106.4308593  14.8892266
  66.9080111 114.6426170  27.1359299  66.4247193 115.4426530  27.3423188
  66.9941050 114.6534115  26.1826743  60.1766070 116.4754550  15.0581118
  60.1536759 116.5742237  14.1063001  60.4866707 117.3219701  15.3798284
  62.8353448 118.5330705  19.1727733  63.7896702 118.5014647  19.1057664
  62.6365972 118.0721329  19.9877959  63.4252830 117.1031821  21.7398530
  64.2445719 117.5975900  21.7633368  63.6989638 116.1863789  21.7116098
  73.1819427 109.4942573  11.1026486  72.2945282 109.7792224  10.8846681
  73.5973416 109.3336337  10.2553763  76.5333963 109.5189094  14.8180825
  77.3094353 110.0085547  15.0905442  75.8082097 109.9447148  15.2752695
  78.9706521 110.2316713  15.8754766  79.5651012 109.9912449  15.1648074
  79.0433105 109.5123844  16.5028302  61.1903677 124.0750324  16.1897931
  61.0558145 123.3150725  15.6235929  60.7735739 124.7991224  15.7226719
  64.3472803 124.9719641  16.4016373  64.2305187 125.9165074  16.2995063
  63.5265249 124.6693203  16.7902172  58.6787745 111.4369955  22.4390727
  59.3246608 110.9268909  22.9277953  58.4704896 112.1738636  23.0134153
  71.2041137 118.5050802  27.9382868  72.0732297 118.6791455  27.5769503
  70.7247888 119.3245219  27.8158597  67.1991355 105.7009999   8.1914624
  67.1870025 106.6451839   8.3482894  68.0914777 105.5180145   7.8974085
  65.3727317 125.6247903  19.6172302  66.2754564 125.6571514  19.9338797
  65.1464687 124.6948354  19.6318637  71.0143475 102.2952776  12.4460560
  70.2475870 101.7411263  12.5917243  71.4254180 102.3674645  13.3074712
  63.0185236 108.5837572  26.5365742  63.8816697 108.2274377  26.7469066
  62.4450646 108.2451467  27.2241146  79.3078258 127.7272421  24.8037185
  78.5311592 128.2866341  24.7940050  79.9468821 128.2129204  25.3252055
  76.2985994 127.6897523  25.1670462  75.6684654 128.3713804  25.4005859
  76.1922082 127.5780604  24.2223600  75.5766736 121.9918289  27.5295713
  75.1833682 121.4384487  28.2043357  76.3932877 122.3028867  27.9202231
  78.4934697 123.4076168  25.1215970  79.2344411 124.0083321  25.0420432
  78.7252620 122.6653805  24.5634012  73.6376035 128.5932535  23.3994199
  73.5229551 127.6917792  23.7001298  72.7820553 128.8396232  23.0479016
  80.3186154 123.1900061  22.3463266  79.6714069 123.8890011  22.2527743
  81.0887170 123.6236205  22.7139514  76.1599314 126.5365900  22.3979362
  75.6236671 126.0856639  23.0500958  75.5716023 126.6711809  21.6549826
  71.8938435 125.6721908  19.4832356  71.8096624 125.0647578  18.7482766
  71.0721142 126.1630926  19.4841852  80.3275176 130.0554768  25.9847841
  79.6515813 129.9548898  26.6550216  81.1502809 129.8993982  26.4483838
  74.0462452 123.7096845  20.8227342  74.1103778 124.5711676  20.4104740
  73.9829572 123.0970847  20.0899700  73.5214724 125.7819978  24.4700376
  74.1486763 125.3997055  25.0837900  72.6642643 125.5634180  24.8356069
  76.6300827 123.0006830  22.6586931  77.1535229 123.2469127  23.4213241
  76.4113161 123.8326865  22.2390069  71.2720107 129.3864199  22.4373721
  70.5301843 129.5346834  23.0238352  70.9512851 129.6472465  21.5740471
  76.7582781 125.1037884  26.1314296  76.8070937 125.9800007  25.7492065
  77.3005296 124.5615277  25.5585939  78.9882070 125.8569256  22.8860654
  78.1185379 126.1502822  22.6143243  79.2241550 126.4409701  23.6067918
  77.8842595 126.5420949  28.3194237  77.7839322 127.4915306  28.2506328
  77.6664137 126.2139188  27.4470307  77.7473865 129.9718088  27.1359299
  77.2640947 130.7718448  27.3423188  77.8334804 129.9826033  26.1826743
  69.5181499 126.7661873  22.4390727  70.1640363 126.2560826  22.9277953
  69.3098650 127.5030554  23.0134153  73.8578990 123.9129490  26.5365742
  74.7210452 123.5566294  26.7469066  73.2844401 123.5743384  27.2241146
  37.3592857  52.2244727  11.7227007  36.9156711  51.4381106  11.4047911
  38.0210070  52.4123878  11.0570897  39.4574095  52.5047527   9.7508408
  39.4392570  53.3256408   9.2588677  40.3794015  52.3801602   9.9758549
  35.9147149  50.0191657  10.5931916  36.4475486  49.2579945  10.3631224
  35.3861230  49.7265308  11.3356071  45.3074827  48.9936622   6.5718245
  45.5010717  49.8982433   6.8177520  45.2075445  48.5344042   7.4056831
  40.3689935  49.1443365  12.1459126  40.2175442  48.9153917  11.2289210
  40.3594615  50.1013967  12.1590471  42.0782142  52.1762488  10.2235608
  42.0194688  51.4921708   9.5566191  42.4801661  52.9181478   9.7716234
  42.0799549  50.1402072   8.4549588  41.1926328  49.8027994   8.5775986
  42.6498100  49.4085103   8.6918353  38.0699386  54.6990358   7.5768989
  38.7827359  55.3337823   7.5044891  37.5789415  54.7954224   6.7608991
  36.9700159  45.7449220  12.7093148  36.2940796  45.6443349  13.3795523
  37.7927793  45.5888434  13.1729145  35.7122942  57.0516148   6.9450764
  36.2641250  57.2147769   7.7099849  36.0529135  57.6420585   6.2730789
  40.5633816  51.8777405  12.7999418  41.1073720  52.4907363  12.3054373
  39.9820661  52.4356983  13.3166431  35.8588753  54.6174629   8.9599418
  36.1675879  54.3723776   9.8322118  36.6564235  54.8221268   8.4718288
  43.8862610  51.3373459  12.1360739  43.0958154  51.3197598  11.5965239
  43.6495965  51.8761753  12.8909776  44.0060485  48.1865925   9.4493468
  44.0558490  48.0215933  10.3908991  43.8974409  47.3193185   9.0591349
  41.2964248  44.1696854  10.7652775  42.1974111  44.0303318  10.4736772
  41.3712222  44.3351308  11.7050952  45.5078682  50.6062867   9.6935490
  45.2163491  50.9692848  10.5298950  44.8950814  49.8929875   9.5148822
  36.6577641  48.7481161  13.0114014  37.5780650  48.9259760  13.2054060
  36.6227224  47.8037206  12.8593713  34.3898849  45.6612540  13.8604606
  33.9065930  46.4612900  14.0668495  34.4759788  45.6720485  12.9072049
  38.6859875  49.5237172  14.6628175  39.5551034  49.6977824  14.3014810
  38.2066626  50.3431589  14.5403904  50.3452350  61.2325798   4.0673449
  50.9830760  61.1132545   3.3636789  50.2273193  62.1806642   4.1261401
  47.1542057  61.1853226   4.0034974  46.8160568  61.0694291   3.1155509
  48.0231825  60.7844391   3.9835980  47.6361840  62.3388078   9.9621179
  47.6250480  61.9440876   9.0901683  47.7982479  61.6054150  10.5554951
  40.5593304  64.5339894   2.8316085  41.3514596  64.1930719   2.4162385
  40.7989954  64.6434869   3.7518239  48.5928431  66.7059670  -4.6953670
  47.9416411  67.2913750  -5.0819656  49.3872794  67.2365865  -4.6358633
  44.3569101  65.1225189   8.9100363  44.0658967  66.0270820   8.7947030
  44.9926085  65.1641717   9.6244433  45.2825308  62.5002038   5.5001723
  45.8788880  62.2758060   4.7858686  45.3400279  61.7586783   6.1027171
  49.8993619  58.9577252   1.1426657  50.6856708  58.5396675   0.7917074
  50.1632323  59.8623344   1.3108306  55.3002046  58.8952485   2.0459636
  56.0327218  58.3251702   2.2797465  54.5441402  58.5074085   2.4866141
  46.9178166  61.3179726  -0.7577022  46.5536373  60.7910347  -0.0464100
  47.7745282  60.9278195  -0.9310536  52.8227466  52.6074059   6.5054244
  52.4910791  53.4769470   6.2815459  52.2273080  52.2910343   7.1848275
  49.3158986  64.8086605   5.9050157  49.0159709  65.7111644   5.7965964
  48.9710045  64.5418788   6.7571310  42.7671467  61.2600402   1.9386862
  41.8421964  61.1276616   2.1464553  43.0155881  62.0394621   2.4356804
  52.7156130  57.3269145   3.5847594  51.8073007  57.2584554   3.2906355
  52.6643725  57.8041090   4.4129420  40.1280278  60.9033675   2.7730651
  40.2572660  61.1568154   3.6870062  39.4477730  61.4961383   2.4535306
  44.2979766  71.5730925  -1.1278875  44.2203795  72.5238750  -1.0490395
  43.6941409  71.2276798  -0.4703949  46.7896995  58.7458791  11.5282492
  46.0130330  59.3052711  11.5185356  47.4287559  59.2315574  12.0497362
  54.5817776  55.5285584   5.3625468  53.9392156  55.8218117   4.7165263
  54.0772705  55.4138504   6.1678665  45.0443368  61.5544244  11.0900459
  45.7858052  62.0929288  10.8135282  44.3380353  62.1810533  11.2472011
  50.5198707  63.6973385   9.6872620  50.9282063  63.2555795   8.9427253
  49.7975969  63.1226012   9.9406813  46.8729777  58.6345991   7.0606177
  47.7190973  59.0585405   7.2040826  46.8128415  57.9779616   7.7544740
  50.8427522  64.2574575   3.4424909  50.2136385  64.4220289   2.7400977
  50.4553184  64.6716185   4.2135873  54.7216754  65.1929013   0.7969273
  54.0367792  65.5727914   0.2466306  54.8060603  65.8024340   1.5301221
  50.0229223  56.2950360   8.7187351  49.7790155  57.0492420   8.1821627
  50.2989153  56.6735707   9.5534598  51.9767686  62.8388972   7.3964616
  52.1884581  63.4820732   6.7198997  51.9297434  62.0051289   6.9286546
  49.5793915  55.4506793   4.3001189  48.7178394  55.7488046   4.5917926
  49.6056349  55.6677192   3.3682221  46.3955484  63.9948983   0.7074994
  46.8593829  64.2736686  -0.0820383  46.1312282  63.0932428   0.5248085
  43.2879565  63.5420465   3.6454757  43.8580922  63.9707733   3.0072242
  43.8787677  63.2603050   4.3438943  43.7804732  58.7083892  11.8915769
  43.1503392  59.3900173  12.1251166  43.6740819  58.5966974  10.9468907
  53.0913514  65.7160927   5.5686974  53.9130957  65.3141115   5.2869655
  53.0875916  65.6129162   6.5203090  46.8570117  65.2644971   7.7247684
  46.9214549  65.7265378   8.5605856  46.1481041  64.6342336   7.8529994
  37.3587407  58.6286179   5.2496684  37.6095445  59.5133189   5.5154260
  37.8946955  58.4490780   4.4771776  61.1819507  62.0599676   1.9171945
  60.4283215  61.4907074   1.7615950  61.3167048  62.0262340   2.8642580
  46.5718135  66.9313078  -2.4073335  46.4363809  67.7764614  -1.9788488
  47.1127947  67.1332356  -3.1707402  43.0585474  53.0104658  14.2541020
  42.6652420  52.4570857  14.9288664  43.8751615  53.3215237  14.6447537
  41.8342417  67.5654273   0.2477343  42.0109045  68.4872237   0.0598327
  42.6299250  67.2512692   0.6771723  45.9753435  54.4262537  11.8461276
  46.7163149  55.0269690  11.7665739  46.2071358  53.6840175  11.2879319
  41.1194773  59.6118904  10.1239506  41.0048288  58.7104162  10.4246605
  40.2639291  59.8582601   9.7724323  48.1986611  67.5536645  11.7227007
  47.7550465  66.7673023  11.4047911  48.8603825  67.7415795  11.0570897
  42.9573732  69.0832446   6.2487685  43.5081157  68.9549510   5.4764679
  42.1185208  69.3827335   5.8982578  50.2967849  67.8339445   9.7508408
  50.2786324  68.6548326   9.2588677  51.2187769  67.7093520   9.9758549
  46.7540903  65.3483574  10.5931916  47.2869240  64.5871862  10.3631224
  46.2254984  65.0557226  11.3356071  49.9210598  50.4543640   6.1225558
  49.5774868  51.3445282   6.0464669  50.2889561  50.2645298   5.2595143
  49.0007139  52.8248295   4.0874791  48.4971934  52.7878430   3.2742597
  49.2937745  53.7341038   4.1471448  54.8595155  63.1984606  -3.4348833
  54.0824598  62.8595765  -3.8793671  55.5386636  63.2037229  -4.1093868
  48.1193616  64.4769567  -1.8949272  47.5914977  63.7422326  -2.2076034
  47.6181119  65.2544243  -2.1409303  53.0986462  62.6718587   3.2217775
  52.4410136  63.3617849   3.3097903  53.9026861  63.0615019   3.5651761
  51.9091921  61.0262960   1.2721716  52.4223802  61.6592952   1.7743426
  52.5593145  60.4264155   0.9065076  49.1714295  71.0047284  -5.9717612
  48.4975994  71.3078981  -5.3632655  49.5580117  71.8076364  -6.3212155
  48.3872752  58.5012415   3.5180057  47.4695313  58.7227362   3.3601745
  48.8032895  58.5758726   2.6591764  49.1707799  59.9003831  -1.3517263
  49.9179618  60.4125228  -1.6610141  49.4399389  59.5787884  -0.4912869
  52.6753717  66.0068961  -0.5999141  52.2216044  65.1659871  -0.5433951
  52.0447684  66.6430360  -0.2624361  51.6186637  56.9360947   0.6301526
  50.8809393  56.4238334   0.9611769  51.8713410  56.4961329  -0.1815197
  51.1186656  67.8445458   0.3350677  51.4109631  68.4050515  -0.3836957
  51.6285277  68.1374019   1.0903836  45.9919344  60.0090992   1.7319487
  46.0467953  59.0564829   1.6561963  45.1810546  60.1650432   2.2160785
  46.0820281  68.6225809   1.4244130  46.0396460  68.8486655   0.4952662
  46.9982980  68.3889184   1.5729931  49.5285915  59.0909877   8.3224760
  49.8835303  59.3181350   9.1819225  50.1758046  59.4228253   7.7002015
  55.2583652  62.2128313  -0.9725911  55.1201551  62.4029908  -1.9004722
  54.9019871  62.9747695  -0.5157860  43.4225778  56.1986408   5.1071101
  44.0625158  56.0575167   4.4094064  42.5903309  55.9120921   4.7309703
  55.2853032  64.2804840   4.0385360  55.7189538  64.1880129   4.8868414
  55.9984612  64.2562340   3.4005376  44.1986082  65.4988838   1.2206093
  44.9926681  65.0039158   1.0188668  43.4877775  64.9706701   0.8573799
  49.0180927  67.8806934   5.5718461  49.0717949  68.4497870   6.3396177
  48.1495708  68.0508819   5.2072498  41.8979320  57.5824490   7.0542912
  42.5702373  57.3741852   6.4055561  41.0709107  57.3846576   6.6148144
  56.1468581  64.3228540   6.5718245  56.3404471  65.2274351   6.8177520
  56.0469199  63.8635959   7.4056831  47.8004892  54.2086431   9.0708573
  47.1532807  54.9076380   8.9773049  48.5705907  54.6422575   9.4384821
  51.2083690  64.4735283  12.1459126  51.0569196  64.2445835  11.2289210
  51.1988369  65.4305884  12.1590471  47.9769026  62.0467196   7.1305393
  48.9061086  62.1978355   6.9574360  47.5560056  62.1351216   6.2754039
  46.7757358  66.0717860   4.9003930  46.6368444  65.7036644   5.7729868
  45.9871954  66.5865500   4.7287888  47.3705510  71.1726957  -3.7570533
  47.5457266  70.7015000  -2.9424911  46.6838298  71.7992723  -3.5289273
  48.3262573  65.4499463   2.2892768  47.9912406  65.4100233   3.1850418
  47.8266519  64.7844179   1.8163178  42.3006817  60.8567093   7.8145349
  42.1626615  60.1247332   8.4156888  43.2111741  60.7675993   7.5329537
  44.9289118  60.5687052   7.3029029  45.6388736  59.9280244   7.2615647
  44.8858426  60.8199947   8.2255210  52.9175897  67.5054405  10.2235608
  52.8588443  66.8213626   9.5566191  53.3195415  68.2473395   9.7716234
  43.6418052  57.5552270   9.1224668  43.1055409  57.1043008   9.7746265
  43.0534760  57.6898179   8.3795133  41.9366595  74.3216319   3.0169327
  42.1763194  74.9534843   3.6948345  41.0935792  73.9704359   3.3034686
  52.9193304  65.4693989   8.4549588  52.0320083  65.1319911   8.5775986
  53.4891855  64.7377021   8.6918353  39.3757173  56.6908278   6.2077663
  39.2915362  56.0833947   5.4728073  38.5539880  57.1817296   6.2087159
  46.4494457  70.1295442   5.4210831  46.3764629  70.9350413   5.9330135
  46.0071850  70.3287408   4.5958852  46.2384237  69.3667212  -1.0686348
  45.4551759  69.9088892  -0.9748123  46.9376982  69.8841191  -0.6692106
  57.4010644  60.8802207   3.2166149  57.3900521  61.7626922   2.8460082
  56.5328024  60.5273758   3.0220686  48.9093141  70.0282276   7.5768989
  49.6221113  70.6629741   7.5044891  48.4183169  70.1246142   6.7608991
  50.6310668  63.9333528  -0.8513719  49.6966946  64.0534991  -1.0209015
  50.8087336  63.0305995  -1.1153709  54.0183219  59.7750848  -0.3163685
  54.4843671  60.6078839  -0.3903382  54.4690720  59.3095829   0.3881574
  43.9605054  67.7776719   8.3974560  44.6614514  68.4113202   8.5503955
  43.4900169  68.1191451   7.6370200  52.0859450  66.1194669  -3.3177533
  52.3619294  66.0051264  -2.4083659  51.2163949  65.7212154  -3.3565360
  51.9899882  52.1431435   3.7227217  51.0762962  52.3735662   3.8909424
  52.4192983  52.2269879   4.5741249  51.7606340  60.3321327   6.2227111
  51.1077791  60.5797234   5.5679563  52.1386720  59.5185465   5.8889588
  48.7213514  70.3681020   0.3255281  48.9035909  69.5502676   0.7883033
  49.5446500  70.5848712  -0.1119829  49.0555680  69.2949205  -2.4129671
  49.5843446  68.7841660  -3.0259508  49.3183899  68.9791735  -1.5484138
  47.8093913  61.0741138  12.7093148  47.1334550  60.9735267  13.3795523
  48.6321547  60.9180352  13.1729145  39.5572772  67.3113074   5.3305663
  40.1426209  66.5656762   5.4633567  39.3597611  67.6217031   6.2142327
  42.4111428  70.3464322   0.3468105  41.7421803  70.8310449  -0.1367855
  42.2724297  70.5933542   1.2611484  46.5516696  72.3808065   6.9450764
  47.1035004  72.5439687   7.7099849  46.8922890  72.9712503   6.2730789
  41.5281189  54.7283215   7.5472648  41.5922516  55.5898046   7.1350046
  41.4648310  54.1157217   6.8145007  41.0033462  56.8006348  11.1945683
  41.6305501  56.4183425  11.8083207  40.1461381  56.5820549  11.5601375
  51.4027571  67.2069323  12.7999418  51.9467475  67.8199281  12.3054373
  50.8214415  67.7648901  13.3166431  49.6885083  70.3290041   3.9314446
  49.5636223  69.5279781   3.4225391  50.3464175  70.8236234   3.4428416
  51.7519992  68.1299061   5.5593996  50.8050327  68.0104412   5.4872323
  52.1002765  67.2421559   5.6420257  44.1119565  54.0193200   9.3832238
  44.6353967  54.2655496  10.1458547  43.8931898  54.8513235   8.9635375
  48.7566425  67.9251777   1.7598348  48.6091388  66.9968484   1.9405918
  49.5819919  67.9471868   1.2755423  52.3600547  68.7480336   2.8463221
  53.2847094  68.5423197   2.7087672  52.1915850  68.4996737   3.7552562
  45.3172110  54.9606895   7.0681908  44.9768931  54.1614708   7.4702588
  44.6111117  55.2608606   6.4958742  45.9688582  52.0456207   5.5209231
  46.7914651  51.5716685   5.3988122  46.2126646  52.8246691   6.0207918
  43.4927161  58.7375328   3.3301210  43.3471742  59.0515631   4.2225492
  43.0152364  59.3560228   2.7772109  45.3523544  55.7277876   3.3782100
  45.3385112  54.8318969   3.0414398  46.0695972  55.7348540   4.0120386
  47.2049674  56.1615216   5.4235227  46.9467452  57.0832287   5.4219557
  46.6734715  55.7645651   6.1135691  52.1495863  69.2666003  -1.7974688
  52.3232741  68.7012426  -2.5500835  52.6424754  70.0666898  -1.9795198
  37.9672823  61.2780672   6.2688871  37.4226291  62.0540480   6.4009146
  38.8452173  61.6251477   6.1107993  58.0035254  62.0302426  -0.1784388
  58.4466400  61.2809751  -0.5765265  57.1261765  62.0212563  -0.5610656
  53.1371036  68.5832768  -4.6977789  53.8321940  69.2039460  -4.4790475
  53.4794186  67.7328119  -4.4225411  38.7538845  60.4050569   9.1619028
  38.0120581  60.5533204   9.7483659  38.4331589  60.6658834   8.2985778
  55.0362459  66.0332473  -3.1690459  55.5613783  66.3719746  -3.8941139
  54.9484811  65.0979488  -3.3527324  46.6982508  69.9466547   8.9599418
  47.0069634  69.7015694   9.8322118  47.4957990  70.1513185   8.4718288
  46.7203120  72.1004456   1.1904795  46.2808110  71.6080835   1.8837651
  47.4711237  71.5577424   0.9496870  39.1995459  68.2915997   1.1929423
  40.0253478  67.9919769   0.8128066  38.8489511  67.5223620   1.6419211
  44.1676992  67.6442466   3.2627096  43.5457001  66.9813171   2.9629324
  44.8381859  67.6703597   2.5800744  37.4004064  66.2102324   2.1518356
  36.5635972  65.7824498   1.9702358  37.3727709  66.4034767   3.0889148
  44.2401519  56.1224254  12.8559602  44.2889675  56.9986376  12.4737372
  44.7824033  55.5801647  12.2831246  54.7256365  66.6665377  12.1360739
  53.9351909  66.6489516  11.5965239  54.4889719  67.2053670  12.8909776
  54.8454240  63.5157843   9.4493468  54.8952245  63.3507851  10.3908991
  54.7368163  62.6485102   9.0591349  52.1358002  59.4988771  10.7652775
  53.0367865  59.3595236  10.4736772  52.2105977  59.6643226  11.7050952
  46.4700808  56.8755626   9.6105961  45.6004117  57.1689192   9.3388550
  46.7060288  57.4596071  10.3313225  56.3472437  65.9354785   9.6935490
  56.0557245  66.2984765  10.5298950  55.7344568  65.2221793   9.5148822
  57.5468119  63.5007664   2.2138060  58.3815010  63.9397469   2.3775620
  57.6827248  63.0246318   1.3946306  54.5959625  61.0587399   8.1615547
  55.0713747  61.2515046   7.3534399  53.6725190  61.1146585   7.9158931
  49.1739841  53.0935243   7.1271381  49.6921785  53.8296270   6.8017870
  48.8194974  53.3999236   7.9618141  53.2961294  57.9353159   6.3943853
  54.2478717  58.0351257   6.4156077  53.1264744  57.1431428   6.9041937
  51.3175673  55.0208743   6.5803254  50.7225606  55.3013755   5.8849743
  51.0325370  55.5102644   7.3519995  50.4483164  68.9731669  -4.6594113
  51.3813837  68.9077231  -4.4561238  50.3606377  69.8087936  -5.1179581
  53.0771181  68.2897540  -7.6990166  52.9984812  67.9557403  -6.8054408
  53.8980847  68.7819308  -7.6998694  55.7749372  61.1559279   5.5086153
  55.7425692  60.2175280   5.6945837  56.3849995  61.2343316   4.7751978
  55.9243860  57.9470323   5.5544436  55.4082909  57.1628779   5.3674365
  56.8083809  57.6189039   5.7190955  53.5854587  51.6911338   1.5140249
  53.3879408  51.3826426   2.3983581  54.1954293  52.4172977   1.6438178
  61.5925922  62.2175286   4.6492190  62.3229310  61.9560574   5.2099893
  60.9832867  61.4804008   4.6894258  59.6741219  60.3583149   5.2466641
  58.9474382  60.2239113   4.6383132  59.2588506  60.6659977   6.0523359
  47.4971395  64.0773078  13.0114014  48.4174405  64.2551677  13.2054060
  47.4620978  63.1329124  12.8593713  40.4933468  61.9874113   5.6536795
  40.7119478  62.9191221   5.6724829  40.9059242  61.6282087   6.4391599
  45.3661333  57.5607319  15.0439544  45.2658060  58.5101676  14.9751635
  45.1482875  57.2325558  14.1715614  36.5841820  62.8914583   3.9060410
  35.8905292  62.4768536   3.3930364  37.3314811  62.9335120   3.3093829
  45.2292603  60.9904457  13.8604606  44.7459685  61.7904818  14.0668495
  45.3153542  61.0012402  12.9072049  41.1565941  64.8808992   5.8973039
  42.1109194  64.8492934   5.8302971  40.9578464  64.4199616   6.7123265
  41.7465323  63.4510108   8.4643837  42.5658212  63.9454187   8.4878674
  42.0202130  62.5342076   8.4361404  54.8546455  55.8667381   1.5426132
  55.6306845  56.3563834   1.8150749  54.1294589  56.2925436   1.9998001
  57.2919014  56.5795001   2.6000072  57.8863504  56.3390737   1.8893381
  57.3645597  55.8602131   3.2273609  39.5116169  70.4228612   2.9143237
  39.3770637  69.6629013   2.3481235  39.0948232  71.1469512   2.4472026
  51.4772943  61.3575396  -1.9577917  51.4208144  61.8143948  -2.7970285
  52.0301285  60.5966081  -2.1355075  55.2877749  57.1465128  -1.1327798
  55.0314683  56.7461764  -0.3019590  54.6630617  57.8608922  -1.2577659
  59.5990086  59.8861202   1.3743494  59.0389644  59.9554391   2.1475056
  58.9933590  59.7102186   0.6542990  42.6685295  71.3197929   3.1261680
  42.5517679  72.2643361   3.0240370  41.8477742  71.0171490   3.5147479
  52.5561830  66.0448064  -6.0281727  53.3907434  65.6129263  -6.2104253
  52.3946173  65.8730078  -5.1004833  37.0000237  57.7848242   9.1636034
  37.6459101  57.2747196   9.6523259  36.7917388  58.5216924   9.7379459
  49.5253629  64.8529090  14.6628175  50.3944789  65.0269742  14.3014810
  49.0460381  65.6723506  14.5403904  43.6939809  71.9726191   6.3417608
  44.5967056  72.0049801   6.6584103  43.4677179  71.0426642   6.3563944
  45.4493411  70.7257177   3.0027687  44.4989042  70.7259039   2.8892059
  45.7525898  69.9789912   2.4863721  41.3397728  54.9315859  13.2611048
  42.2029190  54.5752664  13.4714373  40.7663139  54.5929754  13.9486453
  61.1846105  76.5617716   4.0673449  61.8224515  76.4424463   3.3636789
  61.0666948  77.5098559   4.1261401  57.9935811  76.5145144   4.0034974
  57.6554323  76.3986208   3.1155509  58.8625579  76.1136309   3.9835980
  53.8522627  78.3680620  -0.0068135  53.2887492  78.2770557  -0.7751847
  53.7375022  77.5480524   0.4734357  58.4755594  77.6679995   9.9621179
  58.4644235  77.2732794   9.0901683  58.6376234  76.9346068  10.5554951
  51.3987059  79.8631812   2.8316085  52.1908351  79.5222636   2.4162385
  51.6383709  79.9726787   3.7518239  59.4322186  82.0351588  -4.6953670
  58.7810165  82.6205668  -5.0819656  60.2266548  82.5657783  -4.6358633
  53.3577813  79.1240725  -4.2966536  54.1308689  78.5769712  -4.4353660
  53.7103212  79.9884974  -4.0852074  55.1962855  80.4517107   8.9100363
  54.9052721  81.3562738   8.7947030  55.8319840  80.4933635   9.6244433
  56.1219062  77.8293956   5.5001723  56.7182634  77.6049978   4.7858686
  56.1794034  77.0878701   6.1027171  55.6944091  75.2833391  -6.6648086
  55.9469611  74.7614912  -7.4264623  54.7568650  75.1199536  -6.5621402
  60.7387373  74.2869169   1.1426657  61.5250463  73.8688593   0.7917074
  61.0026078  75.1915262   1.3108306  60.9097451  79.7242020  -4.1584686
  60.2743284  79.7976646  -3.4463781  60.5794857  80.3135618  -4.8365607
  66.1395801  74.2244403   2.0459636  66.8720972  73.6543619   2.2797465
  65.3835156  73.8366003   2.4866141  55.4140379  77.1861497  -4.4623711
  55.2976637  76.5106400  -3.7942627  55.5242639  76.6993871  -5.2791558
  57.7571920  76.6471644  -0.7577022  57.3930127  76.1202265  -0.0464100
  58.6139036  76.2570113  -0.9310536  63.6621221  67.9365977   6.5054244
  63.3304546  68.8061388   6.2815459  63.0666834  67.6202261   7.1848275
  57.3977407  71.6761544  -5.7615673  57.5651810  72.5441780  -5.3945202
  57.2074576  71.8388825  -6.6854384  60.1552740  80.1378523   5.9050157
  59.8553463  81.0403561   5.7965964  59.8103800  79.8710706   6.7571310
  53.6065222  76.5892319   1.9386862  52.6815718  76.4568534   2.1464553
  53.8549635  77.3686539   2.4356804  63.5549884  72.6561063   3.5847594
  62.6466762  72.5876471   3.2906355  63.5037480  73.1333008   4.4129420
  57.3766628  74.1319201  -4.7769006  57.2566253  74.5776252  -3.9383526
  56.6819216  74.4804519  -5.3355468  50.9674033  76.2325593   2.7730651
  51.0966414  76.4860072   3.6870062  50.2871484  76.8253301   2.4535306
  55.1373520  86.9022843  -1.1278875  55.0597550  87.8530668  -1.0490395
  54.5335164  86.5568715  -0.4703949  57.6290750  74.0750708  11.5282492
  56.8524084  74.6344629  11.5185356  58.2681313  74.5607491  12.0497362
  65.4211531  70.8577501   5.3625468  64.7785911  71.1510034   4.7165263
  64.9166459  70.7430422   6.1678665  63.0751694  74.6040674  -3.9488672
  63.9869550  74.8368061  -4.1240975  62.5661341  75.1877719  -4.5113594
  55.8837122  76.8836162  11.0900459  56.6251807  77.4221206  10.8135282
  55.1774108  77.5102451  11.2472011  61.3592462  79.0265302   9.6872620
  61.7675818  78.5847713   8.9427253  60.6369723  78.4517930   9.9406813
  57.7123532  73.9637909   7.0606177  58.5584727  74.3877323   7.2040826
  57.6522170  73.3071533   7.7544740  61.6821277  79.5866493   3.4424909
  61.0530139  79.7512207   2.7400977  61.2946939  80.0008102   4.2135873
  65.5610508  80.5220931   0.7969273  64.8761547  80.9019832   0.2466306
  65.6454358  81.1316257   1.5301221  60.8622977  71.6242277   8.7187351
  60.6183909  72.3784338   8.1821627  61.1382908  72.0027625   9.5534598
  62.8161440  78.1680890   7.3964616  63.0278335  78.8112650   6.7198997
  62.7691188  77.3343206   6.9286546  60.4187669  70.7798710   4.3001189
  59.5572148  71.0779964   4.5917926  60.4450104  70.9969109   3.3682221
  57.2349238  79.3240901   0.7074994  57.6987584  79.6028604  -0.0820383
  56.9706037  78.4224346   0.5248085  54.1273319  78.8712383   3.6454757
  54.6974677  79.2999651   3.0072242  54.7181431  78.5894967   4.3438943
  56.1718124  75.4464053  -2.4835441  56.8742168  75.8985097  -2.0161514
  55.8398753  74.8047872  -1.8555548  54.6198486  74.0375810  11.8915769
  53.9897147  74.7192091  12.1251166  54.5134574  73.9258892  10.9468907
  49.9143458  73.7047606   2.8181693  49.1242512  73.9605135   2.3421804
  50.4054706  74.5195944   2.9233733  63.9307268  81.0452845   5.5686974
  64.7524712  80.6433032   5.2869655  63.9269671  80.9421079   6.5203090
  51.8658204  74.0692185  -0.2234830  51.0689367  74.1810879   0.2948665
  51.6383796  74.4078837  -1.0893940  57.6963871  80.5936888   7.7247684
  57.7608304  81.0557296   8.5605856  56.9874795  79.9634253   7.8529994
  48.1981161  73.9578096   5.2496684  48.4489200  74.8425106   5.5154260
  48.7340710  73.7782698   4.4771776  72.0213261  77.3891594   1.9171945
  71.2676969  76.8198992   1.7615950  72.1560802  77.3554258   2.8642580
  57.4111889  82.2604996  -2.4073335  57.2757564  83.1056532  -1.9788488
  57.9521702  82.4624274  -3.1707402  53.8979229  68.3396576  14.2541020
  53.5046174  67.7862774  14.9288664  54.7145369  68.6507154  14.6447537
  50.8641286  79.7780434  -1.8345410  51.3765807  80.5723684  -1.6839846
  51.5163999  79.0806724  -1.9011809  52.6736171  82.8946190   0.2477343
  52.8502800  83.8164155   0.0598327  53.4693005  82.5804609   0.6771723
  56.8147190  69.7554455  11.8461276  57.5556903  70.3561608  11.7665739
  57.0465113  69.0132093  11.2879319  51.9588528  74.9410822  10.1239506
  51.8442043  74.0396079  10.4246605  51.1033045  75.1874519   9.7724323
  59.0380365  82.8828562  11.7227007  58.5944220  82.0964941  11.4047911
  59.6997579  83.0707713  11.0570897  53.7967487  84.4124364   6.2487685
  54.3474912  84.2841427   5.4764679  52.9578963  84.7119253   5.8982578
  61.1361604  83.1631362   9.7508408  61.1180079  83.9840243   9.2588677
  62.0581524  83.0385438   9.9758549  57.5934658  80.6775492  10.5931916
  58.1262995  79.9163780  10.3631224  57.0648739  80.3849144  11.3356071
  60.7604353  65.7835558   6.1225558  60.4168622  66.6737200   6.0464669
  61.1283315  65.5937215   5.2595143  48.8290203  78.1069088  -1.0585840
  49.6665425  78.5166097  -1.2752132  49.0068471  77.1668530  -1.0885646
  60.7254635  75.7744169  -5.3702007  60.2101259  76.5448774  -5.1313619
  60.4531944  75.1009305  -4.7468945  58.3101746  70.6193870  -0.3116768
  57.4543343  70.2300720  -0.4911130  58.7228698  70.6985831  -1.1716983
  59.8400893  68.1540213   4.0874791  59.3365689  68.1170348   3.2742597
  60.1331500  69.0632956   4.1471448  56.0843779  68.2378943   3.0940973
  56.9496776  68.0421751   2.7346862  56.1521288  68.0089294   4.0210330
  65.6988910  78.5276524  -3.4348833  64.9218352  78.1887683  -3.8793671
  66.3780390  78.5329147  -4.1093868  60.5140939  73.6471261  -3.5442226
  60.2091074  73.9617410  -2.6932082  61.4671381  73.7252681  -3.5014893
  58.9587370  79.8061484  -1.8949272  58.4308732  79.0714244  -2.2076034
  58.4574873  80.5836161  -2.1409303  63.9380216  78.0010505   3.2217775
  63.2803891  78.6909766   3.3097903  64.7420616  78.3906937   3.5651761
  53.6906098  70.4681151   0.4657340  54.2649850  70.2456332  -0.2669467
  54.2777080  70.5369845   1.2185941  62.7485675  76.3554878   1.2721716
  63.2617557  76.9884869   1.7743426  63.3986899  75.7556073   0.9065076
  54.0175685  72.4985612  -5.5146775  53.1812997  72.8360298  -5.1937500
  53.8780455  72.3634591  -6.4519638  55.9928766  67.3422400  -0.8067591
  55.3393178  67.0271417  -1.4310976  55.9509240  66.7198140  -0.0807768
  57.1039971  77.6241695  -8.8914299  56.1967032  77.3930948  -8.6923150
  57.6011003  76.8279314  -8.7040317  60.0108049  86.3339202  -5.9717612
  59.3369748  86.6370899  -5.3632655  60.3973871  87.1368282  -6.3212155
  59.2266506  73.8304333   3.5180057  58.3089067  74.0519280   3.3601745
  59.6426650  73.9050644   2.6591764  60.0101554  75.2295749  -1.3517263
  60.7573373  75.7417146  -1.6610141  60.2793143  74.9079801  -0.4912869
  58.2828204  77.7254289  -4.3690309  57.3739423  77.4413322  -4.2717839
  58.3123288  78.1453368  -5.2287002  63.5147471  81.3360879  -0.5999141
  63.0609799  80.4951789  -0.5433951  62.8841438  81.9722277  -0.2624361
  62.4580391  72.2652865   0.6301526  61.7203148  71.7530251   0.9611769
  62.7107165  71.8253247  -0.1815197  61.9580411  83.1737376   0.3350677
  62.2503385  83.7342433  -0.3836957  62.4679031  83.4665937   1.0903836
  62.5592018  65.0429117   1.2243296  62.8650895  64.1826480   0.9369211
  63.2844623  65.6346737   1.0242290  48.8516374  75.4459804  -0.3875106
  48.6540774  74.8529164  -1.1124040  48.2963038  75.1412014   0.3300832
  56.8313098  75.3382910   1.7319487  56.8861708  74.3856746   1.6561963
  56.0204300  75.4942349   2.2160785  57.9804292  79.2663033  -7.0302230
  57.5423722  78.5498892  -7.4896593  58.7214733  79.4939148  -7.5917139
  54.7705458  73.9559970  -0.5090134  53.9573324  74.2554140  -0.1024942
  55.2664452  73.5615659   0.2084348  56.9214036  83.9517727   1.4244130
  56.8790215  84.1778573   0.4952662  57.8376735  83.7181101   1.5729931
  60.3679670  74.4201794   8.3224760  60.7229057  74.6473267   9.1819225
  61.0151801  74.7520171   7.7002015  66.0977407  77.5420230  -0.9725911
  65.9595305  77.7321826  -1.9004722  65.7413625  78.3039613  -0.5157860
  54.2619533  71.5278325   5.1071101  54.9018912  71.3867084   4.4094064
  53.4297063  71.2412839   4.7309703  66.1246786  79.6096757   4.0385360
  66.5583293  79.5172046   4.8868414  66.8378367  79.5854258   3.4005376
  55.0379837  80.8280756   1.2206093  55.8320435  80.3331076   1.0188668
  54.3271529  80.2998619   0.8573799  59.8574681  83.2098851   5.5718461
  59.9111703  83.7789788   6.3396177  58.9889462  83.3800736   5.2072498
  51.3462600  74.9723838  -2.7034154  50.4160188  74.9108293  -2.4864192
  51.4420072  74.4499790  -3.4997513  51.2648149  71.4978650  -0.1155913
  51.5254966  72.4123984  -0.2246752  52.0865321  71.0303093   0.0340700
  52.7373074  72.9116408   7.0542912  53.4096128  72.7033770   6.4055561
  51.9102861  72.7138494   6.6148144  66.9862336  79.6520458   6.5718245
  67.1798226  80.5566268   6.8177520  66.8862954  79.1927877   7.4056831
  58.6398647  69.5378348   9.0708573  57.9926562  70.2368298   8.9773049
  59.4099662  69.9714492   9.4384821  62.0477444  79.8027201  12.1459126
  61.8962951  79.5737752  11.2289210  62.0382124  80.7597802  12.1590471
  58.8162781  77.3759113   7.1305393  59.7454841  77.5270273   6.9574360
  58.3953811  77.4643134   6.2754039  57.6151113  81.4009778   4.9003930
  57.4762198  81.0328562   5.7729868  56.8265709  81.9157417   4.7287888
  58.2099265  86.5018874  -3.7570533  58.3851020  86.0306917  -2.9424911
  57.5232053  87.1284640  -3.5289273  59.1656328  80.7791380   2.2892768
  58.8306160  80.7392150   3.1850418  58.6660273  80.1136096   1.8163178
  53.1400572  76.1859010   7.8145349  53.0020370  75.4539249   8.4156888
  54.0505495  76.0967911   7.5329537  62.1015519  78.1247415  -7.4370172
  61.4844690  77.3994243  -7.5337120  61.6332008  78.8856775  -7.7803098
  55.7682872  75.8978970   7.3029029  56.4782491  75.2572162   7.2615647
  55.7252181  76.1491865   8.2255210  63.7569651  82.8346323  10.2235608
  63.6982197  82.1505543   9.5566191  64.1589169  83.5765313   9.7716234
  54.4811806  72.8844188   9.1224668  53.9449163  72.4334926   9.7746265
  53.8928515  73.0190097   8.3795133  52.7760350  89.6508237   3.0169327
  53.0156948  90.2826761   3.6948345  51.9329546  89.2996277   3.3034686
  53.8914065  72.3432839  -8.3148868  53.0143532  72.2221640  -8.6786621
  54.3671818  71.5518917  -8.5669979  63.7587058  80.7985907   8.4549588
  62.8713837  80.4611829   8.5775986  64.3285609  80.0668938   8.6918353
  45.4116205  77.1309999   1.7792639  46.0987245  76.8171729   1.1913654
  45.2564334  78.0351363   1.5059890  50.2150928  72.0200195   6.2077663
  50.1309116  71.4125865   5.4728073  49.3933634  72.5109214   6.2087159
  57.2888212  85.4587359   5.4210831  57.2158383  86.2642331   5.9330135
  56.8465605  85.6579325   4.5958852  57.0777991  84.6959129  -1.0686348
  56.2945513  85.2380810  -0.9748123  57.7770737  85.2133109  -0.6692106
  60.3874641  70.5053759   1.5747858  60.8843341  69.7523721   1.2548928
  59.6161623  70.5418076   1.0091067  68.2404399  76.2094124   3.2166149
  68.2294275  77.0918840   2.8460082  67.3721778  75.8565675   3.0220686
  59.7486895  85.3574193   7.5768989  60.4614867  85.9921658   7.5044891
  59.2576924  85.4538059   6.7608991  61.4704422  79.2625446  -0.8513719
  60.5360701  79.3826909  -1.0209015  61.6481091  78.3597913  -1.1153709
  56.9709610  72.6471142   1.3019542  56.6007398  72.0942182   1.9900448
  57.4668703  72.0429275   0.7494542  64.8576974  75.1042765  -0.3163685
  65.3237426  75.9370757  -0.3903382  65.3084474  74.6387747   0.3881574
  54.7998809  83.1068637   8.3974560  55.5008268  83.7405120   8.5503955
  54.3293924  83.4483368   7.6370200  62.9253205  81.4486587  -3.3177533
  63.2013049  81.3343181  -2.4083659  62.0557703  81.0504072  -3.3565360
  62.8293636  67.4723352   3.7227217  61.9156716  67.7027579   3.8909424
  63.2586738  67.5561796   4.5741249  62.6000095  75.6613244   6.2227111
  61.9471545  75.9089152   5.5679563  62.9780475  74.8477383   5.8889588
  59.5607269  85.6972938   0.3255281  59.7429663  84.8794593   0.7883033
  60.3840255  85.9140630  -0.1119829  59.8949434  84.6241123  -2.4129671
  60.4237201  84.1133577  -3.0259508  60.1577654  84.3083653  -1.5484138
  58.6487668  76.4033055  12.7093148  57.9728305  76.3027185  13.3795523
  59.4715302  76.2472269  13.1729145  50.3966527  82.6404992   5.3305663
  50.9819964  81.8948680   5.4633567  50.1991365  82.9508949   6.2142327
  53.2505182  85.6756239   0.3468105  52.5815557  86.1602367  -0.1367855
  53.1118052  85.9225460   1.2611484  44.9884182  75.2110592   4.0510106
  45.0268281  74.6774183   4.8447224  44.4824474  74.6845798   3.4321083
  57.3910451  87.7099983   6.9450764  57.9428759  87.8731604   7.7099849
  57.7316644  88.3004421   6.2730789  52.3674944  70.0575133   7.5472648
  52.4316270  70.9189964   7.1350046  52.3042064  69.4449134   6.8145007
  51.8427216  72.1298265  11.1945683  52.4699255  71.7475343  11.8083207
  50.9855135  71.9112467  11.5601375  62.2421325  82.5361240  12.7999418
  62.7861229  83.1491199  12.3054373  61.6608170  83.0940819  13.3166431
  48.6192759  73.9374694  -2.8735962  48.9146200  73.0285373  -2.9268909
  47.7180795  73.9162434  -3.1954960  60.5278838  85.6581958   3.9314446
  60.4029977  84.8571698   3.4225391  61.1857929  86.1528152   3.4428416
  52.1487006  72.0130691   3.1091586  51.4273592  72.6266659   2.9699059
  52.9380262  72.5488456   3.0308232  62.5913746  83.4590979   5.5593996
  61.6444082  83.3396330   5.4872323  62.9396519  82.5713477   5.6420257
  54.9513320  69.3485117   9.3832238  55.4747722  69.5947414  10.1458547
  54.7325653  70.1805152   8.9635375  50.3480601  71.6188792  -2.7496637
  50.0193307  70.7386171  -2.9321531  50.7019971  71.5636461  -1.8620248
  59.5960180  83.2543695   1.7598348  59.4485142  82.3260402   1.9405918
  60.4213673  83.2763785   1.2755423  53.4622424  71.9061762  -2.3821160
  53.8018496  72.4347683  -3.1042551  53.9094544  72.2442168  -1.6062593
  63.1994301  84.0772253   2.8463221  64.1240849  83.8715115   2.7087672
  63.0309605  83.8288655   3.7552562  56.1565865  70.2898813   7.0681908
  55.8162685  69.4906626   7.4702588  55.4504871  70.5900523   6.4958742
  56.8082337  67.3748125   5.5209231  57.6308406  66.9008603   5.3988122
  57.0520400  68.1538609   6.0207918  55.4490571  70.4036383  -4.1827867
  56.1698934  70.7817636  -4.6864150  54.8255875  71.1225260  -4.0792889
  59.5921694  71.1081532  -3.2469535  59.8085308  71.9906170  -3.5480706
  59.1115761  70.7167746  -3.9763893  54.3320915  74.0667246   3.3301210
  54.1865496  74.3807549   4.2225492  53.8546119  74.6852146   2.7772109
  56.1917298  71.0569794   3.3782100  56.1778867  70.1610887   3.0414398
  56.9089726  71.0640457   4.0120386  58.0443429  71.4907134   5.4235227
  57.7861207  72.4124204   5.4219557  57.5128469  71.0937568   6.1135691
  62.9889618  84.5957921  -1.7974688  63.1626495  84.0304343  -2.5500835
  63.4818509  85.3958816  -1.9795198  48.8066577  76.6072590   6.2688871
  48.2620046  77.3832398   6.4009146  49.6845927  76.9543394   6.1107993
  55.5954194  69.9384174  -1.3530330  55.7170105  69.0100820  -1.1539443
  55.3056237  69.9522860  -2.2652015  58.4645385  67.6239084   1.7836390
  58.4867081  67.6878417   0.8288369  58.8813444  66.7843593   1.9776896
  68.8429009  77.3594344  -0.1784388  69.2860155  76.6101669  -0.5765265
  67.9655519  77.3504480  -0.5610656  63.9764790  83.9124685  -4.6977789
  64.6715695  84.5331378  -4.4790475  64.3187940  83.0620037  -4.4225411
  49.5932599  75.7342486   9.1619028  48.8514335  75.8825122   9.7483659
  49.2725344  75.9950752   8.2985778  65.8756213  81.3624391  -3.1690459
  66.4007537  81.7011664  -3.8941139  65.7878566  80.4271406  -3.3527324
  57.5376262  85.2758464   8.9599418  57.8463388  85.0307611   9.8322118
  58.3351744  85.4805103   8.4718288  57.5596874  87.4296374   1.1904795
  57.1201864  86.9372753   1.8837651  58.3104991  86.8869342   0.9496870
  50.0389213  83.6207915   1.1929423  50.8647233  83.3211687   0.8128066
  49.6883265  82.8515537   1.6419211  55.0070746  82.9734383   3.2627096
  54.3850755  82.3105088   2.9629324  55.6775613  82.9995515   2.5800744
  48.2397818  81.5394241   2.1518356  47.4029726  81.1116416   1.9702358
  48.2121464  81.7326685   3.0889148  55.0795274  71.4516171  12.8559602
  55.1283429  72.3278294  12.4737372  55.6217788  70.9093564  12.2831246
  65.5650119  81.9957294  12.1360739  64.7745663  81.9781433  11.5965239
  65.3283474  82.5345588  12.8909776  65.6847994  78.8449761   9.4493468
  65.7345999  78.6799768  10.3908991  65.5761918  77.9777020   9.0591349
  54.5684253  81.5238307  -3.2614443  54.7172373  82.2073771  -3.9147770
  55.3750697  81.5043397  -2.7464987  62.9751757  74.8280689  10.7652775
  63.8761620  74.6887154  10.4736772  63.0499731  74.9935144  11.7050952
  57.3094562  72.2047544   9.6105961  56.4397872  72.4981110   9.3388550
  57.5454043  72.7887989  10.3313225  67.1866191  81.2646702   9.6935490
  66.8951000  81.6276683  10.5298950  66.5738323  80.5513711   9.5148822
  68.3861874  78.8299582   2.2138060  69.2208765  79.2689386   2.3775620
  68.5221002  78.3538235   1.3946306  65.4353379  76.3879317   8.1615547
  65.9107501  76.5806963   7.3534399  64.5118945  76.4438503   7.9158931
  52.3236886  77.5503484  -2.2553374  52.0782928  76.6465814  -2.0573164
  52.4932801  77.5520635  -3.1973896  60.0133596  68.4227161   7.1271381
  60.5315540  69.1588187   6.8017870  59.6588729  68.7291154   7.9618141
  51.5932534  73.2831842  -4.7567213  50.9001779  73.3576197  -5.4127177
  51.3484286  72.5192185  -4.2345696  60.2646190  64.8427443   2.6472278
  60.5447944  64.1750632   3.2732705  61.0496797  65.0356539   2.1346942
  58.0679659  84.0186437  -5.7902696  57.4953626  84.6376624  -6.2432224
  58.6412452  84.5685799  -5.2562774  64.1355048  73.2645077   6.3943853
  65.0872471  73.3643175   6.4156077  63.9658499  72.4723346   6.9041937
  62.1569428  70.3500660   6.5803254  61.5619360  70.6305673   5.8849743
  61.8719125  70.8394561   7.3519995  61.2876918  84.3023587  -4.6594113
  62.2207592  84.2369149  -4.4561238  61.2000131  85.1379854  -5.1179581
  63.9164935  83.6189457  -7.6990166  63.8378567  83.2849321  -6.8054408
  64.7374602  84.1111225  -7.6998694  66.6143126  76.4851197   5.5086153
  66.5819446  75.5467197   5.6945837  67.2243750  76.5635233   4.7751978
  58.4526457  75.3547250  -8.4486643  59.3985562  75.2253458  -8.3798225
  58.0740702  74.6161912  -7.9717215  66.7637615  73.2762240   5.5544436
  66.2476663  72.4920697   5.3674365  67.6477563  72.9480957   5.7190955
  64.4248342  67.0203256   1.5140249  64.2273163  66.7118344   2.3983581
  65.0348047  67.7464895   1.6438178  72.4319676  77.5467204   4.6492190
  73.1623065  77.2852492   5.2099893  71.8226622  76.8095926   4.6894258
  70.5134973  75.6875066   5.2466641  69.7868137  75.5531031   4.6383132
  70.0982260  75.9951895   6.0523359  58.3365150  79.4064996  13.0114014
  59.2568159  79.5843595  13.2054060  58.3014733  78.4621041  12.8593713
  56.6369374  73.2797226  -8.5131758  55.7300830  72.9830339  -8.4369044
  56.9145355  72.9827044  -9.3797472  47.5547315  74.6003590   1.9367288
  47.2350099  73.7468898   1.6441662  47.0080743  74.8152168   2.6925256
  51.3327222  77.3166031   5.6536795  51.5513232  78.2483138   5.6724829
  51.7452996  76.9574005   6.4391599  58.2531440  67.8234116  -2.3587517
  57.4432168  67.4781201  -1.9832271  58.9415857  67.5141660  -1.7699905
  60.1821988  66.9012163  -0.7363220  60.7353027  67.3207616  -0.0773197
  60.4192075  65.9747911  -0.6940264  56.2055088  72.8899236  15.0439544
  56.1051814  73.8393593  14.9751635  55.9876630  72.5617475  14.1715614
  55.4068159  70.1384161  -8.3719779  56.2687323  70.4639060  -8.1123961
  55.5918503  69.3515657  -8.8846713  47.4235575  78.2206501   3.9060410
  46.7299046  77.8060454   3.3930364  48.1708566  78.2627038   3.3093829
  63.5600795  69.0112688  -1.2284556  62.9799464  69.6697492  -1.6106503
  63.2936728  68.1890032  -1.6397138  62.0104362  68.4117746   0.9736765
  62.5104140  68.5234280   0.1651083  62.6539970  68.1078798   1.6137573
  56.0686358  76.3196375  13.8604606  55.5853439  77.1196735  14.0668495
  56.1547297  76.3304320  12.9072049  49.3372317  78.1524755   1.7826425
  49.3143005  78.2512442   0.8308308  49.6472954  78.9989906   2.1043591
  51.9959695  80.2100910   5.8973039  52.9502949  80.1784852   5.8302971
  51.7972219  79.7491534   6.7123265  52.5859077  78.7802026   8.4643837
  53.4051966  79.2746105   8.4878674  52.8595885  77.8633994   8.4361404
  62.3425673  71.1712778  -2.1728208  61.4551528  71.4562429  -2.3908013
  62.7579662  71.0106542  -3.0200931  65.6940210  71.1959299   1.5426132
  66.4700600  71.6855752   1.8150749  64.9688344  71.6217353   1.9998001
  68.1312768  71.9086918   2.6000072  68.7257259  71.6682654   1.8893381
  68.2039352  71.1894049   3.2273609  50.3509924  85.7520529   2.9143237
  50.2164392  84.9920930   2.3481235  49.9341986  86.4761429   2.4472026
  61.4868887  80.9357453  -8.0780188  62.1904737  81.1407455  -7.4622532
  60.7631536  81.5034215  -7.8131104  62.3166697  76.6867314  -1.9577917
  62.2601899  77.1435866  -2.7970285  62.8695040  75.9257999  -2.1355075
  66.1271503  72.4757046  -1.1327798  65.8708437  72.0753682  -0.3019590
  65.5024371  73.1900840  -1.2577659  70.4383841  75.2153119   1.3743494
  69.8783399  75.2846309   2.1475056  69.8327344  75.0394104   0.6542990
  53.5079050  86.6489846   3.1261680  53.3911434  87.5935279   3.0240370
  52.6871496  86.3463408   3.5147479  63.3955584  81.3739982  -6.0281727
  64.2301188  80.9421181  -6.2104253  63.2339927  81.2021996  -5.1004833
  63.0501476  77.8772095  -4.6625388  62.9950280  77.7116367  -5.6036944
  62.4247532  78.5848128  -4.5063198  47.8393991  73.1140160   9.1636034
  48.4852855  72.6039114   9.6523259  47.6311143  73.8508841   9.7379459
  60.3647384  80.1821007  14.6628175  61.2338543  80.3561660  14.3014810
  59.8854135  81.0015424  14.5403904  56.3597602  67.3780204  -5.0840070
  56.3476272  68.3222044  -4.9271799  57.2521024  67.1950350  -5.3780609
  54.5333564  87.3018108   6.3417608  55.4360811  87.3341719   6.6584103
  54.3070934  86.3718559   6.3563944  56.2887166  86.0549095   3.0027687
  55.3382797  86.0550956   2.8892059  56.5919652  85.3081829   2.4863721
  60.1749721  63.9722981  -0.8294133  59.4082117  63.4181468  -0.6837451
  60.5860426  64.0444850   0.0320019  52.1791482  70.2607777  13.2611048
  53.0422944  69.9044582  13.4714373  51.6056893  69.9221672  13.9486453
  72.0239859  91.8909633   4.0673449  72.6618269  91.7716381   3.3636789
  71.9060702  92.8390477   4.1261401  68.8329566  91.8437061   4.0034974
  68.4948077  91.7278126   3.1155509  69.7019334  91.4428226   3.9835980
  64.6916381  93.6972538  -0.0068135  64.1281246  93.6062475  -0.7751847
  64.5768776  92.8772442   0.4734357  69.3149349  92.9971913   9.9621179
  69.3037989  92.6024711   9.0901683  69.4769988  92.2637986  10.5554951
  62.2380813  95.1923729   2.8316085  63.0302105  94.8514554   2.4162385
  62.4777463  95.3018704   3.7518239  66.0356610  95.7809025   8.9100363
  65.7446476  96.6854656   8.7947030  66.6713594  95.8225552   9.6244433
  66.9612817  93.1585873   5.5001723  67.5576389  92.9341896   4.7858686
  67.0187788  92.4170619   6.1027171  71.5781128  89.6161087   1.1426657
  72.3644217  89.1980510   0.7917074  71.8419832  90.5207179   1.3108306
  76.9789555  89.5536320   2.0459636  77.7114727  88.9835537   2.2797465
  76.2228911  89.1657921   2.4866141  68.5965675  91.9763562  -0.7577022
  68.2323882  91.4494183  -0.0464100  69.4532791  91.5862031  -0.9310536
  74.5014975  83.2657894   6.5054244  74.1698300  84.1353305   6.2815459
  73.9060589  82.9494178   7.1848275  70.9946495  95.4670440   5.9050157
  70.6947218  96.3695479   5.7965964  70.6497554  95.2002624   6.7571310
  64.4458976  91.9184237   1.9386862  63.5209473  91.7860451   2.1464553
  64.6943390  92.6978456   2.4356804  74.3943639  87.9852981   3.5847594
  73.4860516  87.9168389   3.2906355  74.3431234  88.4624925   4.4129420
  61.8067787  91.5617511   2.7730651  61.9360169  91.8151990   3.6870062
  61.1265239  92.1545219   2.4535306  68.4684504  89.4042626  11.5282492
  67.6917839  89.9636546  11.5185356  69.1075068  89.8899409  12.0497362
  76.2605285  86.1869419   5.3625468  75.6179665  86.4801952   4.7165263
  75.7560214  86.0722339   6.1678665  66.7230877  92.2128079  11.0900459
  67.4645561  92.7513123  10.8135282  66.0167862  92.8394368  11.2472011
  72.1986216  94.3557220   9.6872620  72.6069572  93.9139630   8.9427253
  71.4763478  93.7809847   9.9406813  68.5517286  89.2929827   7.0606177
  69.3978482  89.7169240   7.2040826  68.4915924  88.6363451   7.7544740
  72.5215031  94.9158411   3.4424909  71.8923893  95.0804125   2.7400977
  72.1340693  95.3300020   4.2135873  71.7016732  86.9534195   8.7187351
  71.4577664  87.7076256   8.1821627  71.9776662  87.3319543   9.5534598
  73.6555195  93.4972807   7.3964616  73.8672090  94.1404567   6.7198997
  73.6084943  92.6635124   6.9286546  71.2581423  86.1090628   4.3001189
  70.3965903  86.4071882   4.5917926  71.2843858  86.3261027   3.3682221
  68.0742993  94.6532819   0.7074994  68.5381338  94.9320522  -0.0820383
  67.8099791  93.7516263   0.5248085  64.9667074  94.2004300   3.6454757
  65.5368431  94.6291569   3.0072242  65.5575186  93.9186885   4.3438943
  67.0111879  90.7755971  -2.4835441  67.7135922  91.2277015  -2.0161514
  66.6792507  90.1339790  -1.8555548  65.4592240  89.3667728  11.8915769
  64.8290901  90.0484008  12.1251166  65.3528328  89.2550809  10.9468907
  60.7537213  89.0339524   2.8181693  59.9636267  89.2897052   2.3421804
  61.2448460  89.8487862   2.9233733  74.7701022  96.3744763   5.5686974
  75.5918466  95.9724950   5.2869655  74.7663425  96.2712997   6.5203090
  62.7051958  89.3984103  -0.2234830  61.9083122  89.5102797   0.2948665
  62.4777551  89.7370755  -1.0893940  68.5357626  95.9228806   7.7247684
  68.6002058  96.3849213   8.5605856  67.8268550  95.2926171   7.8529994
  59.0374916  89.2870014   5.2496684  59.2882954  90.1717024   5.5154260
  59.5734464  89.1074616   4.4771776  64.7372983  83.6688493  14.2541020
  64.3439929  83.1154692  14.9288664  65.5539124  83.9799072  14.6447537
  61.7035041  95.1072352  -1.8345410  62.2159562  95.9015602  -1.6839846
  62.3557754  94.4098642  -1.9011809  67.6540944  85.0846373  11.8461276
  68.3950658  85.6853526  11.7665739  67.8858867  84.3424010  11.2879319
  62.7982282  90.2702740  10.1239506  62.6835797  89.3687997  10.4246605
  61.9426800  90.5166437   9.7724323  69.8774120  98.2120480  11.7227007
  69.4337974  97.4256859  11.4047911  70.5391334  98.3999631  11.0570897
  64.6361241  99.7416282   6.2487685  65.1868666  99.6133345   5.4764679
  63.7972717 100.0411171   5.8982578  71.9755358  98.4923280   9.7508408
  71.9573833  99.3132161   9.2588677  72.8975278  98.3677355   9.9758549
  68.4328412  96.0067410  10.5931916  68.9656749  95.2455698  10.3631224
  67.9042493  95.7141061  11.3356071  71.5998107  81.1127476   6.1225558
  71.2562377  82.0029117   6.0464669  71.9677070  80.9229133   5.2595143
  59.6683958  93.4361006  -1.0585840  60.5059180  93.8458014  -1.2752132
  59.8462225  92.4960448  -1.0885646  69.1495501  85.9485787  -0.3116768
  68.2937097  85.5592638  -0.4911130  69.5622453  86.0277748  -1.1716983
  70.6794648  83.4832131   4.0874791  70.1759443  83.4462266   3.2742597
  70.9725254  84.3924873   4.1471448  66.9237533  83.5670860   3.0940973
  67.7890530  83.3713669   2.7346862  66.9915042  83.3381212   4.0210330
  74.7773971  93.3302423   3.2217775  74.1197645  94.0201684   3.3097903
  75.5814370  93.7198854   3.5651761  64.5299853  85.7973068   0.4657340
  65.1043604  85.5748250  -0.2669467  65.1170835  85.8661763   1.2185941
  73.5879430  91.6846795   1.2721716  74.1011311  92.3176787   1.7743426
  74.2380654  91.0847991   0.9065076  66.8322520  82.6714317  -0.8067591
  66.1786933  82.3563334  -1.4310976  66.7902994  82.0490058  -0.0807768
  70.0660261  89.1596251   3.5180057  69.1482822  89.3811198   3.3601745
  70.4820404  89.2342561   2.6591764  73.2974145  87.5944783   0.6301526
  72.5596902  87.0822169   0.9611769  73.5500919  87.1545164  -0.1815197
  73.3985773  80.3721035   1.2243296  73.7044650  79.5118398   0.9369211
  74.1238378  80.9638655   1.0242290  59.6910129  90.7751721  -0.3875106
  59.4934529  90.1821082  -1.1124040  59.1356793  90.4703931   0.3300832
  67.6706853  90.6674828   1.7319487  67.7255462  89.7148664   1.6561963
  66.8598055  90.8234267   2.2160785  65.6099212  89.2851888  -0.5090134
  64.7967078  89.5846058  -0.1024942  66.1058207  88.8907576   0.2084348
  71.2073424  89.7493712   8.3224760  71.5622812  89.9765185   9.1819225
  71.8545555  90.0812089   7.7002015  65.1013287  86.8570243   5.1071101
  65.7412667  86.7159002   4.4094064  64.2690818  86.5704756   4.7309703
  65.8773591  96.1572673   1.2206093  66.6714190  95.6622994   1.0188668
  65.1665284  95.6290537   0.8573799  70.6968436  98.5390769   5.5718461
  70.7505458  99.1081705   6.3396177  69.8283217  98.7092654   5.2072498
  62.1856355  90.3015755  -2.7034154  61.2553943  90.2400211  -2.4864192
  62.2813827  89.7791708  -3.4997513  62.1041904  86.8270568  -0.1155913
  62.3648721  87.7415901  -0.2246752  62.9259076  86.3595011   0.0340700
  63.5766829  88.2408325   7.0542912  64.2489882  88.0325687   6.4055561
  62.7496616  88.0430411   6.6148144  77.8256090  94.9812376   6.5718245
  78.0191980  95.8858186   6.8177520  77.7256708  94.5219795   7.4056831
  69.4792401  84.8670266   9.0708573  68.8320316  85.5660216   8.9773049
  70.2493416  85.3006410   9.4384821  72.8871199  95.1319118  12.1459126
  72.7356705  94.9029670  11.2289210  72.8775878  96.0889720  12.1590471
  69.6556535  92.7051031   7.1305393  70.5848595  92.8562191   6.9574360
  69.2347565  92.7935052   6.2754039  68.4544867  96.7301695   4.9003930
  68.3155953  96.3620480   5.7729868  67.6659463  97.2449335   4.7287888
  70.0050082  96.1083298   2.2892768  69.6699915  96.0684068   3.1850418
  69.5054028  95.4428014   1.8163178  63.9794326  91.5150928   7.8145349
  63.8414124  90.7831167   8.4156888  64.8899250  91.4259828   7.5329537
  66.6076627  91.2270887   7.3029029  67.3176245  90.5864080   7.2615647
  66.5645935  91.4783782   8.2255210  74.5963406  98.1638241  10.2235608
  74.5375952  97.4797461   9.5566191  74.9982924  98.9057231   9.7716234
  65.3205561  88.2136105   9.1224668  64.7842918  87.7626844   9.7746265
  64.7322269  88.3482014   8.3795133  74.5980813  96.1277825   8.4549588
  73.7107592  95.7903747   8.5775986  75.1679364  95.3960856   8.6918353
  56.2509960  92.4601917   1.7792639  56.9381000  92.1463647   1.1913654
  56.0958089  93.3643281   1.5059890  61.0544682  87.3492113   6.2077663
  60.9702871  86.7417783   5.4728073  60.2327389  87.8401131   6.2087159
  68.1281966 100.7879277   5.4210831  68.0552138 101.5934249   5.9330135
  67.6859359 100.9871243   4.5958852  71.2268396  85.8345677   1.5747858
  71.7237096  85.0815639   1.2548928  70.4555377  85.8709993   1.0091067
  79.0798153  91.5386042   3.2166149  79.0688030  92.4210758   2.8460082
  78.2115533  91.1857593   3.0220686  70.5880650 100.6866111   7.5768989
  71.3008622 101.3213576   7.5044891  70.0970678 100.7829977   6.7608991
  67.8103365  87.9763060   1.3019542  67.4401152  87.4234100   1.9900448
  68.3062457  87.3721193   0.7494542  65.6392563  98.4360555   8.3974560
  66.3402023  99.0697038   8.5503955  65.1687678  98.7775286   7.6370200
  73.6687391  82.8015270   3.7227217  72.7550471  83.0319497   3.8909424
  74.0980492  82.8853714   4.5741249  73.4393849  90.9905162   6.2227111
  72.7865300  91.2381070   5.5679563  73.8174229  90.1769300   5.8889588
  69.4881422  91.7324973  12.7093148  68.8122059  91.6319102  13.3795523
  70.3109056  91.5764187  13.1729145  61.2360281  97.9696910   5.3305663
  61.8213718  97.2240598   5.4633567  61.0385120  98.2800866   6.2142327
  55.8277936  90.5402510   4.0510106  55.8662036  90.0066101   4.8447224
  55.3218229  90.0137715   3.4321083  68.2304205 103.0391901   6.9450764
  68.7822513 103.2023522   7.7099849  68.5710399 103.6296338   6.2730789
  63.2068698  85.3867050   7.5472648  63.2710025  86.2481881   7.1350046
  63.1435819  84.7741052   6.8145007  62.6820971  87.4590183  11.1945683
  63.3093010  87.0767260  11.8083207  61.8248890  87.2404385  11.5601375
  73.0815080  97.8653158  12.7999418  73.6254983  98.4783116  12.3054373
  72.5001924  98.4232736  13.3166431  59.4586514  89.2666612  -2.8735962
  59.7539955  88.3577290  -2.9268909  58.5574549  89.2454351  -3.1954960
  62.9880761  87.3422609   3.1091586  62.2667346  87.9558576   2.9699059
  63.7774016  87.8780373   3.0308232  73.4307501  98.7882896   5.5593996
  72.4837836  98.6688247   5.4872323  73.7790274  97.9005394   5.6420257
  65.7907074  84.6777035   9.3832238  66.3141476  84.9239332  10.1458547
  65.5719407  85.5097070   8.9635375  61.1874355  86.9480710  -2.7496637
  60.8587061  86.0678089  -2.9321531  61.5413726  86.8928378  -1.8620248
  64.3016178  87.2353679  -2.3821160  64.6412251  87.7639601  -3.1042551
  64.7488299  87.5734086  -1.6062593  66.9959619  85.6190730   7.0681908
  66.6556440  84.8198543   7.4702588  66.2898626  85.9192441   6.4958742
  67.6476091  82.7040043   5.5209231  68.4702160  82.2300521   5.3988122
  67.8914155  83.4830526   6.0207918  66.2884326  85.7328301  -4.1827867
  67.0092688  86.1109554  -4.6864150  65.6649630  86.4517178  -4.0792889
  70.4315448  86.4373450  -3.2469535  70.6479063  87.3198088  -3.5480706
  69.9509516  86.0459663  -3.9763893  65.1714670  89.3959163   3.3301210
  65.0259251  89.7099466   4.2225492  64.6939873  90.0144064   2.7772109
  67.0311053  86.3861711   3.3782100  67.0172621  85.4902805   3.0414398
  67.7483481  86.3932375   4.0120386  68.8837183  86.8199051   5.4235227
  68.6254961  87.7416122   5.4219557  68.3522224  86.4229486   6.1135691
  59.6460332  91.9364508   6.2688871  59.1013800  92.7124316   6.4009146
  60.5239682  92.2835312   6.1107993  66.4347949  85.2676092  -1.3530330
  66.5563860  84.3392738  -1.1539443  66.1449991  85.2814777  -2.2652015
  69.3039139  82.9531002   1.7836390  69.3260836  83.0170335   0.8288369
  69.7207198  82.1135511   1.9776896  60.4326354  91.0634404   9.1619028
  59.6908090  91.2117039   9.7483659  60.1119098  91.3242670   8.2985778
  68.3770016 100.6050382   8.9599418  68.6857143 100.3599529   9.8322118
  69.1745499 100.8097021   8.4718288  60.8782968  98.9499833   1.1929423
  61.7040987  98.6503605   0.8128066  60.5277020  98.1807455   1.6419211
  65.8464501  98.3026301   3.2627096  65.2244510  97.6397006   2.9629324
  66.5169368  98.3287433   2.5800744  59.0791573  96.8686159   2.1518356
  58.2423481  96.4408333   1.9702358  59.0515218  97.0618602   3.0889148
  65.9189028  86.7808089  12.8559602  65.9677184  87.6570212  12.4737372
  66.4611542  86.2385482  12.2831246  76.4043874  97.3249212  12.1360739
  75.6139418  97.3073351  11.5965239  76.1677228  97.8637506  12.8909776
  76.5241749  94.1741679   9.4493468  76.5739754  94.0091686  10.3908991
  76.4155672  93.3068938   9.0591349  73.8145511  90.1572607  10.7652775
  74.7155374  90.0179071  10.4736772  73.8893486  90.3227061  11.7050952
  68.1488317  87.5339461   9.6105961  67.2791626  87.8273027   9.3388550
  68.3847797  88.1179906  10.3313225  78.0259946  96.5938620   9.6935490
  77.7344754  96.9568601  10.5298950  77.4132077  95.8805628   9.5148822
  76.2747134  91.7171235   8.1615547  76.7501256  91.9098881   7.3534399
  75.3512699  91.7730420   7.9158931  63.1630641  92.8795402  -2.2553374
  62.9176683  91.9757732  -2.0573164  63.3326555  92.8812552  -3.1973896
  70.8527350  83.7519078   7.1271381  71.3709294  84.4880105   6.8017870
  70.4982483  84.0583072   7.9618141  62.4326288  88.6123759  -4.7567213
  61.7395533  88.6868114  -5.4127177  62.1878040  87.8484103  -4.2345696
  71.1039945  80.1719361   2.6472278  71.3841698  79.5042550   3.2732705
  71.8890552  80.3648456   2.1346942  74.9748803  88.5936995   6.3943853
  75.9266226  88.6935092   6.4156077  74.8052253  87.8015263   6.9041937
  72.9963182  85.6792578   6.5803254  72.4013115  85.9597591   5.8849743
  72.7112879  86.1686479   7.3519995  77.4536881  91.8143114   5.5086153
  77.4213201  90.8759115   5.6945837  78.0637504  91.8927151   4.7751978
  77.6031369  88.6054158   5.5544436  77.0870418  87.8212615   5.3674365
  78.4871318  88.2772874   5.7190955  75.2642096  82.3495173   1.5140249
  75.0666917  82.0410262   2.3983581  75.8741802  83.0756812   1.6438178
  83.2713431  92.8759121   4.6492190  84.0016819  92.6144409   5.2099893
  82.6620376  92.1387843   4.6894258  81.3528728  91.0166984   5.2466641
  80.6261891  90.8822949   4.6383132  80.9376015  91.3243812   6.0523359
  69.1758904  94.7356914  13.0114014  70.0961914  94.9135513  13.2054060
  69.1408487  93.7912959  12.8593713  58.3941069  89.9295507   1.9367288
  58.0743854  89.0760815   1.6441662  57.8474497  90.1444085   2.6925256
  62.1720977  92.6457948   5.6536795  62.3906986  93.5775056   5.6724829
  62.5846751  92.2865923   6.4391599  69.0925195  83.1526034  -2.3587517
  68.2825923  82.8073118  -1.9832271  69.7809611  82.8433577  -1.7699905
  71.0215743  82.2304080  -0.7363220  71.5746781  82.6499534  -0.0773197
  71.2585829  81.3039828  -0.6940264  67.0448842  88.2191154  15.0439544
  66.9445569  89.1685511  14.9751635  66.8270384  87.8909393  14.1715614
  58.2629329  93.5498419   3.9060410  57.5692801  93.1352371   3.3930364
  59.0102320  93.5918955   3.3093829  74.3994550  84.3404605  -1.2284556
  73.8193219  84.9989410  -1.6106503  74.1330483  83.5181950  -1.6397138
  72.8498116  83.7409663   0.9736765  73.3497895  83.8526198   0.1651083
  73.4933724  83.4370716   1.6137573  66.9080112  91.6488293  13.8604606
  66.4247194  92.4488653  14.0668495  66.9941051  91.6596238  12.9072049
  60.1766072  93.4816672   1.7826425  60.1536760  93.5804360   0.8308308
  60.4866708  94.3281823   2.1043591  62.8353450  95.5392828   5.8973039
  63.7896703  95.5076770   5.8302971  62.6365973  95.0783451   6.7123265
  63.4252832  94.1093944   8.4643837  64.2445721  94.6038022   8.4878674
  63.6989639  93.1925912   8.4361404  73.1819428  86.5004696  -2.1728208
  72.2945283  86.7854346  -2.3908013  73.5973417  86.3398459  -3.0200931
  76.5333964  86.5251217   1.5426132  77.3094354  87.0147669   1.8150749
  75.8082098  86.9509271   1.9998001  78.9706523  87.2378836   2.6000072
  79.5651013  86.9974572   1.8893381  79.0433106  86.5185967   3.2273609
  61.1903678 101.0812447   2.9143237  61.0558146 100.3212848   2.3481235
  60.7735741 101.8053347   2.4472026  64.3472804 101.9781764   3.1261680
  64.2305188 102.9227197   3.0240370  63.5265251 101.6755326   3.5147479
  58.6787746  88.4432077   9.1636034  59.3246610  87.9331031   9.6523259
  58.4704897  89.1800759   9.7379459  71.2041138  95.5112925  14.6628175
  72.0732298  95.6853577  14.3014810  70.7247890  96.3307342  14.5403904
  67.1991356  82.7072122  -5.0840070  67.1870026  83.6513962  -4.9271799
  68.0914778  82.5242267  -5.3780609  65.3727318 102.6310026   6.3417608
  66.2754565 102.6633636   6.6584103  65.1464688 101.7010477   6.3563944
  71.0143476  79.3014899  -0.8294133  70.2475872  78.7473385  -0.6837451
  71.4254181  79.3736767   0.0320019  63.0185237  85.5899694  13.2611048
  63.8816698  85.2336499  13.4714373  62.4450648  85.2513589  13.9486453
  79.3078259 104.7334544  11.5282492  78.5311593 105.2928464  11.5185356
  79.9468822 105.2191327  12.0497362  76.2985995 104.6959645  11.8915769
  75.6684656 105.3775926  12.1251166  76.1922083 104.5842727  10.9468907
  75.5766738  98.9980411  14.2541020  75.1833683  98.4446610  14.9288664
  76.3932878  99.3090990  14.6447537  78.4934699 100.4138290  11.8461276
  79.2344412 101.0145443  11.7665739  78.7252622  99.6715928  11.2879319
  73.6376037 105.5994658  10.1239506  73.5229552 104.6979915  10.4246605
  72.7820554 105.8458354   9.7724323  80.3186155 100.1962184   9.0708573
  79.6714071 100.8952133   8.9773049  81.0887171 100.6298328   9.4384821
  76.1599315 103.5428023   9.1224668  75.6236672 103.0918762   9.7746265
  75.5716024 103.6773932   8.3795133  71.8938437 102.6784031   6.2077663
  71.8096625 102.0709700   5.4728073  71.0721143 103.1693049   6.2087159
  80.3275177 107.0616891  12.7093148  79.6515814 106.9611020  13.3795523
  81.1502811 106.9056105  13.1729145  74.0462453 100.7158968   7.5472648
  74.1103779 101.5773799   7.1350046  73.9829573 100.1032970   6.8145007
  73.5214725 102.7882101  11.1945683  74.1486764 102.4059178  11.8083207
  72.6642644 102.5696303  11.5601375  76.6300829 100.0068953   9.3832238
  77.1535231 100.2531249  10.1458547  76.4113162 100.8388988   8.9635375
  71.2720108 106.3926322   9.1619028  70.5301844 106.5408957   9.7483659
  70.9512853 106.6534587   8.2985778  76.7582783 102.1100007  12.8559602
  76.8070938 102.9862129  12.4737372  77.3005297 101.5677400  12.2831246
  78.9882071 102.8631379   9.6105961  78.1185381 103.1564945   9.3388550
  79.2241551 103.4471824  10.3313225  77.8842597 103.5483072  15.0439544
  77.7839323 104.4977429  14.9751635  77.6664139 103.2201311  14.1715614
  77.7473867 106.9780210  13.8604606  77.2640948 107.7780571  14.0668495
  77.8334806 106.9888155  12.9072049  69.5181500 103.7723995   9.1636034
  70.1640364 103.2622949   9.6523259  69.3098652 104.5092677   9.7379459
  73.8578991 100.9191612  13.2611048  74.7210453 100.5628417  13.4714373
  73.2844402 100.5805507  13.9486453  59.0380367  59.8890685  -1.5527687
  58.5944221  59.1027064  -1.8706782  59.6997580  60.0769836  -2.2183796
  61.1361605  60.1693485  -3.5246285  61.1180080  60.9902366  -4.0166016
  62.0581525  60.0447560  -3.2996144  57.5934659  57.6837614  -2.6822777
  58.1262996  56.9225903  -2.9123469  57.0648740  57.3911266  -1.9398623
  66.9862337  56.6582580  -6.7036448  67.1798227  57.5628391  -6.4577173
  66.8862955  56.1990000  -5.8697863  62.0477446  56.8089323  -1.1295567
  61.8962952  56.5799875  -2.0465484  62.0382125  57.7659925  -1.1164222
  63.7569652  59.8408446  -3.0519085  63.6982199  59.1567666  -3.7188502
  64.1589171  60.5827436  -3.5038459  63.7587060  57.8048030  -4.8205106
  62.8713838  57.4673951  -4.6978707  64.3285611  57.0731061  -4.5836340
  59.7486897  62.3636316  -5.6985704  60.4614869  62.9983781  -5.7709802
  59.2576925  62.4600182  -6.5145702  58.6487669  53.4095178  -0.5661546
  57.9728306  53.3089307   0.1040830  59.4715303  53.2534392  -0.1025548
  57.3910452  64.7162105  -6.3303930  57.9428760  64.8793727  -5.5654844
  57.7316645  65.3066543  -7.0023905  62.2421326  59.5423363  -0.4755275
  62.7861230  60.1553321  -0.9700320  61.6608171  60.1002941   0.0411738
  57.5376263  62.2820587  -4.3155275  57.8463390  62.0369734  -3.4432576
  58.3351745  62.4867226  -4.8036405  65.5650121  59.0019417  -1.1393954
  64.7745664  58.9843556  -1.6789455  65.3283475  59.5407711  -0.3844917
  65.6847996  55.8511883  -3.8261225  65.7346001  55.6861891  -2.8845703
  65.5761919  54.9839142  -4.2163345  62.9751758  51.8342811  -2.5101919
  63.8761621  51.6949276  -2.8017921  63.0499733  51.9997266  -1.5703741
  67.1866193  58.2708825  -3.5819204  66.8951001  58.6338806  -2.7455743
  66.5738324  57.5575833  -3.7605872  58.3365151  56.4127118  -0.2640680
  59.2568160  56.5905717  -0.0700633  58.3014734  55.4683164  -0.4160980
  56.0686359  53.3258498   0.5849912  55.5853441  54.1258858   0.7913801
  56.1547298  53.3366443  -0.3682644  60.3647385  57.1883130   1.3873481
  61.2338545  57.3623782   1.0260116  59.8854136  58.0077547   1.2649211
  72.0239861  68.8971756  -9.2081244  72.6618271  68.7778503  -9.9117904
  71.9060704  69.8452600  -9.1493292  68.8329567  68.8499184  -9.2719719
  68.4948078  68.7340249 -10.1599185  69.7019335  68.4490349  -9.2918713
  69.3149350  70.0034036  -3.3133514  69.3037991  69.6086834  -4.1853010
  69.4769989  69.2700108  -2.7199742  62.2380815  72.1985852 -10.4438608
  63.0302106  71.8576677 -10.8592309  62.4777465  72.3080827  -9.5236455
  66.0356611  72.7871147  -4.3654330  65.7446477  73.6916778  -4.4807664
  66.6713595  72.8287675  -3.6510260  66.9612818  70.1647996  -7.7752970
  67.5576390  69.9404018  -8.4896007  67.0187789  69.4232741  -7.1727522
  71.5781129  66.6223210 -12.1328036  72.3644218  66.2042633 -12.4837619
  71.8419833  67.5269302 -11.9646388  76.9789556  66.5598443 -11.2295058
  77.7114728  65.9897660 -10.9957228  76.2228912  66.1720043 -10.7888552
  68.5965676  68.9825684 -14.0331715  68.2323883  68.4556305 -13.3218794
  69.4532792  68.5924153 -14.2065230  74.5014977  60.2720017  -6.7700449
  74.1698301  61.1415428  -6.9939234  73.9060590  59.9556301  -6.0906419
  70.9946496  72.4732563  -7.3704536  70.6947219  73.3757602  -7.4788729
  70.6497556  72.2064746  -6.5183383  64.4458978  68.9246360 -11.3367832
  63.5209474  68.7922574 -11.1290140  64.6943391  69.7040579 -10.8397889
  74.3943640  64.9915103  -9.6907099  73.4860517  64.9230512  -9.9848338
  74.3431236  65.4687048  -8.8625273  61.8067789  68.5679633 -10.5024043
  61.9360170  68.8214112  -9.5884631  61.1265240  69.1607341 -10.8219388
  68.4684506  66.4104749  -1.7472202  67.6917840  66.9698669  -1.7569337
  69.1075069  66.8961532  -1.2257332  76.2605286  63.1931542  -7.9129225
  75.6179667  63.4864075  -8.5589430  75.7560215  63.0784462  -7.1076028
  66.7230878  69.2190202  -2.1854235  67.4645562  69.7575246  -2.4619411
  66.0167863  69.8456491  -2.0282683  72.1986218  71.3619343  -3.5882073
  72.6069574  70.9201753  -4.3327441  71.4763479  70.7871970  -3.3347880
  68.5517288  66.2991949  -6.2148516  69.3978483  66.7231363  -6.0713867
  68.4915925  65.6425574  -5.5209953  72.5215032  71.9220533  -9.8329784
  71.8923895  72.0866247 -10.5353716  72.1340694  72.3362143  -9.0618820
  71.7016733  63.9596318  -4.5567343  71.4577665  64.7138378  -5.0933067
  71.9776664  64.3381665  -3.7220095  73.6555196  70.5034930  -5.8790077
  73.8672091  71.1466690  -6.5555696  73.6084944  69.6697247  -6.3468147
  71.2581425  63.1152751  -8.9753505  70.3965904  63.4134004  -8.6836767
  71.2843859  63.3323150  -9.9072472  68.0742994  71.6594941 -12.5679699
  68.5381340  71.9382644 -13.3575077  67.8099792  70.7578386 -12.7506608
  64.9667075  71.2066423  -9.6299936  65.5368432  71.6353691 -10.2682451
  65.5575187  70.9249007  -8.9315750  65.4592242  66.3729850  -1.3838925
  64.8290902  67.0546131  -1.1503528  65.3528330  66.2612932  -2.3285786
  74.7701024  73.3806885  -7.7067720  75.5918467  72.9787073  -7.9885038
  74.7663427  73.2775120  -6.7551604  68.5357627  72.9290929  -5.5507009
  68.6002060  73.3911336  -4.7148837  67.8268551  72.2988294  -5.4224699
  59.0374917  66.2932137  -8.0258010  59.2882956  67.1779147  -7.7600434
  59.5734466  66.1136738  -8.7982918  64.7372984  60.6750616   0.9786326
  64.3439930  60.1216815   1.6533971  65.5539125  60.9861195   1.3692844
  67.6540945  62.0908495  -1.4293417  68.3950659  62.6915648  -1.5088955
  67.8858868  61.3486133  -1.9875374  62.7982283  67.2764862  -3.1515187
  62.6835799  66.3750120  -2.8508088  61.9426801  67.5228559  -3.5030371
  69.8774121  75.2182603  -1.5527687  69.4337975  74.4318981  -1.8706782
  70.5391335  75.4061753  -2.2183796  64.6361242  76.7478404  -7.0267008
  65.1868668  76.6195468  -7.7990014  63.7972718  77.0473293  -7.3772115
  71.9755359  75.4985403  -3.5246285  71.9573835  76.3194284  -4.0166016
  72.8975279  75.3739478  -3.2996144  68.4328413  73.0129532  -2.6822777
  68.9656750  72.2517820  -2.9123469  67.9042495  72.7203184  -1.9398623
  71.5998108  58.1189598  -7.1529135  71.2562378  59.0091240  -7.2290025
  71.9677071  57.9291256  -8.0159550  70.6794649  60.4894253  -9.1879902
  70.1759444  60.4524388 -10.0012097  70.9725256  61.3986996  -9.1283245
  74.7773972  70.3364545 -10.0536919  74.1197647  71.0263807  -9.9656790
  75.5814371  70.7260977  -9.7102932  73.5879431  68.6908918 -12.0032977
  74.1011313  69.3238910 -11.5011267  74.2380655  68.0910113 -12.3689617
  70.0660262  66.1658373  -9.7574636  69.1482823  66.3873320  -9.9152948
  70.4820405  66.2404684 -10.6162929  73.2974147  64.6006905 -12.6453167
  72.5596904  64.0884291 -12.3142924  73.5500920  64.1607287 -13.4569890
  67.6706854  67.6736950 -11.5435207  67.7255464  66.7210787 -11.6192730
  66.8598056  67.8296389 -11.0593908  71.2073425  66.7555835  -4.9529934
  71.5622813  66.9827308  -4.0935468  71.8545557  67.0874211  -5.5752679
  65.1013288  63.8632366  -8.1683593  65.7412668  63.7221125  -8.8660629
  64.2690819  63.5766879  -8.5444991  65.8773592  73.1634796 -12.0548600
  66.6714191  72.6685116 -12.2566025  65.1665285  72.6352659 -12.4180895
  70.6968437  75.5452892  -7.7036233  70.7505459  76.1143828  -6.9358517
  69.8283218  75.7154777  -8.0682196  63.5766830  65.2470448  -6.2211781
  64.2489884  65.0387810  -6.8699133  62.7496617  65.0492534  -6.6606549
  77.8256092  71.9874498  -6.7036448  78.0191982  72.8920309  -6.4577173
  77.7256710  71.5281917  -5.8697863  69.4792402  61.8732389  -4.2046121
  68.8320317  62.5722338  -4.2981644  70.2493418  62.3068533  -3.8369872
  72.8871200  72.1381241  -1.1295567  72.7356707  71.9091793  -2.0465484
  72.8775880  73.0951842  -1.1164222  69.6556537  69.7113154  -6.1449301
  70.5848597  69.8624313  -6.3180334  69.2347567  69.7997174  -7.0000654
  68.4544868  73.7363818  -8.3750763  68.3155954  73.3682602  -7.5024825
  67.6659465  74.2511457  -8.5466805  70.0050084  73.1145421 -10.9861925
  69.6699916  73.0746191 -10.0904276  69.5054029  72.4490137 -11.4591515
  63.9794328  68.5213051  -5.4609344  63.8414125  67.7893290  -4.8597805
  64.8899251  68.4321951  -5.7425157  66.6076628  68.2333010  -5.9725665
  67.3176247  67.5926202  -6.0139046  66.5645936  68.4845905  -5.0499484
  74.5963407  75.1700363  -3.0519085  74.5375953  74.4859584  -3.7188502
  74.9982925  75.9119353  -3.5038459  65.3205562  65.2198228  -4.1530025
  64.7842919  64.7688966  -3.5008429  64.7322271  65.3544137  -4.8959561
  74.5980814  73.1339947  -4.8205106  73.7107593  72.7965869  -4.6978707
  75.1679365  72.4022979  -4.5836340  61.0544683  64.3554236  -7.0677031
  60.9702872  63.7479905  -7.8026621  60.2327390  64.8463254  -7.0667534
  68.1281968  77.7941400  -7.8543863  68.0552139  78.5996371  -7.3424558
  67.6859361  77.9933366  -8.6795841  79.0798155  68.5448165 -10.0588544
  79.0688031  69.4272880 -10.4294611  78.2115534  68.1919716 -10.2534007
  70.5880651  77.6928234  -5.6985704  71.3008623  78.3275699  -5.7709802
  70.0970680  77.7892100  -6.5145702  65.6392565  75.4422677  -4.8780133
  66.3402024  76.0759160  -4.7250739  65.1687680  75.7837409  -5.6384494
  73.6687392  59.8077393  -9.5527477  72.7550472  60.0381620  -9.3845270
  74.0980494  59.8915837  -8.7013444  73.4393851  67.9967285  -7.0527583
  72.7865301  68.2443192  -7.7075130  73.8174230  67.1831423  -7.3865105
  69.4881424  68.7387096  -0.5661546  68.8122061  68.6381225   0.1040830
  70.3109057  68.5826309  -0.1025548  61.2360283  74.9759032  -7.9449030
  61.8213719  74.2302720  -7.8121126  61.0385121  75.2862989  -7.0612366
  68.2304206  80.0454023  -6.3303930  68.7822514  80.2085645  -5.5654844
  68.5710400  80.6358461  -7.0023905  63.2068700  62.3929173  -5.7282045
  63.2710026  63.2544004  -6.1404647  63.1435820  61.7803175  -6.4609686
  62.6820972  64.4652306  -2.0809011  63.3093011  64.0829383  -1.4671486
  61.8248891  64.2466507  -1.7153318  73.0815081  74.8715281  -0.4755275
  73.6254985  75.4845239  -0.9700320  72.5001926  75.4294859   0.0411738
  73.4307502  75.7945019  -7.7160697  72.4837838  75.6750370  -7.7882371
  73.7790275  74.9067517  -7.6334436  65.7907075  61.6839158  -3.8922455
  66.3141477  61.9301454  -3.1296146  65.5719409  62.5159193  -4.3119318
  66.9959621  62.6252853  -6.2072785  66.6556441  61.8260666  -5.8052105
  66.2898627  62.9254564  -6.7795952  67.6476092  59.7102165  -7.7545462
  68.4702162  59.2362643  -7.8766572  67.8914156  60.4892649  -7.2546776
  65.1714671  66.4021286  -9.9453483  65.0259252  66.7161589  -9.0529202
  64.6939875  67.0206186 -10.4982585  67.0311054  63.3923834  -9.8972594
  67.0172623  62.4964927 -10.2340296  67.7483482  63.3994498  -9.2634308
  68.8837185  63.8261174  -7.8519466  68.6254963  64.7478245  -7.8535136
  68.3522225  63.4291609  -7.1619002  59.6460333  68.9426630  -7.0065822
  59.1013801  69.7186438  -6.8745548  60.5239683  69.2897435  -7.1646701
  60.4326355  68.0696527  -4.1135665  59.6908091  68.2179162  -3.5271035
  60.1119099  68.3304792  -4.9768916  68.3770018  77.6112505  -4.3155275
  68.6857144  77.3661652  -3.4432576  69.1745500  77.8159143  -4.8036405
  60.8782969  75.9561955 -12.0825271  61.7040989  75.6565727 -12.4626627
  60.5277021  75.1869578 -11.6335482  65.8464502  75.3088423 -10.0127597
  65.2244511  74.6459128 -10.3125369  66.5169369  75.3349555 -10.6953949
  59.0791574  73.8748282 -11.1236337  58.2423482  73.4470456 -11.3052336
  59.0515219  74.0680725 -10.1865546  65.9189029  63.7870211  -0.4195091
  65.9677185  64.6632334  -0.8017321  66.4611544  63.2447605  -0.9923448
  76.4043875  74.3311335  -1.1393954  75.6139419  74.3135474  -1.6789455
  76.1677230  74.8699628  -0.3844917  76.5241750  71.1803801  -3.8261225
  76.5739755  71.0153809  -2.8845703  76.4155674  70.3131060  -4.2163345
  73.8145513  67.1634729  -2.5101919  74.7155375  67.0241194  -2.8017921
  73.8893487  67.3289184  -1.5703741  68.1488318  64.5401584  -3.6648732
  67.2791627  64.8335150  -3.9366144  68.3847798  65.1242029  -2.9441469
  78.0259947  73.6000743  -3.5819204  77.7344755  73.9630723  -2.7455743
  77.4132078  72.8867751  -3.7605872  76.2747135  68.7233357  -5.1139146
  76.7501257  68.9161004  -5.9220294  75.3512701  68.7792543  -5.3595762
  70.8527352  60.7581201  -6.1483312  71.3709296  61.4942228  -6.4736823
  70.4982485  61.0645194  -5.3136553  74.9748804  65.5999117  -6.8810840
  75.9266227  65.6997215  -6.8598616  74.8052255  64.8077386  -6.3712756
  72.9963184  62.6854701  -6.6951439  72.4013116  62.9659713  -7.3904951
  72.7112880  63.1748601  -5.9234698  77.4536882  68.8205237  -7.7668541
  77.4213202  67.8821238  -7.5808857  78.0637506  68.8989274  -8.5002716
  77.6031371  65.6116280  -7.7210257  77.0870419  64.8274737  -7.9080329
  78.4871319  65.2834997  -7.5563738  75.2642097  59.3557296 -11.7614445
  75.0666919  59.0472384 -10.8771113  75.8741803  60.0818935 -11.6316515
  83.2713432  69.8821244  -8.6262504  84.0016820  69.6206532  -8.0654800
  82.6620377  69.1449966  -8.5860436  81.3528729  68.0229106  -8.0288053
  80.6261893  67.8885071  -8.6371561  80.9376016  68.3305935  -7.2231335
  69.1758905  71.7419036  -0.2640680  70.0961915  71.9197635  -0.0700633
  69.1408488  70.7975081  -0.4160980  62.1720978  69.6520071  -7.6217898
  62.3906988  70.5837179  -7.6029865  62.5846752  69.2928045  -6.8363095
  67.0448843  65.2253277   1.7684851  66.9445570  66.1747634   1.6996942
  66.8270385  64.8971515   0.8960921  58.2629330  70.5560541  -9.3694283
  57.5692802  70.1414494  -9.8824329  59.0102321  70.5981078  -9.9660864
  66.9080113  68.6550415   0.5849912  66.4247195  69.4550776   0.7913801
  66.9941052  68.6658360  -0.3682644  62.8353451  72.5454950  -7.3781654
  63.7896704  72.5138892  -7.4451722  62.6365974  72.0845574  -6.5631428
  63.4252833  71.1156066  -4.8110856  64.2445722  71.6100145  -4.7876019
  63.6989641  70.1988034  -4.8393289  76.5333965  63.5313339 -11.7328562
  77.3094355  64.0209792 -11.4603945  75.8082099  63.9571394 -11.2756692
  78.9706524  64.2440959 -10.6754621  79.5651015  64.0036695 -11.3861313
  79.0433108  63.5248089 -10.0481085  61.1903680  78.0874570 -10.3611456
  61.0558148  77.3274970 -10.9273458  60.7735742  78.8115469 -10.8282667
  64.3472805  78.9843887 -10.1493014  64.2305190  79.9289319 -10.2514323
  63.5265252  78.6817448  -9.7607214  58.6787747  65.4494200  -4.1118659
  59.3246611  64.9393154  -3.6231434  58.4704898  66.1862882  -3.5375234
  71.2041139  72.5175047   1.3873481  72.0732299  72.6915700   1.0260116
  70.7247891  73.3369464   1.2649211  65.3727320  79.6372149  -6.9337085
  66.2754566  79.6695759  -6.6170590  65.1464690  78.7072599  -6.9190749
  63.0185238  62.5961817  -0.0143645  63.8816700  62.2398622   0.1959679
  62.4450649  62.2575712   0.6731759  79.3078260  81.7396666  -1.7472202
  78.5311594  82.2990587  -1.7569337  79.9468823  82.2253449  -1.2257332
  76.2985996  81.7021768  -1.3838925  75.6684657  82.3838049  -1.1503528
  76.1922084  81.5904850  -2.3285786  75.5766739  76.0042534   0.9786326
  75.1833685  75.4508732   1.6533971  76.3932879  76.3153112   1.3692844
  78.4934700  77.4200413  -1.4293417  79.2344413  78.0207566  -1.5088955
  78.7252623  76.6778051  -1.9875374  73.6376038  82.6056780  -3.1515187
  73.5229553  81.7042037  -2.8508088  72.7820556  82.8520477  -3.5030371
  80.3186157  77.2024306  -4.2046121  79.6714072  77.9014256  -4.2981644
  81.0887172  77.6360450  -3.8369872  76.1599317  80.5490146  -4.1530025
  75.6236674  80.0980884  -3.5008429  75.5716025  80.6836054  -4.8959561
  71.8938438  79.6846153  -7.0677031  71.8096627  79.0771823  -7.8026621
  71.0721144  80.1755172  -7.0667534  80.3275178  84.0679013  -0.5661546
  79.6515815  83.9673143   0.1040830  81.1502812  83.9118227  -0.1025548
  74.0462454  77.7221091  -5.7282045  74.1103781  78.5835922  -6.1404647
  73.9829574  77.1095092  -6.4609686  73.5214727  79.7944223  -2.0809011
  74.1486765  79.4121301  -1.4671486  72.6642646  79.5758425  -1.7153318
  76.6300830  77.0131075  -3.8922455  77.1535232  77.2593372  -3.1296146
  76.4113163  77.8451110  -4.3119318  71.2720110  83.3988444  -4.1135665
  70.5301846  83.5471080  -3.5271035  70.9512854  83.6596710  -4.9768916
  76.7582784  79.1162129  -0.4195091  76.8070939  79.9924252  -0.8017321
  77.3005298  78.5739522  -0.9923448  78.9882072  79.8693502  -3.6648732
  78.1185382  80.1627068  -3.9366144  79.2241553  80.4533947  -2.9441469
  77.8842598  80.5545194   1.7684851  77.7839325  81.5039551   1.6996942
  77.6664140  80.2263433   0.8960921  77.7473868  83.9842333   0.5849912
  77.2640950  84.7842693   0.7913801  77.8334807  83.9950278  -0.3682644
  69.5181502  80.7786118  -4.1118659  70.1640365  80.2685072  -3.6231434
  69.3098653  81.5154799  -3.5375234  73.8578993  77.9253735  -0.0143645
  74.7210454  77.5690540   0.1959679  73.2844403  77.5867630   0.6731759
  80.3275179  61.0741136 -13.8416239  79.6515816  60.9735265 -13.1713864
  81.1502813  60.9180350 -13.3780242  77.7473869  60.9904456 -12.6904781
  77.2640951  61.7904816 -12.4840892  77.8334808  61.0012401 -13.6437337
   3.0950236 117.8962675  55.7018843   3.6894727 117.6558411  54.9912151
   3.1676820 117.1769806  56.3292379   6.9850730 100.3829473  41.7436022
   6.2314439  99.8136871  41.5880027   7.1198272 100.3492137  42.6906657
   1.0614876 100.5358109  38.8538166   0.9232774 100.7259705  37.9259355
   0.7051095 101.2977492  39.3106217   1.0884256 102.6034636  43.8649437
   1.5220762 102.5109925  44.7132491   1.8015836 102.5792137  43.2269453
   1.9499805 102.6458337  46.3982322   2.1435695 103.5504148  46.6441597
   1.8500423 102.1865756  47.2320908   3.2041868  99.2032004  43.0430226
   3.1931744 100.0856719  42.6724159   2.3359248  98.8503554  42.8484763
   3.8066478 100.3532223  39.6479689   4.2497624  99.6039548  39.2498812
   2.9292988 100.3442359  39.2653421   0.8393683 104.3562270  36.6573618
   1.3645007 104.6949543  35.9322938   0.7516035 103.4209285  36.4736753
   0.6485464 101.8387640  49.2757545   0.6983469 101.6737647  50.2173068
   0.5399387 100.9714899  48.8855426   2.1503661 104.2584582  49.5199567
   1.8588469 104.6214562  50.3563027   1.5375792 103.5451590  49.3412899
   3.3499343 101.8237461  42.0402137   4.1846234 102.2627265  42.2039697
   3.4858472 101.3476115  41.2210383   1.5780596  99.4789076  45.3350230
   1.5456916  98.5405077  45.5209914   2.1881219  99.5573113  44.6016055
   1.7275084  96.2700119  45.3808513   1.2114133  95.4858576  45.1938442
   2.6115033  95.9418836  45.5455032   7.3957145 100.5405083  44.4756267
   8.1260534 100.2790371  45.0363970   6.7864091  99.8033805  44.5158335
   5.4772443  98.6812945  45.0730718   4.7505606  98.5468910  44.4647209
   5.0619729  98.9889774  45.8787436   3.0950237  94.9024798  42.4264149
   3.6894728  94.6620534  41.7157458   3.1676821  94.1831928  43.0537686
   1.0908972  95.4694925  38.6936279   0.8345907  95.0691561  39.5244487
   0.4661840  96.1838719  38.5686418   5.4021310  98.2090998  41.2007571
   4.8420868  98.2784188  41.9739133   4.7964814  98.0331983  40.4807067
   6.9877329 114.8847512  43.8937526   7.6255739 114.7654260  43.1900866
   6.8698172 115.8328356  43.9525478   3.7967035 114.8374940  43.8299051
   3.4585546 114.7216005  42.9419586   4.6656803 114.4366106  43.8100057
   4.2786818 115.9909792  49.7885256   4.2675459 115.5962590  48.9165760
   4.4407457 115.2575865  50.3819028   1.9250286 116.1523753  45.3265800
   2.5213858 115.9279775  44.6122763   1.9825257 115.4108498  45.9291248
   6.5418597 112.6098966  40.9690734   7.3281686 112.1918389  40.6181151
   6.8057301 113.5145058  41.1372383  11.9427024 112.5474199  41.8723713
  12.6752196 111.9773416  42.1061542  11.1866380 112.1595800  42.3130218
   3.5603144 114.9701441  39.0687055   3.1961351 114.4432062  39.7799977
   4.4170260 114.5799910  38.8953541   9.4652445 106.2595774  46.3318321
   9.1335769 107.1291184  46.1079536   8.8698058 105.9432058  47.0112352
   5.9583964 118.4608320  45.7314234   5.6584687 119.3633358  45.6230041
   5.6135024 118.1940503  46.5835387   9.3581108 110.9790860  43.4111671
   8.4497985 110.9106268  43.1170432   9.3068704 111.4562805  44.2393497
   3.4321974 112.3980505  51.3546569   2.6555308 112.9574425  51.3449433
   4.0712537 112.8837288  51.8761439  11.2242754 109.1807298  45.1889545
  10.5817135 109.4739831  44.5429340  10.7197683 109.0660218  45.9942742
   8.8782918 112.9270471  35.8775405   9.7900774 113.1597858  35.7023102
   8.3692565 113.5107515  35.3150483   1.6868346 115.2065959  50.9164536
   2.4283030 115.7451003  50.6399359   0.9805332 115.8332247  51.0736088
   7.1623686 117.3495099  49.5136697   7.5707042 116.9077510  48.7691330
   6.4400947 116.7747727  49.7670890   3.5154756 112.2867706  46.8870254
   4.3615951 112.7107119  47.0304903   3.4553393 111.6301330  47.5808817
   7.4852500 117.9096290  43.2688986   6.8561363 118.0742004  42.5665054
   7.0978162 118.3237899  44.0399950  11.3641732 118.8450728  40.6233350
  10.6792770 119.2249629  40.0730383  11.4485582 119.4546054  41.3565298
   6.6654201 109.9472074  48.5451428   6.4215133 110.7014135  48.0085704
   6.9414132 110.3257422  49.3798675   8.6192664 116.4910687  47.2228693
   8.8309559 117.1342446  46.5463074   8.5722412 115.6573003  46.7550623
   6.2218893 109.1028507  44.1265266   5.3603372 109.4009761  44.4182003
   6.2481327 109.3198906  43.1946298   3.0380462 117.6470698  40.5339071
   3.5018808 117.9258401  39.7443694   2.7737260 116.7454142  40.3512162
   9.7338492 119.3682642  45.3951051  10.5555936 118.9662829  45.1133732
   9.7300895 119.2650876  46.3467167  17.8244485 115.7121391  41.7436022
  17.0708193 115.1428789  41.5880027  17.9592026 115.6784055  42.6906657
   2.6178414 108.0784252  51.6725353   3.3588127 108.6791405  51.5929816
   2.8496336 107.3361890  51.1143396   6.5635576 104.1065355  45.9489635
   6.2199846 104.9966996  45.8728746   6.9314539 103.9167012  45.0859220
   4.1132970 108.9423667  39.5147309   3.2574567 108.5530517  39.3352947
   4.5259922 109.0215627  38.6547094   5.6432117 106.4770010  43.9138868
   5.1396912 106.4400145  43.1006674   5.9362724 107.3862753  43.9735525
   1.8875003 106.5608740  42.9205050   2.7527999 106.3651548  42.5610939
   1.9552512 106.3319091  43.8474407  11.5020133 116.8506320  36.3915244
  10.7249576 116.5117480  35.9470406  12.1811614 116.8558944  35.7170209
   6.3172162 111.9701058  36.2821851   6.0122298 112.2847207  37.1331995
   7.2702604 112.0482478  36.3249184   9.7411440 116.3240302  43.0481852
   9.0835115 117.0139563  43.1361980  10.5451839 116.7136734  43.3915838
   8.5516899 114.6784674  41.0985793   9.0648781 115.3114666  41.6007503
   9.2018123 114.0785870  40.7329153   1.7959990 105.6652196  39.0196486
   1.1424402 105.3501214  38.3953101   1.7540464 105.0427937  39.7456309
   5.0297730 112.1534130  43.3444134   4.1120291 112.3749077  43.1865822
   5.4457873 112.2280440  42.4855841   5.8132778 113.5525546  38.4746814
   6.5604597 114.0646943  38.1653936   6.0824367 113.2309598  39.3351208
   9.3178695 119.6590676  39.2264936   8.8641022 118.8181586  39.2830126
   8.6872662 120.2952074  39.5639716   8.2611615 110.5882662  40.4565603
   7.5234372 110.0760048  40.7875846   8.5138388 110.1483043  39.6448880
   8.3623242 103.3658914  41.0507373   8.6682119 102.5056277  40.7633288
   9.0875847 103.9576534  40.8506367   2.6344322 113.6612707  41.5583564
   2.6892932 112.7086543  41.4826040   1.8235524 113.8172146  42.0424862
   6.1710893 112.7431591  48.1488837   6.5260281 112.9703064  49.0083302
   6.8183025 113.0749968  47.5266092  11.9008630 115.8650027  38.8538166
  11.7626529 116.0551623  37.9259355  11.5444849 116.6269410  39.3106217
  11.9278010 117.9326554  43.8649437  12.3614517 117.8401843  44.7132491
  12.6409591 117.9084055  43.2269453  12.7893560 117.9750255  46.3982322
  12.9829450 118.8796065  46.6441597  12.6894178 117.5157674  47.2320908
   4.4429870 107.8608145  48.8972650   3.7957785 108.5598095  48.8037126
   5.2130886 108.2944289  49.2648898   7.8508668 118.1256997  51.9723203
   7.6994175 117.8967549  51.0553287   7.8413348 119.0827599  51.9854548
   4.6194005 115.6988910  46.9569470   5.5486065 115.8500070  46.7838437
   4.1985035 115.7872931  46.1018116   1.5714096 114.2208767  47.1293106
   2.2813715 113.5801959  47.0879724   1.5283404 114.4721662  48.0519287
   9.5618282 119.1215704  48.2813665   8.6745061 118.7841626  48.4040064
  10.1316833 118.3898735  48.5182430   6.1905865 108.8283556  41.4011935
   6.6874565 108.0753518  41.0813005   5.4192847 108.8647872  40.8355144
  14.0435623 114.5323921  43.0430226  14.0325499 115.4148637  42.6724159
  13.1753002 114.1795472  42.8484763   7.2735646 117.5855243  38.9750358
   6.3391925 117.7056705  38.8055062   7.4512314 116.6827710  38.7110368
   2.7740834 110.9700939  41.1283619   2.4038622 110.4171979  41.8164525
   3.2699926 110.3659072  40.5758619  10.6608197 113.4272562  39.5100392
  11.1268650 114.2600554  39.4360695  11.1115698 112.9617544  40.2145651
   8.7284428 119.7716384  36.5086544   9.0044272 119.6572978  37.4180418
   7.8588927 119.3733868  36.4698717   8.6324860 105.7953149  43.5491294
   7.7187940 106.0257376  43.7173501   9.0617962 105.8791593  44.4005326
   8.4031319 113.9843041  46.0491188   7.7502769 114.2318949  45.3943640
   8.7811698 113.1707179  45.7153665   4.4518892 114.7262852  52.5357225
   3.7759529 114.6256982  53.2059600   5.2746525 114.5702066  52.9993222
   0.7544543 107.6714914  49.2096315   1.2778945 107.9177211  49.9722624
   0.5356877 108.5034949  48.7899452   1.9597089 108.6128609  46.8945985
   1.6193909 107.8136422  47.2966665   1.2536095 108.9130320  46.3222819
   2.6113560 105.6977922  45.3473308   3.4339630 105.2238400  45.2252199
   2.8551624 106.4768406  45.8471995   5.3952918 109.4311329  36.5794542
   5.6116532 110.3135967  36.2783371   4.9146985 109.0397543  35.8500184
   1.9948522 109.3799590  43.2046177   1.9810091 108.4840684  42.8678475
   2.7120950 109.3870254  43.8384463   3.8474653 109.8136931  45.2499304
   3.5892431 110.7354001  45.2483634   3.3159693 109.4167365  45.9399768
   1.3985418 108.2613971  38.4733747   1.5201329 107.3330617  38.6724634
   1.1087460 108.2752657  37.5612062   4.2676608 105.9468881  41.6100467
   4.2898305 106.0108214  40.6552446   4.6844667 105.1073390  41.8040973
  14.6460233 115.6824141  39.6479689  15.0891379 114.9331466  39.2498812
  13.7686743 115.6734277  39.2653421  11.6787437 119.6854188  36.6573618
  12.2038761 120.0241460  35.9322938  11.5909790 118.7501203  36.4736753
   0.8826497 109.7745968  52.6823679   0.9314653 110.6508091  52.3001449
   1.4249012 109.2323361  52.1095323  11.3681343 120.3187091  51.9624816
  10.5776887 120.3011230  51.4229316  11.1314698 120.8575385  52.7173853
  11.4879218 117.1679558  49.2757545  11.5377223 117.0029565  50.2173068
  11.3793142 116.3006817  48.8855426   8.7782981 113.1510486  50.5916852
   9.6792843 113.0116951  50.3000849   8.8530955 113.3164941  51.5315029
   3.1125786 110.5277340  49.4370038   2.2429095 110.8210907  49.1652627
   3.3485266 111.1117785  50.1577302  12.9897415 119.5876499  49.5199567
  12.6982223 119.9506480  50.3563027  12.3769546 118.8743508  49.3412899
  14.1893097 117.1529379  42.0402137  15.0239989 117.5919183  42.2039697
  14.3252226 116.6768032  41.2210383  11.2384603 114.7109114  47.9879624
  11.7138725 114.9036760  47.1798476  10.3150169 114.7668300  47.7423008
   5.8164820 106.7456957  46.9535458   6.3346764 107.4817984  46.6281947
   5.4619953 107.0520951  47.7882218   6.0677414 103.1657240  42.4736355
   6.3479168 102.4980429  43.0996782   6.8528021 103.3586336  41.9611019
   9.9386272 111.5874874  46.2207930  10.8903695 111.6872972  46.2420154
   9.7689723 110.7953142  46.7306014   7.9600652 108.6730457  46.4067331
   7.3650584 108.9535470  45.7113820   7.6750348 109.1624358  47.1784072
  12.4174350 114.8080994  45.3350230  12.3850670 113.8696994  45.5209914
  13.0274974 114.8865030  44.6016055  12.5668839 111.5992037  45.3808513
  12.0507887 110.8150494  45.1938442  13.4508787 111.2710754  45.5455032
  10.2279565 105.3433053  41.3404326  10.0304387 105.0348141  42.2247658
  10.8379271 106.0694692  41.4702255  18.2350900 115.8697000  44.4756267
  18.9654288 115.6082289  45.0363970  17.6257845 115.1325722  44.5158335
  16.3166197 114.0104863  45.0730718  15.5899361 113.8760828  44.4647209
  15.9013484 114.3181692  45.8787436   4.1396373 117.7294793  52.8378091
   5.0599383 117.9073392  53.0318137   4.1045956 116.7850838  52.6857790
   4.0562664 106.1463913  37.4676560   3.2463392 105.8010998  37.8431806
   4.7447081 105.8371456  38.0564172   5.9853212 105.2241960  39.0900857
   6.5384251 105.6437413  39.7490880   6.2223298 104.2977708  39.1323813
   2.0086311 111.2129033  54.8703621   1.9083038 112.1623390  54.8015712
   1.7907853 110.8847272  53.9979691   9.3632019 107.3342485  38.5979521
   8.7830688 107.9927289  38.2157574   9.0967952 106.5119829  38.1866939
   7.8135586 106.7347542  40.8000842   8.3135364 106.8464077  39.9915160
   8.4571193 106.4308595  41.4401650   1.8717581 114.6426172  53.6868683
   1.3884663 115.4426532  53.8932572   1.9578520 114.6534117  52.7336127
   8.1456897 109.4942575  37.6535869   7.2582752 109.7792226  37.4356064
   8.5610886 109.3336338  36.8063146  11.4971433 109.5189096  41.3690209
  12.2731823 110.0085548  41.6414826  10.7719567 109.9447150  41.8262078
  13.9343992 110.2316715  42.4264149  14.5288483 109.9912451  41.7157458
  14.0070576 109.5123846  43.0537686   8.1197921 115.0097111  37.8686160
   8.0633122 115.4665662  37.0293792   8.6726263 114.2487796  37.6909002
  11.9302727 110.7986843  38.6936279  11.6739661 110.3983479  39.5244487
  11.3055595 111.5130637  38.5686418  16.2415065 113.5382916  41.2007571
  15.6814623 113.6076105  41.9739133  15.6358568 113.3623901  40.4807067
   8.8532700 116.2001892  35.1638689   8.7981504 116.0346164  34.2227133
   8.2278756 116.9077925  35.3200879   6.1678607 118.5050804  54.4892252
   7.0369767 118.6791456  54.1278887   5.6885359 119.3245221  54.3667981
   2.1628826 105.7010001  34.7424007   2.1507496 106.6451841  34.8992278
   3.0552248 105.5180147  34.4483468   5.9780945 102.2952778  38.9969944
   5.2113341 101.7411265  39.1426626   6.3891650 102.3674647  39.8584096
  20.3046199 121.5887691  46.3318321  19.9729524 122.4583102  46.1079536
  19.7091813 121.2723975  47.0112352  22.0636509 124.5099216  45.1889545
  21.4210889 124.8031749  44.5429340  21.5591437 124.3952136  45.9942742
  17.4029331 119.4357272  45.9489635  17.0593600 120.3258914  45.8728746
  17.7708294 119.2458930  45.0859220  16.4825871 121.8061928  43.9138868
  15.9790667 121.7692063  43.1006674  16.7756478 122.7154670  43.9735525
  12.7268757 121.8900657  42.9205050  13.5921754 121.6943466  42.5610939
  12.7946266 121.6611009  43.8474407  12.6353744 120.9944114  39.0196486
  11.9818156 120.6793131  38.3953101  12.5934218 120.3719855  39.7456309
  19.2016997 118.6950832  41.0507373  19.5075873 117.8348195  40.7633288
  19.9269601 119.2868452  40.8506367  19.4718615 121.1245067  43.5491294
  18.5581694 121.3549294  43.7173501  19.9011716 121.2083511  44.4005326
  13.4507315 121.0269839  45.3473308  14.2733384 120.5530318  45.2252199
  13.6945378 121.8060323  45.8471995  15.1070363 121.2760799  41.6100467
  15.1292060 121.3400132  40.6552446  15.5238422 120.4365307  41.8040973
  16.6558574 122.0748875  46.9535458  17.1740518 122.8109902  46.6281947
  16.3013707 122.3812868  47.7882218  16.9071168 118.4949158  42.4736355
  17.1872922 117.8272347  43.0996782  17.6921775 118.6878253  41.9611019
  21.0673320 120.6724970  41.3404326  20.8698141 120.3640058  42.2247658
  21.6773026 121.3986609  41.4702255  14.8956418 121.4755830  37.4676560
  14.0857147 121.1302915  37.8431806  15.5840835 121.1663374  38.0564172
  16.8246967 120.5533877  39.0900857  17.3778005 120.9729331  39.7490880
  17.0617053 119.6269625  39.1323813  20.2025774 122.6634402  38.5979521
  19.6224443 123.3219206  38.2157574  19.9361706 121.8411747  38.1866939
  18.6529340 122.0639460  40.8000842  19.1529118 122.1755995  39.9915160
  19.2964948 121.7600513  41.4401650  24.7737746 125.5608633  42.4264149
  25.3682237 125.3204369  41.7157458  24.8464330 124.8415763  43.0537686
  13.0022580 121.0301919  34.7424007  12.9901250 121.9743759  34.8992278
  13.8946002 120.8472064  34.4483468  16.8174700 117.6244696  38.9969944
  16.0507095 117.0703182  39.1426626  17.2285405 117.6966564  39.8584096
   6.9850732  77.3891595  28.4681329   6.2314440  76.8198993  28.3125333
   7.1198273  77.3554260  29.4151964   1.0614877  77.5420232  25.5783472
   0.9232776  77.7321828  24.6504661   0.7051096  78.3039615  26.0351523
   1.0884257  79.6096759  30.5894744   1.5220763  79.5172048  31.4377798
   1.8015837  79.5854259  29.9514760   1.9499806  79.6520460  33.1227629
   2.1435696  80.5566270  33.3686904   1.8500424  79.1927879  33.9566214
   3.2041869  76.2094126  29.7675533   3.1931746  77.0918842  29.3969466
   2.3359249  75.8565677  29.5730070   3.8066479  77.3594346  26.3724996
   4.2497625  76.6101671  25.9744119   2.9292990  77.3504482  25.9898728
   0.8393684  81.3624393  23.3818925   1.3645008  81.7011665  22.6568245
   0.7516036  80.4271408  23.1982060   0.6485465  78.8449763  36.0002852
   0.6983470  78.6799770  36.9418374   0.5399388  77.9777022  35.6100732
   2.1503662  81.2646704  36.2444873   1.8588470  81.6276685  37.0808334
   1.5375793  80.5513712  36.0658205   3.3499344  78.8299584  28.7647443
   4.1846235  79.2689388  28.9285004   3.4858473  78.3538237  27.9455689
   1.5780597  76.4851199  32.0595536   1.5456917  75.5467199  32.2455220
   2.1881220  76.5635235  31.3261361   1.7275085  73.2762242  32.1053820
   1.2114134  72.4920699  31.9183748   2.6115034  72.9480959  32.2700339
   7.3957147  77.5467205  31.2001573   8.1260535  77.2852494  31.7609277
   6.7864092  76.8095927  31.2403641   5.4772444  75.6875068  31.7976024
   4.7505607  75.5531033  31.1892516   5.0619731  75.9951897  32.6032742
   3.0950239  71.9086920  29.1509456   3.6894730  71.6682656  28.4402764
   3.1676822  71.1894051  29.7782992   1.0908974  72.4757048  25.4181586
   0.8345908  72.0753683  26.2489793   0.4661842  73.1900842  25.2931725
   5.4021311  75.2153121  27.9252877   4.8420869  75.2846310  28.6984439
   4.7964815  75.0394106  27.2052373   6.9877330  91.8909635  30.6182833
   7.6255740  91.7716382  29.9146173   6.8698173  92.8390479  30.6770785
   3.7967036  91.8437063  30.5544358   3.4585548  91.7278128  29.6664892
   4.6656804  91.4428228  30.5345364   4.2786819  92.9971915  36.5130563
   4.2675460  92.6024713  35.6411067   4.4407459  92.2637987  37.1064335
   0.9994080  95.7809027  35.4609747   0.7083946  96.6854657  35.3456413
   1.6351065  95.8225554  36.1753817   1.9250287  93.1585875  32.0511107
   2.5213859  92.9341898  31.3368070   1.9825259  92.4170621  32.6536555
   6.5418598  89.6161089  27.6936041   7.3281688  89.1980512  27.3426458
   6.8057303  90.5207181  27.8617689  11.9427026  89.5536322  28.5969019
  12.6752197  88.9835539  28.8306849  11.1866381  89.1657922  29.0375525
   3.5603145  91.9763563  25.7932362   3.1961352  91.4494184  26.5045283
   4.4170261  91.5862033  25.6198847   9.4652446  83.2657896  33.0563628
   9.1335771  84.1353307  32.8324843   8.8698059  82.9494180  33.7357658
   5.9583965  95.4670442  32.4559541   5.6584689  96.3695481  32.3475348
   5.6135025  95.2002625  33.3080694   9.3581109  87.9852982  30.1356978
   8.4497987  87.9168391  29.8415739   9.3068705  88.4624927  30.9638804
   3.4321975  89.4042628  38.0791875   2.6555309  89.9636548  38.0694740
   4.0712538  89.8899411  38.6006746  11.2242756  86.1869421  31.9134852
  10.5817136  86.4801954  31.2674647  10.7197684  86.0722341  32.7188049
   8.8782919  89.9332594  22.6020711   9.7900775  90.1659981  22.4268409
   8.3692566  90.5169638  22.0395790   1.6868347  92.2128081  37.6409842
   2.4283032  92.7513125  37.3644666   0.9805333  92.8394370  37.7981394
   7.1623687  94.3557222  36.2382004   7.5707043  93.9139632  35.4936636
   6.4400948  93.7809849  36.4916197   3.5154757  89.2929828  33.6115561
   4.3615952  89.7169242  33.7550210   3.4553395  88.6363453  34.3054124
   7.4852502  94.9158412  29.9934293   6.8561364  95.0804126  29.2910361
   7.0978164  95.3300022  30.7645257  11.3641733  95.8512850  27.3478657
  10.6792772  96.2311752  26.7975690  11.4485583  96.4608177  28.0810604
   6.6654202  86.9534197  35.2696734   6.4215134  87.7076257  34.7331010
   6.9414133  87.3319544  36.1043982   8.6192665  93.4972809  33.9474000
   8.8309560  94.1404569  33.2708381   8.5722413  92.6635126  33.4795930
   6.2218894  86.1090630  30.8510572   5.3603373  86.4071883  31.1427310
   6.2481329  86.3261029  29.9191605   3.0380463  94.6532820  27.2584378
   3.5018809  94.9320523  26.4689000   2.7737262  93.7516265  27.0757469
   9.7338493  96.3744765  32.1196357  10.5555937  95.9724952  31.8379039
   9.7300896  96.2712999  33.0712473   3.4995096  95.9228808  34.2757068
   3.5639529  96.3849215  35.1115240   2.7906020  95.2926173  34.4039378
  17.8244486  92.7183513  28.4681329  17.0708194  92.1490911  28.3125333
  17.9592027  92.6846178  29.4151964   2.6178415  85.0846374  38.3970660
   3.3588128  85.6853527  38.3175122   2.8496338  84.3424012  37.8388703
   4.8411591  98.2120482  38.2736390   4.3975445  97.4256860  37.9557295
   5.5028804  98.3999632  37.6080281   6.9392829  98.4923282  36.3017792
   6.9211304  99.3132163  35.8098061   7.8612749  98.3677357  36.5267933
   3.3965883  96.0067411  37.1441300   3.9294220  95.2455700  36.9140608
   2.8679964  95.7141063  37.8865454   6.5635578  81.1127477  32.6734942
   6.2199847  82.0029119  32.5974052   6.9314540  80.9229135  31.8104527
   4.1132971  85.9485789  26.2392615   3.2574568  85.5592640  26.0598254
   4.5259923  86.0277750  25.3792401   5.6432118  83.4832132  30.6384175
   5.1396914  83.4462268  29.8251980   5.9362725  84.3924875  30.6980832
   1.8875004  83.5670862  29.6450357   2.7528001  83.3713671  29.2856246
   1.9552513  83.3381214  30.5719713  11.5020135  93.8568443  23.1160550
  10.7249577  93.5179603  22.6715712  12.1811616  93.8621066  22.4415515
   6.3172164  88.9763180  23.0067158   6.0122299  89.2909330  23.8577301
   7.2702606  89.0544600  23.0494491   9.7411441  93.3302424  29.7727158
   9.0835116  94.0201686  29.8607287  10.5451841  93.7198856  30.1161145
   8.5516900  91.6846797  27.8231100   9.0648782  92.3176789  28.3252810
   9.2018124  91.0847992  27.4574460   1.7959991  82.6714319  25.7441793
   1.1424403  82.3563336  25.1198408   1.7540465  82.0490059  26.4701616
   5.0297731  89.1596253  30.0689441   4.1120292  89.3811200  29.9111129
   5.4457875  89.2342563  29.2101148   5.8132779  90.5587668  25.1992121
   6.5604598  91.0709065  24.8899243   6.0824368  90.2371721  26.0596514
   9.3178696  96.6652798  25.9510243   8.8641024  95.8243708  26.0075433
   8.6872663  97.3014197  26.2885023   8.2611616  87.5944784  27.1810910
   7.5234373  87.0822171  27.5121153   8.5138390  87.1545166  26.3694187
   7.7611636  98.5029295  26.8860061   8.0534610  99.0634352  26.1672426
   8.2710256  98.7957856  27.6413220   8.3623243  80.3721036  27.7752679
   8.6682120  79.5118400  27.4878594   9.0875848  80.9638657  27.5751673
   2.6344323  90.6674830  28.2828870   2.6892933  89.7148666  28.2071347
   1.8235525  90.8234269  28.7670169   6.1710895  89.7493714  34.8734143
   6.5260282  89.9765187  35.7328609   6.8183026  90.0812091  34.2511398
  11.9008632  92.8712150  25.5783472  11.7626530  93.0613746  24.6504661
  11.5444850  93.6331532  26.0351523  11.9278011  94.9388677  30.5894744
  12.3614518  94.8463966  31.4377798  12.6409592  94.9146177  29.9514760
   5.6605906  98.5390771  32.1227844   5.7142928  99.1081707  32.8905560
   4.7920688  98.7092656  31.7581881  12.7893561  94.9812377  33.1227629
  12.9829451  95.8858188  33.3686904  12.6894179  94.5219796  33.9566214
   4.4429872  84.8670268  35.6217956   3.7957787  85.5660218  35.5282433
   5.2130887  85.3006412  35.9894205   7.8508669  95.1319120  38.6968510
   7.6994176  94.9029672  37.7798593   7.8413349  96.0889721  38.7099855
   4.6194006  92.7051033  33.6814776   5.5486066  92.8562192  33.5083743
   4.1985036  92.7935054  32.8263423   3.4182338  96.7301697  31.4513314
   3.2793423  96.3620482  32.3239252   2.6296934  97.2449337  31.2797272
   4.9687553  96.1083300  28.8402152   4.6337385  96.0684070  29.7359801
   4.4691499  95.4428016  28.3672562   1.5714097  91.2270889  33.8538412
   2.2813716  90.5864081  33.8125031   1.5283406  91.4783784  34.7764593
   9.5600876  98.1638243  36.7744992   9.5013422  97.4797463  36.1075575
   9.9620395  98.9057233  36.3225618   9.5618283  96.1277827  35.0058971
   8.6745062  95.7903748  35.1285370  10.1316834  95.3960858  35.2427737
   3.0919437 100.7879279  31.9720214   3.0189608 101.5934250  32.4839519
   2.6496830 100.9871245  31.1468236   6.1905867  85.8345678  28.1257241
   6.6874566  85.0815641  27.8058312   5.4192848  85.8709995  27.5600451
  14.0435624  91.5386044  29.7675533  14.0325500  92.4210759  29.3969466
  13.1753003  91.1857595  29.5730070   5.5518120 100.6866113  34.1278373
   6.2646093 101.3213578  34.0554275   5.0608149 100.7829979  33.3118375
   7.2735647  94.5917366  25.6995665   6.3391926  94.7118828  25.5300369
   7.4512316  93.6889832  25.4355675   2.7740835  87.9763061  27.8528926
   2.4038623  87.4234102  28.5409832   3.2699928  87.3721195  27.3003926
  10.6608199  90.4334685  26.2345699  11.1268651  91.2662676  26.1606002
  11.1115699  89.9679666  26.9390957   8.7284430  96.7778506  23.2331851
   9.0044274  96.6635101  24.1425725   7.8588928  96.3795991  23.1944024
   8.6324861  82.8015272  30.2736600   7.7187941  83.0319499  30.4418807
   9.0617963  82.8853716  31.1250633   8.4031320  90.9905164  32.7736494
   7.7502770  91.2381071  32.1188947   8.7811700  90.1769302  32.4398972
   4.4518893  91.7324975  39.2602531   3.7759530  91.6319104  39.9304907
   5.2746527  91.5764189  39.7238529   3.1941676 103.0391902  33.4960147
   3.7459984 103.2023524  34.2609233   3.5347869 103.6296340  32.8240172
   8.0452550  97.8653160  39.3508802   8.5892454  98.4783118  38.8563757
   7.4639395  98.4232738  39.8675815   6.3310063 100.9873878  30.4823830
   6.2061202 100.1863618  29.9734775   6.9889154 101.4820071  29.9937800
   8.3944971  98.7882898  32.1103380   7.4475307  98.6688249  32.0381706
   8.7427744  97.9005396  32.1929641   0.7544545  84.6777037  35.9341622
   1.2778947  84.9239333  36.6967931   0.5356878  85.5097072  35.5144759
   5.3991405  98.5835614  28.3107732   5.2516367  97.6552322  28.4915302
   6.2244898  98.6055705  27.8264807   9.0025527  99.4064173  29.3972605
   9.9272074  99.2007034  29.2597056   8.8340830  99.1580574  30.3061946
   1.9597090  85.6190732  33.6191292   1.6193910  84.8198545  34.0211972
   1.2536096  85.9192443  33.0468125   2.6113562  82.7040044  32.0718615
   3.4339631  82.2300523  31.9497505   2.8551625  83.4830528  32.5717301
   5.3952919  86.4373452  23.3039849   5.6116533  87.3198090  23.0028677
   4.9146986  86.0459665  22.5745491   1.9948523  86.3861713  29.9291483
   1.9810092  85.4902806  29.5923781   2.7120951  86.3932377  30.5629769
   3.8474654  86.8199053  31.9744611   3.5892432  87.7416124  31.9728941
   3.3159694  86.4229488  32.6645075   8.7920843  99.9249840  24.7534696
   8.9657720  99.3596263  24.0008549   9.2849734 100.7250735  24.5714186
   1.3985419  85.2676093  25.1979053   1.5201330  84.3392739  25.3969941
   1.1087462  85.2814779  24.2857369   4.2676610  82.9531004  28.3345773
   4.2898306  83.0170337  27.3797753   4.6844669  82.1135512  28.5286279
  14.6460234  92.6886263  26.3724996  15.0891380  91.9393588  25.9744119
  13.7686744  92.6796400  25.9898728  11.6787438  96.6916310  23.3818925
  12.2038762  97.0303583  22.6568245  11.5909791  95.7563326  23.1982060
   3.3407487 100.6050384  35.5108802   3.6494613 100.3599531  36.3831501
   4.1382969 100.8097022  35.0227672   0.8826499  86.7808091  39.4068986
   0.9314654  87.6570213  39.0246756   1.4249013  86.2385484  38.8340629
  11.3681344  97.3249214  38.6870123  10.5776888  97.3073353  38.1474622
  11.1314699  97.8637508  39.4419160  11.4879219  94.1741680  36.0002852
  11.5377224  94.0091688  36.9418374  11.3793143  93.3068939  35.6100732
   8.7782982  90.1572608  37.3162158   9.6792845  90.0179073  37.0246156
   8.8530956  90.3227063  38.2560336   3.1125787  87.5339463  36.1615345
   2.2429097  87.8273029  35.8897933   3.3485268  88.1179908  36.8822608
  12.9897416  96.5938622  36.2444873  12.6982225  96.9568602  37.0808334
  12.3769548  95.8805630  36.0658205  14.1893099  94.1591502  28.7647443
  15.0239990  94.5981306  28.9285004  14.3252227  93.6830155  27.9455689
  11.2384605  91.7171236  34.7124931  11.7138726  91.9098883  33.9043783
  10.3150170  91.7730422  34.4668315   5.8164821  83.7519080  33.6780765
   6.3346765  84.4880107  33.3527254   5.4619954  84.0583073  34.5127524
   6.0677415  80.1719363  29.1981662   6.3479169  79.5042552  29.8242088
   6.8528022  80.3648458  28.6856325   9.9386274  88.5936997  32.9453237
  10.8903696  88.6935094  32.9665461   9.7689724  87.8015265  33.4551321
   7.9600653  85.6792580  33.1312638   7.3650585  85.9597592  32.4359126
   7.6750350  86.1686481  33.9029379  12.4174351  91.8143116  32.0595536
  12.3850671  90.8759117  32.2455220  13.0274975  91.8927153  31.3261361
  12.5668840  88.6054160  32.1053820  12.0507888  87.8212616  31.9183748
  13.4508788  88.2772876  32.2700339  10.2279567  82.3495175  28.0649632
  10.0304388  82.0410263  28.9492964  10.8379272  83.0756814  28.1947562
  18.2350901  92.8759123  31.2001573  18.9654290  92.6144411  31.7609277
  17.6257847  92.1387845  31.2403641  16.3166198  91.0166986  31.7976024
  15.5899362  90.8822951  31.1892516  15.9013485  91.3243814  32.6032742
   4.1396375  94.7356915  39.5623397   5.0599384  94.9135514  39.7563444
   4.1045958  93.7912961  39.4103097   4.0562665  83.1526035  24.1921867
   3.2463393  82.8073120  24.5677113   4.7447082  82.8433579  24.7809479
   5.9853213  82.2304082  25.8146164   6.5384252  82.6499536  26.4736187
   6.2223300  81.3039830  25.8569120   2.0086313  88.2191156  41.5948928
   1.9083039  89.1685513  41.5261019   1.7907855  87.8909395  40.7224998
   9.3632020  84.3404607  25.3224828   8.7830689  84.9989411  24.9402880
   9.0967953  83.5181952  24.9112245   7.8135587  83.7409665  27.5246148
   8.3135365  83.8526199  26.7160467   8.4571195  83.4370718  28.1646957
   1.8717583  91.6488295  40.4113989   1.3884664  92.4488655  40.6177878
   1.9578522  91.6596239  39.4581433   8.1456898  86.5004698  24.3781176
   7.2582753  86.7854348  24.1601371   8.5610888  86.3398461  23.5308453
  11.4971435  86.5251219  28.0935515  12.2731825  87.0147671  28.3660132
  10.7719569  86.9509273  28.5507385  13.9343993  87.2378838  29.1509456
  14.5288484  86.9974574  28.4402764  14.0070577  86.5185968  29.7782992
   8.1197922  92.0159234  24.5931466   8.0633124  92.4727785  23.7539099
   8.6726265  91.2549918  24.4154309  11.9302728  87.8048965  25.4181586
  11.6739662  87.4045601  26.2489793  11.3055596  88.5192759  25.2931725
  16.2415066  90.5445039  27.9252877  15.6814624  90.6138228  28.6984439
  15.6358569  90.3686023  27.2052373   8.8532702  93.2064015  21.8883995
   8.7981505  93.0408286  20.9472440   8.2278757  93.9140048  22.0446185
   6.1678609  95.5112927  41.2137558   7.0369768  95.6853579  40.8524193
   5.6885360  96.3307344  41.0913288   2.1628827  82.7072124  21.4669314
   2.1507497  83.6513964  21.6237585   3.0552249  82.5242269  21.1728775
   5.9780946  79.3014900  25.7215251   5.2113342  78.7473387  25.8671933
   6.3891651  79.3736769  26.5829402  17.8271084 107.2201553  30.6182833
  18.4649494 107.1008300  29.9146173  17.7091927 108.1682397  30.6770785
  14.6360791 107.1728981  30.5544358  14.2979302 107.0570045  29.6664892
  15.5050559 106.7720146  30.5345364  15.1180574 108.3263832  36.5130563
  15.1069214 107.9316631  35.6411067  15.2801213 107.5929905  37.1064335
  11.8387835 111.1100944  35.4609747  11.5477701 112.0146575  35.3456413
  12.4744819 111.1517472  36.1753817  12.7644042 108.4877793  32.0511107
  13.3607614 108.2633815  31.3368070  12.8219013 107.7462538  32.6536555
  17.3812353 104.9453006  27.6936041  18.1675442 104.5272430  27.3426458
  17.6451057 105.8499099  27.8617689  22.7820780 104.8828240  28.5969019
  23.5145952 104.3127456  28.8306849  22.0260136 104.4949840  29.0375525
  14.3996900 107.3055481  25.7932362  14.0355107 106.7786102  26.5045283
  15.2564016 106.9153950  25.6198847  20.3046200  98.5949814  33.0563628
  19.9729525  99.4645225  32.8324843  19.7091814  98.2786098  33.7357658
  16.7977720 110.7962360  32.4559541  16.4978443 111.6987399  32.3475348
  16.4528779 110.5294543  33.3080694  10.2490201 107.2476157  28.4896245
   9.3240698 107.1152371  28.6973937  10.4974615 108.0270376  28.9866188
  20.1974864 103.3144900  30.1356978  19.2891741 103.2460308  29.8415739
  20.1462459 103.7916845  30.9638804  14.2715729 104.7334546  38.0791875
  13.4949064 105.2928466  38.0694740  14.9106293 105.2191329  38.6006746
  22.0636510 101.5161338  31.9134852  21.4210890 101.8093872  31.2674647
  21.5591439 101.4014259  32.7188049  19.7176674 105.2624512  22.6020711
  20.6294530 105.4951898  22.4268409  19.2086321 105.8461556  22.0395790
  12.5262102 107.5419999  37.6409842  13.2676786 108.0805043  37.3644666
  11.8199087 108.1686288  37.7981394  18.0017441 109.6849139  36.2382004
  18.4100797 109.2431550  35.4936636  17.2794703 109.1101767  36.4916197
  14.3548511 104.6221746  33.6115561  15.2009707 105.0461160  33.7550210
  14.2947149 103.9655370  34.3054124  18.3246256 110.2450330  29.9934293
  17.6955119 110.4096044  29.2910361  17.9371918 110.6591940  30.7645257
  22.2035488 111.1804768  27.3478657  21.5186526 111.5603669  26.7975690
  22.2879337 111.7900095  28.0810604  17.5047957 102.2826115  35.2696734
  17.2608889 103.0368175  34.7331010  17.7807887 102.6611462  36.1043982
  19.4586420 108.8264727  33.9474000  19.6703315 109.4696487  33.2708381
  19.4116168 107.9927043  33.4795930  17.0612649 101.4382548  30.8510572
  16.1997128 101.7363801  31.1427310  17.0875083 101.6552946  29.9191605
  13.8774218 109.9824738  27.2584378  14.3412563 110.2612441  26.4689000
  13.6131016 109.0808183  27.0757469  10.7698299 109.5296220  30.1964141
  11.3399656 109.9583488  29.5581626  11.3606411 109.2478804  30.8948327
  11.2623466 104.6959647  38.4425152  10.6322126 105.3775928  38.6760549
  11.1559553 104.5842729  37.4978291  20.5732248 111.7036682  32.1196357
  21.3949691 111.3016870  31.8379039  20.5694650 111.6004916  33.0712473
  14.3388851 111.2520726  34.2757068  14.4033283 111.7141133  35.1115240
  13.6299775 110.6218091  34.4039378   4.8406141 104.6161934  31.8006067
   5.0914179 105.5008943  32.0663643   5.3765689 104.4366535  31.0281159
  28.6638241 108.0475431  28.4681329  27.9101949 107.4782829  28.3125333
  28.7985782 108.0138095  29.4151964  10.5404208  98.9980413  40.8050403
  10.1471154  98.4446611  41.4798048  11.3570349  99.3090991  41.1956921
  13.4572169 100.4138292  38.3970660  14.1981883 101.0145445  38.3175122
  13.6890092  99.6715930  37.8388703   8.6013507 105.5994659  36.6748890
   8.4867022 104.6979917  36.9755989   7.7458025 105.8458356  36.3233706
  15.6805345 113.5412400  38.2736390  15.2369199 112.7548778  37.9557295
  16.3422559 113.7291550  37.6080281  10.4392466 115.0708201  32.7997069
  10.9899891 114.9425265  32.0274063   9.6003942 115.3703090  32.4491962
  17.7786583 113.8215200  36.3017792  17.7605058 114.6424081  35.8098061
  18.7006503 113.6969275  36.5267933  14.2359637 111.3359329  37.1441300
  14.7687974 110.5747617  36.9140608  13.7073718 111.0432981  37.8865454
  17.4029332  96.4419395  32.6734942  17.0593602  97.3321037  32.5974052
  17.7708295  96.2521053  31.8104527  14.9526726 101.2777707  26.2392615
  14.0968322 100.8884557  26.0598254  15.3653678 101.3569668  25.3792401
  16.4825873  98.8124050  30.6384175  15.9790668  98.7754185  29.8251980
  16.7756479  99.7216793  30.6980832  12.7268758  98.8962780  29.6450357
  13.5921755  98.7005589  29.2856246  12.7946267  98.6673132  30.5719713
  22.3413889 109.1860361  23.1160550  21.5643332 108.8471520  22.6715712
  23.0205370 109.1912984  22.4415515  17.1565918 104.3055098  23.0067158
  16.8516054 104.6201247  23.8577301  18.1096360 104.3836518  23.0494491
  20.5805196 108.6594342  29.7727158  19.9228870 109.3493603  29.8607287
  21.3845595 109.0490774  30.1161145  10.3331078 101.1264988  27.0166723
  10.9074829 100.9040169  26.2839916  10.9202060 101.1953682  27.7695325
  19.3910655 107.0138715  27.8231100  19.9042537 107.6468706  28.3252810
  20.0411879 106.4139910  27.4574460  12.6353745  98.0006237  25.7441793
  11.9818158  97.6855254  25.1198408  12.5934219  97.3781977  26.4701616
  15.8691486 104.4888170  30.0689441  14.9514047 104.7103117  29.9111129
  16.2851629 104.5634481  29.2101148  16.6526533 105.8879586  25.1992121
  17.3998352 106.4000983  24.8899243  16.9218123 105.5663639  26.0596514
  20.1572451 111.9944716  25.9510243  19.7034778 111.1535626  26.0075433
  19.5266418 112.6306114  26.2885023  19.1005371 102.9236702  27.1810910
  18.3628127 102.4114088  27.5121153  19.3532144 102.4837084  26.3694187
  18.6005390 113.8321213  26.8860061  18.8928365 114.3926270  26.1672426
  19.1104011 114.1249774  27.6413220  19.2016998  95.7012954  27.7752679
  19.5075875  94.8410318  27.4878594  19.9269603  96.2930574  27.5751673
  13.4738078 105.9966747  28.2828870  13.5286687 105.0440584  28.2071347
  12.6629280 106.1526186  28.7670169  11.4130438 104.6143807  26.0419249
  10.5998303 104.9137978  26.4484441  11.9089432 104.2199496  26.7593732
  17.0104649 105.0785631  34.8734143  17.3654037 105.3057105  35.7328609
  17.6576780 105.4104008  34.2511398  22.7402386 108.2004067  25.5783472
  22.6020285 108.3905663  24.6504661  22.3838605 108.9623450  26.0351523
  10.9044512 102.1862162  31.6580484  11.5443892 102.0450922  30.9603448
  10.0722043 101.8996676  31.2819086  22.7671766 110.2680594  30.5894744
  23.2008272 110.1755883  31.4377798  23.4803346 110.2438095  29.9514760
  16.4999661 113.8682688  32.1227844  16.5536683 114.4373625  32.8905560
  15.6314442 114.0384573  31.7581881   9.3798054 103.5700245  33.6052296
  10.0521107 103.3617607  32.9564944   8.5527841 103.3722331  33.1657528
  23.6287315 110.3104295  33.1227629  23.8223205 111.2150105  33.3686904
  23.5287933 109.8511714  33.9566214  15.2823626 100.1962186  35.6217956
  14.6351541 100.8952135  35.5282433  16.0524641 100.6298329  35.9894205
  18.6902424 110.4611038  38.6968510  18.5387930 110.2321589  37.7798593
  18.6807103 111.4181639  38.7099855  15.4587760 108.0342950  33.6814776
  16.3879820 108.1854110  33.5083743  15.0378790 108.1226971  32.8263423
  14.2576092 112.0593615  31.4513314  14.1187178 111.6912399  32.3239252
  13.4690688 112.5741254  31.2797272  15.8081307 111.4375218  28.8402152
  15.4731140 111.3975988  29.7359801  15.3085253 110.7719934  28.3672562
   9.7825551 106.8442848  34.3654733   9.6445349 106.1123086  34.9666272
  10.6930475 106.7551748  34.0838920  12.4107852 106.5562807  33.8538412
  13.1207470 105.9155999  33.8125031  12.3677160 106.8075702  34.7764593
  20.3994631 113.4930160  36.7744992  20.3407177 112.8089380  36.1075575
  20.8014149 114.2349150  36.3225618  11.1236786 103.5428025  35.6734052
  10.5874143 103.0918763  36.3255648  10.5353494 103.6773934  34.9304516
  20.4012038 111.4569744  35.0058971  19.5138817 111.1195666  35.1285370
  20.9710589 110.7252775  35.2427737   6.8575907 102.6784033  32.7587046
   6.7734096 102.0709702  32.0237456   6.0358614 103.1693051  32.7596543
  13.9313191 116.1171197  31.9720214  13.8583363 116.9226168  32.4839519
  13.4890584 116.3163162  31.1468236  17.0299621 101.1637596  28.1257241
  17.5268321 100.4107558  27.8058312  16.2586603 101.2001913  27.5600451
  24.8829378 106.8677962  29.7675533  24.8719255 107.7502677  29.3969466
  24.0146758 106.5149512  29.5730070  16.3911875 116.0158031  34.1278373
  17.1039847 116.6505495  34.0554275  15.9001903 116.1121897  33.3118375
  18.1129402 109.9209283  25.6995665  17.1785680 110.0410746  25.5300369
  18.2906070 109.0181750  25.4355675  13.6134590 103.3054979  27.8528926
  13.2432377 102.7526019  28.5409832  14.1093682 102.7013113  27.3003926
  21.5001953 105.7626603  26.2345699  21.9662405 106.5954594  26.1606002
  21.9509454 105.2971584  26.9390957  11.4423788 113.7652474  34.9483944
  12.1433248 114.3988957  35.1013338  10.9718903 114.1067206  34.1879583
  19.5678184 112.1070424  23.2331851  19.8438028 111.9927018  24.1425725
  18.6982683 111.7087909  23.1944024  19.4718616  98.1307190  30.2736600
  18.5581696  98.3611416  30.4418807  19.9011717  98.2145634  31.1250633
  19.2425074 106.3197082  32.7736494  18.5896525 106.5672989  32.1188947
  19.6205454 105.5061220  32.4398972  15.2912647 107.0616893  39.2602531
  14.6153284 106.9611022  39.9304907  16.1140281 106.9056106  39.7238529
  14.0335430 118.3683820  33.4960147  14.5853738 118.5315442  34.2609233
  14.3741624 118.9588258  32.8240172   9.0099923 100.7158970  34.0982032
   9.0741250 101.5773801  33.6859430   8.9467044 100.1032971  33.3654391
   8.4852196 102.7882102  37.7455066   9.1124235 102.4059180  38.3592591
   7.6280115 102.5696304  38.1110759  18.8846305 113.1945078  39.3508802
  19.4286209 113.8075036  38.8563757  18.3033149 113.7524656  39.8675815
  17.1703817 116.3165796  30.4823830  17.0454957 115.5155535  29.9734775
  17.8282909 116.8111989  29.9937800   8.7911986 102.6714528  29.6600970
   8.0698571 103.2850496  29.5208443   9.5805241 103.2072293  29.5817616
  19.2338726 114.1174816  32.1103380  18.2869061 113.9980167  32.0381706
  19.5821499 113.2297314  32.1929641  11.5938299 100.0068955  35.9341622
  12.1172701 100.2531251  36.6967931  11.3750633 100.8388989  35.5144759
  16.2385159 113.9127532  28.3107732  16.0910122 112.9844239  28.4915302
  17.0638653 113.9347623  27.8264807  19.8419281 114.7356091  29.3972605
  20.7665828 114.5298952  29.2597056  19.6734584 114.4872492  30.3061946
  12.7990844 100.9482650  33.6191292  12.4587665 100.1490463  34.0211972
  12.0929851 101.2484360  33.0468125  13.4507316  98.0331962  32.0718615
  14.2733385  97.5592440  31.9497505  13.6945380  98.8122446  32.5717301
  16.2346673 101.7665369  23.3039849  16.4510288 102.6490007  23.0028677
  15.7540741 101.3751583  22.5745491  10.9745895 104.7251083  29.8810594
  10.8290476 105.0391386  30.7734875  10.4971098 105.3435983  29.3281492
  12.8342278 101.7153631  29.9291483  12.8203847 100.8194724  29.5923781
  13.5514706 101.7224294  30.5629769  14.6868408 102.1490971  31.9744611
  14.4286186 103.0708042  31.9728941  14.1553449 101.7521405  32.6645075
  19.6314597 115.2541758  24.7534696  19.8051475 114.6888181  24.0008549
  20.1243488 116.0542653  24.5714186   5.4491557 107.2656427  32.8198255
   4.9045025 108.0416235  32.9518529   6.3270907 107.6127232  32.6617376
  12.2379174 100.5968011  25.1979053  12.3595085  99.6684657  25.3969941
  11.9481216 100.6106697  24.2857369  15.1070364  98.2822921  28.3345773
  15.1292061  98.3462255  27.3797753  15.5238423  97.4427430  28.5286279
  25.4853988 108.0178181  26.3724996  25.9285134 107.2685506  25.9744119
  24.6080499 108.0088317  25.9898728   6.2357579 106.3926323  35.7128412
   5.4939315 106.5408959  36.2993042   5.9150323 106.6534589  34.8495161
  22.5181193 112.0208228  23.3818925  23.0432517 112.3595501  22.6568245
  22.4303545 111.0855243  23.1982060  14.1801242 115.9342302  35.5108802
  14.4888368 115.6891448  36.3831501  14.9776724 116.1388940  35.0227672
  11.7220253 102.1100008  39.4068986  11.7708409 102.9862131  39.0246756
  12.2642767 101.5677401  38.8340629  22.2075099 112.6541132  38.6870123
  21.4170643 112.6365270  38.1474622  21.9708453 113.1929425  39.4419160
  22.3272974 109.5033598  36.0002852  22.3770979 109.3383605  36.9418374
  22.2186897 108.6360857  35.6100732  19.6176736 105.4864526  37.3162158
  20.5186599 105.3470991  37.0246156  19.6924711 105.6518981  38.2560336
  13.9519542 102.8631381  36.1615345  13.0822851 103.1564947  35.8897933
  14.1879022 103.4471826  36.8822608  23.8291171 111.9230539  36.2444873
  23.5375979 112.2860520  37.0808334  23.2163302 111.2097548  36.0658205
  25.0286853 109.4883419  28.7647443  25.8633744 109.9273223  28.9285004
  25.1645982 109.0122072  27.9455689  22.0778359 107.0463154  34.7124931
  22.5532481 107.2390800  33.9043783  21.1543924 107.1022340  34.4668315
  16.6558576  99.0810998  33.6780765  17.1740519  99.8172025  33.3527254
  16.3013708  99.3874991  34.5127524  16.9071170  95.5011280  29.1981662
  17.1872923  94.8334469  29.8242088  17.6921777  95.6940376  28.6856325
  20.7780028 103.9228914  32.9453237  21.7297451 104.0227012  32.9665461
  20.6083478 103.1307183  33.4551321  18.7994407 101.0084497  33.1312638
  18.2044340 101.2889510  32.4359126  18.5144104 101.4978398  33.9029379
  23.2568106 107.1435034  32.0595536  23.2244426 106.2051035  32.2455220
  23.8668729 107.2219071  31.3261361  23.4062594 103.9346077  32.1053820
  22.8901643 103.1504534  31.9183748  24.2902543 103.6064794  32.2700339
  21.0673321  97.6787093  28.0649632  20.8698142  97.3702181  28.9492964
  21.6773027  98.4048732  28.1947562  29.0744656 108.2051041  31.2001573
  29.8048044 107.9436329  31.7609277  28.4651601 107.4679763  31.2403641
  27.1559953 106.3458903  31.7976024  26.4293116 106.2114868  31.1892516
  26.7407240 106.6535732  32.6032742  14.9790129 110.0648833  39.5623397
  15.8993139 110.2427432  39.7563444  14.9439712 109.1204878  39.4103097
   7.9752202 107.9749868  32.2046179   8.1938212 108.9066975  32.2234212
   8.3877976 107.6157842  32.9900982  14.8956420  98.4817953  24.1921867
  14.0857148  98.1365038  24.5677113  15.5840836  98.1725497  24.7809479
  16.8246968  97.5596000  25.8146164  17.3778006  97.9791453  26.4736187
  17.0617054  96.6331748  25.8569120  12.8480067 103.5483073  41.5948928
  12.7476794 104.4977430  41.5261019  12.6301609 103.2201312  40.7224998
  20.2025775  99.6696525  25.3224828  19.6224444 100.3281329  24.9402880
  19.9361708  98.8473870  24.9112245  18.6529341  99.0701583  27.5246148
  19.1529120  99.1818117  26.7160467  19.2964949  98.7662635  28.1646957
  12.7111337 106.9780212  40.4113989  12.2278419 107.7780572  40.6177878
  12.7972276 106.9888157  39.4581433   8.6384675 110.8684747  32.4482423
   9.5927928 110.8368689  32.3812355   8.4397198 110.4075371  33.2632649
   9.2284057 109.4385863  35.0153221  10.0476946 109.9329942  35.0388058
   9.5020864 108.5217831  34.9870788  18.9850653 101.8296615  24.3781176
  18.0976508 102.1146266  24.1601371  19.4004642 101.6690379  23.5308453
  22.3365189 101.8543136  28.0935515  23.1125579 102.3439589  28.3660132
  21.6113323 102.2801190  28.5507385  24.7737748 102.5670756  29.1509456
  25.3682239 102.3266491  28.4402764  24.8464331 101.8477886  29.7782992
  18.9591677 107.3451151  24.5931466  18.9026878 107.8019703  23.7539099
  19.5120019 106.5841836  24.4154309  22.7696483 103.1340883  25.4181586
  22.5133417 102.7337519  26.2489793  22.1449351 103.8484677  25.2931725
  27.0808820 105.8736956  27.9252877  26.5208378 105.9430146  28.6984439
  26.4752324 105.6977941  27.2052373  19.6926456 108.5355933  21.8883995
  19.6375260 108.3700204  20.9472440  19.0672511 109.2431965  22.0446185
   4.4818971 103.7723997  35.7145418   5.1277835 103.2622951  36.2032643
   4.2736122 104.5092679  36.2888843  17.0072363 110.8404844  41.2137558
  17.8763523 111.0145497  40.8524193  16.5279115 111.6599261  41.0913288
  13.0022581  98.0364042  21.4669314  12.9901251  98.9805881  21.6237585
  13.8946003  97.8534187  21.1728775  11.1758543 117.9601945  32.8926992
  12.0785790 117.9925556  33.2093487  10.9495913 117.0302396  32.9073328
  16.8174701  94.6306818  25.7215251  16.0507097  94.0765305  25.8671933
  17.2285406  94.7028687  26.5829402   8.8216462 100.9191614  39.8120432
   9.6847924 100.5628419  40.0223756   8.2481873 100.5805509  40.4995836
  28.6664839 122.5493470  30.6182833  29.3043249 122.4300218  29.9146173
  28.5485682 123.4974314  30.6770785  25.4754545 122.5020898  30.5544358
  25.1373057 122.3861963  29.6664892  26.3444313 122.1012063  30.5345364
  25.9574328 123.6555750  36.5130563  25.9462969 123.2608548  35.6411067
  26.1194968 122.9221823  37.1064335  23.6037796 123.8169710  32.0511107
  24.2001368 123.5925733  31.3368070  23.6612768 123.0754456  32.6536555
  28.2206107 120.2744924  27.6936041  29.0069197 119.8564347  27.3426458
  28.4844812 121.1791016  27.8617689  33.6214535 120.2120157  28.5969019
  34.3539706 119.6419374  28.8306849  32.8653890 119.8241758  29.0375525
  25.2390654 122.6347399  25.7932362  24.8748861 122.1078020  26.5045283
  26.0957770 122.2445868  25.6198847  31.1439955 113.9241731  33.0563628
  30.8123280 114.7937142  32.8324843  30.5485568 113.6078015  33.7357658
  27.6371474 126.1254277  32.4559541  27.3372197 127.0279316  32.3475348
  27.2922534 125.8586461  33.3080694  21.0883956 122.5768074  28.4896245
  20.1634452 122.4444288  28.6973937  21.3368369 123.3562294  28.9866188
  31.0368618 118.6436818  30.1356978  30.1285496 118.5752226  29.8415739
  30.9856214 119.1208763  30.9638804  25.1109484 120.0626463  38.0791875
  24.3342818 120.6220383  38.0694740  25.7500047 120.5483246  38.6006746
  32.9030265 116.8453256  31.9134852  32.2604645 117.1385789  31.2674647
  32.3985193 116.7306176  32.7188049  30.5570428 120.5916429  22.6020711
  31.4688284 120.8243816  22.4268409  30.0480075 121.1753473  22.0395790
  23.3655856 122.8711917  37.6409842  24.1070541 123.4096961  37.3644666
  22.6592842 123.4978205  37.7981394  28.8411196 125.0141057  36.2382004
  29.2494552 124.5723468  35.4936636  28.1188457 124.4393685  36.4916197
  25.1942266 119.9513664  33.6115561  26.0403461 120.3753077  33.7550210
  25.1340904 119.2947288  34.3054124  29.1640011 125.5742248  29.9934293
  28.5348873 125.7387962  29.2910361  28.7765673 125.9883857  30.7645257
  33.0429242 126.5096686  27.3478657  32.3580281 126.8895587  26.7975690
  33.1273092 127.1192012  28.0810604  28.3441711 117.6118032  35.2696734
  28.1002643 118.3660093  34.7331010  28.6201642 117.9903380  36.1043982
  30.2980174 124.1556645  33.9474000  30.5097069 124.7988404  33.2708381
  30.2509922 123.3218961  33.4795930  27.9006403 116.7674465  30.8510572
  27.0390882 117.0655719  31.1427310  27.9268838 116.9844864  29.9191605
  24.7167972 125.3116656  27.2584378  25.1806318 125.5904359  26.4689000
  24.4524771 124.4100100  27.0757469  22.1017220 120.0251565  38.4425152
  21.4715881 120.7067846  38.6760549  21.9953308 119.9134646  37.4978291
  31.4126002 127.0328600  32.1196357  32.2343446 126.6308787  31.8379039
  31.4088405 126.9296834  33.0712473  15.6799895 119.9453851  31.8006067
  15.9307934 120.8300861  32.0663643  16.2159444 119.7658453  31.0281159
  39.5031995 123.3767348  28.4681329  38.7495703 122.8074747  28.3125333
  39.6379536 123.3430013  29.4151964  21.3797963 114.3272331  40.8050403
  20.9864908 113.7738529  41.4798048  22.1964103 114.6382909  41.1956921
  24.2965924 115.7430210  38.3970660  25.0375637 116.3437363  38.3175122
  24.5283847 115.0007847  37.8388703  19.4407262 120.9286577  36.6748890
  19.3260777 120.0271834  36.9755989  18.5851780 121.1750274  36.3233706
  28.2423087 111.7711313  32.6734942  27.8987356 112.6612954  32.5974052
  28.6102049 111.5812970  31.8104527  25.7920480 116.6069625  26.2392615
  24.9362077 116.2176475  26.0598254  26.2047432 116.6861585  25.3792401
  27.3219627 114.1415968  30.6384175  26.8184423 114.1046103  29.8251980
  27.6150234 115.0508711  30.6980832  23.5662513 114.2254698  29.6450357
  24.4315510 114.0297506  29.2856246  23.6340022 113.9965049  30.5719713
  33.1807644 124.5152278  23.1160550  32.4037086 124.1763438  22.6715712
  33.8599125 124.5204902  22.4415515  27.9959673 119.6347016  23.0067158
  27.6909808 119.9493165  23.8577301  28.9490115 119.7128436  23.0494491
  31.4198950 123.9886260  29.7727158  30.7622625 124.6785521  29.8607287
  32.2239350 124.3782692  30.1161145  21.1724832 116.4556905  27.0166723
  21.7468584 116.2332087  26.2839916  21.7595814 116.5245600  27.7695325
  30.2304409 122.3430632  27.8231100  30.7436291 122.9760624  28.3252810
  30.8805633 121.7431828  27.4574460  23.4747500 113.3298154  25.7441793
  22.8211912 113.0147172  25.1198408  23.4327974 112.7073895  26.4701616
  26.7085240 119.8180088  30.0689441  25.7907801 120.0395035  29.9111129
  27.1245384 119.8926398  29.2101148  27.4920288 121.2171504  25.1992121
  28.2392107 121.7292901  24.8899243  27.7611877 120.8955556  26.0596514
  30.9966205 127.3236634  25.9510243  30.5428533 126.4827544  26.0075433
  30.3660172 127.9598032  26.2885023  29.9399125 118.2528620  27.1810910
  29.2021882 117.7406006  27.5121153  30.1925899 117.8129001  26.3694187
  30.0410752 111.0304872  27.7752679  30.3469629 110.1702235  27.4878594
  30.7663357 111.6222492  27.5751673  24.3131832 121.3258665  28.2828870
  24.3680442 120.3732501  28.2071347  23.5023034 121.4818104  28.7670169
  22.2524192 119.9435725  26.0419249  21.4392058 120.2429895  26.4484441
  22.7483186 119.5491413  26.7593732  27.8498404 120.4077549  34.8734143
  28.2047791 120.6349022  35.7328609  28.4970535 120.7395926  34.2511398
  33.5796141 123.5295985  25.5783472  33.4414039 123.7197581  24.6504661
  33.2232359 124.2915368  26.0351523  21.7438267 117.5154080  31.6580484
  22.3837646 117.3742839  30.9603448  20.9115797 117.2288594  31.2819086
  33.6065520 125.5972512  30.5894744  34.0402027 125.5047801  31.4377798
  34.3197101 125.5730012  29.9514760  20.2191809 118.8992162  33.6052296
  20.8914862 118.6909524  32.9564944  19.3921595 118.7014248  33.1657528
  34.4681070 125.6396213  33.1227629  34.6616960 126.5442023  33.3686904
  34.3681688 125.1803632  33.9566214  26.1217381 115.5254103  35.6217956
  25.4745296 116.2244053  35.5282433  26.8918396 115.9590247  35.9894205
  29.5296178 125.7902955  38.6968510  29.3781685 125.5613507  37.7798593
  29.5200858 126.7473557  38.7099855  26.2981515 123.3634868  33.6814776
  27.2273575 123.5146028  33.5083743  25.8772545 123.4518889  32.8263423
  20.6219306 122.1734765  34.3654733  20.4839104 121.4415004  34.9666272
  21.5324229 122.0843665  34.0838920  23.2501606 121.8854725  33.8538412
  23.9601225 121.2447917  33.8125031  23.2070915 122.1367619  34.7764593
  21.9630540 118.8719943  35.6734052  21.4267897 118.4210681  36.3255648
  21.3747249 119.0065851  34.9304516  31.2405792 126.7861662  35.0058971
  30.3532571 126.4487584  35.1285370  31.8104343 126.0544693  35.2427737
  17.6969662 118.0075950  32.7587046  17.6127850 117.4001620  32.0237456
  16.8752368 118.4984969  32.7596543  27.8693376 116.4929514  28.1257241
  28.3662075 115.7399476  27.8058312  27.0980357 116.5293830  27.5600451
  35.7223133 122.1969879  29.7675533  35.7113009 123.0794595  29.3969466
  34.8540512 121.8441430  29.5730070  28.9523156 125.2501201  25.6995665
  28.0179435 125.3702663  25.5300369  29.1299825 124.3473668  25.4355675
  24.4528344 118.6346897  27.8528926  24.0826132 118.0817937  28.5409832
  24.9487437 118.0305030  27.3003926  32.3395708 121.0918520  26.2345699
  32.8056160 121.9246512  26.1606002  32.7903208 120.6263502  26.9390957
  30.4071939 127.4362342  23.2331851  30.6831783 127.3218936  24.1425725
  29.5376437 127.0379826  23.1944024  30.3112370 113.4599107  30.2736600
  29.3975450 113.6903334  30.4418807  30.7405472 113.5437551  31.1250633
  30.0818829 121.6488999  32.7736494  29.4290279 121.8964907  32.1188947
  30.4599209 120.8353137  32.4398972  26.1306402 122.3908810  39.2602531
  25.4547039 122.2902940  39.9304907  26.9534036 122.2348024  39.7238529
  19.8493678 116.0450888  34.0982032  19.9135004 116.9065718  33.6859430
  19.7860798 115.4324889  33.3654391  19.3245950 118.1174020  37.7455066
  19.9517989 117.7351097  38.3592591  18.4673869 117.8988222  38.1110759
  19.6305740 118.0006446  29.6600970  18.9092326 118.6142413  29.5208443
  20.4198996 118.5364211  29.5817616  22.4332054 115.3360872  35.9341622
  22.9566456 115.5823169  36.6967931  22.2144387 116.1680907  35.5144759
  23.6384599 116.2774567  33.6191292  23.2981419 115.4782380  34.0211972
  22.9323605 116.5776278  33.0468125  24.2901071 113.3623880  32.0718615
  25.1127140 112.8884358  31.9497505  24.5339134 114.1414364  32.5717301
  27.0740428 117.0957287  23.3039849  27.2904042 117.9781925  23.0028677
  26.5934495 116.7043501  22.5745491  21.8139649 120.0543000  29.8810594
  21.6684230 120.3683303  30.7734875  21.3364853 120.6727901  29.3281492
  23.6736032 117.0445548  29.9291483  23.6597601 116.1486642  29.5923781
  24.3908460 117.0516212  30.5629769  25.5262163 117.4782889  31.9744611
  25.2679941 118.3999959  31.9728941  24.9947203 117.0813323  32.6645075
  23.0772928 115.9259929  25.1979053  23.1988839 114.9976575  25.3969941
  22.7874971 115.9398615  24.2857369  25.9464119 113.6114839  28.3345773
  25.9685815 113.6754172  27.3797753  26.3632178 112.7719348  28.5286279
  36.3247743 123.3470099  26.3724996  36.7678889 122.5977424  25.9744119
  35.4474253 123.3380235  25.9898728  17.0751333 121.7218241  35.7128412
  16.3333069 121.8700876  36.2993042  16.7544078 121.9826507  34.8495161
  33.3574947 127.3500146  23.3818925  33.8826271 127.6887418  22.6568245
  33.2697300 126.4147161  23.1982060  22.5614008 117.4391926  39.4068986
  22.6102163 118.3154049  39.0246756  23.1036522 116.8969319  38.8340629
  33.0468853 127.9833049  38.6870123  32.2564397 127.9657188  38.1474622
  32.8102208 128.5221343  39.4419160  33.1666728 124.8325516  36.0002852
  33.2164733 124.6675523  36.9418374  33.0580652 123.9652775  35.6100732
  30.4570491 120.8156444  37.3162158  31.3580354 120.6762909  37.0246156
  30.5318465 120.9810899  38.2560336  24.7913296 118.1923298  36.1615345
  23.9216606 118.4856864  35.8897933  25.0272777 118.7763743  36.8822608
  34.6684925 127.2522457  36.2444873  34.3769734 127.6152438  37.0808334
  34.0557057 126.5389465  36.0658205  35.8680608 124.8175337  28.7647443
  36.7027499 125.2565141  28.9285004  36.0039736 124.3413990  27.9455689
  32.9172114 122.3755072  34.7124931  33.3926235 122.5682718  33.9043783
  31.9937679 122.4314258  34.4668315  27.4952330 114.4102915  33.6780765
  28.0134274 115.1463942  33.3527254  27.1407463 114.7166909  34.5127524
  27.7464924 110.8303198  29.1981662  28.0266678 110.1626387  29.8242088
  28.5315531 111.0232294  28.6856325  31.6173783 119.2520832  32.9453237
  32.5691205 119.3518930  32.9665461  31.4477233 118.4599100  33.4551321
  29.6388162 116.3376415  33.1312638  29.0438094 116.6181428  32.4359126
  29.3537859 116.8270316  33.9029379  34.0961860 122.4726952  32.0595536
  34.0638180 121.5342952  32.2455220  34.7062484 122.5510988  31.3261361
  34.2456349 119.2637995  32.1053820  33.7295397 118.4796452  31.9183748
  35.1296297 118.9356712  32.2700339  31.9067076 113.0079011  28.0649632
  31.7091897 112.6994099  28.9492964  32.5166781 113.7340649  28.1947562
  39.9138410 123.5342958  31.2001573  40.6441799 123.2728247  31.7609277
  39.3045356 122.7971680  31.2403641  37.9953707 121.6750821  31.7976024
  37.2686871 121.5406786  31.1892516  37.5800994 121.9827650  32.6032742
  25.8183884 125.3940751  39.5623397  26.7386893 125.5719350  39.7563444
  25.7833467 124.4496796  39.4103097  25.7350174 113.8109871  24.1921867
  24.9250902 113.4656956  24.5677113  26.4234591 113.5017414  24.7809479
  27.6640722 112.8887917  25.8146164  28.2171761 113.3083371  26.4736187
  27.9010809 111.9623666  25.8569120  23.6873822 118.8774991  41.5948928
  23.5870548 119.8269348  41.5261019  23.4695364 118.5493230  40.7224998
  31.0419529 114.9988443  25.3224828  30.4618198 115.6573247  24.9402880
  30.7755462 114.1765787  24.9112245  29.4923096 114.3993500  27.5246148
  29.9922874 114.5110035  26.7160467  30.1358704 114.0954553  28.1646957
  23.5505092 122.3072130  40.4113989  23.0672173 123.1072490  40.6177878
  23.6366031 122.3180075  39.4581433  29.8244407 117.1588533  24.3781176
  28.9370262 117.4438184  24.1601371  30.2398397 116.9982296  23.5308453
  33.1758944 117.1835054  28.0935515  33.9519334 117.6731506  28.3660132
  32.4507078 117.6093108  28.5507385  35.6131502 117.8962673  29.1509456
  36.2075993 117.6558409  28.4402764  35.6858086 117.1769804  29.7782992
  29.7985431 122.6743069  24.5931466  29.7420633 123.1311620  23.7539099
  30.3513774 121.9133754  24.4154309  33.6090237 118.4632801  25.4181586
  33.3527171 118.0629436  26.2489793  32.9843105 119.1776595  25.2931725
  37.9202575 121.2028874  27.9252877  37.3602133 121.2722063  28.6984439
  37.3146078 121.0269859  27.2052373  30.5320210 123.8647850  21.8883995
  30.4769014 123.6992122  20.9472440  29.9066266 124.5723883  22.0446185
  15.3212725 119.1015915  35.7145418  15.9671589 118.5914869  36.2032643
  15.1129877 119.8384596  36.2888843  27.8466118 126.1696762  41.2137558
  28.7157277 126.3437414  40.8524193  27.3672869 126.9891179  41.0913288
  23.8416336 113.3655959  21.4669314  23.8295006 114.3097799  21.6237585
  24.7339758 113.1826105  21.1728775  27.6568455 109.9598736  25.7215251
  26.8900851 109.4057223  25.8671933  28.0679160 110.0320605  26.5829402
  19.6610216 116.2483532  39.8120432  20.5241678 115.8920336  40.0223756
  19.0875627 115.9097426  40.4995836  41.9833709 129.2533649  33.0563628
  41.6517034 130.1229060  32.8324843  41.3879323 128.9369933  33.7357658
  43.7424019 132.1745174  31.9134852  43.0998399 132.4677707  31.2674647
  43.2378948 132.0598094  32.7188049  39.0816841 127.1003230  32.6734942
  38.7381111 127.9904872  32.5974052  39.4495804 126.9104888  31.8104527
  38.1613382 129.4707885  30.6384175  37.6578177 129.4338021  29.8251980
  38.4543988 130.3800628  30.6980832  34.4056267 129.5546615  29.6450357
  35.2709264 129.3589424  29.2856246  34.4733776 129.3256967  30.5719713
  34.3141254 128.6590072  25.7441793  33.6605667 128.3439089  25.1198408
  34.2721728 128.0365812  26.4701616  40.8804507 126.3596790  27.7752679
  41.1863384 125.4994153  27.4878594  41.6057112 126.9514410  27.5751673
  41.1506125 128.7891025  30.2736600  40.2369205 129.0195252  30.4418807
  41.5799226 128.8729469  31.1250633  35.1294825 128.6915797  32.0718615
  35.9520894 128.2176276  31.9497505  35.3732889 129.4706281  32.5717301
  36.7857873 128.9406757  28.3345773  36.8079570 129.0046090  27.3797753
  37.2025932 128.1011265  28.5286279  38.3346084 129.7394833  33.6780765
  38.8528028 130.4755860  33.3527254  37.9801217 130.0458826  34.5127524
  38.5858679 126.1595116  29.1981662  38.8660432 125.4918305  29.8242088
  39.3709286 126.3524211  28.6856325  42.7460830 128.3370928  28.0649632
  42.5485651 128.0286016  28.9492964  43.3560536 129.0632567  28.1947562
  36.5743929 129.1401788  24.1921867  35.7644657 128.7948873  24.5677113
  37.2628345 128.8309332  24.7809479  38.5034477 128.2179835  25.8146164
  39.0565515 128.6375289  26.4736187  38.7404563 127.2915583  25.8569120
  41.8813284 130.3280360  25.3224828  41.3011953 130.9865164  24.9402880
  41.6149217 129.5057705  24.9112245  40.3316850 129.7285418  27.5246148
  40.8316629 129.8401953  26.7160467  40.9752458 129.4246471  28.1646957
  46.4525257 133.2254591  29.1509456  47.0469747 132.9850327  28.4402764
  46.5251840 132.5061721  29.7782992  34.6810090 128.6947877  21.4669314
  34.6688760 129.6389717  21.6237585  35.5733512 128.5118022  21.1728775
  38.4962210 125.2890653  25.7215251  37.7294606 124.7349140  25.8671933
  38.9072915 125.3612522  26.5829402   1.9499808  56.6582582  19.8472936
   2.1435698  57.5628393  20.0932211   1.8500426  56.1990001  20.6811521
   0.6485466  55.8511885  22.7248158   0.6983471  55.6861893  23.6663681
   0.5399390  54.9839144  22.3346039   2.1503663  58.2708827  22.9690180
   1.8588471  58.6338807  23.8053641   1.5375794  57.5575835  22.7903512
   6.9877331  68.8971758  17.3428140   7.6255741  68.7778505  16.6391480
   6.8698174  69.8452602  17.4016092   3.7967037  68.8499186  17.2789664
   3.4585549  68.7340250  16.3910199   4.6656806  68.4490351  17.2590670
   4.2786820  70.0034037  23.2375870   4.2675461  69.6086836  22.3656373
   4.4407460  69.2700110  23.8309641   0.9994082  72.7871149  22.1855054
   0.7083948  73.6916780  22.0701720   1.6351066  72.8287677  22.8999123
   1.9250288  70.1647998  18.7756413   2.5213861  69.9404020  18.0613376
   1.9825260  69.4232743  19.3781861   6.5418600  66.6223211  14.4181348
   7.3281689  66.2042635  14.0671765   6.8057304  67.5269304  14.5862996
  11.9427027  66.5598445  15.3214326  12.6752199  65.9897661  15.5552156
  11.1866382  66.1720045  15.7620832   3.5603147  68.9825686  12.5177669
   3.1961354  68.4556307  13.2290590   4.4170262  68.5924155  12.3444154
   9.4652447  60.2720019  19.7808935   9.1335772  61.1415430  19.5570150
   8.8698061  59.9556303  20.4602965   5.9583967  72.4732565  19.1804847
   5.6584690  73.3757604  19.0720655   5.6135026  72.2064748  20.0326000
   9.3581110  64.9915105  16.8602285   8.4497988  64.9230513  16.5661046
   9.3068706  65.4687050  17.6884110   3.4321976  66.4104750  24.8037182
   2.6555310  66.9698671  24.7940047   4.0712539  66.8961533  25.3252052
  11.2242757  63.1931543  18.6380159  10.5817137  63.4864076  17.9919953
  10.7197685  63.0784464  19.4433355   1.6868349  69.2190204  24.3655149
   2.4283033  69.7575248  24.0889973   0.9805334  69.8456493  24.5226701
   7.1623688  71.3619344  22.9627311   7.5707044  70.9201755  22.2181943
   6.4400950  70.7871972  23.2161503   3.5154758  66.2991951  20.3360867
   4.3615953  66.7231365  20.4795516   3.4553396  65.6425575  21.0299431
   7.4852503  71.9220535  16.7179599   6.8561365  72.0866249  16.0155667
   7.0978165  72.3362144  17.4890563  11.3641735  72.8574973  14.0723963
  10.6792773  73.2373874  13.5220996  11.4485584  73.4670299  14.8055911
   6.6654204  63.9596319  21.9942041   6.4215135  64.7138380  21.4576317
   6.9414134  64.3381667  22.8289288   8.6192666  70.5034932  20.6719307
   8.8309562  71.1466692  19.9953688   8.5722415  69.6697248  20.2041237
   6.2218895  63.1152752  17.5755879   5.3603374  63.4134006  17.8672616
   6.2481330  63.3323151  16.6436911   3.0380465  71.6594943  13.9829685
   3.5018810  71.9382646  13.1934307   2.7737263  70.7578388  13.8002775
   9.7338494  73.3806887  18.8441664  10.5555938  72.9787074  18.5624346
   9.7300897  73.2775121  19.7957780   3.4995098  72.9290931  21.0002375
   3.5639530  73.3911338  21.8360546   2.7906022  72.2988295  21.1284684
  17.8244487  69.7245636  15.1926636  17.0708196  69.1553034  15.0370640
  17.9592029  69.6908300  16.1397270   2.6178416  62.0908497  25.1215967
   3.3588129  62.6915650  25.0420429   2.8496339  61.3486135  24.5634009
   4.8411592  75.2182605  24.9981697   4.3975446  74.4318983  24.6802601
   5.5028805  75.4061755  24.3325588   6.9392830  75.4985404  23.0263098
   6.9211305  76.3194285  22.5343367   7.8612750  75.3739480  23.2513239
   3.3965884  73.0129534  23.8686607   3.9294221  72.2517822  23.6385915
   2.8679965  72.7203186  24.6110761   6.5635579  58.1189600  19.3980248
   6.2199848  59.0091242  19.3219359   6.9314542  57.9291258  18.5349833
   5.6432119  60.4894255  17.3629482   5.1396915  60.4524390  16.5497287
   5.9362726  61.3986998  17.4226138  11.5020136  70.8630566   9.8405857
  10.7249579  70.5241725   9.3961019  12.1811617  70.8683189   9.1660822
   9.7411443  70.3364547  16.4972465   9.0835117  71.0263808  16.5852594
  10.5451842  70.7260979  16.8406451   8.5516902  68.6908920  14.5476407
   9.0648783  69.3238911  15.0498116   9.2018125  68.0910115  14.1819767
   5.0297732  66.1658375  16.7934747   4.1120294  66.3873322  16.6356435
   5.4457876  66.2404686  15.9346455   5.8132780  67.5649791  11.9237427
   6.5604599  68.0771188  11.6144549   6.0824370  67.2433844  12.7841821
   9.3178698  73.6714921  12.6755549   8.8641025  72.8305831  12.7320740
   8.6872664  74.3076319  13.0130329   8.2611617  64.6006907  13.9056217
   7.5234374  64.0884293  14.2366459   8.5138391  64.1607289  13.0939494
   7.7611637  75.5091418  13.6105367   8.0534611  76.0696475  12.8917733
   8.2710258  75.8019979  14.3658527   2.6344324  67.6736952  15.0074177
   2.6892934  66.7210789  14.9316654   1.8235526  67.8296391  15.4915475
   6.1710896  66.7555836  21.5979450   6.5260284  66.9827309  22.4573916
   6.8183027  67.0874213  20.9756705  11.9008633  69.8774272  12.3028779
  11.7626531  70.0675868  11.3749968  11.5444852  70.6393655  12.7596830
  11.9278013  71.9450799  17.3140050  12.3614519  71.8526088  18.1623104
  12.6409593  71.9208300  16.6760066   5.6605907  75.5452893  18.8473151
   5.7142930  76.1143830  19.6150867   4.7920689  75.7154778  18.4827188
  12.7893562  71.9874500  19.8472936  12.9829452  72.8920310  20.0932211
  12.6894180  71.5281919  20.6811521   4.4429873  61.8732390  22.3463263
   3.7957788  62.5722340  22.2527740   5.2130888  62.3068534  22.7139511
   7.8508671  72.1381243  25.4213816   7.6994177  71.9091794  24.5043900
   7.8413350  73.0951844  25.4345161   4.6194007  69.7113155  20.4060083
   5.5486067  69.8624315  20.2329050   4.1985037  69.7997176  19.5508729
   3.4182339  73.7363820  18.1758620   3.2793425  73.3682604  19.0484559
   2.6296935  74.2511459  18.0042578   4.9687554  73.1145423  15.5647458
   4.6337387  73.0746192  16.4605108   4.4691500  72.4490138  15.0917868
   1.5714099  68.2333012  20.5783719   2.2813717  67.5926204  20.5370337
   1.5283407  68.4845907  21.5009900   9.5600877  75.1700365  23.4990298
   9.5013424  74.4859585  22.8320881   9.9620396  75.9119355  23.0470924
   9.5618285  73.1339949  21.7304278   8.6745063  72.7965871  21.8530677
  10.1316836  72.4022980  21.9673043   3.0919438  77.7941401  18.6965521
   3.0189610  78.5996373  19.2084826   2.6496831  77.9933367  17.8713543
  14.0435625  68.5448167  16.4920840  14.0325501  69.4272882  16.1214773
  13.1753005  68.1919717  16.2975377   5.5518122  77.6928236  20.8523680
   6.2646094  78.3275700  20.7799581   5.0608150  77.7892102  20.0363682
   7.2735648  71.5979488  12.4240971   6.3391927  71.7180951  12.2545676
   7.4512317  70.6951955  12.1600981  10.6608200  67.4396807  12.9591006
  11.1268652  68.2724799  12.8851308  11.1115700  66.9741789  13.6636264
   8.7284431  73.7840629   9.9577158   9.0044275  73.6697223  10.8671032
   7.8588930  73.3858114   9.9189331   8.6324863  59.8077394  16.9981907
   7.7187942  60.0381621  17.1664114   9.0617964  59.8915839  17.8495939
   8.4031321  67.9967286  19.4981801   7.7502771  68.2443194  18.8434254
   8.7811701  67.1831425  19.1644278   4.4518894  68.7387097  25.9847838
   3.7759531  68.6381227  26.6550213   5.2746528  68.5826311  26.4483835
   3.1941677  80.0454025  20.2205454   3.7459985  80.2085646  20.9854539
   3.5347870  80.6358463  19.5485479   8.0452551  74.8715282  26.0754108
   8.5892455  75.4845241  25.5809063   7.4639396  75.4294861  26.5921121
   6.3310064  77.9936000  17.2069136   6.2061204  77.1925740  16.6980082
   6.9889155  78.4882194  16.7183106   8.3944973  75.7945021  18.8348686
   7.4475308  75.6750372  18.7627013   8.7427746  74.9067519  18.9174948
   0.7544546  61.6839159  22.6586928   1.2778948  61.9301456  23.4213237
   0.5356879  62.5159194  22.2390066   5.3991406  75.5897737  15.0353039
   5.2516368  74.6614444  15.2160609   6.2244899  75.6117827  14.5510114
   9.0025528  76.4126295  16.1217911   9.9272075  76.2069157  15.9842362
   8.8340831  76.1642697  17.0307253   1.9597091  62.6252855  20.3436599
   1.6193911  61.8260668  20.7457279   1.2536097  62.9254565  19.7713432
   2.6113563  59.7102167  18.7963922   3.4339632  59.2362645  18.6742812
   2.8551626  60.4892651  19.2962608   1.9948525  63.3923836  16.6536790
   1.9810093  62.4964929  16.3169088   2.7120953  63.3994499  17.2875076
   3.8474655  63.8261176  18.6989917   3.5892433  64.7478246  18.6974248
   3.3159696  63.4291610  19.3890381   8.7920844  76.9311963  11.4780003
   8.9657722  76.3658385  10.7253855   9.2849735  77.7312858  11.2959493
  14.6460235  69.6948386  13.0970302  15.0891381  68.9455711  12.6989426
  13.7686745  69.6858522  12.7144034  11.6787440  73.6978433  10.1064232
  12.2038764  74.0365706   9.3813552  11.5909792  72.7625448   9.9227366
   3.3407488  77.6112507  22.2354108   3.6494615  77.3661653  23.1076808
   4.1382970  77.8159145  21.7472979   0.8826500  63.7870213  26.1314293
   0.9314655  64.6632336  25.7492062   1.4249014  63.2447606  25.5585936
  11.3681346  74.3311337  25.4115430  10.5776889  74.3135475  24.8719929
  11.1314700  74.8699630  26.1664466  11.4879221  71.1803803  22.7248158
  11.5377226  71.0153810  23.6663681  11.3793144  70.3131062  22.3346039
   8.7782983  67.1634731  24.0407465   9.6792846  67.0241196  23.7491463
   8.8530958  67.3289186  24.9805642   3.1125788  64.5401586  22.8860651
   2.2429098  64.8335152  22.6143240   3.3485269  65.1242031  23.6067915
  12.9897418  73.6000744  22.9690180  12.6982226  73.9630725  23.8053641
  12.3769549  72.8867753  22.7903512  14.1893100  71.1653624  15.4892750
  15.0239991  71.6043428  15.6530310  14.3252229  70.6892277  14.6700996
  11.2384606  68.7233359  21.4370238  11.7138727  68.9161005  20.6289089
  10.3150171  68.7792545  21.1913621   5.8164822  60.7581203  20.4026072
   6.3346766  61.4942230  20.0772560   5.4619955  61.0645196  21.2372831
   9.9386275  65.5999119  19.6698543  10.8903698  65.6997217  19.6910767
   9.7689725  64.8077388  20.1796628   7.9600654  62.6854702  19.8557944
   7.3650586  62.9659715  19.1604433   7.6750351  63.1748603  20.6274685
  12.4174353  68.8205239  18.7840843  12.3850673  67.8821240  18.9700527
  13.0274976  68.8989276  18.0506668  12.5668841  65.6116282  18.8299126
  12.0507890  64.8274739  18.6429055  13.4508790  65.2834999  18.9945646
  10.2279568  59.3557298  14.7894939  10.0304389  59.0472386  15.6738271
  10.8379274  60.0818937  14.9192869  18.2350902  69.8821246  17.9246880
  18.9654291  69.6206534  18.4854583  17.6257848  69.1449968  17.9648948
  16.3166200  68.0229108  18.5221331  15.5899363  67.8885073  17.9137823
  15.9013486  68.3305937  19.3278049   4.1396376  71.7419038  26.2868704
   5.0599385  71.9197637  26.4808751   4.1045959  70.7975083  26.1348403
   2.0086314  65.2253278  28.3194234   1.9083041  66.1747635  28.2506325
   1.7907856  64.8971517  27.4470304   1.8717584  68.6550417  27.1359296
   1.3884666  69.4550777  27.3423185   1.9578523  68.6658362  26.1826740
  11.4971436  63.5313341  14.8180822  12.2731826  64.0209794  15.0905439
  10.7719570  63.9571395  15.2752692  13.9343994  64.2440960  15.8754763
  14.5288485  64.0036696  15.1648071  14.0070578  63.5248091  16.5028299
   8.1197923  69.0221356  11.3176773   8.0633125  69.4789908  10.4784405
   8.6726266  68.2612041  11.1399616  11.9302729  64.8111088  12.1426892
  11.6739664  64.4107724  12.9735100  11.3055597  65.5254882  12.0177032
  16.2415067  67.5507161  14.6498184  15.6814625  67.6200351  15.4229746
  15.6358571  67.3748146  13.9297680   6.1678610  72.5175049  27.9382865
   7.0369770  72.6915702  27.5769500   5.6885361  73.3369466  27.8158594
  17.8271086  84.2263675  17.3428140  18.4649496  84.1070423  16.6391480
  17.7091929  85.1744519  17.4016092  14.6360792  84.1791103  17.2789664
  14.2979303  84.0632168  16.3910199  15.5050560  83.7782268  17.2590670
  15.1180575  85.3325955  23.2375870  15.1069216  84.9378753  22.3656373
  15.2801214  84.5992028  23.8309641  11.8387836  88.1163067  22.1855054
  11.5477702  89.0208698  22.0701720  12.4744820  88.1579594  22.8999123
  12.7644043  85.4939915  18.7756413  13.3607615  85.2695938  18.0613376
  12.8219014  84.7524661  19.3781861  17.3812354  81.9515129  14.4181348
  18.1675443  81.5334552  14.0671765  17.6451058  82.8561221  14.5862996
  22.7820781  81.8890362  15.3214326  23.5145953  81.3189579  15.5552156
  22.0260137  81.5011963  15.7620832  14.3996901  84.3117604  12.5177669
  14.0355108  83.7848225  13.2290590  15.2564017  83.9216073  12.3444154
  20.3046202  75.6011936  19.7808935  19.9729526  76.4707347  19.5570150
  19.7091815  75.2848220  20.4602965  16.7977721  87.8024482  19.1804847
  16.4978444  88.7049521  19.0720655  16.4528781  87.5356666  20.0326000
  10.2490203  84.2538279  15.2141552   9.3240699  84.1214493  15.4219244
  10.4974616  85.0332498  15.7111494  20.1974865  80.3207023  16.8602285
  19.2891742  80.2522431  16.5661046  20.1462461  80.7978967  17.6884110
  14.2715731  81.7396668  24.8037182  13.4949065  82.2990588  24.7940047
  14.9106294  82.2253451  25.3252052  22.0636511  78.5223461  18.6380159
  21.4210892  78.8155994  17.9919953  21.5591440  78.4076381  19.4433355
  19.7176675  82.2686634   9.3266018  20.6294531  82.5014021   9.1513715
  19.2086322  82.8523678   8.7641097  12.5262103  84.5482122  24.3655149
  13.2676787  85.0867165  24.0889973  11.8199089  85.1748410  24.5226701
  18.0017443  86.6911262  22.9627311  18.4100799  86.2493672  22.2181943
  17.2794704  86.1163889  23.2161503  14.3548513  81.6283869  20.3360867
  15.2009708  82.0523282  20.4795516  14.2947150  80.9717493  21.0299431
  18.3246257  87.2512453  16.7179599  17.6955120  87.4158167  16.0155667
  17.9371919  87.6654062  17.4890563  22.2035489  88.1866890  14.0723963
  21.5186527  88.5665792  13.5220996  22.2879339  88.7962217  14.8055911
  17.5047958  79.2888237  21.9942041  17.2608890  80.0430298  21.4576317
  17.7807889  79.6673585  22.8289288  19.4586421  85.8326849  20.6719307
  19.6703316  86.4758609  19.9953688  19.4116169  84.9989166  20.2041237
  17.0612650  78.4444670  17.5755879  16.1997129  78.7425924  17.8672616
  17.0875084  78.6615069  16.6436911  13.8774219  86.9886861  13.9829685
  14.3412565  87.2674564  13.1934307  13.6131017  86.0870305  13.8002775
  10.7698300  86.5358342  16.9209448  11.3399657  86.9645611  16.2826932
  11.3606412  86.2540927  17.6193633  11.2623467  81.7021770  25.1670459
  10.6322127  82.3838051  25.4005856  11.1559555  81.5904851  24.2223597
  20.5732249  88.7098805  18.8441664  21.3949693  88.3078992  18.5624346
  20.5694652  88.6067039  19.7957780  14.3388852  88.2582848  21.0002375
  14.4033285  88.7203255  21.8360546  13.6299776  87.6280213  21.1284684
   4.8406142  81.6224056  18.5251374   5.0914181  82.5071066  18.7908950
   5.3765691  81.4428658  17.7526466  28.6638242  85.0537553  15.1926636
  27.9101950  84.4844951  15.0370640  28.7985783  85.0200218  16.1397270
  10.5404210  76.0042536  27.5295710  10.1471155  75.4508734  28.2043354
  11.3570350  76.3153114  27.9202228  13.4572171  77.4200415  25.1215967
  14.1981884  78.0207568  25.0420429  13.6890093  76.6778052  24.5634009
   8.6013509  82.6056782  23.3994196   8.4867024  81.7042039  23.7001295
   7.7458026  82.8520479  23.0479013  15.6805346  90.5474522  24.9981697
  15.2369200  89.7610901  24.6802601  16.3422560  90.7353673  24.3325588
  10.4392467  92.0770324  19.5242375  10.9899893  91.9487387  18.7519369
   9.6003943  92.3765213  19.1737268  17.7786584  90.8277322  23.0263098
  17.7605060  91.6486203  22.5343367  18.7006504  90.7031397  23.2513239
  14.2359638  88.3421452  23.8686607  14.7687975  87.5809740  23.6385915
  13.7073720  88.0495103  24.6110761  17.4029333  73.4481518  19.3980248
  17.0593603  74.3383159  19.3219359  17.7708296  73.2583175  18.5349833
  14.9526727  78.2839829  12.9637922  14.0968324  77.8946680  12.7843561
  15.3653679  78.3631790  12.1037707  16.4825874  75.8186173  17.3629482
  15.9790669  75.7816308  16.5497287  16.7756481  76.7278915  17.4226138
  12.7268760  75.9024902  16.3695663  13.5921756  75.7067711  16.0101553
  12.7946269  75.6735254  17.2965020  22.3413890  86.1922483   9.8405857
  21.5643333  85.8533643   9.3961019  23.0205371  86.1975106   9.1660822
  17.1565919  81.3117221   9.7312465  16.8516055  81.6263370  10.5822608
  18.1096361  81.3898641   9.7739798  20.5805197  85.6656465  16.4972465
  19.9228872  86.3555726  16.5852594  21.3845596  86.0552897  16.8406451
  10.3331079  78.1327110  13.7412030  10.9074831  77.9102292  13.0085223
  10.9202061  78.2015805  14.4940631  19.3910656  84.0200837  14.5476407
  19.9042538  84.6530829  15.0498116  20.0411880  83.4202033  14.1819767
  12.6353747  75.0068359  12.4687100  11.9818159  74.6917376  11.8443714
  12.5934221  74.3844100  13.1946922  15.8691487  81.4950293  16.7934747
  14.9514048  81.7165240  16.6356435  16.2851630  81.5696603  15.9346455
  16.6526535  82.8941708  11.9237427  17.3998354  83.4063106  11.6144549
  16.9218124  82.5725761  12.7841821  20.1572452  89.0006839  12.6755549
  19.7034779  88.1597749  12.7320740  19.5266419  89.6368237  13.0130329
  19.1005372  79.9298825  13.9056217  18.3628129  79.4176211  14.2366459
  19.3532145  79.4899206  13.0939494  18.6005391  90.8383335  13.6105367
  18.8928366  91.3988393  12.8917733  19.1104012  91.1311896  14.3658527
  19.2016999  72.7075077  14.4997986  19.5075876  71.8472440  14.2123901
  19.9269604  73.2992697  14.2996980  13.4738079  83.0028870  15.0074177
  13.5286689  82.0502706  14.9316654  12.6629281  83.1588309  15.4915475
  11.4130439  81.6205930  12.7664556  10.5998304  81.9200100  13.1729748
  11.9089433  81.2261618  13.4839038  17.0104650  82.0847754  21.5979450
  17.3654038  82.3119227  22.4573916  17.6576782  82.4166131  20.9756705
  22.7402387  85.2066190  12.3028779  22.6020286  85.3967786  11.3749968
  22.3838606  85.9685573  12.7596830  10.9044514  79.1924285  18.3825791
  11.5443893  79.0513044  17.6848754  10.0722044  78.9058798  18.0064393
  22.7671767  87.2742717  17.3140050  23.2008274  87.1818006  18.1623104
  23.4803348  87.2500217  16.6760066  16.4999662  90.8744811  18.8473151
  16.5536684  91.4435747  19.6150867  15.6314443  91.0446696  18.4827188
   9.3798055  80.5762367  20.3297602  10.0521109  80.3679729  19.6810251
   8.5527842  80.3784453  19.8902835  23.6287317  87.3166418  19.8472936
  23.8223207  88.2212228  20.0932211  23.5287935  86.8573837  20.6811521
  15.2823627  77.2024308  22.3463263  14.6351542  77.9014258  22.2527740
  16.0524643  77.6360452  22.7139511  18.6902425  87.4673160  25.4213816
  18.5387932  87.2383712  24.5043900  18.6807105  88.4243762  25.4345161
  15.4587762  85.0405073  20.4060083  16.3879822  85.1916233  20.2329050
  15.0378792  85.1289094  19.5508729  14.2576093  89.0655737  18.1758620
  14.1187179  88.6974522  19.0484559  13.4690690  89.5803377  18.0042578
  15.8081309  88.4437340  15.5647458  15.4731141  88.4038110  16.4605108
  15.3085254  87.7782056  15.0917868   9.7825553  83.8504970  21.0900039
   9.6445350  83.1185209  21.6911578  10.6930476  83.7613870  20.8084227
  12.4107853  83.5624930  20.5783719  13.1207472  82.9218122  20.5370337
  12.3677161  83.8137824  21.5009900  20.3994632  90.4992283  23.4990298
  20.3407178  89.8151503  22.8320881  20.8014150  91.2411273  23.0470924
  11.1236787  80.5490147  22.3979359  10.5874144  80.0980886  23.0500955
  10.5353496  80.6836056  21.6549823  20.4012039  88.4631867  21.7304278
  19.5138818  88.1257789  21.8530677  20.9710590  87.7314898  21.9673043
   6.8575908  79.6846155  19.4832353   6.7734097  79.0771825  18.7482763
   6.0358615  80.1755173  19.4841849  13.9313193  93.1233319  18.6965521
  13.8583364  93.9288291  19.2084826  13.4890586  93.3225285  17.8713543
  17.0299622  78.1699719  14.8502548  17.5268322  77.4169681  14.5303618
  16.2586604  78.2064035  14.2845757  24.8829380  83.8740084  16.4920840
  24.8719256  84.7564800  16.1214773  24.0146759  83.5211635  16.2975377
  16.3911876  93.0220153  20.8523680  17.1039848  93.6567618  20.7799581
  15.9001905  93.1184019  20.0363682  18.1129403  86.9271406  12.4240971
  17.1785682  87.0472868  12.2545676  18.2906071  86.0243873  12.1600981
  13.6134591  80.3117102  14.5774233  13.2432379  79.7588142  15.2655138
  14.1093683  79.7075235  14.0249233  21.5001954  82.7688725  12.9591006
  21.9662407  83.6016717  12.8851308  21.9509455  82.3033707  13.6636264
  11.4423790  90.7714597  21.6729251  12.1433249  91.4051080  21.8258645
  10.9718905  91.1129328  20.9124890  19.5678185  89.1132546   9.9577158
  19.8438029  88.9989141  10.8671032  18.6982684  88.7150031   9.9189331
  19.4718617  75.1369312  16.9981907  18.5581697  75.3673539  17.1664114
  19.9011719  75.2207756  17.8495939  19.2425076  83.3259204  19.4981801
  18.5896526  83.5735112  18.8434254  19.6205455  82.5123342  19.1644278
  15.2912649  84.0679015  25.9847838  14.6153286  83.9673144  26.6550213
  16.1140282  83.9118229  26.4483835  14.0335431  95.3745943  20.2205454
  14.5853740  95.5377564  20.9854539  14.3741625  95.9650380  19.5485479
   9.0099925  77.7221092  20.8227339   9.0741251  78.5835923  20.4104736
   8.9467045  77.1095094  20.0899697   8.4852197  79.7944225  24.4700373
   9.1124236  79.4121302  25.0837897   7.6280116  79.5758427  24.8356065
  18.8846306  90.2007200  26.0754108  19.4286210  90.8137158  25.5809063
  18.3033151  90.7586779  26.5921121  17.1703819  93.3227918  17.2069136
  17.0454958  92.5217658  16.6980082  17.8282910  93.8174112  16.7183106
   8.7911987  79.6776651  16.3846276   8.0698573  80.2912618  16.2453750
   9.5805243  80.2134415  16.3062922  19.2338727  91.1236938  18.8348686
  18.2869063  91.0042289  18.7627013  19.5821500  90.2359436  18.9174948
  11.5938301  77.0131077  22.6586928  12.1172702  77.2593374  23.4213237
  11.3750634  77.8451112  22.2390066  16.2385160  90.9189654  15.0353039
  16.0910123  89.9906362  15.2160609  17.0638654  90.9409745  14.5510114
  19.8419282  91.7418213  16.1217911  20.7665830  91.5361075  15.9842362
  19.6734586  91.4934614  17.0307253  12.7990846  77.9544772  20.3436599
  12.4587666  77.1552585  20.7457279  12.0929852  78.2546483  19.7713432
  13.4507317  75.0394085  18.7963922  14.2733387  74.5654563  18.6742812
  13.6945381  75.8184568  19.2962608  16.2346675  78.7727492  10.0285156
  16.4510289  79.6552130   9.7273984  15.7540742  78.3813705   9.2990798
  10.9745896  81.7313205  16.6055900  10.8290477  82.0453508  17.4980182
  10.4971100  82.3498106  16.0526799  12.8342279  78.7215753  16.6536790
  12.8203848  77.8256847  16.3169088  13.5514707  78.7286417  17.2875076
  14.6868410  79.1553094  18.6989917  14.4286188  80.0770164  18.6974248
  14.1553450  78.7583528  19.3890381  19.6314598  92.2603881  11.4780003
  19.8051476  91.6950303  10.7253855  20.1243490  93.0604776  11.2959493
   5.4491558  84.2718550  19.5443562   4.9045026  85.0478358  19.6763836
   6.3270908  84.6189354  19.3862683  12.2379175  77.6030134  11.9224360
  12.3595086  76.6746780  12.1215248  11.9481217  77.6168820  11.0102675
  15.1070365  75.2885044  15.0591080  15.1292062  75.3524377  14.1043059
  15.5238424  74.4489553  15.2531586  25.4853990  85.0240304  13.0970302
  25.9285136  84.2747629  12.6989426  24.6080500  85.0150440  12.7144034
   6.2357580  83.3988446  22.4373718   5.4939316  83.5471081  23.0238349
   5.9150324  83.6596712  21.5740468  22.5181194  89.0270351  10.1064232
  23.0432518  89.3657623   9.3813552  22.4303547  88.0917366   9.9227366
  14.1801243  92.9404424  22.2354108  14.4888369  92.6953571  23.1076808
  14.9776725  93.1451063  21.7472979  11.7220254  79.1162131  26.1314293
  11.7708410  79.9924254  25.7492062  12.2642769  78.5739524  25.5585936
  22.2075100  89.6603254  25.4115430  21.4170644  89.6427393  24.8719929
  21.9708455  90.1991548  26.1664466  22.3272975  86.5095721  22.7248158
  22.3770980  86.3445728  23.6663681  22.2186899  85.6422980  22.3346039
  19.6176738  82.4926649  24.0407465  20.5186600  82.3533113  23.7491463
  19.6924712  82.6581103  24.9805642  13.9519543  79.8693503  22.8860651
  13.0822852  80.1627069  22.6143240  14.1879023  80.4533948  23.6067915
  23.8291172  88.9292662  22.9690180  23.5375980  89.2922643  23.8053641
  23.2163303  88.2159670  22.7903512  25.0286854  86.4945542  15.4892750
  25.8633746  86.9335346  15.6530310  25.1645983  86.0184195  14.6700996
  22.0778360  84.0525277  21.4370238  22.5532482  84.2452923  20.6289089
  21.1543926  84.1084463  21.1913621  16.6558577  76.0873120  20.4026072
  17.1740521  76.8234147  20.0772560  16.3013710  76.3937114  21.2372831
  16.9071171  72.5073403  15.9226968  17.1872925  71.8396592  16.5487395
  17.6921778  72.7002498  15.4101632  20.7780029  80.9291037  19.6698543
  21.7297452  81.0289134  19.6910767  20.6083480  80.1369305  20.1796628
  18.7994409  78.0146620  19.8557944  18.2044341  78.2951633  19.1604433
  18.5144105  78.5040521  20.6274685  23.2568107  84.1497156  18.7840843
  23.2244427  83.2113157  18.9700527  23.8668731  84.2281193  18.0506668
  23.4062596  80.9408200  18.8299126  22.8901644  80.1566657  18.6429055
  24.2902544  80.6126917  18.9945646  21.0673322  74.6849215  14.7894939
  20.8698144  74.3764304  15.6738271  21.6773028  75.4110854  14.9192869
  29.0744657  85.2113163  17.9246880  29.8048045  84.9498451  18.4854583
  28.4651602  84.4741885  17.9648948  27.1559954  83.3521026  18.5221331
  26.4293118  83.2176991  17.9137823  26.7407241  83.6597855  19.3278049
  14.9790130  87.0710956  26.2868704  15.8993140  87.2489555  26.4808751
  14.9439713  86.1267001  26.1348403   7.9752203  84.9811990  18.9291485
   8.1938213  85.9129098  18.9479519   8.3877977  84.6219965  19.7146289
  14.8956421  75.4880076  10.9167174  14.0857149  75.1427161  11.2922420
  15.5840838  75.1787619  11.5054785  16.8246969  74.5658122  12.5391470
  17.3778008  74.9853576  13.1981493  17.0617055  73.6393870  12.5814426
  12.8480068  80.5545196  28.3194234  12.7476795  81.5039553  28.2506325
  12.6301610  80.2263435  27.4470304  20.2025776  76.6758648  12.0470135
  19.6224445  77.3343452  11.6648187  19.9361709  75.8535992  11.6357552
  18.6529343  76.0763705  14.2491455  19.1529121  76.1880240  13.4405774
  19.2964950  75.7724758  14.8892263  12.7111338  83.9842335  27.1359296
  12.2278420  84.7842695  27.3423185  12.7972277  83.9950280  26.1826740
   8.6384676  87.8746870  19.1727730   9.5927929  87.8430812  19.1057661
   8.4397199  87.4137493  19.9877955   9.2284058  86.4447986  21.7398527
  10.0476947  86.9392064  21.7633365   9.5020866  85.5279954  21.7116095
  18.9850654  78.8358738  11.1026483  18.0976509  79.1208389  10.8846678
  19.4004643  78.6752501  10.2553760  22.3365190  78.8605259  14.8180822
  23.1125580  79.3501711  15.0905439  21.6113325  79.2863313  15.2752692
  24.7737749  79.5732878  15.8754763  25.3682240  79.3328614  15.1648071
  24.8464333  78.8540009  16.5028299  18.9591678  84.3513274  11.3176773
  18.9026879  84.8081825  10.4784405  19.5120020  83.5903958  11.1399616
  22.7696484  80.1403006  12.1426892  22.5133418  79.7399641  12.9735100
  22.1449352  80.8546800  12.0177032  27.0808822  82.8799079  14.6498184
  26.5208380  82.9492268  15.4229746  26.4752325  82.7040064  13.9297680
  19.6926457  85.5418055   8.6129302  19.6375261  85.3762327   7.6717746
  19.0672513  86.2494088   8.7691492   4.4818972  80.7786119  22.4390724
   5.1277836  80.2685073  22.9277949   4.2736123  81.5154801  23.0134150
  17.0072364  87.8466967  27.9382865  17.8763524  88.0207619  27.5769500
  16.5279116  88.6661384  27.8158594  13.0022583  75.0426164   8.1914620
  12.9901253  75.9868004   8.3482891  13.8946005  74.8596310   7.8974082
  11.1758545  94.9664068  19.6172299  12.0785791  94.9987678  19.9338793
  10.9495915  94.0364519  19.6318634  16.8174702  71.6368941  12.4460557
  16.0507098  71.0827427  12.5917240  17.2285407  71.7090810  13.3074709
   8.8216463  77.9253737  26.5365739   9.6847925  77.5690541  26.7469063
   8.2481874  77.5867631  27.2241143  28.6664840  99.5555593  17.3428140
  29.3043250  99.4362340  16.6391480  28.5485683 100.5036437  17.4016092
  25.4754546  99.5083021  17.2789664  25.1373058  99.3924086  16.3910199
  26.3444315  99.1074186  17.2590670  25.9574329 100.6617873  23.2375870
  25.9462970 100.2670671  22.3656373  26.1194969  99.9283945  23.8309641
  22.6781591 103.4454985  22.1855054  22.3871457 104.3500615  22.0701720
  23.3138575 103.4871512  22.8999123  23.6037797 100.8231833  18.7756413
  24.2001370 100.5987855  18.0613376  23.6612769 100.0816579  19.3781861
  28.2206109  97.2807047  14.4181348  29.0069198  96.8626470  14.0671765
  28.4844813  98.1853139  14.5862996  33.6214536  97.2182280  15.3214326
  34.3539708  96.6481497  15.5552156  32.8653891  96.8303880  15.7620832
  25.2390655  99.6409521  12.5177669  24.8748863  99.1140142  13.2290590
  26.0957771  99.2507991  12.3444154  31.1439956  90.9303854  19.7808935
  30.8123281  91.7999265  19.5570150  30.5485570  90.6140138  20.4602965
  27.6371476 103.1316400  19.1804847  27.3372199 104.0341439  19.0720655
  27.2922535 102.8648583  20.0326000  21.0883957  99.5830197  15.2141552
  20.1634454  99.4506411  15.4219244  21.3368370 100.3624416  15.7111494
  31.0368619  95.6498940  16.8602285  30.1285497  95.5814349  16.5661046
  30.9856215  96.1270885  17.6884110  25.1109485  97.0688586  24.8037182
  24.3342819  97.6282506  24.7940047  25.7500048  97.5545369  25.3252052
  32.9030266  93.8515379  18.6380159  32.2604646  94.1447912  17.9919953
  32.3985194  93.7368299  19.4433355  30.5570430  97.5978552   9.3266018
  31.4688286  97.8305939   9.1513715  30.0480077  98.1815596   8.7641097
  23.3655858  99.8774039  24.3655149  24.1070542 100.4159083  24.0889973
  22.6592843 100.5040328  24.5226701  28.8411197 102.0203180  22.9627311
  29.2494553 101.5785590  22.2181943  28.1188459 101.4455807  23.2161503
  25.1942267  96.9575786  20.3360867  26.0403462  97.3815200  20.4795516
  25.1340905  96.3009411  21.0299431  29.1640012 102.5804370  16.7179599
  28.5348874 102.7450084  16.0155667  28.7765674 102.9945980  17.4890563
  33.0429244 103.5158808  14.0723963  32.3580282 103.8957709  13.5220996
  33.1273093 104.1254135  14.8055911  28.3441713  94.6180155  21.9942041
  28.1002644  95.3722215  21.4576317  28.6201643  94.9965502  22.8289288
  30.2980175 101.1618767  20.6719307  30.5097071 101.8050527  19.9953688
  30.2509924 100.3281084  20.2041237  27.9006404  93.7736588  17.5755879
  27.0390883  94.0717841  17.8672616  27.9268839  93.9906987  16.6436911
  24.7167974 102.3178778  13.9829685  25.1806319 102.5966481  13.1934307
  24.4524772 101.4162223  13.8002775  21.6092055 101.8650260  16.9209448
  22.1793412 102.2937528  16.2826932  22.2000167 101.5832845  17.6193633
  22.1017221  97.0313687  25.1670459  21.4715882  97.7129968  25.4005856
  21.9953309  96.9196769  24.2223597  31.4126003 104.0390723  18.8441664
  32.2343447 103.6370910  18.5624346  31.4088406 103.9358957  19.7957780
  25.1782607 103.5874766  21.0002375  25.2427039 104.0495173  21.8360546
  24.4693531 102.9572131  21.1284684  15.6799897  96.9515974  18.5251374
  15.9307935  97.8362984  18.7908950  16.2159445  96.7720575  17.7526466
  39.5031996 100.3829471  15.1926636  38.7495705  99.8136869  15.0370640
  39.6379538 100.3492136  16.1397270  21.3797964  91.3334453  27.5295710
  20.9864910  90.7800652  28.2043354  22.1964104  91.6445032  27.9202228
  24.2965925  92.7492332  25.1215967  25.0375638  93.3499485  25.0420429
  24.5283848  92.0069970  24.5634009  19.4407263  97.9348700  23.3994196
  19.3260778  97.0333957  23.7001295  18.5851781  98.1812396  23.0479013
  26.5199101 105.8766440  24.9981697  26.0762955 105.0902818  24.6802601
  27.1816314 106.0645590  24.3325588  21.2786222 107.4062241  19.5242375
  21.8293647 107.2779305  18.7519369  20.4397698 107.7057130  19.1737268
  28.6180339 106.1569240  23.0263098  28.5998814 106.9778121  22.5343367
  29.5400259 106.0323315  23.2513239  25.0753393 103.6713369  23.8686607
  25.6081730 102.9101657  23.6385915  24.5467474 103.3787021  24.6110761
  28.2423088  88.7773435  19.3980248  27.8987357  89.6675077  19.3219359
  28.6102051  88.5875093  18.5349833  25.7920482  93.6131747  12.9637922
  24.9362078  93.2238598  12.7843561  26.2047433  93.6923708  12.1037707
  27.3219628  91.1478090  17.3629482  26.8184424  91.1108226  16.5497287
  27.6150235  92.0570833  17.4226138  23.5662514  91.2316820  16.3695663
  24.4315511  91.0359629  16.0101553  23.6340023  91.0027172  17.2965020
  33.1807645 101.5214401   9.8405857  32.4037088 101.1825560   9.3961019
  33.8599126 101.5267024   9.1660822  27.9959674  96.6409138   9.7312465
  27.6909809  96.9555288  10.5822608  28.9490116  96.7190558   9.7739798
  31.4198952 100.9948382  16.4972465  30.7622626 101.6847644  16.5852594
  32.2239351 101.3844814  16.8406451  21.1724833  93.4619028  13.7412030
  21.7468585  93.2394210  13.0085223  21.7595816  93.5307723  14.4940631
  30.2304411  99.3492755  14.5476407  30.7436292  99.9822747  15.0498116
  30.8805634  98.7493950  14.1819767  23.4747501  90.3360277  12.4687100
  22.8211913  90.0209294  11.8443714  23.4327975  89.7136017  13.1946922
  26.7085241  96.8242210  16.7934747  25.7907803  97.0457157  16.6356435
  27.1245385  96.8988521  15.9346455  27.4920289  98.2233626  11.9237427
  28.2392108  98.7355023  11.6144549  27.7611879  97.9017679  12.7841821
  30.9966207 104.3298756  12.6755549  30.5428534 103.4889666  12.7320740
  30.3660173 104.9660155  13.0130329  29.9399126  95.2590742  13.9056217
  29.2021883  94.7468129  14.2366459  30.1925900  94.8191124  13.0939494
  29.4399146 106.1675253  13.6105367  29.7322120 106.7280310  12.8917733
  29.9497767 106.4603814  14.3658527  30.0410754  88.0366994  14.4997986
  30.3469630  87.1764358  14.2123901  30.7663358  88.6284615  14.2996980
  24.3131833  98.3320787  15.0074177  24.3680443  97.3794624  14.9316654
  23.5023035  98.4880227  15.4915475  22.2524193  96.9497847  12.7664556
  21.4392059  97.2492018  13.1729748  22.7483187  96.5553536  13.4839038
  27.8498405  97.4139672  21.5979450  28.2047793  97.6411145  22.4573916
  28.4970536  97.7458048  20.9756705  33.5796142 100.5358108  12.3028779
  33.4414040 100.7259704  11.3749968  33.2232361 101.2977490  12.7596830
  21.7438268  94.5216203  18.3825791  22.3837647  94.3804962  17.6848754
  20.9115799  94.2350716  18.0064393  33.6065521 102.6034635  17.3140050
  34.0402028 102.5109924  18.1623104  34.3197102 102.5792135  16.6760066
  27.3393416 106.2036729  18.8473151  27.3930439 106.7727665  19.6150867
  26.4708198 106.3738614  18.4827188  20.2191810  95.9054285  20.3297602
  20.8914863  95.6971647  19.6810251  19.3921596  95.7076371  19.8902835
  34.4681071 102.6458335  19.8472936  34.6616961 103.5504146  20.0932211
  34.3681689 102.1865754  20.6811521  26.1217382  92.5316226  22.3463263
  25.4745297  93.2306175  22.2527740  26.8918397  92.9652370  22.7139511
  29.5296180 102.7965078  25.4213816  29.3781686 102.5675630  24.5043900
  29.5200859 103.7535679  25.4345161  26.2981516 100.3696991  20.4060083
  27.2273576 100.5208150  20.2329050  25.8772546 100.4581012  19.5508729
  25.0969848 104.3947655  18.1758620  24.9580934 104.0266440  19.0484559
  24.3084444 104.9095295  18.0042578  26.6475063 103.7729258  15.5647458
  26.3124896 103.7330028  16.4605108  26.1479009 103.1073974  15.0917868
  20.6219307  99.1796888  21.0900039  20.4839105  98.4477127  21.6911578
  21.5324230  99.0905788  20.8084227  23.2501608  98.8916847  20.5783719
  23.9601226  98.2510039  20.5370337  23.2070916  99.1429742  21.5009900
  31.2388386 105.8284201  23.4990298  31.1800933 105.1443421  22.8320881
  31.6407905 106.5703191  23.0470924  21.9630542  95.8782065  22.3979359
  21.4267899  95.4272804  23.0500955  21.3747250  96.0127974  21.6549823
  31.2405794 103.7923784  21.7304278  30.3532572 103.4549706  21.8530677
  31.8104345 103.0606816  21.9673043  17.6969663  95.0138073  19.4832353
  17.6127852  94.4063742  18.7482763  16.8752369  95.5047091  19.4841849
  24.7706947 108.4525237  18.6965521  24.6977119 109.2580208  19.2084826
  24.3284340 108.6517203  17.8713543  27.8693377  93.4991636  14.8502548
  28.3662076  92.7461599  14.5303618  27.0980358  93.5355953  14.2845757
  35.7223134  99.2032002  16.4920840  35.7113010 100.0856717  16.1214773
  34.8540514  98.8503553  16.2975377  27.2305631 108.3512071  20.8523680
  27.9433603 108.9859536  20.7799581  26.7395659 108.4475937  20.0363682
  28.9523157 102.2563324  12.4240971  28.0179436 102.3764786  12.2545676
  29.1299826 101.3535790  12.1600981  24.4528346  95.6409019  14.5774233
  24.0826133  95.0880060  15.2655138  24.9487438  95.0367153  14.0249233
  32.3395709  98.0980643  12.9591006  32.8056161  98.9308634  12.8851308
  32.7903209  97.6325624  13.6636264  22.2817544 106.1006514  21.6729251
  22.9827004 106.7342997  21.8258645  21.8112659 106.4421246  20.9124890
  30.4071940 104.4424464   9.9577158  30.6831784 104.3281059  10.8671032
  29.5376439 104.0441949   9.9189331  30.3112372  90.4661230  16.9981907
  29.3975451  90.6965457  17.1664114  30.7405473  90.5499674  17.8495939
  30.0818830  98.6551122  19.4981801  29.4290280  98.9027029  18.8434254
  30.4599210  97.8415260  19.1644278  26.1306403  99.3970933  25.9847838
  25.4547040  99.2965062  26.6550213  26.9534037  99.2410147  26.4483835
  24.8729186 110.7037860  20.2205454  25.4247494 110.8669482  20.9854539
  25.2135379 111.2942298  19.5485479  19.8493679  93.0513010  20.8227339
  19.9135006  93.9127841  20.4104736  19.7860799  92.4387012  20.0899697
  19.3245952  95.1236143  24.4700373  19.9517991  94.7413220  25.0837897
  18.4673871  94.9050345  24.8356065  29.7240060 105.5299118  26.0754108
  30.2679964 106.1429076  25.5809063  29.1426905 106.0878696  26.5921121
  28.0097573 108.6519836  17.2069136  27.8848713 107.8509576  16.6980082
  28.6676664 109.1466029  16.7183106  19.6305741  95.0068568  16.3846276
  18.9092327  95.6204536  16.2453750  20.4198997  95.5426333  16.3062922
  30.0732482 106.4528856  18.8348686  29.1262817 106.3334207  18.7627013
  30.4215255 105.5651354  18.9174948  22.4332055  92.3422995  22.6586928
  22.9566457  92.5885291  23.4213237  22.2144388  93.1743030  22.2390066
  27.0778915 106.2481572  15.0353039  26.9303877 105.3198280  15.2160609
  27.9032408 106.2701663  14.5510114  30.6813037 107.0710131  16.1217911
  31.6059584 106.8652992  15.9842362  30.5128340 106.8226532  17.0307253
  23.6384600  93.2836690  20.3436599  23.2981420  92.4844503  20.7457279
  22.9323606  93.5838401  19.7713432  24.2901072  90.3686002  18.7963922
  25.1127141  89.8946481  18.6742812  24.5339135  91.1476486  19.2962608
  27.0740429  94.1019410  10.0285156  27.2904044  94.9844048   9.7273984
  26.5934496  93.7105623   9.2990798  21.8139651  97.0605123  16.6055900
  21.6684231  97.3745426  17.4980182  21.3364854  97.6790023  16.0526799
  23.6736033  94.0507671  16.6536790  23.6597602  93.1548764  16.3169088
  24.3908462  94.0578335  17.2875076  25.5262164  94.4845011  18.6989917
  25.2679942  95.4062082  18.6974248  24.9947205  94.0875446  19.3890381
  30.4708353 107.5895798  11.4780003  30.6445231 107.0242221  10.7253855
  30.9637244 108.3896693  11.2959493  16.2885313  99.6010467  19.5443562
  15.7438781 100.3770275  19.6763836  17.1664663  99.9481272  19.3862683
  23.0772929  92.9322051  11.9224360  23.1988841  92.0038697  12.1215248
  22.7874972  92.9460737  11.0102675  25.9464120  90.6176962  15.0591080
  25.9685817  90.6816295  14.1043059  26.3632179  89.7781470  15.2531586
  36.3247744 100.3532221  13.0970302  36.7678890  99.6039546  12.6989426
  35.4474254 100.3442358  12.7144034  17.0751335  98.7280364  22.4373718
  16.3333071  98.8762999  23.0238349  16.7544079  98.9888629  21.5740468
  33.3574949 104.3562268  10.1064232  33.8826273 104.6949541   9.3813552
  33.2697301 103.4209284   9.9227366  25.0194997 108.2696342  22.2354108
  25.3282124 108.0245489  23.1076808  25.8170479 108.4742980  21.7472979
  22.5614009  94.4454049  26.1314293  22.6102164  95.3216171  25.7492062
  23.1036523  93.9031442  25.5585936  33.0468855 104.9895172  25.4115430
  32.2564398 104.9719311  24.8719929  32.8102209 105.5283466  26.1664466
  33.1666730 101.8387638  22.7248158  33.2164735 101.6737646  23.6663681
  33.0580653 100.9714897  22.3346039  30.4570492  97.8218566  24.0407465
  31.3580355  97.6825031  23.7491463  30.5318467  97.9873021  24.9805642
  24.7913297  95.1985421  22.8860651  23.9216607  95.4918987  22.6143240
  25.0272778  95.7825866  23.6067915  34.6684927 104.2584580  22.9690180
  34.3769735 104.6214560  23.8053641  34.0557058 103.5451588  22.7903512
  35.8680609 101.8237460  15.4892750  36.7027500 102.2627264  15.6530310
  36.0039738 101.3476113  14.6700996  32.9172115  99.3817194  21.4370238
  33.3926236  99.5744841  20.6289089  31.9937680  99.4376380  21.1913621
  27.4952331  91.4165038  20.4026072  28.0134275  92.1526065  20.0772560
  27.1407464  91.7229031  21.2372831  27.7464925  87.8365320  15.9226968
  28.0266679  87.1688510  16.5487395  28.5315532  88.0294416  15.4101632
  31.6173784  96.2582954  19.6698543  32.5691207  96.3581052  19.6910767
  31.4477234  95.4661223  20.1796628  29.6388163  93.3438538  19.8557944
  29.0438095  93.6243550  19.1604433  29.3537860  93.8332439  20.6274685
  34.0961862  99.4789074  18.7840843  34.0638182  98.5405075  18.9700527
  34.7062485  99.5573111  18.0506668  34.2456350  96.2700118  18.8299126
  33.7295399  95.4858574  18.6429055  35.1296299  95.9418834  18.9945646
  31.9067077  90.0141133  14.7894939  31.7091898  89.7056221  15.6738271
  32.5166783  90.7402772  14.9192869  39.9138411 100.5405081  17.9246880
  40.6441800 100.2790369  18.4854583  39.3045357  99.8033803  17.9648948
  37.9953709  98.6812944  18.5221331  37.2686872  98.5468909  17.9137823
  37.5800995  98.9889772  19.3278049  25.8183885 102.4002873  26.2868704
  26.7386894 102.5781472  26.4808751  25.7833468 101.4558919  26.1348403
  18.8145957 100.3103908  18.9291485  19.0331967 101.2421016  18.9479519
  19.2271731  99.9511882  19.7146289  25.7350175  90.8171993  10.9167174
  24.9250904  90.4719078  11.2922420  26.4234592  90.5079537  11.5054785
  27.6640724  89.8950040  12.5391470  28.2171762  90.3145493  13.1981493
  27.9010810  88.9685788  12.5814426  23.6873823  95.8837114  28.3194234
  23.5870550  96.8331471  28.2506325  23.4695365  95.5555353  27.4470304
  31.0419531  92.0050565  12.0470135  30.4618200  92.6635369  11.6648187
  30.7755463  91.1827910  11.6357552  29.4923097  91.4055623  14.2491455
  29.9922875  91.5172157  13.4405774  30.1358705  91.1016676  14.8892263
  23.5505093  99.3134253  27.1359296  23.0672175 100.1134613  27.3423185
  23.6366032  99.3242197  26.1826740  19.4778430 103.2038787  19.1727730
  20.4321684 103.1722730  19.1057661  19.2790954 102.7429411  19.9877955
  20.0677812 101.7739903  21.7398527  20.8870701 102.2683982  21.7633365
  20.3414620 100.8571871  21.7116095  29.8244409  94.1650656  11.1026483
  28.9370264  94.4500306  10.8846678  30.2398398  94.0044419  10.2553760
  33.1758945  94.1897177  14.8180822  33.9519335  94.6793629  15.0905439
  32.4507079  94.6155231  15.2752692  35.6131503  94.9024796  15.8754763
  36.2075994  94.6620532  15.1648071  35.6858087  94.1831926  16.5028299
  29.7985432  99.6805192  11.3176773  29.7420634 100.1373743  10.4784405
  30.3513775  98.9195876  11.1399616  33.6090238  95.4694923  12.1426892
  33.3527173  95.0691559  12.9735100  32.9843106  96.1838717  12.0177032
  37.9202576  98.2090997  14.6498184  37.3602134  98.2784186  15.4229746
  37.3146080  98.0331981  13.9297680  30.5320212 100.8709973   8.6129302
  30.4769016 100.7054244   7.6717746  29.9066267 101.5786006   8.7691492
  15.3212727  96.1078037  22.4390724  15.9671590  95.5976991  22.9277949
  15.1129878  96.8446719  23.0134150  27.8466119 103.1758885  27.9382865
  28.7157279 103.3499537  27.5769500  27.3672870 103.9953301  27.8158594
  23.8416337  90.3718082   8.1914620  23.8295007  91.3159922   8.3482891
  24.7339759  90.1888227   7.8974082  22.0152299 110.2955986  19.6172299
  22.9179546 110.3279596  19.9338793  21.7889669 109.3656437  19.6318634
  27.6568457  86.9660858  12.4460557  26.8900852  86.4119345  12.5917240
  28.0679162  87.0382727  13.3074709  19.6610218  93.2545654  26.5365739
  20.5241679  92.8982459  26.7469063  19.0875628  92.9159549  27.2241143
  39.5058595 114.8847511  17.3428140  40.1437005 114.7654258  16.6391480
  39.3879438 115.8328355  17.4016092  36.3148301 114.8374939  17.2789664
  35.9766812 114.7216003  16.3910199  37.1838069 114.4366104  17.2590670
  36.7968084 115.9909790  23.2375870  36.7856725 115.5962589  22.3656373
  36.9588723 115.2575863  23.8309641  33.5175345 118.7746902  22.1855054
  33.2265211 119.6792533  22.0701720  34.1532329 118.8163430  22.8999123
  34.4431552 116.1523751  18.7756413  35.0395124 115.9279773  18.0613376
  34.5006523 115.4108496  19.3781861  39.0599863 112.6098964  14.4181348
  39.8462952 112.1918388  14.0671765  39.3238567 113.5145057  14.5862996
  44.4608290 112.5474198  15.3214326  45.1933462 111.9773414  15.5552156
  43.7047646 112.1595798  15.7620832  36.0784410 114.9701439  12.5177669
  35.7142617 114.4432060  13.2290590  36.9351526 114.5799908  12.3444154
  41.9833711 106.2595772  19.7808935  41.6517035 107.1291183  19.5570150
  41.3879324 105.9432056  20.4602965  38.4765230 118.4608318  19.1804847
  38.1765953 119.3633357  19.0720655  38.1316290 118.1940501  20.0326000
  31.9277712 114.9122115  15.2141552  31.0028208 114.7798329  15.4219244
  32.1762125 115.6916334  15.7111494  41.8762374 110.9790858  16.8602285
  40.9679251 110.9106266  16.5661046  41.8249970 111.4562803  17.6884110
  35.9503240 112.3980504  24.8037182  35.1736574 112.9574424  24.7940047
  36.5893803 112.8837286  25.3252052  43.7424020 109.1807296  18.6380159
  43.0998401 109.4739829  17.9919953  43.2378949 109.0660217  19.4433355
  41.3964184 112.9270470   9.3266018  42.3082040 113.1597856   9.1513715
  40.8873831 113.5107514   8.7641097  34.2049612 115.2065957  24.3655149
  34.9464296 115.7451001  24.0889973  33.4986597 115.8332246  24.5226701
  39.6804952 117.3495097  22.9627311  40.0888308 116.9077508  22.2181943
  38.9582213 116.7747725  23.2161503  36.0336022 112.2867704  20.3360867
  36.8797217 112.7107118  20.4795516  35.9734659 111.6301328  21.0299431
  40.0033766 117.9096288  16.7179599  39.3742629 118.0742002  16.0155667
  39.6159428 118.3237898  17.4890563  43.8822998 118.8450726  14.0723963
  43.1974036 119.2249627  13.5220996  43.9666848 119.4546052  14.8055911
  39.1835467 109.9472072  21.9942041  38.9396399 110.7014133  21.4576317
  39.4595398 110.3257420  22.8289288  41.1373930 116.4910685  20.6719307
  41.3490825 117.1342445  19.9953688  41.0903678 115.6573001  20.2041237
  38.7400159 109.1028505  17.5755879  37.8784638 109.4009759  17.8672616
  38.7662593 109.3198904  16.6436911  35.5561728 117.6470696  13.9829685
  36.0200074 117.9258399  13.1934307  35.2918526 116.7454141  13.8002775
  32.4485809 117.1942178  16.9209448  33.0187166 117.6229446  16.2826932
  33.0393921 116.9124762  17.6193633  32.9410976 112.3605605  25.1670459
  32.3109636 113.0421886  25.4005856  32.8347064 112.2488687  24.2223597
  42.2519758 119.3682640  18.8441664  43.0737201 118.9662828  18.5624346
  42.2482161 119.2650874  19.7957780  36.0176361 118.9166684  21.0002375
  36.0820794 119.3787091  21.8360546  35.3087285 118.2864048  21.1284684
  26.5193651 112.2807892  18.5251374  26.7701690 113.1654901  18.7908950
  27.0553200 112.1012493  17.7526466  50.3425751 115.7121389  15.1926636
  49.5889459 115.1428787  15.0370640  50.4773292 115.6784053  16.1397270
  32.2191718 106.6626371  27.5295710  31.8258664 106.1092569  28.2043354
  33.0357859 106.9736949  27.9202228  35.1359679 108.0784250  25.1215967
  35.8769393 108.6791403  25.0420429  35.3677602 107.3361888  24.5634009
  30.2801018 113.2640617  23.3994196  30.1654533 112.3625874  23.7001295
  29.4245535 113.5104314  23.0479013  37.3592855 121.2058358  24.9981697
  36.9156709 120.4194736  24.6802601  38.0210069 121.3937508  24.3325588
  32.1179976 122.7354159  19.5242375  32.6687402 122.6071222  18.7519369
  31.2791452 123.0349048  19.1737268  39.4574093 121.4861157  23.0263098
  39.4392569 122.3070039  22.5343367  40.3794013 121.3615233  23.2513239
  35.9147147 119.0005287  23.8686607  36.4475484 118.2393575  23.6385915
  35.3861229 118.7078939  24.6110761  39.0816842 104.1065353  19.3980248
  38.7381112 104.9966995  19.3219359  39.4495805 103.9167011  18.5349833
  36.6314236 108.9423665  12.9637922  35.7755833 108.5530515  12.7843561
  37.0441188 109.0215626  12.1037707  38.1613383 106.4770008  17.3629482
  37.6578178 106.4400143  16.5497287  38.4543990 107.3862751  17.4226138
  34.4056269 106.5608738  16.3695663  35.2709265 106.3651546  16.0101553
  34.4733778 106.3319090  17.2965020  44.0201399 116.8506319   9.8405857
  43.2430842 116.5117478   9.3961019  44.6992880 116.8558942   9.1660822
  38.8353428 111.9701056   9.7312465  38.5303564 112.2847205  10.5822608
  39.7883870 112.0482476   9.7739798  42.2592706 116.3240300  16.4972465
  41.6016381 117.0139561  16.5852594  43.0633105 116.7136732  16.8406451
  32.0118588 108.7910946  13.7412030  32.5862340 108.5686127  13.0085223
  32.5989570 108.8599640  14.4940631  41.0698165 114.6784673  14.5476407
  41.5830047 115.3114664  15.0498116  41.7199389 114.0785868  14.1819767
  34.3141255 105.6652195  12.4687100  33.6605668 105.3501212  11.8443714
  34.2721730 105.0427935  13.1946922  37.5478996 112.1534128  16.7934747
  36.6301557 112.3749075  16.6356435  37.9639139 112.2280439  15.9346455
  38.3314044 113.5525544  11.9237427  39.0785863 114.0646941  11.6144549
  38.6005633 113.2309597  12.7841821  41.8359961 119.6590674  12.6755549
  41.3822288 118.8181584  12.7320740  41.2053928 120.2952072  13.0130329
  40.7792881 110.5882660  13.9056217  40.0415638 110.0760046  14.2366459
  41.0319654 110.1483042  13.0939494  40.2792900 121.4967171  13.6105367
  40.5715875 122.0572228  12.8917733  40.7891521 121.7895732  14.3658527
  40.8804508 103.3658912  14.4997986  41.1863385 102.5056276  14.2123901
  41.6057113 103.9576532  14.2996980  35.1525588 113.6612705  15.0074177
  35.2074198 112.7086542  14.9316654  34.3416790 113.8172144  15.4915475
  33.0917948 112.2789765  12.7664556  32.2785813 112.5783935  13.1729748
  33.5876942 111.8845454  13.4839038  38.6892159 112.7431589  21.5979450
  39.0441547 112.9703063  22.4573916  39.3364291 113.0749966  20.9756705
  44.4189896 115.8650025  12.3028779  44.2807795 116.0551621  11.3749968
  44.0626115 116.6269408  12.7596830  32.5832023 109.8508120  18.3825791
  33.2231402 109.7096880  17.6848754  31.7509553 109.5642634  18.0064393
  44.4459276 117.9326552  17.3140050  44.8795783 117.8401841  18.1623104
  45.1590857 117.9084053  16.6760066  38.1787171 121.5328646  18.8473151
  38.2324193 122.1019583  19.6150867  37.3101952 121.7030531  18.4827188
  31.0585564 111.2346203  20.3297602  31.7308618 111.0263565  19.6810251
  30.2315351 111.0368289  19.8902835  45.3074826 117.9750253  19.8472936
  45.5010716 118.8796063  20.0932211  45.2075444 117.5157672  20.6811521
  36.9611136 107.8608144  22.3463263  36.3139051 108.5598093  22.2527740
  37.7312152 108.2944287  22.7139511  40.3689934 118.1256996  25.4213816
  40.2175441 117.8967547  24.5043900  40.3594614 119.0827597  25.4345161
  37.1375271 115.6988908  20.4060083  38.0667331 115.8500068  20.2329050
  36.7166301 115.7872929  19.5508729  35.9363602 119.7239573  18.1758620
  35.7974688 119.3558357  19.0484559  35.1478199 120.2387212  18.0042578
  37.4868818 119.1021176  15.5647458  37.1518650 119.0621946  16.4605108
  36.9872763 118.4365891  15.0917868  31.4613062 114.5088806  21.0900039
  31.3232859 113.7769044  21.6911578  32.3717985 114.4197706  20.8084227
  34.0895362 114.2208765  20.5783719  34.7994981 113.5801957  20.5370337
  34.0464670 114.4721660  21.5009900  42.0782141 121.1576118  23.4990298
  42.0194687 120.4735338  22.8320881  42.4801659 121.8995108  23.0470924
  32.8024296 111.2073983  22.3979359  32.2661653 110.7564721  23.0500955
  32.2141005 111.3419892  21.6549823  42.0799548 119.1215702  21.7304278
  41.1926327 118.7841624  21.8530677  42.6498099 118.3898733  21.9673043
  28.5363417 110.3429990  19.4832353  28.4521606 109.7355660  18.7482763
  27.7146124 110.8339009  19.4841849  35.6100702 123.7817155  18.6965521
  35.5370873 124.5872126  19.2084826  35.1678095 123.9809120  17.8713543
  38.7087131 108.8283554  14.8502548  39.2055831 108.0753516  14.5303618
  37.9374113 108.8647871  14.2845757  46.5616889 114.5323920  16.4920840
  46.5506765 115.4148635  16.1214773  45.6934268 114.1795470  16.2975377
  38.0699385 123.6803989  20.8523680  38.7827357 124.3151453  20.7799581
  37.5789414 123.7767855  20.0363682  39.7916912 117.5855241  12.4240971
  38.8573191 117.7056704  12.2545676  39.9693580 116.6827708  12.1600981
  35.2922100 110.9700937  14.5774233  34.9219888 110.4171977  15.2655138
  35.7881192 110.3659070  14.0249233  43.1789463 113.4272561  12.9591006
  43.6449916 114.2600552  12.8851308  43.6296964 112.9617542  13.6636264
  33.1211299 121.4298432  21.6729251  33.8220758 122.0634915  21.8258645
  32.6506414 121.7713164  20.9124890  41.2465694 119.7716382   9.9577158
  41.5225538 119.6572976  10.8671032  40.3770193 119.3733867   9.9189331
  41.1506126 105.7953147  16.9981907  40.2369206 106.0257374  17.1664114
  41.5799228 105.8791592  17.8495939  40.9212585 113.9843039  19.4981801
  40.2684035 114.2318947  18.8434254  41.2992964 113.1707178  19.1644278
  36.9700158 114.7262851  25.9847838  36.2940795 114.6256980  26.6550213
  37.7927791 114.5702064  26.4483835  35.7122940 126.0329778  20.2205454
  36.2641248 126.1961399  20.9854539  36.0529134 126.6234216  19.5485479
  30.6887434 108.3804928  20.8227339  30.7528760 109.2419759  20.4104736
  30.6254554 107.7678929  20.0899697  30.1639706 110.4528060  24.4700373
  30.7911745 110.0705138  25.0837897  29.3067625 110.2342262  24.8356065
  40.5633815 120.8591035  26.0754108  41.1073719 121.4720994  25.5809063
  39.9820660 121.4170614  26.5921121  38.8491328 123.9811753  17.2069136
  38.7242467 123.1801493  16.6980082  39.5070419 124.4757947  16.7183106
  30.4699496 110.3360486  16.3846276  29.7486082 110.9496454  16.2453750
  31.2592752 110.8718251  16.3062922  40.9126236 121.7820774  18.8348686
  39.9656572 121.6626125  18.7627013  41.2609009 120.8943272  18.9174948
  33.2725809 107.6714912  22.6586928  33.7960211 107.9177209  23.4213237
  33.0538143 108.5034947  22.2390066  37.9172669 121.5773490  15.0353039
  37.7697632 120.6490197  15.2160609  38.7426163 121.5993581  14.5510114
  41.5206791 122.4002049  16.1217911  42.4453339 122.1944910  15.9842362
  41.3522095 122.1518450  17.0307253  34.4778355 108.6128608  20.3436599
  34.1375175 107.8136421  20.7457279  33.7717361 108.9130318  19.7713432
  35.1294826 105.6977920  18.7963922  35.9520896 105.2238398  18.6742812
  35.3732890 106.4768404  19.2962608  37.9134184 109.4311327  10.0285156
  38.1297798 110.3135965   9.7273984  37.4328251 109.0397541   9.2990798
  32.6533405 112.3897041  16.6055900  32.5077986 112.7037344  17.4980182
  32.1758609 113.0081941  16.0526799  34.5129788 109.3799589  16.6536790
  34.4991357 108.4840682  16.3169088  35.2302216 109.3870252  17.2875076
  36.3655919 109.8136929  18.6989917  36.1073697 110.7354000  18.6974248
  35.8340959 109.4167363  19.3890381  41.3102107 122.9187716  11.4780003
  41.4838985 122.3534138  10.7253855  41.8030999 123.7188611  11.2959493
  27.1279067 114.9302385  19.5443562  26.5832535 115.7062193  19.6763836
  28.0058417 115.2773190  19.3862683  33.9166684 108.2613969  11.9224360
  34.0382595 107.3330615  12.1215248  33.6268726 108.2752655  11.0102675
  36.7857874 105.9468879  15.0591080  36.8079571 106.0108212  14.1043059
  37.2025933 105.1073388  15.2531586  47.1641499 115.6824139  13.0970302
  47.6072645 114.9331464  12.6989426  46.2868009 115.6734275  12.7144034
  27.9145089 114.0572281  22.4373718  27.1726825 114.2054917  23.0238349
  27.5937833 114.3180547  21.5740468  44.1968703 119.6854186  10.1064232
  44.7220027 120.0241459   9.3813552  44.1091056 118.7501201   9.9227366
  35.8588752 123.5988260  22.2354108  36.1675878 123.3537406  23.1076808
  36.6564234 123.8034898  21.7472979  33.4007763 109.7745966  26.1314293
  33.4495919 110.6508089  25.7492062  33.9430278 109.2323359  25.5585936
  43.8862609 120.3187090  25.4115430  43.0958153 120.3011228  24.8719929
  43.6495964 120.8575383  26.1664466  44.0060484 117.1679556  22.7248158
  44.0558489 117.0029563  23.6663681  43.8974408 116.3006815  22.3346039
  41.2964247 113.1510484  24.0407465  42.1974109 113.0116949  23.7491463
  41.3712221 113.3164939  24.9805642  35.6307052 110.5277339  22.8860651
  34.7610361 110.8210905  22.6143240  35.8666532 111.1117784  23.6067915
  45.5078681 119.5876497  22.9690180  45.2163489 119.9506478  23.8053641
  44.8950812 118.8743506  22.7903512  46.7074363 117.1529377  15.4892750
  47.5421255 117.5919181  15.6530310  46.8433492 116.6768030  14.6700996
  43.7565869 114.7109112  21.4370238  44.2319991 114.9036758  20.6289089
  42.8331435 114.7668298  21.1913621  38.3346086 106.7456956  20.4026072
  38.8528030 107.4817983  20.0772560  37.9801219 107.0520949  21.2372831
  38.5858680 103.1657238  15.9226968  38.8660434 102.4980427  16.5487395
  39.3709287 103.3586334  15.4101632  42.4567538 111.5874872  19.6698543
  43.4084961 111.6872970  19.6910767  42.2870989 110.7953141  20.1796628
  40.4781918 108.6730455  19.8557944  39.8831850 108.9535468  19.1604433
  40.1931614 109.1624356  20.6274685  44.9355616 114.8080992  18.7840843
  44.9031936 113.8696993  18.9700527  45.5456240 114.8865029  18.0506668
  45.0850105 111.5992035  18.8299126  44.5689153 110.8150492  18.6429055
  45.9690053 111.2710752  18.9945646  42.7460831 105.3433051  14.7894939
  42.5485653 105.0348139  15.6738271  43.3560537 106.0694690  14.9192869
  50.7532166 115.8696999  17.9246880  51.4835554 115.6082287  18.4854583
  50.1439111 115.1325721  17.9648948  48.8347463 114.0104861  18.5221331
  48.1080627 113.8760826  17.9137823  48.4194750 114.3181690  19.3278049
  36.6577639 117.7294791  26.2868704  37.5780649 117.9073390  26.4808751
  36.6227222 116.7850836  26.1348403  29.6539712 115.6395826  18.9291485
  29.8725722 116.5712933  18.9479519  30.0665486 115.2803800  19.7146289
  36.5743930 106.1463911  10.9167174  35.7644658 105.8010996  11.2922420
  37.2628347 105.8371455  11.5054785  38.5034478 105.2241958  12.5391470
  39.0565517 105.6437411  13.1981493  38.7404564 104.2977706  12.5814426
  34.5267577 111.2129031  28.3194234  34.4264304 112.1623388  28.2506325
  34.3089119 110.8847270  27.4470304  41.8813285 107.3342483  12.0470135
  41.3011954 107.9927287  11.6648187  41.6149218 106.5119827  11.6357552
  40.3316852 106.7347541  14.2491455  40.8316630 106.8464075  13.4405774
  40.9752459 106.4308593  14.8892263  34.3898847 114.6426170  27.1359296
  33.9065929 115.4426530  27.3423185  34.4759786 114.6534115  26.1826740
  30.3172185 118.5330705  19.1727730  31.2715438 118.5014647  19.1057661
  30.1184708 118.0721329  19.9877955  30.9071567 117.1031821  21.7398527
  31.7264456 117.5975900  21.7633365  31.1808375 116.1863789  21.7116095
  40.6638163 109.4942573  11.1026483  39.7764018 109.7792224  10.8846678
  41.0792152 109.3336337  10.2553760  44.0152699 109.5189094  14.8180822
  44.7913089 110.0085547  15.0905439  43.2900833 109.9447148  15.2752692
  46.4525258 110.2316713  15.8754763  47.0469749 109.9912449  15.1648071
  46.5251842 109.5123844  16.5028299  40.6379187 115.0097109  11.3176773
  40.5814388 115.4665661  10.4784405  41.1907529 114.2487794  11.1399616
  44.4483993 110.7986841  12.1426892  44.1920927 110.3983477  12.9735100
  43.8236861 111.5130635  12.0177032  48.7596331 113.5382914  14.6498184
  48.1995889 113.6076104  15.4229746  48.1539834 113.3623899  13.9297680
  41.3713966 116.2001890   8.6129302  41.3162770 116.0346162   7.6717746
  40.7460022 116.9077923   8.7691492  26.1606481 111.4369955  22.4390724
  26.8065345 110.9268909  22.9277949  25.9523632 112.1738636  23.0134150
  38.6859873 118.5050802  27.9382865  39.5551033 118.6791455  27.5769500
  38.2066625 119.3245219  27.8158594  34.6810092 105.7009999   8.1914620
  34.6688762 106.6451839   8.3482891  35.5733514 105.5180145   7.8974082
  32.8546054 125.6247903  19.6172299  33.7573300 125.6571514  19.9338793
  32.6283424 124.6948354  19.6318634  38.4962211 102.2952776  12.4460557
  37.7294607 101.7411263  12.5917240  38.9072916 102.3674645  13.3074709
  30.5003972 108.5837572  26.5365739  31.3635434 108.2274377  26.7469063
  29.9269383 108.2451467  27.2241143  50.3452349 130.2139428  17.3428140
  50.9830759 130.0946176  16.6391480  50.2273192 131.1620272  17.4016092
  47.1542055 130.1666856  17.2789664  46.8160567 130.0507921  16.3910199
  48.0231824 129.7658021  17.2590670  47.6361838 131.3201708  23.2375870
  47.6250479 130.9254506  22.3656373  47.7982478 130.5867781  23.8309641
  45.2825306 131.4815668  18.7756413  45.8788879 131.2571691  18.0613376
  45.3400278 130.7400414  19.3781861  49.8993618 127.9390882  14.4181348
  50.6856707 127.5210305  14.0671765  50.1632322 128.8436974  14.5862996
  55.3002045 127.8766115  15.3214326  56.0327217 127.3065332  15.5552156
  54.5441400 127.4887716  15.7620832  46.9178164 130.2993357  12.5177669
  46.5536372 129.7723978  13.2290590  47.7745280 129.9091826  12.3444154
  52.8227465 121.5887689  19.7808935  52.4910790 122.4583100  19.5570150
  52.2273078 121.2723973  20.4602965  49.3158985 133.7900235  19.1804847
  49.0159708 134.6925274  19.0720655  48.9710044 133.5232419  20.0326000
  42.7671466 130.2414032  15.2141552  41.8421963 130.1090246  15.4219244
  43.0155879 131.0208251  15.7111494  52.7156128 126.3082776  16.8602285
  51.8073006 126.2398184  16.5661046  52.6643724 126.7854721  17.6884110
  46.7896994 127.7272421  24.8037182  46.0130328 128.2866341  24.7940047
  47.4287557 128.2129204  25.3252052  54.5817775 124.5099214  18.6380159
  53.9392155 124.8031747  17.9919953  54.0772703 124.3952134  19.4433355
  45.0443367 130.5357875  24.3655149  45.7858051 131.0742919  24.0889973
  44.3380352 131.1624163  24.5226701  50.5198706 132.6787015  22.9627311
  50.9282062 132.2369426  22.2181943  49.7975968 132.1039643  23.2161503
  46.8729776 127.6159622  20.3360867  47.7190971 128.0399035  20.4795516
  46.8128414 126.9593246  21.0299431  50.8427521 133.2388206  16.7179599
  50.2136383 133.4033920  16.0155667  50.4553183 133.6529815  17.4890563
  50.0229222 125.2763990  21.9942041  49.7790153 126.0306051  21.4576317
  50.2989152 125.6549338  22.8289288  51.9767684 131.8202603  20.6719307
  52.1884580 132.4634362  19.9953688  51.9297433 130.9864919  20.2041237
  49.5793913 124.4320423  17.5755879  48.7178392 124.7301677  17.8672616
  49.6056348 124.6490822  16.6436911  46.3955483 132.9762614  13.9829685
  46.8593828 133.2550317  13.1934307  46.1312281 132.0746058  13.8002775
  43.7804730 127.6897523  25.1670459  43.1503391 128.3713804  25.4005856
  43.6740818 127.5780604  24.2223597  53.0913512 134.6974558  18.8441664
  53.9130956 134.2954745  18.5624346  53.0875915 134.5942792  19.7957780
  37.3587406 127.6099809  18.5251374  37.6095444 128.4946819  18.7908950
  37.8946954 127.4304411  17.7526466  43.0585473 121.9918289  27.5295710
  42.6652419 121.4384487  28.2043354  43.8751613 122.3028867  27.9202228
  45.9753434 123.4076168  25.1215967  46.7163147 124.0083321  25.0420429
  46.2071357 122.6653805  24.5634009  41.1194772 128.5932535  23.3994196
  41.0048287 127.6917792  23.7001295  40.2639290 128.8396232  23.0479013
  49.9210597 119.4357271  19.3980248  49.5774866 120.3258912  19.3219359
  50.2889560 119.2458928  18.5349833  47.4707991 124.2715582  12.9637922
  46.6149587 123.8822433  12.7843561  47.8834942 124.3507543  12.1037707
  49.0007137 121.8061926  17.3629482  48.4971933 121.7692061  16.5497287
  49.2937744 122.7154668  17.4226138  45.2450023 121.8900655  16.3695663
  46.1103020 121.6943464  16.0101553  45.3127532 121.6611007  17.2965020
  53.0986461 131.6532218  16.4972465  52.4410135 132.3431479  16.5852594
  53.9026860 132.0428650  16.8406451  42.8512342 124.1202863  13.7412030
  43.4256094 123.8978045  13.0085223  43.4383325 124.1891558  14.4940631
  51.9091919 130.0076590  14.5476407  52.4223801 130.6406582  15.0498116
  52.5593143 129.4077786  14.1819767  45.1535010 120.9944112  12.4687100
  44.4999422 120.6793129  11.8443714  45.1115484 120.3719853  13.1946922
  48.3872750 127.4826046  16.7934747  47.4695312 127.7040993  16.6356435
  48.8032894 127.5572356  15.9346455  51.6186635 125.9174578  13.9056217
  50.8809392 125.4051964  14.2366459  51.8713409 125.4774959  13.0939494
  51.7198263 118.6950830  14.4997986  52.0257139 117.8348193  14.2123901
  52.4450867 119.2868450  14.2996980  45.9919342 128.9904623  15.0074177
  46.0467952 128.0378459  14.9316654  45.1810544 129.1464062  15.4915475
  43.9311702 127.6081683  12.7664556  43.1179568 127.9075853  13.1729748
  44.4270696 127.2137371  13.4839038  49.5285914 128.0723507  21.5979450
  49.8835302 128.2994980  22.4573916  50.1758045 128.4041884  20.9756705
  43.4225777 125.1800038  18.3825791  44.0625156 125.0388797  17.6848754
  42.5903308 124.8934551  18.0064393  41.8979319 126.5638120  20.3297602
  42.5702372 126.3555482  19.6810251  41.0709105 126.3660206  19.8902835
  56.1468580 133.3042171  19.8472936  56.3404470 134.2087981  20.0932211
  56.0469198 132.8449590  20.6811521  47.8004891 123.1900061  22.3463263
  47.1532806 123.8890011  22.2527740  48.5705906 123.6236205  22.7139511
  51.2083689 133.4548913  25.4213816  51.0569195 133.2259465  24.5043900
  51.1988368 134.4119515  25.4345161  47.9769025 131.0280826  20.4060083
  48.9061085 131.1791986  20.2329050  47.5560055 131.1164847  19.5508729
  42.3006816 129.8380723  21.0900039  42.1626614 129.1060962  21.6911578
  43.2111739 129.7489623  20.8084227  44.9289117 129.5500683  20.5783719
  45.6388735 128.9093875  20.5370337  44.8858425 129.8013577  21.5009900
  43.6418051 126.5365900  22.3979359  43.1055408 126.0856639  23.0500955
  43.0534759 126.6711809  21.6549823  52.9193303 134.4507620  21.7304278
  52.0320081 134.1133542  21.8530677  53.4891854 133.7190651  21.9673043
  39.3757172 125.6721908  19.4832353  39.2915361 125.0647578  18.7482763
  38.5539878 126.1630926  19.4841849  49.5480886 124.1575472  14.8502548
  50.0449585 123.4045434  14.5303618  48.7767867 124.1939788  14.2845757
  57.4010643 129.8615837  16.4920840  57.3900519 130.7440553  16.1214773
  56.5328023 129.5087388  16.2975377  46.1315855 126.2992855  14.5774233
  45.7613642 125.7463895  15.2655138  46.6274947 125.6950988  14.0249233
  51.9899881 121.1245065  16.9981907  51.0762960 121.3549292  17.1664114
  52.4192982 121.2083509  17.8495939  51.7606339 129.3134957  19.4981801
  51.1077789 129.5610865  18.8434254  52.1386719 128.4999095  19.1644278
  47.8093912 130.0554768  25.9847838  47.1334549 129.9548898  26.6550213
  48.6321546 129.8993982  26.4483835  41.5281188 123.7096845  20.8227339
  41.5922515 124.5711676  20.4104736  41.4648308 123.0970847  20.0899697
  41.0033461 125.7819978  24.4700373  41.6305500 125.3997055  25.0837897
  40.1461380 125.5634180  24.8356065  41.3093250 125.6652404  16.3846276
  40.5879836 126.2788371  16.2453750  42.0986506 126.2010168  16.3062922
  44.1119564 123.0006830  22.6586928  44.6353966 123.2469127  23.4213237
  43.8931897 123.8326865  22.2390066  45.3172109 123.9420525  20.3436599
  44.9768929 123.1428338  20.7457279  44.6111115 124.2422236  19.7713432
  45.9688581 121.0269838  18.7963922  46.7914650 120.5530316  18.6742812
  46.2126644 121.8060321  19.2962608  48.7527938 124.7603245  10.0285156
  48.9691553 125.6427883   9.7273984  48.2722005 124.3689459   9.2990798
  43.4927160 127.7188958  16.6055900  43.3471740 128.0329261  17.4980182
  43.0152363 128.3373859  16.0526799  45.3523542 124.7091506  16.6536790
  45.3385111 123.8132600  16.3169088  46.0695971 124.7162170  17.2875076
  47.2049673 125.1428847  18.6989917  46.9467451 126.0645917  18.6974248
  46.6734714 124.7459281  19.3890381  44.7560438 123.5905887  11.9224360
  44.8776350 122.6622533  12.1215248  44.4662481 123.6044573  11.0102675
  47.6251629 121.2760797  15.0591080  47.6473326 121.3400130  14.1043059
  48.0419688 120.4365306  15.2531586  38.7538844 129.3864199  22.4373718
  38.0120580 129.5346834  23.0238349  38.4331588 129.6472465  21.5740468
  44.2401518 125.1037884  26.1314293  44.2889673 125.9800007  25.7492062
  44.7824032 124.5615277  25.5585936  54.7256364 135.6479007  25.4115430
  53.9351907 135.6303146  24.8719929  54.4889718 136.1867301  26.1664466
  54.8454239 132.4971474  22.7248158  54.8952244 132.3321481  23.6663681
  54.7368162 131.6298733  22.3346039  52.1358001 128.4802402  24.0407465
  53.0367864 128.3408866  23.7491463  52.2105976 128.6456856  24.9805642
  46.4700806 125.8569256  22.8860651  45.6004116 126.1502822  22.6143240
  46.7060287 126.4409701  23.6067915  56.3472436 134.9168415  22.9690180
  56.0557244 135.2798396  23.8053641  55.7344567 134.2035423  22.7903512
  54.5959624 130.0401030  21.4370238  55.0713745 130.2328676  20.6289089
  53.6725189 130.0960216  21.1913621  49.1739840 122.0748873  20.4026072
  49.6921784 122.8109900  20.0772560  48.8194973 122.3812867  21.2372831
  49.4252434 118.4949156  15.9226968  49.7054188 117.8272345  16.5487395
  50.2103041 118.6878251  15.4101632  53.2961293 126.9166790  19.6698543
  54.2478716 127.0164888  19.6910767  53.1264743 126.1245058  20.1796628
  51.3175672 124.0022373  19.8557944  50.7225604 124.2827386  19.1604433
  51.0325369 124.4916274  20.6274685  55.7749371 130.1372910  18.7840843
  55.7425691 129.1988910  18.9700527  56.3849994 130.2156946  18.0506668
  55.9243859 126.9283953  18.8299126  55.4082908 126.1442410  18.6429055
  56.8083808 126.6002670  18.9945646  53.5854586 120.6724969  14.7894939
  53.3879407 120.3640057  15.6738271  54.1954292 121.3986607  14.9192869
  61.5925920 131.1988916  17.9246880  62.3229309 130.9374204  18.4854583
  60.9832866 130.4617638  17.9648948  59.6741218 129.3396779  18.5221331
  58.9474381 129.2052744  17.9137823  59.2588504 129.6473608  19.3278049
  47.4971394 133.0586709  26.2868704  48.4174403 133.2365308  26.4808751
  47.4620977 132.1142754  26.1348403  47.4137684 121.4755829  10.9167174
  46.6038413 121.1302914  11.2922420  48.1022101 121.1663372  11.5054785
  49.3428233 120.5533875  12.5391470  49.8959271 120.9729329  13.1981493
  49.5798319 119.6269624  12.5814426  45.3661332 126.5420949  28.3194234
  45.2658059 127.4915306  28.2506325  45.1482874 126.2139188  27.4470304
  52.7207040 122.6634401  12.0470135  52.1405709 123.3219205  11.6648187
  52.4542972 121.8411745  11.6357552  51.1710606 122.0639458  14.2491455
  51.6710384 122.1755993  13.4405774  51.8146214 121.7600511  14.8892263
  45.2292602 129.9718088  27.1359296  44.7459684 130.7718448  27.3423185
  45.3153541 129.9826033  26.1826740  51.5031918 124.8234491  11.1026483
  50.6157773 125.1084142  10.8846678  51.9185907 124.6628254  10.2553760
  54.8546454 124.8481012  14.8180822  55.6306844 125.3377464  15.0905439
  54.1294588 125.2739066  15.2752692  57.2919012 125.5608631  15.8754763
  57.8863503 125.3204367  15.1648071  57.3645596 124.8415762  16.5028299
  37.0000236 126.7661873  22.4390724  37.6459099 126.2560826  22.9277949
  36.7917387 127.5030554  23.0134150  49.5253628 133.8342720  27.9382865
  50.3944788 134.0083372  27.5769500  49.0460379 134.6537137  27.8158594
  45.5203846 121.0301917   8.1914620  45.5082516 121.9743757   8.3482891
  46.4127268 120.8472063   7.8974082  49.3355966 117.6244694  12.4460557
  48.5688361 117.0703180  12.5917240  49.7466671 117.6966563  13.3074709
  41.3397727 123.9129490  26.5365739  42.2029188 123.5566294  26.7469063
  40.7663137 123.5743384  27.2241143  15.6805348  67.5536645  11.7227004
  15.2369202  66.7673023  11.4047908  16.3422561  67.7415795  11.0570894
  17.7786586  67.8339445   9.7508405  17.7605061  68.6548326   9.2588674
  18.7006506  67.7093520   9.9758546  14.2359640  65.3483574  10.5931913
  14.7687977  64.5871862  10.3631221  13.7073721  65.0557226  11.3356068
  23.6287318  64.3228540   6.5718242  23.8223208  65.2274351   6.8177517
  23.5287936  63.8635959   7.4056827  18.6902426  64.4735283  12.1459123
  18.5387933  64.2445835  11.2289207  18.6807106  65.4305884  12.1590468
  20.3994633  67.5054405  10.2235605  20.3407179  66.8213626   9.5566188
  20.8014152  68.2473395   9.7716231  20.4012040  65.4693989   8.4549585
  19.5138819  65.1319911   8.5775983  20.9710591  64.7377021   8.6918350
  16.3911877  70.0282276   7.5768986  17.1039850  70.6629741   7.5044888
  15.9001906  70.1246142   6.7608988  15.2912650  61.0741138  12.7093145
  14.6153287  60.9735267  13.3795520  16.1140284  60.9180352  13.1729142
  14.0335433  72.3808065   6.9450761  14.5853741  72.5439687   7.7099846
  14.3741626  72.9712503   6.2730786  18.8846307  67.2069323  12.7999415
  19.4286211  67.8199281  12.3054370  18.3033152  67.7648901  13.3166428
  14.1801244  69.9466547   8.9599415  14.4888370  69.7015694   9.8322115
  14.9776726  70.1513185   8.4718285  22.2075101  66.6665377  12.1360736
  21.4170645  66.6489516  11.5965236  21.9708456  67.2053670  12.8909773
  22.3272976  63.5157843   9.4493465  22.3770981  63.3507851  10.3908988
  22.2186900  62.6485102   9.0591346  19.6176739  59.4988771  10.7652772
  20.5186602  59.3595236  10.4736769  19.6924713  59.6643226  11.7050949
  23.8291173  65.9354785   9.6935486  23.5375982  66.2984765  10.5298947
  23.2163305  65.2221793   9.5148818  14.9790132  64.0773078  13.0114011
  15.8993141  64.2551677  13.2054057  14.9439715  63.1329124  12.8593710
  12.7111340  60.9904457  13.8604602  12.2278421  61.7904818  14.0668491
  12.7972279  61.0012402  12.9072046  17.0072366  64.8529090  14.6628172
  17.8763525  65.0269742  14.3014806  16.5279117  65.6723506  14.5403901
  28.6664841  76.5617716   4.0673446  29.3043251  76.4424463   3.3636786
  28.5485684  77.5098559   4.1261398  25.4754548  76.5145144   4.0034971
  25.1373059  76.3986208   3.1155506  26.3444316  76.1136309   3.9835977
  25.9574331  77.6679995   9.9621176  25.9462971  77.2732794   9.0901680
  26.1194970  76.9346068  10.5554948  22.6781592  80.4517107   8.9100360
  22.3871458  81.3562738   8.7947027  23.3138576  80.4933635   9.6244430
  23.6037799  77.8293956   5.5001720  24.2001371  77.6049978   4.7858683
  23.6612770  77.0878701   6.1027168  28.2206110  74.2869169   1.1426654
  29.0069199  73.8688593   0.7917071  28.4844814  75.1915262   1.3108303
  33.6214537  74.2244403   2.0459633  34.3539709  73.6543619   2.2797462
  32.8653893  73.8366003   2.4866138  25.2390657  76.6471644  -0.7577025
  24.8748864  76.1202265  -0.0464103  26.0957773  76.2570113  -0.9310539
  31.1439957  67.9365977   6.5054241  30.8123282  68.8061388   6.2815456
  30.5485571  67.6202261   7.1848272  27.6371477  80.1378523   5.9050154
  27.3372200  81.0403561   5.7965961  27.2922536  79.8710706   6.7571307
  21.0883958  76.5892319   1.9386858  20.1634455  76.4568534   2.1464550
  21.3368372  77.3686539   2.4356801  31.0368621  72.6561063   3.5847591
  30.1285498  72.5876471   3.2906352  30.9856216  73.1333008   4.4129417
  25.1109486  74.0750708  11.5282489  24.3342821  74.6344629  11.5185353
  25.7500050  74.5607491  12.0497359  32.9030267  70.8577501   5.3625465
  32.2604647  71.1510034   4.7165260  32.3985196  70.7430422   6.1678662
  23.3655859  76.8836162  11.0900456  24.1070543  77.4221206  10.8135279
  22.6592844  77.5102451  11.2472007  28.8411198  79.0265302   9.6872617
  29.2494554  78.5847713   8.9427250  28.1188460  78.4517930   9.9406810
  25.1942268  73.9637909   7.0606174  26.0403464  74.3877323   7.2040823
  25.1340906  73.3071533   7.7544737  29.1640013  79.5866493   3.4424906
  28.5348876  79.7512207   2.7400974  28.7765675  80.0008102   4.2135870
  33.0429245  80.5220931   0.7969270  32.3580283  80.9019832   0.2466303
  33.1273094  81.1316257   1.5301218  28.3441714  71.6242277   8.7187348
  28.1002646  72.3784338   8.1821623  28.6201644  72.0027625   9.5534595
  30.2980177  78.1680890   7.3964613  30.5097072  78.8112650   6.7198994
  30.2509925  77.3343206   6.9286543  27.9006406  70.7798710   4.3001185
  27.0390885  71.0779964   4.5917923  27.9268840  70.9969109   3.3682218
  24.7167975  79.3240901   0.7074991  25.1806320  79.6028604  -0.0820386
  24.4524773  78.4224346   0.5248082  21.6092056  78.8712383   3.6454754
  22.1793413  79.2999651   3.0072239  22.2000168  78.5894967   4.3438940
  22.1017223  74.0375810  11.8915766  21.4715883  74.7192091  12.1251162
  21.9953310  73.9258892  10.9468904  31.4126005  81.0452845   5.5686971
  32.2343448  80.6433032   5.2869652  31.4088407  80.9421079   6.5203086
  25.1782608  80.5936888   7.7247681  25.2427040  81.0557296   8.5605853
  24.4693532  79.9634253   7.8529991  15.6799898  73.9578096   5.2496681
  15.9307936  74.8425106   5.5154257  16.2159446  73.7782698   4.4771772
  39.5031998  77.3891594   1.9171942  38.7495706  76.8198992   1.7615947
  39.6379539  77.3554258   2.8642577  21.3797965  68.3396576  14.2541017
  20.9864911  67.7862774  14.9288661  22.1964106  68.6507154  14.6447534
  24.2965926  69.7554455  11.8461273  25.0375640  70.3561608  11.7665736
  24.5283849  69.0132093  11.2879316  19.4407264  74.9410822  10.1239503
  19.3260779  74.0396079  10.4246602  18.5851782  75.1874519   9.7724319
  26.5199102  82.8828562  11.7227004  26.0762956  82.0964941  11.4047908
  27.1816316  83.0707713  11.0570894  21.2786223  84.4124364   6.2487682
  21.8293648  84.2841427   5.4764676  20.4397699  84.7119253   5.8982575
  28.6180340  83.1631362   9.7508405  28.5998815  83.9840243   9.2588674
  29.5400260  83.0385438   9.9758546  25.0753394  80.6775492  10.5931913
  25.6081731  79.9163780  10.3631221  24.5467475  80.3849144  11.3356068
  28.2423089  65.7835558   6.1225555  27.8987359  66.6737200   6.0464666
  28.6102052  65.5937215   5.2595140  27.3219630  68.1540213   4.0874788
  26.8184425  68.1170348   3.2742593  27.6150236  69.0632956   4.1471445
  33.1807646  78.5276524  -3.4348836  32.4037089  78.1887683  -3.8793674
  33.8599127  78.5329147  -4.1093871  31.4198953  78.0010505   3.2217772
  30.7622627  78.6909766   3.3097900  32.2239352  78.3906937   3.5651758
  30.2304412  76.3554878   1.2721713  30.7436294  76.9884869   1.7743423
  30.8805636  75.7556073   0.9065073  26.7085243  73.8304333   3.5180054
  25.7907804  74.0519280   3.3601742  27.1245386  73.9050644   2.6591761
  27.4920290  75.2295749  -1.3517266  28.2392109  75.7417146  -1.6610144
  27.7611880  74.9079801  -0.4912872  30.9966208  81.3360879  -0.5999144
  30.5428535  80.4951789  -0.5433954  30.3660175  81.9722277  -0.2624364
  29.9399128  72.2652865   0.6301523  29.2021884  71.7530251   0.9611766
  30.1925901  71.8253247  -0.1815200  29.4399147  83.1737376   0.3350674
  29.7322122  83.7342433  -0.3836960  29.9497768  83.4665937   1.0903833
  24.3131835  75.3382910   1.7319484  24.3680444  74.3856746   1.6561960
  23.5023037  75.4942349   2.2160782  27.8498406  74.4201794   8.3224756
  28.2047794  74.6473267   9.1819222  28.4970537  74.7520171   7.7002012
  33.5796143  77.5420230  -0.9725915  33.4414042  77.7321826  -1.9004725
  33.2232362  78.3039613  -0.5157863  21.7438269  71.5278325   5.1071098
  22.3837649  71.3867084   4.4094061  20.9115800  71.2412839   4.7309700
  33.6065523  79.6096757   4.0385357  34.0402029  79.5172046   4.8868411
  34.3197103  79.5854258   3.4005373  27.3393418  83.2098851   5.5718458
  27.3930440  83.7789788   6.3396173  26.4708199  83.3800736   5.2072495
  20.2191811  72.9116408   7.0542909  20.8914864  72.7033770   6.4055558
  19.3921598  72.7138494   6.6148141  34.4681072  79.6520458   6.5718242
  34.6616962  80.5566268   6.8177517  34.3681690  79.1927877   7.4056827
  26.1217383  69.5378348   9.0708570  25.4745298  70.2368298   8.9773046
  26.8918398  69.9714492   9.4384818  29.5296181  79.8027201  12.1459123
  29.3781687  79.5737752  11.2289207  29.5200860  80.7597802  12.1590468
  26.2981517  77.3759113   7.1305389  27.2273577  77.5270273   6.9574357
  25.8772547  77.4643134   6.2754036  25.0969849  81.4009778   4.9003927
  24.9580935  81.0328562   5.7729865  24.3084445  81.9157417   4.7287885
  26.6475064  80.7791380   2.2892765  26.3124897  80.7392150   3.1850415
  26.1479010  80.1136096   1.8163175  20.6219308  76.1859010   7.8145346
  20.4839106  75.4539249   8.4156885  21.5324232  76.0967911   7.5329534
  23.2501609  75.8978970   7.3029026  23.9601227  75.2572162   7.2615644
  23.2070917  76.1491865   8.2255206  31.2388388  82.8346323  10.2235605
  31.1800934  82.1505543   9.5566188  31.6407906  83.5765313   9.7716231
  21.9630543  72.8844188   9.1224665  21.4267900  72.4334926   9.7746261
  21.3747251  73.0190097   8.3795129  31.2405795  80.7985907   8.4549585
  30.3532574  80.4611829   8.5775983  31.8104346  80.0668938   8.6918350
  17.6969664  72.0200195   6.2077660  17.6127853  71.4125865   5.4728070
  16.8752371  72.5109214   6.2087156  24.7706948  85.4587359   5.4210828
  24.6977120  86.2642331   5.9330132  24.3284341  85.6579325   4.5958849
  35.7223135  76.2094124   3.2166146  35.7113012  77.0918840   2.8460079
  34.8540515  75.8565675   3.0220683  27.2305632  85.3574193   7.5768986
  27.9433604  85.9921658   7.5044888  26.7395660  85.4538059   6.7608988
  28.9523159  79.2625446  -0.8513722  28.0179437  79.3826909  -1.0209018
  29.1299827  78.3597913  -1.1153712  32.3395710  75.1042765  -0.3163688
  32.8056162  75.9370757  -0.3903385  32.7903211  74.6387747   0.3881571
  22.2817545  83.1068637   8.3974557  22.9827005  83.7405120   8.5503951
  21.8112660  83.4483368   7.6370196  30.4071941  81.4486587  -3.3177536
  30.6831785  81.3343181  -2.4083662  29.5376440  81.0504072  -3.3565363
  30.3112373  67.4723352   3.7227214  29.3975453  67.7027579   3.8909420
  30.7405474  67.5561796   4.5741246  30.0818831  75.6613244   6.2227108
  29.4290282  75.9089152   5.5679560  30.4599211  74.8477383   5.8889585
  26.1306404  76.4033055  12.7093145  25.4547041  76.3027185  13.3795520
  26.9534038  76.2472269  13.1729142  24.8729187  87.7099983   6.9450761
  25.4247495  87.8731604   7.7099846  25.2135381  88.3004421   6.2730786
  19.8493680  70.0575133   7.5472645  19.9135007  70.9189964   7.1350043
  19.7860801  69.4449134   6.8145004  19.3245953  72.1298265  11.1945680
  19.9517992  71.7475343  11.8083204  18.4673872  71.9112467  11.5601372
  29.7240062  82.5361240  12.7999415  30.2679966  83.1491199  12.3054370
  29.1426906  83.0940819  13.3166428  28.0097574  85.6581958   3.9314443
  27.8848714  84.8571698   3.4225388  28.6676666  86.1528152   3.4428413
  30.0732483  83.4590979   5.5593993  29.1262818  83.3396330   5.4872320
  30.4215256  82.5713477   5.6420254  22.4332056  69.3485117   9.3832235
  22.9566458  69.5947414  10.1458544  22.2144390  70.1805152   8.9635372
  27.0778916  83.2543695   1.7598345  26.9303879  82.3260402   1.9405915
  27.9032410  83.2763785   1.2755420  30.6813038  84.0772253   2.8463218
  31.6059585  83.8715115   2.7087669  30.5128341  83.8288655   3.7552559
  23.6384601  70.2898813   7.0681905  23.2981422  69.4906626   7.4702585
  22.9323608  70.5900523   6.4958739  24.2901073  67.3748125   5.5209228
  25.1127142  66.9008603   5.3988119  24.5339137  68.1538609   6.0207915
  21.8139652  74.0667246   3.3301207  21.6684233  74.3807549   4.2225488
  21.3364856  74.6852146   2.7772106  23.6736035  71.0569794   3.3782097
  23.6597604  70.1610887   3.0414394  24.3908463  71.0640457   4.0120383
  25.5262165  71.4907134   5.4235224  25.2679943  72.4124204   5.4219554
  24.9947206  71.0937568   6.1135688  30.4708354  84.5957921  -1.7974691
  30.6445232  84.0304343  -2.5500838  30.9637245  85.3958816  -1.9795201
  16.2885314  76.6072590   6.2688868  15.7438782  77.3832398   6.4009142
  17.1664664  76.9543394   6.1107990  36.3247745  77.3594344  -0.1784391
  36.7678891  76.6101669  -0.5765268  35.4474256  77.3504480  -0.5610659
  17.0751336  75.7342486   9.1619025  16.3333072  75.8825122   9.7483655
  16.7544080  75.9950752   8.2985774  33.3574950  81.3624391  -3.1690462
  33.8826274  81.7011664  -3.8941142  33.2697302  80.4271406  -3.3527327
  25.0194999  85.2758464   8.9599415  25.3282125  85.0307611   9.8322115
  25.8170481  85.4805103   8.4718285  22.5614010  71.4516171  12.8559599
  22.6102166  72.3278294  12.4737369  23.1036524  70.9093564  12.2831242
  33.0468856  81.9957294  12.1360736  32.2564400  81.9781433  11.5965236
  32.8102210  82.5345588  12.8909773  33.1666731  78.8449761   9.4493465
  33.2164736  78.6799768  10.3908988  33.0580654  77.9777020   9.0591346
  30.4570493  74.8280689  10.7652772  31.3580356  74.6887154  10.4736769
  30.5318468  74.9935144  11.7050949  24.7913299  72.2047544   9.6105958
  23.9216608  72.4981110   9.3388546  25.0272779  72.7887989  10.3313222
  34.6684928  81.2646702   9.6935486  34.3769736  81.6276683  10.5298947
  34.0557059  80.5513711   9.5148818  35.8680610  78.8299582   2.2138057
  36.7027501  79.2689386   2.3775617  36.0039739  78.3538235   1.3946302
  32.9172116  76.3879317   8.1615544  33.3926238  76.5806963   7.3534396
  31.9937681  76.4438503   7.9158928  27.4952333  68.4227161   7.1271378
  28.0134276  69.1588187   6.8017867  27.1407465  68.7291154   7.9618137
  31.6173785  73.2645077   6.3943850  32.5691208  73.3643175   6.4156074
  31.4477235  72.4723346   6.9041934  29.6388164  70.3500660   6.5803251
  29.0438097  70.6305673   5.8849740  29.3537861  70.8394561   7.3519992
  34.0961863  76.4851197   5.5086150  34.0638183  75.5467197   5.6945833
  34.7062486  76.5635233   4.7751975  34.2456351  73.2762240   5.5544433
  33.7295400  72.4920697   5.3674362  35.1296300  72.9480957   5.7190952
  31.9067078  67.0203256   1.5140246  31.7091899  66.7118344   2.3983577
  32.5166784  67.7464895   1.6438175  39.9138413  77.5467204   4.6492186
  40.6441801  77.2852492   5.2099890  39.3045358  76.8095926   4.6894254
  37.9953710  75.6875066   5.2466638  37.2686873  75.5531031   4.6383129
  37.5800997  75.9951895   6.0523356  25.8183886  79.4064996  13.0114011
  26.7386896  79.5843595  13.2054057  25.7833469  78.4621041  12.8593710
  18.8145959  77.3166031   5.6536792  19.0331969  78.2483138   5.6724826
  19.2271733  76.9574005   6.4391596  23.6873824  72.8899236  15.0439541
  23.5870551  73.8393593  14.9751632  23.4695366  72.5617475  14.1715611
  23.5505094  76.3196375  13.8604602  23.0672176  77.1196735  14.0668491
  23.6366033  76.3304320  12.9072046  19.4778432  80.2100910   5.8973036
  20.4321685  80.1784852   5.8302968  19.2790955  79.7491534   6.7123262
  20.0677814  78.7802026   8.4643834  20.8870703  79.2746105   8.4878671
  20.3414621  77.8633994   8.4361401  33.1758946  71.1959299   1.5426129
  33.9519336  71.6855752   1.8150745  32.4507080  71.6217353   1.9997998
  35.6131505  71.9086918   2.6000069  36.2075996  71.6682654   1.8893377
  35.6858088  71.1894049   3.2273606  29.7985434  76.6867314  -1.9577920
  29.7420635  77.1435866  -2.7970288  30.3513776  75.9257999  -2.1355078
  33.6090240  72.4757046  -1.1327801  33.3527174  72.0753682  -0.3019593
  32.9843108  73.1900840  -1.2577662  37.9202577  75.2153119   1.3743490
  37.3602135  75.2846309   2.1475053  37.3146081  75.0394104   0.6542987
  15.3212728  73.1140160   9.1636031  15.9671592  72.6039114   9.6523256
  15.1129879  73.8508841   9.7379456  27.8466120  80.1821007  14.6628172
  28.7157280  80.3561660  14.3014806  27.3672872  81.0015424  14.5403901
  22.0152300  87.3018108   6.3417605  22.9179547  87.3341719   6.6584100
  21.7889670  86.3718559   6.3563941  19.6610219  70.2607777  13.2611045
  20.5241681  69.9044582  13.4714370  19.0875630  69.9221672  13.9486449
  39.5058596  91.8909633   4.0673446  40.1437006  91.7716381   3.3636786
  39.3879439  92.8390477   4.1261398  36.3148302  91.8437061   4.0034971
  35.9766814  91.7278126   3.1155506  37.1838070  91.4428226   3.9835977
  36.7968085  92.9971913   9.9621176  36.7856726  92.6024711   9.0901680
  36.9588725  92.2637986  10.5554948  33.5175346  95.7809025   8.9100360
  33.2265212  96.6854656   8.7947027  34.1532331  95.8225552   9.6244430
  34.4431553  93.1585873   5.5001720  35.0395125  92.9341896   4.7858683
  34.5006525  92.4170619   6.1027168  39.0599864  89.6161087   1.1426654
  39.8462954  89.1980510   0.7917071  39.3238569  90.5207179   1.3108303
  44.4608292  89.5536320   2.0459633  45.1933463  88.9835537   2.2797462
  43.7047647  89.1657921   2.4866138  36.0784411  91.9763562  -0.7577025
  35.7142618  91.4494183  -0.0464103  36.9351527  91.5862031  -0.9310539
  41.9833712  83.2657894   6.5054241  41.6517037  84.1353305   6.2815456
  41.3879325  82.9494178   7.1848272  38.4765231  95.4670440   5.9050154
  38.1765954  96.3695479   5.7965961  38.1316291  95.2002624   6.7571307
  31.9277713  91.9184237   1.9386858  31.0028209  91.7860451   2.1464550
  32.1762126  92.6978456   2.4356801  41.8762375  87.9852981   3.5847591
  40.9679253  87.9168389   3.2906352  41.8249971  88.4624925   4.4129417
  35.9503241  89.4042626  11.5282489  35.1736575  89.9636546  11.5185353
  36.5893804  89.8899409  12.0497359  43.7424022  86.1869419   5.3625465
  43.0998402  86.4801952   4.7165260  43.2378950  86.0722339   6.1678662
  41.3964185  89.9332592  -3.9488675  42.3082041  90.1659979  -4.1240978
  40.8873832  90.5169636  -4.5113597  34.2049613  92.2128079  11.0900456
  34.9464298  92.7513123  10.8135279  33.4986599  92.8394368  11.2472007
  39.6804953  94.3557220   9.6872617  40.0888309  93.9139630   8.9427250
  38.9582214  93.7809847   9.9406810  36.0336023  89.2929827   7.0606174
  36.8797218  89.7169240   7.2040823  35.9734661  88.6363451   7.7544737
  40.0033768  94.9158411   3.4424906  39.3742630  95.0804125   2.7400974
  39.6159430  95.3300020   4.2135870  43.8822999  95.8512848   0.7969270
  43.1974038  96.2311750   0.2466303  43.9666849  96.4608175   1.5301218
  39.1835468  86.9534195   8.7187348  38.9396400  87.7076256   8.1821623
  39.4595399  87.3319543   9.5534595  41.1373931  93.4972807   7.3964613
  41.3490826  94.1404567   6.7198994  41.0903679  92.6635124   6.9286543
  38.7400160  86.1090628   4.3001185  37.8784639  86.4071882   4.5917923
  38.7662595  86.3261027   3.3682218  35.5561729  94.6532819   0.7074991
  36.0200075  94.9320522  -0.0820386  35.2918528  93.7516263   0.5248082
  32.4485811  94.2004300   3.6454754  33.0187168  94.6291569   3.0072239
  33.0393922  93.9186885   4.3438940  32.9410977  89.3667728  11.8915766
  32.3109638  90.0484008  12.1251162  32.8347065  89.2550809  10.9468904
  42.2519759  96.3744763   5.5686971  43.0737203  95.9724950   5.2869652
  42.2482162  96.2712997   6.5203086  36.0176362  95.9228806   7.7247681
  36.0820795  96.3849213   8.5605853  35.3087286  95.2926171   7.8529991
  26.5193652  89.2870014   5.2496681  26.7701691  90.1717024   5.5154257
  27.0553201  89.1074616   4.4771772  50.3425752  92.7183511   1.9171942
  49.5889460  92.1490909   1.7615947  50.4773293  92.6846176   2.8642577
  32.2191720  83.6688493  14.2541017  31.8258665  83.1154692  14.9288661
  33.0357860  83.9799072  14.6447534  35.1359681  85.0846373  11.8461273
  35.8769394  85.6853526  11.7665736  35.3677604  84.3424010  11.2879316
  30.2801019  90.2702740  10.1239503  30.1654534  89.3687997  10.4246602
  29.4245537  90.5166437   9.7724319  37.3592857  98.2120480  11.7227004
  36.9156711  97.4256859  11.4047908  38.0210070  98.3999631  11.0570894
  32.1179978  99.7416282   6.2487682  32.6687403  99.6133345   5.4764676
  31.2791454 100.0411171   5.8982575  39.4574095  98.4923280   9.7508405
  39.4392570  99.3132161   9.2588674  40.3794015  98.3677355   9.9758546
  35.9147149  96.0067410  10.5931913  36.4475486  95.2455698  10.3631221
  35.3861230  95.7141061  11.3356068  39.0816844  81.1127476   6.1225555
  38.7381113  82.0029117   6.0464666  39.4495806  80.9229133   5.2595140
  36.6314237  85.9485787  -0.3116772  35.7755834  85.5592638  -0.4911133
  37.0441189  86.0277748  -1.1716986  38.1613384  83.4832131   4.0874788
  37.6578180  83.4462266   3.2742593  38.4543991  84.3924873   4.1471445
  34.4056270  83.5670860   3.0940970  35.2709267  83.3713669   2.7346859
  34.4733779  83.3381212   4.0210327  44.0201401  93.8568441  -3.4348836
  43.2430843  93.5179601  -3.8793674  44.6992882  93.8621064  -4.1093871
  38.8353430  88.9763179  -3.5442229  38.5303565  89.2909328  -2.6932086
  39.7883872  89.0544599  -3.5014896  42.2592707  93.3302423   3.2217772
  41.6016382  94.0201684   3.3097900  43.0633107  93.7198854   3.5651758
  32.0118589  85.7973068   0.4657337  32.5862341  85.5748250  -0.2669470
  32.5989571  85.8661763   1.2185938  41.0698166  91.6846795   1.2721713
  41.5830048  92.3176787   1.7743423  41.7199390  91.0847991   0.9065073
  34.3141257  82.6714317  -0.8067594  33.6605669  82.3563334  -1.4310979
  34.2721731  82.0490058  -0.0807771  37.5478997  89.1596251   3.5180054
  36.6301558  89.3811198   3.3601742  37.9639141  89.2342561   2.6591761
  38.3314045  90.5587666  -1.3517266  39.0785864  91.0709064  -1.6610144
  38.6005634  90.2371719  -0.4912872  41.8359962  96.6652797  -0.5999144
  41.3822290  95.8243707  -0.5433954  41.2053929  97.3014195  -0.2624364
  40.7792882  87.5944783   0.6301523  40.0415639  87.0822169   0.9611766
  41.0319656  87.1545164  -0.1815200  40.2792902  98.5029293   0.3350674
  40.5715876  99.0634350  -0.3836960  40.7891522  98.7957854   1.0903833
  40.8804509  80.3721035   1.2243293  41.1863386  79.5118398   0.9369208
  41.6057114  80.9638655   1.0242287  35.1525589  90.6674828   1.7319484
  35.2074199  89.7148664   1.6561960  34.3416791  90.8234267   2.2160782
  33.0917949  89.2851888  -0.5090137  32.2785815  89.5846058  -0.1024945
  33.5876943  88.8907576   0.2084345  38.6892161  89.7493712   8.3224756
  39.0441548  89.9765185   9.1819222  39.3364292  90.0812089   7.7002012
  44.4189898  92.8712148  -0.9725915  44.2807796  93.0613744  -1.9004725
  44.0626116  93.6331531  -0.5157863  32.5832024  86.8570243   5.1071098
  33.2231403  86.7159002   4.4094061  31.7509554  86.5704756   4.7309700
  44.4459277  94.9388675   4.0385357  44.8795784  94.8463964   4.8868411
  45.1590858  94.9146175   3.4005373  38.1787172  98.5390769   5.5718458
  38.2324194  99.1081705   6.3396173  37.3101954  98.7092654   5.2072495
  31.0585566  88.2408325   7.0542909  31.7308619  88.0325687   6.4055558
  30.2315352  88.0430411   6.6148141  45.3074827  94.9812376   6.5718242
  45.5010717  95.8858186   6.8177517  45.2075445  94.5219795   7.4056827
  36.9611138  84.8670266   9.0708570  36.3139053  85.5660216   8.9773046
  37.7312153  85.3006410   9.4384818  40.3689935  95.1319118  12.1459123
  40.2175442  94.9029670  11.2289207  40.3594615  96.0889720  12.1590468
  37.1375272  92.7051031   7.1305389  38.0667332  92.8562191   6.9574357
  36.7166302  92.7935052   6.2754036  35.9363604  96.7301695   4.9003927
  35.7974689  96.3620480   5.7729865  35.1478200  97.2449335   4.7287885
  37.4868819  96.1083298   2.2892765  37.1518651  96.0684068   3.1850415
  36.9872764  95.4428014   1.8163175  31.4613063  91.5150928   7.8145346
  31.3232861  90.7831167   8.4156885  32.3717986  91.4259828   7.5329534
  34.0895363  91.2270887   7.3029026  34.7994982  90.5864080   7.2615644
  34.0464672  91.4783782   8.2255206  42.0782142  98.1638241  10.2235605
  42.0194688  97.4797461   9.5566188  42.4801661  98.9057231   9.7716231
  32.8024297  88.2136105   9.1224665  32.2661654  87.7626844   9.7746261
  32.2141006  88.3482014   8.3795129  42.0799549  96.1277825   8.4549585
  41.1926328  95.7903747   8.5775983  42.6498100  95.3960856   8.6918350
  28.5363419  87.3492113   6.2077660  28.4521607  86.7417783   5.4728070
  27.7146125  87.8401131   6.2087156  35.6100703 100.7879277   5.4210828
  35.5370874 101.5934249   5.9330132  35.1678096 100.9871243   4.5958849
  38.7087133  85.8345677   1.5747855  39.2055832  85.0815639   1.2548925
  37.9374114  85.8709993   1.0091064  46.5616890  91.5386042   3.2166146
  46.5506766  92.4210758   2.8460079  45.6934269  91.1857593   3.0220683
  38.0699386 100.6866111   7.5768986  38.7827359 101.3213576   7.5044888
  37.5789415 100.7829977   6.7608988  39.7916913  94.5917364  -0.8513722
  38.8573192  94.7118826  -1.0209018  39.9693582  93.6889831  -1.1153712
  35.2922101  87.9763060   1.3019539  34.9219889  87.4234100   1.9900445
  35.7881194  87.3721193   0.7494539  43.1789465  90.4334683  -0.3163688
  43.6449917  91.2662675  -0.3903385  43.6296965  89.9679665   0.3881571
  33.1211300  98.4360555   8.3974557  33.8220759  99.0697038   8.5503951
  32.6506415  98.7775286   7.6370196  41.2465696  96.7778504  -3.3177536
  41.5225540  96.6635099  -2.4083662  40.3770194  96.3795989  -3.3565363
  41.1506127  82.8015270   3.7227214  40.2369207  83.0319497   3.8909420
  41.5799229  82.8853714   4.5741246  40.9212586  90.9905162   6.2227108
  40.2684036  91.2381070   5.5679560  41.2992966  90.1769300   5.8889585
  36.9700159  91.7324973  12.7093145  36.2940796  91.6319102  13.3795520
  37.7927793  91.5764187  13.1729142  35.7122942 103.0391901   6.9450761
  36.2641250 103.2023522   7.7099846  36.0529135 103.6296338   6.2730786
  30.6887435  85.3867050   7.5472645  30.7528761  86.2481881   7.1350043
  30.6254555  84.7741052   6.8145004  30.1639707  87.4590183  11.1945680
  30.7911746  87.0767260  11.8083204  29.3067626  87.2404385  11.5601372
  40.5633816  97.8653158  12.7999415  41.1073720  98.4783116  12.3054370
  39.9820661  98.4232736  13.3166428  38.8491329 100.9873876   3.9314443
  38.7242468 100.1863616   3.4225388  39.5070420 101.4820069   3.4428413
  30.4699497  87.3422609   3.1091583  29.7486083  87.9558576   2.9699056
  31.2592753  87.8780373   3.0308229  40.9126237  98.7882896   5.5593993
  39.9656573  98.6688247   5.4872320  41.2609010  97.9005394   5.6420254
  33.2725811  84.6777035   9.3832235  33.7960213  84.9239332  10.1458544
  33.0538144  85.5097070   8.9635372  37.9172671  98.5835612   1.7598345
  37.7697633  97.6552320   1.9405915  38.7426164  98.6055703   1.2755420
  41.5206793  99.4064171   2.8463218  42.4453340  99.2007032   2.7087669
  41.3522096  99.1580572   3.7552559  34.4778356  85.6190730   7.0681905
  34.1375176  84.8198543   7.4702585  33.7717362  85.9192441   6.4958739
  35.1294828  82.7040043   5.5209228  35.9520897  82.2300521   5.3988119
  35.3732891  83.4830526   6.0207915  37.9134185  86.4373450  -3.2469538
  38.1297799  87.3198088  -3.5480709  37.4328252  86.0459663  -3.9763896
  32.6533406  89.3959163   3.3301207  32.5077987  89.7099466   4.2225488
  32.1758610  90.0144064   2.7772106  34.5129789  86.3861711   3.3782097
  34.4991358  85.4902805   3.0414394  35.2302217  86.3932375   4.0120383
  36.3655920  86.8199051   5.4235224  36.1073698  87.7416122   5.4219554
  35.8340960  86.4229486   6.1135688  41.3102109  99.9249839  -1.7974691
  41.4838986  99.3596261  -2.5500838  41.8031000 100.7250733  -1.9795201
  27.1279069  91.9364508   6.2688868  26.5832537  92.7124316   6.4009142
  28.0058418  92.2835312   6.1107990  33.9166685  85.2676092  -1.3530333
  34.0382596  84.3392738  -1.1539446  33.6268728  85.2814777  -2.2652018
  36.7857876  82.9531002   1.7836387  36.8079572  83.0170335   0.8288366
  37.2025935  82.1135511   1.9776893  47.1641500  92.6886262  -0.1784391
  47.6072646  91.9393587  -0.5765268  46.2868010  92.6796398  -0.5610659
  27.9145090  91.0634404   9.1619025  27.1726826  91.2117039   9.7483655
  27.5937835  91.3242670   8.2985774  44.1968704  96.6916309  -3.1690462
  44.7220028  97.0303581  -3.8941142  44.1091057  95.7563324  -3.3527327
  35.8588753 100.6050382   8.9599415  36.1675879 100.3599529   9.8322115
  36.6564235 100.8097021   8.4718285  33.4007765  86.7808089  12.8559599
  33.4495920  87.6570212  12.4737369  33.9430279  86.2385482  12.2831242
  43.8862610  97.3249212  12.1360736  43.0958154  97.3073351  11.5965236
  43.6495965  97.8637506  12.8909773  44.0060485  94.1741679   9.4493465
  44.0558490  94.0091686  10.3908988  43.8974409  93.3068938   9.0591346
  41.2964248  90.1572607  10.7652772  42.1974111  90.0179071  10.4736769
  41.3712222  90.3227061  11.7050949  35.6307053  87.5339461   9.6105958
  34.7610363  87.8273027   9.3388546  35.8666534  88.1179906  10.3313222
  45.5078682  96.5938620   9.6935486  45.2163491  96.9568601  10.5298947
  44.8950814  95.8805628   9.5148818  46.7074365  94.1591500   2.2138057
  47.5421256  94.5981304   2.3775617  46.8433493  93.6830153   1.3946302
  43.7565871  91.7171235   8.1615544  44.2319992  91.9098881   7.3534396
  42.8331436  91.7730420   7.9158928  38.3346087  83.7519078   7.1271378
  38.8528031  84.4880105   6.8017867  37.9801220  84.0583072   7.9618137
  38.5858681  80.1719361   2.6472275  38.8660435  79.5042550   3.2732701
  39.3709288  80.3648456   2.1346939  42.4567540  88.5936995   6.3943850
  43.4084962  88.6935092   6.4156074  42.2870990  87.8015263   6.9041934
  40.4781919  85.6792578   6.5803251  39.8831851  85.9597591   5.8849740
  40.1931616  86.1686479   7.3519992  44.9355617  91.8143114   5.5086150
  44.9031937  90.8759115   5.6945833  45.5456241  91.8927151   4.7751975
  45.0850106  88.6054158   5.5544433  44.5689154  87.8212615   5.3674362
  45.9690054  88.2772874   5.7190952  42.7460833  82.3495173   1.5140246
  42.5485654  82.0410262   2.3983577  43.3560538  83.0756812   1.6438175
  50.7532167  92.8759121   4.6492186  51.4835556  92.6144409   5.2099890
  50.1439113  92.1387843   4.6894254  48.8347464  91.0166984   5.2466638
  48.1080628  90.8822949   4.6383129  48.4194751  91.3243812   6.0523356
  36.6577641  94.7356914  13.0114011  37.5780650  94.9135513  13.2054057
  36.6227224  93.7912959  12.8593710  29.6539713  92.6457948   5.6536792
  29.8725723  93.5775056   5.6724826  30.0665487  92.2865923   6.4391596
  36.5743931  83.1526034  -2.3587520  35.7644659  82.8073118  -1.9832274
  37.2628348  82.8433577  -1.7699908  38.5034479  82.2304080  -0.7363223
  39.0565518  82.6499534  -0.0773200  38.7404566  81.3039828  -0.6940267
  34.5267579  88.2191154  15.0439541  34.4264305  89.1685511  14.9751632
  34.3089121  87.8909393  14.1715611  41.8813286  84.3404605  -1.2284559
  41.3011955  84.9989410  -1.6106506  41.6149219  83.5181950  -1.6397141
  40.3316853  83.7409663   0.9736761  40.8316631  83.8526198   0.1651080
  40.9752461  83.4370716   1.6137570  34.3898849  91.6488293  13.8604602
  33.9065930  92.4488653  14.0668491  34.4759788  91.6596238  12.9072046
  30.3172186  95.5392828   5.8973036  31.2715440  95.5076770   5.8302968
  30.1184710  95.0783451   6.7123262  30.9071568  94.1093944   8.4643834
  31.7264457  94.6038022   8.4878671  31.1808376  93.1925912   8.4361401
  40.6638164  86.5004696  -2.1728211  39.7764019  86.7854346  -2.3908016
  41.0792154  86.3398459  -3.0200934  44.0152701  86.5251217   1.5426129
  44.7913091  87.0147669   1.8150745  43.2900835  86.9509271   1.9997998
  46.4525259  87.2378836   2.6000069  47.0469750  86.9974572   1.8893377
  46.5251843  86.5185967   3.2273606  40.6379188  92.0159232  -1.9577920
  40.5814390  92.4727783  -2.7970288  41.1907531  91.2549916  -2.1355078
  44.4483994  87.8048964  -1.1327801  44.1920928  87.4045599  -0.3019593
  43.8236862  88.5192758  -1.2577662  48.7596332  90.5445037   1.3743490
  48.1995890  90.6138226   2.1475053  48.1539835  90.3686022   0.6542987
  41.3713967  93.2064013  -4.6625391  41.3162771  93.0408284  -5.6036947
  40.7460023  93.9140046  -4.5063202  26.1606482  88.4432077   9.1636031
  26.8065346  87.9331031   9.6523256  25.9523634  89.1800759   9.7379456
  38.6859875  95.5112925  14.6628172  39.5551034  95.6853577  14.3014806
  38.2066626  96.3307342  14.5403901  34.6810093  82.7072122  -5.0840073
  34.6688763  83.6513962  -4.9271802  35.5733515  82.5242267  -5.3780612
  32.8546055 102.6310026   6.3417605  33.7573302 102.6633636   6.6584100
  32.6283425 101.7010477   6.3563941  38.4962212  79.3014899  -0.8294136
  37.7294608  78.7473385  -0.6837454  38.9072917  79.3736767   0.0320016
  30.5003973  85.5899694  13.2611045  31.3635435  85.2336499  13.4714370
  29.9269384  85.2513589  13.9486449  50.3452350 107.2201551   4.0673446
  50.9830760 107.1008298   3.3636786  50.2273193 108.1682395   4.1261398
  47.1542057 107.1728979   4.0034971  46.8160568 107.0570044   3.1155506
  48.0231825 106.7720144   3.9835977  47.6361840 108.3263831   9.9621176
  47.6250480 107.9316629   9.0901680  47.7982479 107.5929903  10.5554948
  44.3569101 111.1100942   8.9100360  44.0658967 112.0146573   8.7947027
  44.9926085 111.1517470   9.6244430  45.2825308 108.4877791   5.5001720
  45.8788880 108.2633813   4.7858683  45.3400279 107.7462536   6.1027168
  49.8993619 104.9453005   1.1426654  50.6856708 104.5272428   0.7917071
  50.1632323 105.8499097   1.3108303  55.3002046 104.8828238   2.0459633
  56.0327218 104.3127455   2.2797462  54.5441402 104.4949838   2.4866138
  46.9178166 107.3055479  -0.7577025  46.5536373 106.7786100  -0.0464103
  47.7745282 106.9153948  -0.9310539  52.8227466  98.5949812   6.5054241
  52.4910791  99.4645223   6.2815456  52.2273080  98.2786096   7.1848272
  49.3158986 110.7962358   5.9050154  49.0159709 111.6987397   5.7965961
  48.9710045 110.5294541   6.7571307  42.7671467 107.2476155   1.9386858
  41.8421964 107.1152369   2.1464550  43.0155881 108.0270374   2.4356801
  52.7156130 103.3144898   3.5847591  51.8073007 103.2460307   3.2906352
  52.6643725 103.7916843   4.4129417  46.7896995 104.7334544  11.5282489
  46.0130330 105.2928464  11.5185353  47.4287559 105.2191327  12.0497359
  54.5817776 101.5161337   5.3625465  53.9392156 101.8093870   4.7165260
  54.0772705 101.4014257   6.1678662  45.0443368 107.5419997  11.0900456
  45.7858052 108.0805041  10.8135279  44.3380353 108.1686286  11.2472007
  50.5198707 109.6849138   9.6872617  50.9282063 109.2431548   8.9427250
  49.7975969 109.1101765   9.9406810  46.8729777 104.6221744   7.0606174
  47.7190973 105.0461158   7.2040823  46.8128415 103.9655369   7.7544737
  50.8427522 110.2450328   3.4424906  50.2136385 110.4096042   2.7400974
  50.4553184 110.6591938   4.2135870  50.0229223 102.2826113   8.7187348
  49.7790155 103.0368173   8.1821623  50.2989153 102.6611460   9.5534595
  51.9767686 108.8264725   7.3964613  52.1884581 109.4696485   6.7198994
  51.9297434 107.9927042   6.9286543  49.5793915 101.4382546   4.3001185
  48.7178394 101.7363799   4.5917923  49.6056349 101.6552945   3.3682218
  46.3955484 109.9824736   0.7074991  46.8593829 110.2612439  -0.0820386
  46.1312282 109.0808181   0.5248082  43.2879565 109.5296218   3.6454754
  43.8580922 109.9583486   3.0072239  43.8787677 109.2478803   4.3438940
  43.7804732 104.6959645  11.8915766  43.1503392 105.3775926  12.1251162
  43.6740819 104.5842727  10.9468904  53.0913514 111.7036681   5.5686971
  53.9130957 111.3016868   5.2869652  53.0875916 111.6004915   6.5203086
  46.8570117 111.2520724   7.7247681  46.9214549 111.7141131   8.5605853
  46.1481041 110.6218089   7.8529991  37.3587407 104.6161932   5.2496681
  37.6095445 105.5008942   5.5154257  37.8946955 104.4366533   4.4771772
  43.0585474  98.9980411  14.2541017  42.6652420  98.4446610  14.9288661
  43.8751615  99.3090990  14.6447534  45.9753435 100.4138290  11.8461273
  46.7163149 101.0145443  11.7665736  46.2071358  99.6715928  11.2879316
  41.1194773 105.5994658  10.1239503  41.0048288 104.6979915  10.4246602
  40.2639291 105.8458354   9.7724319  48.1986611 113.5412398  11.7227004
  47.7550465 112.7548776  11.4047908  48.8603825 113.7291548  11.0570894
  42.9573732 115.0708199   6.2487682  43.5081157 114.9425263   5.4764676
  42.1185208 115.3703088   5.8982575  50.2967849 113.8215198   9.7508405
  50.2786324 114.6424079   9.2588674  51.2187769 113.6969273   9.9758546
  46.7540903 111.3359327  10.5931913  47.2869240 110.5747615  10.3631221
  46.2254984 111.0432979  11.3356068  49.9210598  96.4419393   6.1225555
  49.5774868  97.3321035   6.0464666  50.2889561  96.2521051   5.2595140
  47.4707992 101.2777705  -0.3116772  46.6149588 100.8884555  -0.4911133
  47.8834944 101.3569666  -1.1716986  49.0007139  98.8124048   4.0874788
  48.4971934  98.7754184   3.2742593  49.2937745  99.7216791   4.1471445
  45.2450024  98.8962778   3.0940970  46.1103021  98.7005587   2.7346859
  45.3127533  98.6673130   4.0210327  53.0986462 108.6594340   3.2217772
  52.4410136 109.3493602   3.3097900  53.9026861 109.0490772   3.5651758
  42.8512344 101.1264986   0.4657337  43.4256095 100.9040167  -0.2669470
  43.4383326 101.1953680   1.2185938  51.9091921 107.0138713   1.2721713
  52.4223802 107.6468705   1.7743423  52.5593145 106.4139908   0.9065073
  45.1535011  98.0006235  -0.8067594  44.4999424  97.6855252  -1.4310979
  45.1115485  97.3781975  -0.0807771  48.3872752 104.4888168   3.5180054
  47.4695313 104.7103115   3.3601742  48.8032895 104.5634479   2.6591761
  51.6186637 102.9236700   0.6301523  50.8809393 102.4114087   0.9611766
  51.8713410 102.4837082  -0.1815200  51.7198264  95.7012952   1.2243293
  52.0257141  94.8410316   0.9369208  52.4450869  96.2930573   1.0242287
  45.9919344 105.9966745   1.7319484  46.0467953 105.0440582   1.6561960
  45.1810546 106.1526185   2.2160782  43.9311703 104.6143805  -0.5090137
  43.1179569 104.9137976  -0.1024945  44.4270698 104.2199494   0.2084345
  49.5285915 105.0785630   8.3224756  49.8835303 105.3057103   9.1819222
  50.1758046 105.4104006   7.7002012  43.4225778 102.1862161   5.1071098
  44.0625158 102.0450920   4.4094061  42.5903309 101.8996674   4.7309700
  49.0180927 113.8682687   5.5718458  49.0717949 114.4373623   6.3396173
  48.1495708 114.0384572   5.2072495  41.8979320 103.5700243   7.0542909
  42.5702373 103.3617605   6.4055558  41.0709107 103.3722329   6.6148141
  56.1468581 110.3104293   6.5718242  56.3404471 111.2150104   6.8177517
  56.0469199 109.8511712   7.4056827  47.8004892 100.1962184   9.0708570
  47.1532807 100.8952133   8.9773046  48.5705907 100.6298328   9.4384818
  51.2083690 110.4611036  12.1459123  51.0569196 110.2321588  11.2289207
  51.1988369 111.4181637  12.1590468  47.9769026 108.0342949   7.1305389
  48.9061086 108.1854108   6.9574357  47.5560056 108.1226969   6.2754036
  46.7757358 112.0593613   4.9003927  46.6368444 111.6912398   5.7729865
  45.9871954 112.5741253   4.7287885  48.3262573 111.4375216   2.2892765
  47.9912406 111.3975986   3.1850415  47.8266519 110.7719932   1.8163175
  42.3006817 106.8442846   7.8145346  42.1626615 106.1123085   8.4156885
  43.2111741 106.7551746   7.5329534  44.9289118 106.5562805   7.3029026
  45.6388736 105.9155997   7.2615644  44.8858426 106.8075700   8.2255206
  52.9175897 113.4930159  10.2235605  52.8588443 112.8089379   9.5566188
  53.3195415 114.2349149   9.7716231  43.6418052 103.5428023   9.1224665
  43.1055409 103.0918762   9.7746261  43.0534760 103.6773932   8.3795129
  52.9193304 111.4569742   8.4549585  52.0320083 111.1195664   8.5775983
  53.4891855 110.7252774   8.6918350  39.3757173 102.6784031   6.2077660
  39.2915362 102.0709700   5.4728070  38.5539880 103.1693049   6.2087156
  46.4494457 116.1171195   5.4210828  46.3764629 116.9226166   5.9330132
  46.0071850 116.3163161   4.5958849  49.5480887 101.1637594   1.5747855
  50.0449587 100.4107557   1.2548925  48.7767869 101.2001911   1.0091064
  57.4010644 106.8677960   3.2166146  57.3900521 107.7502675   2.8460079
  56.5328024 106.5149511   3.0220683  48.9093141 116.0158029   7.5768986
  49.6221113 116.6505494   7.5044888  48.4183169 116.1121895   6.7608988
  46.1315856 103.3054977   1.3019539  45.7613643 102.7526018   1.9900445
  46.6274948 102.7013111   0.7494539  43.9605054 113.7652472   8.3974557
  44.6614514 114.3988955   8.5503951  43.4900169 114.1067204   7.6370196
  51.9899882  98.1307188   3.7227214  51.0762962  98.3611415   3.8909420
  52.4192983  98.2145632   4.5741246  51.7606340 106.3197080   6.2227108
  51.1077791 106.5672987   5.5679560  52.1386720 105.5061218   5.8889585
  47.8093913 107.0616891  12.7093145  47.1334550 106.9611020  13.3795520
  48.6321547 106.9056105  13.1729142  46.5516696 118.3683818   6.9450761
  47.1035004 118.5315440   7.7099846  46.8922890 118.9588256   6.2730786
  41.5281189 100.7158968   7.5472645  41.5922516 101.5773799   7.1350043
  41.4648310 100.1032970   6.8145004  41.0033462 102.7882101  11.1945680
  41.6305501 102.4059178  11.8083204  40.1461381 102.5696303  11.5601372
  51.4027571 113.1945076  12.7999415  51.9467475 113.8075034  12.3054370
  50.8214415 113.7524654  13.3166428  41.3093252 102.6714526   3.1091583
  40.5879837 103.2850494   2.9699056  42.0986507 103.2072291   3.0308229
  51.7519992 114.1174814   5.5593993  50.8050327 113.9980165   5.4872320
  52.1002765 113.2297312   5.6420254  44.1119565 100.0068953   9.3832235
  44.6353967 100.2531249  10.1458544  43.8931898 100.8388988   8.9635372
  45.3172110 100.9482648   7.0681905  44.9768931 100.1490461   7.4702585
  44.6111117 101.2484359   6.4958739  45.9688582  98.0331960   5.5209228
  46.7914651  97.5592438   5.3988119  46.2126646  98.8122444   6.0207915
  48.7527939 101.7665368  -3.2469538  48.9691554 102.6490006  -3.5480709
  48.2722007 101.3751581  -3.9763896  43.4927161 104.7251081   3.3301207
  43.3471742 105.0391384   4.2225488  43.0152364 105.3435981   2.7772106
  45.3523544 101.7153629   3.3782097  45.3385112 100.8194722   3.0414394
  46.0695972 101.7224293   4.0120383  47.2049674 102.1490969   5.4235224
  46.9467452 103.0708040   5.4219554  46.6734715 101.7521404   6.1135688
  37.9672823 107.2656425   6.2688868  37.4226291 108.0416233   6.4009142
  38.8452173 107.6127230   6.1107990  44.7560440 100.5968009  -1.3530333
  44.8776351  99.6684655  -1.1539446  44.4662482 100.6106695  -2.2652018
  47.6251630  98.2822920   1.7836387  47.6473327  98.3462253   0.8288366
  48.0419689  97.4427428   1.9776893  38.7538845 106.3926322   9.1619025
  38.0120581 106.5408957   9.7483655  38.4331589 106.6534587   8.2985774
  46.6982508 115.9342300   8.9599415  47.0069634 115.6891447   9.8322115
  47.4957990 116.1388938   8.4718285  44.2401519 102.1100007  12.8559599
  44.2889675 102.9862129  12.4737369  44.7824033 101.5677400  12.2831242
  54.7256365 112.6541130  12.1360736  53.9351909 112.6365269  11.5965236
  54.4889719 113.1929424  12.8909773  54.8454240 109.5033596   9.4493465
  54.8952245 109.3383604  10.3908988  54.7368163 108.6360855   9.0591346
  52.1358002 105.4864524  10.7652772  53.0367865 105.3470989  10.4736769
  52.2105977 105.6518979  11.7050949  46.4700808 102.8631379   9.6105958
  45.6004117 103.1564945   9.3388546  46.7060288 103.4471824  10.3313222
  56.3472437 111.9230538   9.6935486  56.0557245 112.2860518  10.5298947
  55.7344568 111.2097546   9.5148818  54.5959625 107.0463152   8.1615544
  55.0713747 107.2390799   7.3534396  53.6725190 107.1022338   7.9158928
  49.1739841  99.0810996   7.1271378  49.6921785  99.8172023   6.8017867
  48.8194974  99.3874989   7.9618137  49.4252436  95.5011278   2.6472275
  49.7054189  94.8334468   3.2732701  50.2103043  95.6940374   2.1346939
  53.2961294 103.9228912   6.3943850  54.2478717 104.0227010   6.4156074
  53.1264744 103.1307181   6.9041934  51.3175673 101.0084496   6.5803251
  50.7225606 101.2889508   5.8849740  51.0325370 101.4978397   7.3519992
  55.7749372 107.1435032   5.5086150  55.7425692 106.2051033   5.6945833
  56.3849995 107.2219069   4.7751975  55.9243860 103.9346076   5.5544433
  55.4082909 103.1504532   5.3674362  56.8083809 103.6064792   5.7190952
  53.5854587  97.6787091   1.5140246  53.3879408  97.3702179   2.3983577
  54.1954293  98.4048730   1.6438175  61.5925922 108.2051039   4.6492186
  62.3229310 107.9436327   5.2099890  60.9832867 107.4679761   4.6894254
  59.6741219 106.3458902   5.2466638  58.9474382 106.2114866   4.6383129
  59.2588506 106.6535730   6.0523356  47.4971395 110.0648831  13.0114011
  48.4174405 110.2427430  13.2054057  47.4620978 109.1204877  12.8593710
  40.4933468 107.9749866   5.6536792  40.7119478 108.9066974   5.6724826
  40.9059242 107.6157840   6.4391596  47.4137686  98.4817951  -2.3587520
  46.6038414  98.1365036  -1.9832274  48.1022102  98.1725495  -1.7699908
  49.3428234  97.5595998  -0.7363223  49.8959272  97.9791451  -0.0773200
  49.5798320  96.6331746  -0.6940267  45.3661333 103.5483072  15.0439541
  45.2658060 104.4977429  14.9751632  45.1482875 103.2201311  14.1715611
  52.7207041  99.6696523  -1.2284559  52.1405710 100.3281327  -1.6106506
  52.4542974  98.8473868  -1.6397141  51.1710607  99.0701581   0.9736761
  51.6710386  99.1818115   0.1651080  51.8146215  98.7662634   1.6137570
  45.2292603 106.9780210  13.8604602  44.7459685 107.7780571  14.0668491
  45.3153542 106.9888155  12.9072046  41.1565941 110.8684745   5.8973036
  42.1109194 110.8368688   5.8302968  40.9578464 110.4075369   6.7123262
  41.7465323 109.4385861   8.4643834  42.5658212 109.9329940   8.4878671
  42.0202130 108.5217829   8.4361401  51.5031919 101.8296614  -2.1728211
  50.6157774 102.1146264  -2.3908016  51.9185908 101.6690377  -3.0200934
  54.8546455 101.8543135   1.5426129  55.6306845 102.3439587   1.8150745
  54.1294589 102.2801189   1.9997998  57.2919014 102.5670754   2.6000069
  57.8863504 102.3266490   1.8893377  57.3645597 101.8477884   3.2273606
  37.0000237 103.7723995   9.1636031  37.6459101 103.2622949   9.6523256
  36.7917388 104.5092677   9.7379456  49.5253629 110.8404843  14.6628172
  50.3944789 111.0145495  14.3014806  49.0460381 111.6599259  14.5403901
  45.5203847  98.0364040  -5.0840073  45.5082517  98.9805880  -4.9271802
  46.4127269  97.8534185  -5.3780612  43.6939809 117.9601944   6.3417605
  44.5967056 117.9925554   6.6584100  43.4677179 117.0302395   6.3563941
  49.3355967  94.6306816  -0.8294136  48.5688363  94.0765303  -0.6837454
  49.7466672  94.7028685   0.0320016  41.3397728 100.9191612  13.2611045
  42.2029190 100.5628417  13.4714370  40.7663139 100.5805507  13.9486449
  57.6290750 120.0626461  11.5282489  56.8524084 120.6220382  11.5185353
  58.2681313 120.5483244  12.0497359  54.6198486 120.0251563  11.8915766
  53.9897147 120.7067844  12.1251162  54.5134574 119.9134645  10.9468904
  53.8979229 114.3272329  14.2541017  53.5046174 113.7738527  14.9288661
  54.7145369 114.6382907  14.6447534  56.8147190 115.7430208  11.8461273
  57.5556903 116.3437361  11.7665736  57.0465113 115.0007846  11.2879316
  51.9588528 120.9286575  10.1239503  51.8442043 120.0271832  10.4246602
  51.1033045 121.1750272   9.7724319  58.6398647 115.5254101   9.0708570
  57.9926562 116.2244051   8.9773046  59.4099662 115.9590245   9.4384818
  54.4811806 118.8719941   9.1224665  53.9449163 118.4210679   9.7746261
  53.8928515 119.0065850   8.3795129  50.2150928 118.0075948   6.2077660
  50.1309116 117.4001618   5.4728070  49.3933634 118.4984967   6.2087156
  58.6487668 122.3908808  12.7093145  57.9728305 122.2902938  13.3795520
  59.4715302 122.2348022  13.1729142  52.3674944 116.0450886   7.5472645
  52.4316270 116.9065717   7.1350043  52.3042064 115.4324887   6.8145004
  51.8427216 118.1174018  11.1945680  52.4699255 117.7351096  11.8083204
  50.9855135 117.8988220  11.5601372  54.9513320 115.3360870   9.3832235
  55.4747722 115.5823167  10.1458544  54.7325653 116.1680905   8.9635372
  49.5932599 121.7218239   9.1619025  48.8514335 121.8700875   9.7483655
  49.2725344 121.9826505   8.2985774  55.0795274 117.4391924  12.8559599
  55.1283429 118.3154047  12.4737369  55.6217788 116.8969317  12.2831242
  57.3094562 118.1923297   9.6105958  56.4397872 118.4856863   9.3388546
  57.5454043 118.7763742  10.3313222  56.2055088 118.8774989  15.0439541
  56.1051814 119.8269346  14.9751632  55.9876630 118.5493228  14.1715611
  56.0686358 122.3072128  13.8604602  55.5853439 123.1072488  14.0668491
  56.1547297 122.3180073  12.9072046  47.8393991 119.1015913   9.1636031
  48.4852855 118.5914867   9.6523256  47.6311143 119.8384594   9.7379456
  52.1791482 116.2483530  13.2611045  53.0422944 115.8920335  13.4714370
  51.6056893 115.9097425  13.9486449  37.3592858  75.2182603  -1.5527690
  36.9156712  74.4318981  -1.8706785  38.0210071  75.4061753  -2.2183799
  39.4574096  75.4985403  -3.5246289  39.4392571  76.3194284  -4.0166019
  40.3794016  75.3739478  -3.2996147  35.9147150  73.0129532  -2.6822780
  36.4475487  72.2517820  -2.9123472  35.3861231  72.7203184  -1.9398626
  45.3074828  71.9874498  -6.7036451  45.5010718  72.8920309  -6.4577176
  45.2075446  71.5281917  -5.8697866  40.3689937  72.1381241  -1.1295570
  40.2175443  71.9091793  -2.0465487  40.3594616  73.0951842  -1.1164225
  42.0782143  75.1700363  -3.0519088  42.0194690  74.4859584  -3.7188505
  42.4801662  75.9119353  -3.5038462  42.0799551  73.1339947  -4.8205109
  41.1926329  72.7965869  -4.6978710  42.6498102  72.4022979  -4.5836343
  38.0699388  77.6928234  -5.6985707  38.7827360  78.3275699  -5.7709805
  37.5789416  77.7892100  -6.5145705  36.9700160  68.7387096  -0.5661549
  36.2940797  68.6381225   0.1040827  37.7927794  68.5826309  -0.1025551
  35.7122943  80.0454023  -6.3303933  36.2641251  80.2085645  -5.5654847
  36.0529136  80.6358461  -7.0023908  40.5633817  74.8715281  -0.4755278
  41.1073721  75.4845239  -0.9700323  39.9820662  75.4294859   0.0411735
  35.8588754  77.6112505  -4.3155278  36.1675881  77.3661652  -3.4432579
  36.6564236  77.8159143  -4.8036408  43.8862612  74.3311335  -1.1393957
  43.0958155  74.3135474  -1.6789458  43.6495966  74.8699628  -0.3844920
  44.0060487  71.1803801  -3.8261228  44.0558492  71.0153809  -2.8845706
  43.8974410  70.3131060  -4.2163348  41.2964249  67.1634729  -2.5101922
  42.1974112  67.0241194  -2.8017924  41.3712224  67.3289184  -1.5703744
  45.5078684  73.6000743  -3.5819207  45.2163492  73.9630723  -2.7455746
  44.8950815  72.8867751  -3.7605875  36.6577642  71.7419036  -0.2640683
  37.5780651  71.9197635  -0.0700636  36.6227225  70.7975081  -0.4160983
  34.3898850  68.6550415   0.5849909  33.9065932  69.4550776   0.7913798
  34.4759789  68.6658360  -0.3682647  38.6859876  72.5175047   1.3873478
  39.5551036  72.6915700   1.0260113  38.2066627  73.3369464   1.2649208
  50.3452352  84.2263673  -9.2081247  50.9830762  84.1070421  -9.9117907
  50.2273195  85.1744517  -9.1493295  47.1542058  84.1791102  -9.2719722
  46.8160569  84.0632166 -10.1599188  48.0231826  83.7782267  -9.2918716
  47.6361841  85.3325953  -3.3133517  47.6250482  84.9378752  -4.1853013
  47.7982480  84.5992026  -2.7199745  44.3569102  88.1163065  -4.3654333
  44.0658968  89.0208696  -4.4807667  44.9926086  88.1579593  -3.6510263
  45.2825309  85.4939914  -7.7752973  45.8788881  85.2695936  -8.4896010
  45.3400280  84.7524659  -7.1727525  49.8993620  81.9515127 -12.1328039
  50.6856709  81.5334550 -12.4837622  50.1632324  82.8561219 -11.9646391
  55.3002047  81.8890360 -11.2295061  56.0327219  81.3189577 -10.9957231
  54.5441403  81.5011961 -10.7888555  46.9178167  84.3117602 -14.0331718
  46.5536374  83.7848223 -13.3218797  47.7745283  83.9216071 -14.2065233
  52.8227468  75.6011935  -6.7700452  52.4910792  76.4707346  -6.9939237
  52.2273081  75.2848219  -6.0906422  49.3158987  87.8024481  -7.3704539
  49.0159710  88.7049519  -7.4788732  48.9710047  87.5356664  -6.5183386
  42.7671469  84.2538277 -11.3367835  41.8421965  84.1214492 -11.1290143
  43.0155882  85.0332497 -10.8397892  52.7156131  80.3207021  -9.6907102
  51.8073008  80.2522429  -9.9848341  52.6643727  80.7978966  -8.8625276
  46.7896997  81.7396666  -1.7472205  46.0130331  82.2990587  -1.7569340
  47.4287560  82.2253449  -1.2257335  54.5817777  78.5223459  -7.9129228
  53.9392158  78.8155992  -8.5589433  54.0772706  78.4076380  -7.1076031
  45.0443369  84.5482120  -2.1854238  45.7858053  85.0867164  -2.4619414
  44.3380354  85.1748408  -2.0282686  50.5198709  86.6911260  -3.5882076
  50.9282065  86.2493671  -4.3327444  49.7975970  86.1163888  -3.3347883
  46.8729779  81.6283867  -6.2148519  47.7190974  82.0523281  -6.0713870
  46.8128416  80.9717491  -5.5209956  50.8427523  87.2512451  -9.8329787
  50.2136386  87.4158165 -10.5353719  50.4553185  87.6654060  -9.0618823
  50.0229224  79.2888235  -4.5567346  49.7790156  80.0430296  -5.0933070
  50.2989155  79.6673583  -3.7220099  51.9767687  85.8326848  -5.8790080
  52.1884582  86.4758608  -6.5555699  51.9297435  84.9989164  -6.3468150
  49.5793916  78.4444668  -8.9753508  48.7178395  78.7425922  -8.6836770
  49.6056350  78.6615067  -9.9072475  46.3955485  86.9886859 -12.5679702
  46.8593831  87.2674562 -13.3575080  46.1312283  86.0870303 -12.7506612
  43.2879566  86.5358340  -9.6299939  43.8580923  86.9645609 -10.2682454
  43.8787678  86.2540925  -8.9315753  43.7804733  81.7021768  -1.3838928
  43.1503393  82.3838049  -1.1503531  43.6740821  81.5904850  -2.3285789
  53.0913515  88.7098803  -7.7067723  53.9130958  88.3078990  -7.9885041
  53.0875918  88.6067037  -6.7551607  46.8570118  88.2582846  -5.5507012
  46.9214551  88.7203254  -4.7148840  46.1481042  87.6280211  -5.4224702
  37.3587408  81.6224054  -8.0258013  37.6095447  82.5071064  -7.7600437
  37.8946957  81.4428656  -8.7982921  43.0585476  76.0042534   0.9786323
  42.6652421  75.4508732   1.6533968  43.8751616  76.3153112   1.3692841
  45.9753436  77.4200413  -1.4293420  46.7163150  78.0207566  -1.5088958
  46.2071359  76.6778051  -1.9875378  41.1194775  82.6056780  -3.1515190
  41.0048290  81.7042037  -2.8508091  40.2639292  82.8520477  -3.5030374
  48.1986612  90.5474520  -1.5527690  47.7550466  89.7610899  -1.8706785
  48.8603826  90.7353671  -2.2183799  42.9573733  92.0770322  -7.0267011
  43.5081159  91.9487385  -7.7990017  42.1185209  92.3765211  -7.3772118
  50.2967850  90.8277320  -3.5246289  50.2786326  91.6486201  -4.0166019
  51.2187770  90.7031396  -3.2996147  46.7540904  88.3421450  -2.6822780
  47.2869241  87.5809738  -2.9123472  46.2254986  88.0495102  -1.9398626
  49.9210599  73.4481516  -7.1529138  49.5774869  74.3383157  -7.2290028
  50.2889562  73.2583173  -8.0159553  49.0007140  75.8186171  -9.1879905
  48.4971935  75.7816306 -10.0012100  49.2937747  76.7278914  -9.1283248
  53.0986463  85.6656463 -10.0536922  52.4410138  86.3555724  -9.9656793
  53.9026862  86.0552895  -9.7102935  51.9091922  84.0200835 -12.0032980
  52.4223804  84.6530827 -11.5011270  52.5593146  83.4202031 -12.3689620
  48.3872753  81.4950291  -9.7574640  47.4695314  81.7165238  -9.9152951
  48.8032896  81.5696602 -10.6162932  51.6186638  79.9298823 -12.6453170
  50.8809395  79.4176209 -12.3142927  51.8713411  79.4899205 -13.4569893
  45.9919345  83.0028868 -11.5435210  46.0467955  82.0502704 -11.6192733
  45.1810547  83.1588307 -11.0593911  49.5285916  82.0847752  -4.9529937
  49.8835304  82.3119225  -4.0935471  50.1758048  82.4166129  -5.5752682
  43.4225780  79.1924283  -8.1683596  44.0625159  79.0513042  -8.8660633
  42.5903310  78.9058797  -8.5444994  49.0180928  90.8744809  -7.7036236
  49.0717950  91.4435746  -6.9358520  48.1495709  91.0446694  -8.0682199
  41.8979321  80.5762365  -6.2211785  42.5702375  80.3679728  -6.8699136
  41.0709108  80.3784451  -6.6606552  56.1468583  87.3166416  -6.7036451
  56.3404473  88.2212226  -6.4577176  56.0469201  86.8573835  -5.8697866
  47.8004893  77.2024306  -4.2046124  47.1532808  77.9014256  -4.2981647
  48.5705909  77.6360450  -3.8369875  51.2083691  87.4673159  -1.1295570
  51.0569198  87.2383710  -2.0465487  51.1988371  88.4243760  -1.1164225
  47.9769028  85.0405071  -6.1449304  48.9061088  85.1916231  -6.3180337
  47.5560058  85.1289092  -7.0000657  46.7757359  89.0655736  -8.3750766
  46.6368445  88.6974520  -7.5024828  45.9871956  89.5803375  -8.5466808
  48.3262575  88.4437338 -10.9861928  47.9912407  88.4038108 -10.0904279
  47.8266520  87.7782054 -11.4591518  42.3006819  83.8504968  -5.4609347
  42.1626616  83.1185207  -4.8597808  43.2111742  83.7613869  -5.7425160
  44.9289119  83.5624928  -5.9725668  45.6388738  82.9218120  -6.0139049
  44.8858427  83.8137823  -5.0499487  52.9175898  90.4992281  -3.0519088
  52.8588444  89.8151501  -3.7188505  53.3195416  91.2411271  -3.5038462
  43.6418053  80.5490146  -4.1530028  43.1055410  80.0980884  -3.5008432
  43.0534762  80.6836054  -4.8959564  52.9193305  88.4631865  -4.8205109
  52.0320084  88.1257787  -4.6978710  53.4891856  87.7314896  -4.5836343
  39.3757174  79.6846153  -7.0677034  39.2915363  79.0771823  -7.8026624
  38.5539881  80.1755172  -7.0667537  46.4494459  93.1233317  -7.8543866
  46.3764630  93.9288289  -7.3424561  46.0071852  93.3225283  -8.6795844
  57.4010646  83.8740082 -10.0588547  57.3900522  84.7564798 -10.4294614
  56.5328025  83.5211633 -10.2534010  48.9093142  93.0220151  -5.6985707
  49.6221114  93.6567616  -5.7709805  48.4183171  93.1184017  -6.5145705
  43.9605056  90.7714595  -4.8780136  44.6614515  91.4051078  -4.7250742
  43.4900171  91.1129326  -5.6384497  51.9899883  75.1369310  -9.5527480
  51.0762963  75.3673537  -9.3845273  52.4192985  75.2207754  -8.7013447
  51.7606342  83.3259202  -7.0527586  51.1077792  83.5735110  -7.7075133
  52.1386721  82.5123341  -7.3865108  47.8093915  84.0679013  -0.5661549
  47.1334552  83.9673143   0.1040827  48.6321548  83.9118227  -0.1025551
  46.5516697  95.3745941  -6.3303933  47.1035005  95.5377562  -5.5654847
  46.8922891  95.9650379  -7.0023908  41.5281191  77.7221091  -5.7282048
  41.5922517  78.5835922  -6.1404650  41.4648311  77.1095092  -6.4609689
  41.0033463  79.7944223  -2.0809014  41.6305502  79.4121301  -1.4671489
  40.1461382  79.5758425  -1.7153321  51.4027572  90.2007198  -0.4755278
  51.9467476  90.8137157  -0.9700323  50.8214417  90.7586777   0.0411735
  51.7519993  91.1236936  -7.7160700  50.8050329  91.0042288  -7.7882374
  52.1002766  90.2359434  -7.6334439  44.1119566  77.0131075  -3.8922459
  44.6353968  77.2593372  -3.1296149  43.8931900  77.8451110  -4.3119321
  45.3172112  77.9544770  -6.2072788  44.9768932  77.1552584  -5.8052108
  44.6111118  78.2546481  -6.7795955  45.9688583  75.0394083  -7.7545465
  46.7914653  74.5654561  -7.8766575  46.2126647  75.8184567  -7.2546779
  43.4927162  81.7313204  -9.9453486  43.3471743  82.0453507  -9.0529205
  43.0152366  82.3498104 -10.4982588  45.3523545  78.7215752  -9.8972597
  45.3385114  77.8256845 -10.2340299  46.0695973  78.7286415  -9.2634311
  47.2049676  79.1553092  -7.8519469  46.9467454  80.0770162  -7.8535139
  46.6734716  78.7583526  -7.1619005  37.9672824  84.2718548  -7.0065825
  37.4226292  85.0478356  -6.8745551  38.8452174  84.6189352  -7.1646704
  38.7538846  83.3988444  -4.1135668  38.0120582  83.5471080  -3.5271038
  38.4331590  83.6596710  -4.9768919  46.6982509  92.9404422  -4.3155278
  47.0069635  92.6953569  -3.4432579  47.4957991  93.1451061  -4.8036408
  44.2401520  79.1162129  -0.4195094  44.2889676  79.9924252  -0.8017324
  44.7824035  78.5739522  -0.9923451  54.7256366  89.6603252  -1.1393957
  53.9351910  89.6427391  -1.6789458  54.4889721  90.1991546  -0.3844920
  54.8454241  86.5095719  -3.8261228  54.8952246  86.3445726  -2.8845706
  54.7368165  85.6422978  -4.2163348  52.1358004  82.4926647  -2.5101922
  53.0367866  82.3533112  -2.8017924  52.2105978  82.6581102  -1.5703744
  46.4700809  79.8693502  -3.6648735  45.6004118  80.1627068  -3.9366147
  46.7060289  80.4533947  -2.9441472  56.3472438  88.9292660  -3.5819207
  56.0557246  89.2922641  -2.7455746  55.7344569  88.2159669  -3.7605875
  54.5959626  84.0525275  -5.1139149  55.0713748  84.2452921  -5.9220298
  53.6725192  84.1084461  -5.3595765  49.1739843  76.0873119  -6.1483315
  49.6921787  76.8234145  -6.4736826  48.8194976  76.3937112  -5.3136556
  53.2961295  80.9291035  -6.8810843  54.2478718  81.0289133  -6.8598619
  53.1264746  80.1369304  -6.3712759  51.3175675  78.0146618  -6.6951442
  50.7225607  78.2951631  -7.3904954  51.0325371  78.5040519  -5.9234701
  55.7749373  84.1497155  -7.7668544  55.7425693  83.2113155  -7.5808860
  56.3849997  84.2281191  -8.5002719  55.9243862  80.9408198  -7.7210260
  55.4082910  80.1566655  -7.9080332  56.8083810  80.6126915  -7.5563741
  53.5854588  74.6849214 -11.7614448  53.3879410  74.3764302 -10.8771116
  54.1954294  75.4110853 -11.6316518  61.5925923  85.2113162  -8.6262507
  62.3229311  84.9498450  -8.0654804  60.9832868  84.4741884  -8.5860439
  59.6741220  83.3521024  -8.0288056  58.9474384  83.2176989  -8.6371564
  59.2588507  83.6597853  -7.2231338  47.4971396  87.0710954  -0.2640683
  48.4174406  87.2489553  -0.0700636  47.4620979  86.1266999  -0.4160983
  40.4933469  84.9811988  -7.6217901  40.7119479  85.9129096  -7.6029868
  40.9059243  84.6219963  -6.8363098  45.3661334  80.5545194   1.7684847
  45.2658061  81.5039551   1.6996939  45.1482876  80.2263433   0.8960918
  45.2292604  83.9842333   0.5849909  44.7459686  84.7842693   0.7913798
  45.3153543  83.9950278  -0.3682647  41.1565942  87.8746868  -7.3781657
  42.1109195  87.8430810  -7.4451726  40.9578465  87.4137492  -6.5631431
  41.7465324  86.4447984  -4.8110859  42.5658213  86.9392063  -4.7876022
  42.0202132  85.5279952  -4.8393292  54.8546456  78.8605257 -11.7328565
  55.6306846  79.3501710 -11.4603948  54.1294590  79.2863311 -11.2756695
  57.2919015  79.5732876 -10.6754624  57.8863506  79.3328612 -11.3861316
  57.3645599  78.8540007 -10.0481088  37.0000238  80.7786118  -4.1118662
  37.6459102  80.2685072  -3.6231437  36.7917389  81.5154799  -3.5375237
  49.5253630  87.8466965   1.3873478  50.3944790  88.0207617   1.0260113
  49.0460382  88.6661382   1.2649208  43.6939811  94.9664066  -6.9337088
  44.5967057  94.9987676  -6.6170593  43.4677181  94.0364517  -6.9190752
  41.3397729  77.9253735  -0.0143648  42.2029191  77.5690540   0.1959676
  40.7663140  77.5867630   0.6731756  57.6290751  97.0688584  -1.7472205
  56.8524085  97.6282504  -1.7569340  58.2681314  97.5545367  -1.2257335
  54.6198487  97.0313686  -1.3838928  53.9897148  97.7129966  -1.1503531
  54.5134575  96.9196767  -2.3285789  53.8979230  91.3334451   0.9786323
  53.5046176  90.7800650   1.6533968  54.7145370  91.6445030   1.3692841
  56.8147191  92.7492331  -1.4293420  57.5556904  93.3499484  -1.5088958
  57.0465114  92.0069968  -1.9875378  51.9588529  97.9348698  -3.1515190
  51.8442044  97.0333955  -2.8508091  51.1033047  98.1812395  -3.5030374
  58.6398648  92.5316224  -4.2046124  57.9926563  93.2306174  -4.2981647
  59.4099663  92.9652368  -3.8369875  54.4811808  95.8782063  -4.1530028
  53.9449165  95.4272802  -3.5008432  53.8928516  96.0127972  -4.8959564
  50.2150929  95.0138071  -7.0677034  50.1309118  94.4063741  -7.8026624
  49.3933635  95.5047089  -7.0667537  58.6487669  99.3970931  -0.5661549
  57.9728306  99.2965060   0.1040827  59.4715303  99.2410145  -0.1025551
  52.3674945  93.0513008  -5.7282048  52.4316272  93.9127839  -6.1404650
  52.3042065  92.4387010  -6.4609689  51.8427218  95.1236141  -2.0809014
  52.4699257  94.7413218  -1.4671489  50.9855137  94.9050343  -1.7153321
  54.9513321  92.3422993  -3.8922459  55.4747723  92.5885290  -3.1296149
  54.7325654  93.1743028  -4.3119321  49.5932601  98.7280362  -4.1135668
  48.8514337  98.8762997  -3.5271038  49.2725345  98.9888627  -4.9768919
  55.0795275  94.4454047  -0.4195094  55.1283430  95.3216170  -0.8017324
  55.6217789  93.9031440  -0.9923451  57.3094563  95.1985419  -3.6648735
  56.4397873  95.4918985  -3.9366147  57.5454044  95.7825864  -2.9441472
  56.2055089  95.8837112   1.7684847  56.1051816  96.8331469   1.6996939
  55.9876631  95.5555351   0.8960918  56.0686359  99.3134251   0.5849909
  55.5853441 100.1134611   0.7913798  56.1547298  99.3242196  -0.3682647
  47.8393993  96.1078035  -4.1118662  48.4852856  95.5976989  -3.6231437
  47.6311144  96.8446717  -3.5375237  52.1791484  93.2545652  -0.0143648
  53.0422945  92.8982457   0.1959676  51.6056894  92.9159547   0.6731756
  58.6487670  76.4033054 -13.8416242  57.9728307  76.3027183 -13.1713867
  59.4715304  76.2472267 -13.3780245  56.0686360  76.3196373 -12.6904784
  55.5853442  77.1196733 -12.4840895  56.1547299  76.3304318 -13.6437340
 138.1096252 138.1096252 138.1096252 109.4712190 109.4712190 109.4712190
