
33386  0.0000000e+00
  28.5696578  45.4823637  21.9775510  28.3835149  45.0725365  21.0733938
  29.5399547  45.3068781  22.1962547  28.4583855  46.4853001  21.9347310
  27.7236128  44.7014046  22.9032135  26.7065716  44.7649145  22.5163054
  28.1638694  43.1995201  22.8304696  27.7937341  42.7263403  21.9209647
  29.2313242  42.9807472  22.8024817  27.5883961  42.4893522  23.8769484
  27.2227907  41.6501427  23.5877013  27.9562068  45.4184818  24.3249249
  29.0322924  45.2575779  24.8887062  26.9337988  46.2384081  24.7832751
  26.0859823  46.2983990  24.2376494  27.1518445  46.9970703  26.0242176
  28.0924201  47.5411510  25.9382248  25.9801865  47.9153299  26.2306905
  25.0638676  47.3251915  26.2447572  26.0531116  48.4002829  27.2041392
  26.0325122  49.0937519  25.1528239  25.7442117  48.7735367  24.1516018
  25.2146888  49.7359514  25.4797029  27.4001169  49.7723675  25.0260806
  28.0649424  50.0521278  26.0306406  27.8336096  50.0402260  23.8572884
  27.4333334  46.0689974  27.2896099  28.1938863  46.4703703  28.2064438
  26.8830466  44.8323679  27.3602247  26.2539554  44.4800234  26.6529775
  27.0564651  44.0544510  28.5657048  27.0344472  44.6724415  29.4633126
  25.9126520  43.0755520  28.7222862  25.9216595  42.4249649  27.8477812
  26.2107730  42.4433947  29.5587063  24.5771694  43.8256264  28.9796376
  23.9445233  43.1607151  29.5676470  24.7183919  44.7281456  29.5742917
  23.7786579  44.3284559  27.7776742  24.1427970  44.1543293  26.6280651
  22.5827861  44.8165894  28.0422330  21.9794130  45.0388861  27.2633696
  22.2970843  44.9953413  28.9943480  28.4519577  43.4274054  28.6227584
  29.1692662  43.4465027  29.5911407  28.9450788  42.9523230  27.4421573
  28.2740855  42.9288197  26.6876268  30.3219795  42.4644279  27.1628737
  30.5649829  41.6871977  27.8874159  30.3459430  41.8356991  25.7875919
  29.7086835  40.9518337  25.8155656  29.9632668  42.5667906  25.0754333
  31.7002535  41.3802958  25.2639842  32.4224377  42.1751499  25.4504156
  32.2976661  40.0694227  25.9014916  33.3799052  40.0541115  25.7725239
  32.0053959  40.0842476  26.9514728  31.8522573  39.1777420  25.4603410
  31.6429758  41.2271881  23.7291598  32.6330137  40.8899450  23.4222364
  30.9740353  40.4328251  23.3980942  31.4090014  42.1598577  23.2158566
  31.4500022  43.5546970  27.3323274  32.4477077  43.3199310  28.0631614
  31.1846018  44.7527027  26.8522668  30.3041315  44.8325348  26.3638973
  31.9358277  45.9408855  27.3007894  32.9402328  45.7564020  26.9196892
  31.3651085  47.2104931  26.6842604  30.2928209  47.3098564  26.8528581
  31.8363070  48.0859756  27.1310306  31.6914344  47.2457886  25.2409887
  32.7232552  47.5372410  25.0447750  31.5598106  46.3217497  24.6780300
  30.7622910  48.3639050  24.6681786  30.8004832  48.3125448  23.5800600
  29.7085023  48.1148100  24.7930121  31.1265373  49.7021866  25.2646732
  30.9665847  49.6607161  26.3420773  32.1734309  49.9156237  25.0488949
  30.3441119  50.7349348  24.6062326  30.5582261  51.5727377  25.1281071
  30.6701946  50.7278872  23.6503458  29.3503022  50.5595064  24.5653701
  31.9046283  46.1719561  28.8316131  32.8630757  46.7530823  29.4178176
  30.7677603  45.8639812  29.4722295  29.9291468  45.7073641  28.9315844
  30.6940389  46.1305141  31.0107470  31.1629128  47.0935392  31.2128377
  29.2556024  46.2059546  31.4279938  28.5809183  45.4755926  30.9813690
  29.1661978  46.0593176  32.5043821  28.5430980  47.8343105  31.0886979
  28.7891126  47.7759838  29.7768402  31.4241290  45.0294590  31.8160248
  31.8336344  45.2953863  32.8856611  31.6552711  43.8006020  31.2898540
  31.2447023  43.5830832  30.3930688  32.2632074  42.6451445  31.9339967
  31.6387153  42.3788071  32.7867436  32.2963142  41.3768291  31.0690784
  32.8487301  41.6425991  30.1677990  32.7903295  40.5506754  31.5804625
  30.5612898  40.9305382  30.7522774  30.1498055  42.1483326  30.3881860
  33.6264443  42.9601908  32.5568557  33.9386392  42.6015854  33.7012291
  34.4991994  43.7151289  31.8641019  34.3137527  43.9847183  30.9085751
  35.7539964  44.2058945  32.3966479  36.2647676  43.3159637  32.7643991
  36.5535879  44.9768734  31.3318515  37.4081922  45.4854870  31.7780161
  37.0029259  44.2765617  30.6277490  35.6734872  45.8056927  30.6139398
  35.4024076  45.3238678  29.8291087  35.6126142  45.0939894  33.6385846
  36.2597394  44.9866152  34.6618700  34.5705056  45.9297228  33.5898781
  34.0445113  46.0490370  32.7359486  33.9958096  46.5745878  34.7978258
  34.7353482  47.2737885  35.1880813  33.1725979  47.2348928  34.5250154
  33.5896206  45.7083178  35.9439635  34.1332960  45.8585310  37.0287943
  32.6586795  44.7204161  35.7378197  32.3947930  44.6464968  34.7657061
  32.1402073  43.8014603  36.7340684  31.4063549  44.2770576  37.3847389
  31.3774872  42.5496197  36.0303903  31.9162607  42.1526957  35.1699924
  31.0169721  41.3749123  37.0499825  30.4223013  40.5501938  36.6571689
  31.8849087  40.7701063  37.3126483  30.6334949  41.8561125  37.9497051
  29.9791288  43.0276728  35.5378580  29.4931340  43.6274004  36.3074279
  30.1156831  43.7769127  34.7580504  29.0226030  41.9602680  34.9879479
  28.6625266  41.3078785  35.7834578  28.1488705  42.4509478  34.5590782
  29.4562769  41.3541555  34.1925526  33.3337331  43.1418896  37.4750400
  33.3558607  42.9508543  38.7132096  34.3949437  42.7971792  36.7296100
  34.5193934  43.1928730  35.8087158  35.6262565  42.2521639  37.3068309
  35.3178668  41.5629864  38.0929804  36.4210391  41.5430737  36.2289834
  35.7073164  41.1349058  35.5133700  37.0094848  42.2233677  35.6133294
  37.4466467  40.4377222  36.6851592  38.0573654  40.7322264  37.5386190
  36.6892910  39.1961408  37.0696163  36.0762310  38.8438654  36.2400556
  37.3606539  38.3665299  37.2912478  35.9304261  39.3759537  37.8311205
  38.4314370  40.0538540  35.4776573  38.7645960  41.0351515  35.1397681
  39.2189050  39.4394898  35.9141803  37.8853178  39.4825721  34.7269988
  36.5343857  43.2289743  38.0746746  37.1174550  42.8439665  39.0918779
  36.5209961  44.4824600  37.5634766  35.8626866  44.6553326  36.8172526
  37.2027659  45.6078053  38.2450843  38.2556987  45.4022360  38.4379125
  37.1214485  46.8848610  37.4717808  37.1648908  46.7725134  36.3884568
  36.1251593  47.2989702  37.6267648  38.1581759  47.9278517  37.8518605
  38.2276678  48.1664085  38.9131641  39.1037178  47.5352049  37.4778461
  37.9612565  49.2160749  36.9707251  38.9604831  49.6515608  36.9706893
  37.7300692  48.9777660  35.9325242  37.0299554  50.2606392  37.6199818
  36.0366559  49.8119259  37.6093745  37.2859359  50.4487991  38.6626554
  36.9488740  51.5820694  36.9821286  36.3546181  52.2549868  37.4448848
  37.8832936  51.9530725  36.8856120  36.5506148  51.5151072  36.0563827
  36.4848280  45.8759928  39.6258783  37.2015715  45.8594370  40.6387281
  35.1567459  45.9312725  39.6436596  34.5852733  46.1390829  38.8372231
  34.4231486  45.8766270  40.9382725  34.6612239  46.7807293  41.4986515
  32.9497600  45.7764006  40.5875826  32.6581478  46.7308617  40.1493263
  32.8561950  45.0269222  39.8016834  31.9627380  45.4653978  41.6810703
  30.9563828  45.6012249  41.2849665  32.0341659  44.4033384  41.9156504
  32.2107911  46.2962770  42.9459190  32.5262761  47.5106430  42.8692770
  31.9142795  45.8397865  44.0817451  34.8662400  44.7309780  41.8716526
  35.0847602  45.0098896  43.0364847  35.0360990  43.5160732  41.4926004
  34.8460031  43.3563328  40.5135965  35.3554296  42.4542332  42.3590231
  34.7920847  42.5408030  43.2881308  35.0893188  41.1232615  41.6399956
  35.5518460  41.0998535  40.6532717  35.5152822  40.2665520  42.1622086
  33.6319757  40.8044720  41.2666321  33.0746102  40.5159855  42.1578217
  33.1762648  41.7199516  40.8893633  33.3772635  39.5501614  40.0172758
  33.6836410  38.1292915  41.0700035  32.9121518  38.0958462  41.8392849
  33.6112738  37.1246028  40.6535101  34.6739984  38.0860853  41.5232420
  36.8697977  42.4251175  42.7422428  37.2123647  41.8908215  43.7853718
  37.7593327  43.1638288  42.0228720  37.3337412  43.7558556  41.3239574
  39.1621161  43.3994246  42.4806452  39.5554495  42.4677038  42.8872061
  39.9964786  43.8442183  41.2738991  39.4141150  44.3837833  40.5270243
  40.7705736  44.5614433  41.5467739  40.4625845  42.6141262  40.4724360
  40.0982237  42.5080538  39.1173530  39.4156861  43.2180595  38.6741471
  40.7304716  41.5661812  38.2768631  40.5285788  41.5022326  37.2178268
  41.6101837  40.6452799  38.8249087  42.0791864  39.8193908  38.3107591
  42.0595264  40.7884645  40.1828146  42.7950525  40.1289606  40.6192255
  41.4302158  41.7564631  40.9929037  41.6184950  41.8571091  42.0515919
  39.2257619  44.5270205  43.5894966  40.2899981  44.6039200  44.1827631
  38.1551719  45.3622913  43.8577890  37.2943282  45.1896572  43.3585358
  38.2623243  46.5759134  44.6855545  39.0818667  47.1929598  44.3171692
  37.0110989  47.3774338  44.4801331  36.1189961  46.7915773  44.7015572
  37.0049596  48.1932259  45.2030134  36.9462109  47.7288675  43.4503841
  38.5850787  46.2159252  46.2129354  38.1603670  45.1768446  46.7597151
  39.3935680  47.1073389  46.8142891  39.6505523  47.9089928  46.2562513
  39.8996878  47.1170044  48.1663704  40.6602621  46.3635445  48.3711195
  40.5331135  48.4786844  48.4667969  39.9642467  49.3563414  48.1598663
  40.6987619  48.4257126  49.5428276  41.8324041  48.6214733  47.7575541
  42.4531221  47.7378368  47.9058790  41.6083908  48.8103437  46.7076778
  42.6393604  49.8113537  48.3875227  42.0956135  50.7491064  48.2732058
  42.7427673  49.4992590  49.4267559  43.9481449  50.0543642  47.7058172
  44.5574236  49.1691446  47.5234318  43.6504984  50.4521418  46.7356205
  44.6820068  51.0575628  48.4376049  45.0969458  50.6875467  49.2808247
  45.4890442  51.4816618  48.0029440  44.0447330  51.8268013  48.5867691
  38.8717127  46.6964483  49.2377520  39.2172837  46.0276842  50.1950407
  37.6255178  47.0740604  49.1058445  37.5095677  47.8464746  48.4655046
  36.5468788  46.7287111  50.0565100  36.8199039  47.1010494  51.0438919
  35.2036357  47.2114944  49.6130276  34.4452119  46.7322350  50.2320623
  35.2154827  48.2876492  49.7857809  34.9222565  46.9677258  48.0995178
  35.7568979  47.4733925  47.6139545  34.8629951  45.9118938  47.8353071
  33.6852741  47.6471519  47.5835848  32.8836942  47.0258188  47.9829788
  33.5444736  48.6092710  48.0761242  33.6047864  47.8289175  46.0721731
  34.3352675  48.6010075  45.8305502  33.7921667  46.8752861  45.5786419
  32.3039675  48.3717108  45.6338358  32.1474290  49.3538427  45.8099651
  32.2367311  48.1904602  44.6425104  31.4624572  47.9567623  46.0077047
  36.4653301  45.1851368  50.3030205  36.4429879  44.6461248  51.4452124
  36.4879084  44.4337082  49.2000437  36.7495918  44.8313189  48.3092451
  36.4356756  42.9819393  49.1161346  35.6689429  42.7574444  49.8576355
  36.1287236  42.5611258  47.6826525  37.0031261  42.5917196  47.0325851
  35.8830023  41.5020514  47.7606678  35.0146151  43.3152962  47.0192766
  33.7225008  43.3321428  47.5962019  32.9692578  43.9249945  46.6628981
  31.8907452  43.9575195  46.7092848  33.7303782  44.3873787  45.6440020
  33.4300661  44.9638796  44.8709822  35.0549817  44.0462255  45.8644819
  35.9164762  44.3464661  45.2864790  37.6962447  42.2079277  49.5856190
  37.6082516  40.9951210  49.9180651  38.8628531  42.8975725  49.5415211
  38.8329315  43.8806486  49.3118191  40.2007627  42.2899437  49.7973204
  40.5452919  41.7525339  48.9138079  41.3135004  43.3743811  49.9259472
  41.5968370  43.8948250  49.0110922  41.0899830  44.1256762  50.6833744
  42.2279072  42.8226137  50.1439571  40.1973772  41.2178516  50.8891344
  40.7922077  40.1918364  50.7229614  39.4349861  41.3563919  51.9749928
  38.9431334  42.2230625  52.1394825  39.3690944  40.4075384  53.0856180
  40.3640223  40.3130102  53.5206842  38.4825134  40.9586143  54.2130423
  38.9523196  41.8140173  54.6985054  37.5765300  41.2316990  53.6720037
  38.2884407  40.2114916  54.9826193  39.0067577  38.9557219  52.6984024
  39.3284798  37.9896545  53.3367014  38.1485987  38.8088417  51.6771650
  37.7635765  39.6544099  51.2810850  37.5974846  37.6138306  51.1762428
  37.9909825  36.7269921  51.6730165  36.0661530  37.5526428  51.4225769
  35.7724118  36.6300511  50.9219265  35.8684039  37.4592376  52.4904108
  35.2309966  38.6542082  50.8479595  34.9925876  38.6999655  49.4803143
  35.3616023  37.9801106  48.7647486  34.0491033  39.5831895  48.9174843
  33.7781262  39.5753455  47.8720617  33.4691548  40.5938005  49.7572231
  32.5715160  41.4665937  49.2734432  32.8784251  42.0145655  48.5473967
  33.7759423  40.6147718  51.1240530  33.4120131  41.4608955  51.6879940
  34.6921062  39.6940994  51.6753435  34.9951816  39.8013735  52.7063847
  38.0126286  37.1669197  49.7450256  38.1288624  35.9858322  49.4054508
  38.3163762  38.1410670  48.8349056  38.1996989  39.1000199  49.1296911
  38.4425259  37.9527831  47.3734903  37.6805258  37.2911549  46.9615364
  38.1608796  39.2593265  46.7529964  38.8449454  40.0165319  47.1361256
  38.3101606  39.2156839  45.6741476  37.1459627  39.6263194  46.9058275
  39.8655987  37.4174690  47.0149183  40.0938272  36.9678092  45.8989048
  40.7851553  37.4401808  47.9480553  40.4914713  37.7552366  48.8616180
  42.1340752  37.2999287  47.7154350  42.4662781  38.0414367  46.9888592
  42.8411722  37.7030897  49.0296030  43.8932657  37.8444743  48.7822008
  42.5029230  38.6919999  49.3390369  42.7028751  36.8052602  50.1554918
  41.7844582  36.8982029  51.1347294  40.9745073  37.6039648  51.2455225
  41.9028044  35.8077145  51.9782305  41.2734079  35.5703402  52.7316284
  42.8914404  34.8896742  51.5354204  43.3955812  33.6523747  51.9780159
  42.9334831  33.1119967  52.7909470  44.5420551  33.1281757  51.3560534
  44.8104572  32.0995188  51.5464067  45.0696468  33.8041973  50.2675915
  45.8450413  33.3689189  49.6546507  44.6567440  35.0844574  49.9291801
  45.0966358  35.5378008  49.0531731  43.4729862  35.5675149  50.4621887
  42.6377344  35.9038591  47.2396326  43.7073374  35.9534907  46.6411734
  41.9710255  34.6972537  47.3175144  40.9834385  34.3958497  48.3547354
  39.9816179  34.4567776  47.9296017  41.0817909  35.1549196  49.1307783
  41.2939453  33.0119300  48.8215590  40.3977489  32.6036859  49.2887497
  42.1531153  32.9594111  49.4902658  41.6200495  32.4000406  47.4949360
  40.6894541  32.0926690  47.0178413  42.3471689  31.5882349  47.4757624
  42.2958040  33.4704113  46.6529655  43.3765602  33.3491230  46.7261696
  41.9633961  33.4122157  45.1461411  42.5179434  32.6082420  44.4136095
  41.1038589  34.3689799  44.6902895  40.7079077  35.1181483  45.2398968
  40.4917860  34.2172837  43.3220291  40.8058882  33.3276486  42.7761459
  38.9739513  34.3146467  43.4293795  38.6830926  35.3509378  43.6014366
  38.6550784  33.9009070  42.4727011  38.3623242  33.5657072  44.5939732
  38.1860161  32.1566391  44.4858837  38.5533261  31.5600348  43.6639690
  37.6184464  31.4742112  45.5885649  37.5678968  30.3959560  45.5537415
  37.3745966  32.1391177  46.7760468  37.0184994  31.5885401  47.6342154
  37.5623918  33.5166931  46.9102812  37.1993470  33.9552474  47.8280401
  38.0834842  34.2151999  45.7738590  38.3430719  35.2609801  45.8470631
  40.9995079  35.2967978  42.3689365  40.7551765  35.1536393  41.1625910
  41.7410851  36.3016415  42.9215193  41.6976452  36.4294100  43.9224625
  42.6353788  37.3006177  42.2571325  42.1979094  37.9953861  41.5401840
  43.3789825  38.1574535  43.3160162  43.6838102  37.4072528  44.0456581
  44.3172979  38.5004926  42.8801346  42.7141523  39.3019128  44.0750504
  41.2932491  39.4868684  43.9552784  40.8167982  38.9981961  43.1182623
  40.5861616  40.5343485  44.6321487  39.5412278  40.6913900  44.4088602
  41.2797260  41.2155628  45.6257868  40.5814838  42.2118139  46.3401985
  40.2965927  42.9022217  45.7370615  42.6572323  40.9698629  45.8496857
  43.1441307  41.5907717  46.5871143  43.3931684  40.0734425  45.0478649
  44.4366550  39.9051285  45.2696991  43.8060427  36.5731287  41.5130758
  44.3809843  37.0332646  40.5421686  44.0877819  35.4114652  42.0106173
  43.4622335  35.0074315  42.6929283  45.2882767  34.6206927  41.7762852
  45.7339048  34.9841452  40.8503151  46.3111353  34.7077632  42.8923893
  47.2506380  34.2630076  42.5643301  46.6014338  35.7415295  43.0798912
  45.9261465  33.9272952  44.2161846  44.9705076  34.2948484  44.5900249
  45.7643843  32.9021001  43.8831520  47.0903206  33.8955879  45.2596378
  47.3806667  34.9325442  45.4285192  46.8025923  33.5063672  46.2362719
  48.4002256  33.2126403  44.8565483  48.9177084  33.7076616  44.0348053
  48.9826250  33.3242440  45.7711315  48.3352280  31.7897201  44.6190071
  48.0208111  31.2425971  45.4076147  47.7085924  31.5827560  43.8544226
  49.2115593  31.3258338  44.4267702  45.0114202  33.1962895  41.3453531
  44.0171051  32.7074027  41.7856646  45.8071852  32.5469780  40.4300117
  46.8306255  33.0970454  39.5461631  47.4641371  33.8566351  40.0041914
  46.5150261  33.6088109  38.6369920  47.5893736  31.8824959  39.0715289
  48.2366180  31.6032004  39.9028921  48.1211948  32.1555138  38.1600857
  46.4638281  30.8534169  38.8324070  46.7002249  29.7950983  38.7220454
  45.9123373  30.9654832  37.8989220  45.5832624  31.1279368  40.1027822
  44.5469427  31.0152483  39.7842908  45.9017229  30.2365232  41.3132715
  46.4493895  30.7045627  42.3169184  45.5915785  28.9256716  41.2507915
  45.2818632  28.6765099  40.3222942  45.9491301  27.9209852  42.2400522
  45.8920860  28.4201264  43.2073689  44.8648930  26.8387818  42.3974323
  44.8182201  26.2400746  41.4877748  45.1045370  25.8938670  43.6275387
  44.5054531  25.0124002  43.3990240  46.1831713  25.7370543  43.6351109
  44.8841619  26.3822937  44.5767403  43.4184265  27.3493886  42.5508308
  43.1841087  27.9375172  41.6635275  42.7185869  26.5277958  42.7035284
  43.4028244  28.0428028  43.3916855  47.3603058  27.3695183  41.9773674
  47.7380133  26.9034576  40.9017134  48.2123613  27.5715899  43.0178881
  47.9161406  28.0642009  43.8483620  49.5815277  27.0582843  42.9963160
  49.9047756  27.1054244  41.9564199  50.6223917  27.9481792  43.7924862
  50.2375937  28.0417156  44.8080063  51.5411329  27.3696017  43.6962700
  50.8239889  29.3891597  43.3376694  50.6699276  30.2550387  44.2415857
  51.0159779  29.6745682  42.1209383  49.6577692  25.5873632  43.4663153
  49.9972677  25.2248526  44.6037245  49.3837929  24.6697927  42.5746870
  49.2434788  25.0377464  41.6446257  49.2240047  23.2365704  42.9244614
  48.5197926  23.2455611  43.7563896  48.5842037  22.5180316  41.6965675
  49.2237329  22.5766206  40.8158493  48.2836151  21.0184026  42.0243883
  49.0849257  20.4094672  42.4429464  47.5189209  20.9231925  42.7952814
  48.0076981  20.4853797  41.1145306  47.2804976  23.1041646  41.2140036
  46.5103626  23.2716012  41.9669771  47.4024582  24.1024303  40.7936525
  46.8345118  22.4785209  40.4408503  50.5741024  22.5367427  43.3026934
  50.5942774  21.7259574  44.2248631  51.7034197  22.9975891  42.6764011
  51.6439104  23.6945844  41.9478703  53.0174446  22.5369191  43.0152416
  52.8363895  21.4622855  42.9931736  53.9720964  22.8061676  41.7575788
  54.8246622  22.1324515  41.8432570  53.4426212  22.4955940  40.8568573
  54.4857931  24.2837548  41.5835714  54.9772930  24.6900034  42.4675894
  55.3842926  24.3560123  40.9707260  53.4447432  25.2744222  41.0710382
  53.6899090  26.4628601  41.1260653  52.2945404  24.8179436  40.7425880
  53.5744143  23.0162168  44.2746019  54.3988323  22.3426604  44.9173403
  53.2137108  24.2575431  44.6776009  52.4331617  24.6884489  44.2030859
  53.5565376  24.7437239  46.0454607  54.6157646  24.6092176  46.2646866
  53.3248186  26.1983204  46.0543776  52.2608280  26.4322138  46.0179567
  53.6848259  26.6722155  46.9675684  53.9100266  26.6959167  45.2810526
  52.7427626  24.0967464  47.1946144  53.3598948  23.6691046  48.1922913
  51.4332438  23.9766669  47.0350409  51.0316753  24.2151332  46.1395073
  50.4613400  23.3776021  47.9269314  50.6305504  23.7255549  48.9459515
  49.0436316  23.6740565  47.4916601  49.0482521  23.3829975  46.4412498
  48.3272362  23.0780482  48.0570412  48.7224817  25.1546788  47.4571228
  49.6312523  25.6157994  47.0703316  47.4585629  25.4228854  46.6448307
  46.7143583  24.6569180  46.8628788  47.2280216  26.4697814  46.8422031
  47.7669382  25.3199196  45.6044436  48.4586859  25.5913377  48.9141512
  49.2917681  25.2133369  49.5067644  48.4643888  26.6802168  48.8650417
  47.4561596  25.3247595  49.2487955  50.6797981  21.8315959  48.0446291
  50.2717447  21.1922455  48.9956141  51.3290119  21.2686157  47.0551634
  51.5402603  21.7613316  46.1991787  51.6881371  19.8311055  47.0384836
  52.4325228  19.6815705  46.2564135  52.1522284  19.3835247  47.9173422
  50.4714537  18.9548719  46.7261887  50.5367136  17.7449965  47.0637846
  49.4038630  19.4922793  46.1446619  49.4296789  20.4436278  45.8064795
  48.1920290  18.6918962  45.8135653  48.0063725  18.1626892  46.7482185
  47.0011902  19.5381010  45.4136848  47.0106697  19.6592045  44.3304729
  46.0578108  19.0916991  45.7281065  46.9675779  20.9841037  45.9008932
  47.9780436  21.3853908  45.8232117  45.9641075  21.9057894  45.2675676
  45.0212669  21.3596892  45.2980375  45.8631468  22.8805876  45.7447243
  46.1817074  22.0974493  44.2168427  46.6445923  20.9614301  47.3794079
  45.7658243  20.3428388  47.5616312  47.5202227  20.5929232  47.9137993
  46.4601326  21.9833922  47.7105761  48.5341120  17.6985240  44.6607733
  49.2792797  18.0509245  43.7740374  48.0536366  16.4694810  44.7753191
  47.2868681  16.4177883  45.4306698  48.3926439  15.2660537  43.9888668
  49.1722679  15.4498863  43.2496166  48.7724829  14.1121793  44.9733162
  47.8954601  13.8162255  45.5489349  49.1762114  13.2635701  44.4210768
  49.9855900  14.4276595  45.7917595  50.3941250  13.8378489  47.0079660
  51.6567707  14.1962278  47.3043251  52.2286224  13.8556278  48.1548405
  52.0548344  15.0101757  46.3662100  52.9150343  15.5394006  46.3756561
  51.1091185  15.1423216  45.3797722  51.2062120  15.7630432  44.5013189
  47.2527552  14.6584916  43.0965376  47.4524498  13.7257731  42.3792887
  46.0562325  15.3312230  43.1942797  46.0133982  16.0565662  43.8958073
  44.7660112  14.9608970  42.5012875  44.9561691  14.2202055  41.7245531
  43.8901472  14.2454374  43.5899448  42.8706169  14.2556894  43.2045221
  44.1799879  13.1996322  43.6918879  43.8093710  15.0247240  44.9032211
  43.1324673  14.3854117  45.7790232  44.1859674  16.2159085  45.0609112
  44.0063858  16.1940396  41.9289589  43.2110596  16.0427535  40.9922600
  44.3507576  17.4411941  42.3196268  44.8712778  17.4495685  43.1851244
  43.6060286  18.6525476  41.8823814  42.6934624  18.6464107  42.4784327
  44.5197678  19.8373544  42.3134947  44.6525526  19.7228909  43.3893013
  45.4952765  19.7610474  41.8332243  43.9403105  21.2237573  42.0603228
  43.0882359  21.8702650  43.0082512  42.7934361  21.3697386  43.9187288
  42.5598001  23.1314111  42.6861668  41.8480825  23.5371351  43.3899069
  42.6435375  23.6646318  41.3931513  41.9335365  24.7305942  41.0536432
  41.2541342  24.8430634  41.7224932  43.5206556  23.0387640  40.4897022
  43.5414314  23.5382366  39.5323634  44.1228771  21.8076515  40.7874393
  44.7151327  21.2877131  40.0489950  43.3017206  18.8249362  40.3323507
  42.2963905  19.2372024  39.9295282  44.2243004  18.4622717  39.4607663
  45.1075363  18.2406175  39.8976445  44.1487885  18.7013793  38.0012941
  43.6174870  19.6345019  37.8139448  45.5812740  18.7932205  37.5212693
  46.1877871  17.9263222  37.7834320  45.5586004  18.9366496  36.4409852
  46.4602470  20.1219392  38.3056521  47.1480370  20.3996253  37.1944666
  43.4861183  17.5275671  37.2522211  43.1271458  17.6384366  36.0862660
  43.4335375  16.3680792  37.9033971  43.9682817  16.2836480  38.7560534
  42.4988604  15.1770771  37.6999903  42.5503588  14.9769497  36.6297579
  43.0276632  13.9479387  38.4579611  44.1081047  13.8790762  38.3314443
  42.6440334  14.0576732  39.4722962  42.4826431  12.6035404  37.9407048
  42.2330332  12.5358891  36.6792560  42.2956467  11.6262460  38.7093258
  41.0333300  15.6183732  38.0164027  40.1255083  15.2931046  37.2362113
  40.8854961  16.3346446  39.1095591  41.7410660  16.5888369  39.5823073
  39.5068026  16.7689586  39.6628332  38.7642360  16.0110998  39.4131446
  39.4564009  16.9903207  41.1985779  40.3519869  17.5994611  41.3209343
  38.1830144  17.7848446  41.6830063  38.2035565  18.7542820  41.1851501
  37.2303486  17.2881556  41.4990759  38.1569886  17.8962934  42.7669811
  39.4942737  15.6674397  41.9761133  38.4966063  15.2614534  42.1432400
  39.9149776  14.9053073  41.3201714  40.4175949  15.7136786  43.1954241
  39.8770833  16.4228201  43.8223743  40.4795980  14.7489405  43.6989498
  41.3854790  16.1201715  42.9020643  38.9838457  18.0108595  38.8351488
  37.7800202  17.9875624  38.5394907  39.8289537  19.0548646  38.6465740
  40.7918692  19.0612340  38.9512920  39.5177269  20.2711749  37.8287339
  38.4392262  20.4284811  37.8148866  40.1352310  21.5374351  38.5423350
  41.2194300  21.4962578  38.6468673  39.8691249  22.7494836  37.6574063
  40.2896166  22.6546741  36.6562581  38.8044000  22.8426623  37.4434233
  40.3046131  23.6518455  38.0865860  39.5798874  21.6958427  39.9936557
  40.0888395  21.0093141  40.6702232  39.8865986  22.7028775  40.2763319
  38.0607200  21.5337467  40.1926422  37.7585554  20.5392766  39.8642707
  37.8710914  21.7535853  41.2432671  37.4653530  22.1749282  39.5426226
  39.9189234  20.1399398  36.3469243  41.0986853  20.0795197  36.0236931
  39.0039921  19.8923862  35.4341030  38.0250025  19.7775447  35.6543136
  39.2753434  19.6638834  33.9982319  40.0287580  18.8872027  33.8669562
  38.1275558  19.0461600  33.1039858  37.3984194  19.8291135  32.8955507
  38.5548162  18.7455201  32.1473432  37.3470116  17.9294622  33.8600612
  38.0886364  17.2938335  34.3438697  36.6416574  18.2293582  34.6350694
  36.5358496  17.1418333  32.7623796  35.9016371  17.8740382  32.2626305
  37.1709609  16.6659427  32.0152092  35.6158614  16.1150134  33.4162426
  36.1649036  15.3000724  33.8879681  35.0298023  16.6416121  34.1694546
  34.6485305  15.4923272  32.5031328  35.0104952  15.4307187  31.5622401
  34.2627382  14.6516395  32.9087281  33.8567424  16.0869014  32.3039865
  39.7603536  20.9448051  33.3308053  40.4294920  20.7485771  32.3126245
  39.4036841  22.1464777  33.7410522  38.7642980  22.0755911  34.5196795
  39.7806191  23.3979154  33.0825496  40.8102465  23.3098388  32.7358413
  38.8923240  23.7432575  31.8443227  39.0317726  23.0072045  31.0525656
  37.8711677  23.8413858  32.2127199  39.2852664  25.0600982  31.2618828
  40.5477381  25.5784941  31.0146642  40.3622150  26.7981601  30.4031658
  41.1111593  27.5740194  30.3437686  39.0378547  27.0668650  30.2844548
  38.6332440  27.8886175  29.8588729  38.4192038  25.9677148  30.7733798
  37.3774576  25.6829882  30.7832789  39.7508383  24.4453311  34.2074919
  38.6170840  24.7802997  34.6959329  40.8695889  24.9546432  34.6956182
  42.2378540  24.7035027  34.2431498  42.4305773  24.9183416  33.1920528
  42.4762297  23.6413932  34.2997265  43.1265020  25.4825187  35.2030110
  43.5187578  26.4129162  34.7924066  44.0046167  24.9243164  35.5276966
  42.3008347  25.7925987  36.3910103  42.6259232  26.6960764  36.9069052
  42.3148155  24.9818444  37.1194196  40.8593512  25.9278870  35.7651925
  40.1416349  25.6704664  36.5441132  40.4721737  27.2931981  35.3088236
  40.4622793  27.6036406  34.0934944  40.2220440  28.2116389  36.2524676
  40.1650047  27.8796506  37.2046423  39.7830319  29.5433927  35.9340143
  40.4295063  29.8915339  35.1284313  38.3793092  29.5289111  35.4694748
  38.1955886  28.8404489  34.6446300  37.6652646  29.2865467  36.2565589
  38.0379462  30.9738326  34.9990177  37.0290303  30.8574343  34.6032405
  37.9305720  31.6333890  35.8601546  38.9058089  31.7077589  33.5827732
  38.8003111  30.4311395  32.3405600  39.4147444  29.5563793  32.5535846
  37.7825761  30.0608397  32.2172976  39.1397595  30.9236693  31.4293575
  40.1035500  30.4201126  37.1525002  39.7806573  30.0124550  38.2737088
  40.6008530  31.6538167  36.9834018  40.8432102  31.8845868  36.0304546
  40.7142735  32.6932001  38.0157208  39.8700237  32.5938797  38.6979818
  42.0254517  32.4538207  38.8662291  41.9081545  32.9625630  39.8230577
  42.2044325  31.3894248  39.0183187  43.1971979  33.0486631  38.0772996
  43.7122202  32.5306487  37.0840931  43.6306381  34.1298699  38.4412336
  40.6552744  34.0975499  37.4794793  41.0080957  34.2783332  36.3120270
  40.3526068  35.1780009  38.3109236  40.2042866  35.0420952  39.3006849
  40.1977301  36.6151690  37.9141736  39.3047166  36.6966915  37.2945118
  39.9495125  37.4705291  39.1880941  40.7425737  37.4842548  39.9357367
  39.8222017  38.4604168  38.7499022  38.6355639  37.1859789  39.9333501
  37.7700758  37.3147249  39.2833853  38.7792444  36.1547160  40.2557659
  38.3500338  38.1498599  41.4413404  38.3810735  39.8013449  40.7741404
  38.3887720  40.4030991  41.6829491  39.2013049  40.0324392  40.0944948
  37.4685836  40.1058865  40.2615738  41.3647938  37.0669007  37.0833588
  41.0353184  37.7244234  36.0878968  42.6218843  36.7102170  37.3449445
  42.7170515  36.0373092  38.0921006  43.7212992  37.0249248  36.4635444
  43.8633442  38.0974150  36.3305449  45.0223541  36.6728091  37.1566868
  45.8591795  37.2455406  36.7569232  44.9851704  36.9065094  38.2206917
  45.3599215  35.3256726  36.9781256  44.7473431  34.8448586  37.5395250
  43.7083292  36.3535285  34.9928904  43.9707470  37.0738459  34.0353036
  43.3078861  35.0701547  34.8668337  43.0105877  34.6248603  35.7232380
  42.8877783  34.3605256  33.6203647  43.7034750  34.3541551  32.8973842
  42.4608421  32.9014373  33.7948132  41.5288687  32.8956389  34.3600488
  42.2815228  32.0366240  32.5200868  41.5465546  32.4145555  31.8093872
  43.1973791  32.2060204  31.9538522  42.0973539  30.9890890  32.7585244
  43.4228897  32.1335316  34.4745493  43.6516762  32.4991274  35.3322196
  41.7838764  35.1466393  32.9131174  41.8102837  35.3833079  31.7188740
  40.7737350  35.4972196  33.6757731  40.6925344  35.1737165  34.6291113
  39.6171665  36.1176324  33.0934286  39.2173457  35.5108333  32.2810006
  38.4172416  36.1607885  34.1223955  38.7812972  36.8134737  34.9158478
  37.2131109  36.9203305  33.4969330  36.5740132  36.2210989  32.9577351
  36.6090226  37.3451114  34.2986441  37.3529863  37.7709222  32.8298283
  37.9512167  34.7918916  34.7063351  37.8395271  34.1207623  33.8547421
  38.7085772  34.4149685  35.3936720  36.7280126  34.8221540  35.6498098
  35.8571243  35.1777434  35.0991654  36.3920593  33.8186979  35.9111810
  36.8835044  35.4473996  36.5290093  39.8949003  37.5533032  32.6398969
  39.4938660  37.9502249  31.5027118  40.5978012  38.3681488  33.4493375
  40.7965565  38.0079603  34.3717575  41.1495399  39.6549463  32.9978037
  40.3027439  40.2561045  32.6666760  41.7927694  40.3034496  34.2023897
  41.2519741  40.0862741  35.1235151  42.8031349  39.9193120  34.3427944
  41.7978668  41.8236113  34.0057039  41.8681431  41.9919586  32.9310775
  40.8066130  42.1970749  34.2626953  42.9157448  42.6419973  34.6413183
  42.8783512  42.4793482  35.7184672  43.9023018  42.3991823  34.2465448
  42.7873278  44.1537428  34.5129585  42.7183533  44.4612455  33.4695077
  41.8455935  44.4380760  34.9824214  43.8427734  44.8919392  35.1770043
  43.6520481  45.8759928  35.0530744  44.0129137  44.6050262  36.1303329
  44.6804667  44.6955061  34.6480560  42.0482254  39.5565295  31.6974163
  41.8825150  40.4819536  30.8888197  42.8142405  38.4755135  31.6276145
  42.9611063  38.0578828  32.5354218  43.5746241  38.1363058  30.3437829
  44.0763330  39.0522170  30.0315428  44.6338558  37.1116161  30.5184221
  44.0601540  36.1890984  30.6074476  45.3206348  37.0230651  29.6766424
  45.3150654  37.3567486  31.7014194  44.7444630  37.2697639  32.4685287
  42.6289129  37.7188492  29.1854239  42.8932190  38.1025720  28.0493402
  41.6132212  36.9216013  29.4125199  41.4189100  36.5179968  30.3177524
  40.6314230  36.5839291  28.3781433  41.2846279  36.2481785  27.5727272
  39.7454143  35.4450607  28.9145207  39.2905140  35.7737041  29.8489523
  39.0164423  35.4721379  28.1046009  40.2741051  33.9891124  28.9819932
  40.7993126  33.7579370  28.0552697  41.0622406  33.9806414  29.7349024
  39.3907976  32.7967596  29.3315053  39.8765707  31.8214965  29.3628740
  39.0042090  32.9599333  30.3374982  38.2219434  32.6679587  28.3324313
  37.5173807  33.4956408  28.4138870  38.6973763  32.5750828  27.3559880
  37.4061155  31.4538097  28.4811616  36.8649268  31.4762616  29.3336391
  36.7059278  31.5205359  27.7563262  37.8717470  30.5609822  28.4027624
  39.7923088  37.7654386  27.9479003  39.4812989  37.7401185  26.7408395
  39.4963717  38.7313986  28.7752366  39.7065020  38.4791827  29.7303963
  39.0090990  40.1064968  28.4524345  38.0904794  40.0706291  27.8668094
  38.5948920  40.7829428  29.7861457  39.3714809  40.6489325  30.5391741
  38.5291982  41.8554306  29.6029615  37.1284294  40.3372765  30.4139590
  36.9706774  39.2695761  30.2615499  36.9957995  40.6988049  31.9023633
  37.5441098  39.9268007  32.4422383  37.5602388  41.5660000  32.2451234
  35.9802079  40.7397318  32.2960615  36.0036278  41.0360527  29.7099924
  35.9653664  40.8473539  28.6371326  35.0502872  40.5958080  30.0022721
  36.0439444  42.0917273  29.9783802  40.0074148  40.8578634  27.5443482
  39.6437526  41.4262056  26.5309453  41.2976933  40.8367252  27.8472662
  41.5773010  40.4897356  28.7536454  42.2747231  41.6059017  27.0599651
  41.8173027  42.5649261  26.8167806  43.5803223  41.7784977  27.7960229
  43.3349037  42.2736168  28.7355566  43.9784193  40.8435011  28.1902266
  44.6670914  42.6682281  27.0937991  45.4435158  42.7924538  27.8486729
  45.0822973  42.1430206  26.2336469  43.9809132  44.0502262  26.7337656
  43.3611584  44.6725368  27.6189256  44.4333887  44.6268702  25.7000756
  42.5641441  40.9333229  25.7040215  42.6039410  41.6297960  24.7219539
  42.5890684  39.5848751  25.6050110  42.3791122  39.0357351  26.4262724
  42.7177906  38.8090682  24.3835139  43.5114384  39.1991949  23.7463140
  42.9476786  37.3031688  24.7596383  43.9991236  37.0909071  24.9532986
  42.3833370  36.9101524  25.6053090  42.5728607  36.7739868  23.8835216
  41.4162731  38.8134670  23.5782003  41.4055681  38.4320784  22.3743057
  40.3275394  39.1729426  24.2378068  40.4273272  39.3898797  25.2191710
  38.9314604  39.4814968  23.6852860  38.3873749  40.0002909  24.4745421
  38.9230466  40.5139494  22.5222969  39.0905237  39.9687576  21.5934157
  37.9201818  40.8672190  22.2823596  40.0503588  41.6097212  22.6075220
  40.0236750  42.1529388  23.5521388  41.0593128  41.2655449  22.3802447
  39.6674490  42.6267815  21.5709805  39.5789289  42.2278357  20.5604839
  38.6963320  43.0954552  21.7303109  40.5936527  43.7514925  21.6152787
  41.4450073  43.5926104  22.1349430  40.4277277  45.0108624  21.1885571
  39.3416262  45.4684114  20.7164621  38.5117555  44.9347448  20.5005574
  39.2101002  46.4651060  20.6194806  41.3605118  45.8613348  21.3673496
  42.1559334  45.6825209  21.9635367  41.1722755  46.7639923  20.9551835
  38.1795025  38.2414579  23.4024453  37.3309445  38.2403040  22.4969625
  38.4940195  37.1410799  24.0788722  39.0891695  37.1903515  24.8934078
  38.0237103  35.7679462  23.8485360  38.3719492  35.3449774  22.9062366
  38.5176420  34.8645616  24.9893403  38.2272720  35.2098370  25.9815979
  38.1545854  33.8501596  24.8241758  40.0872231  34.6946263  24.8965383
  40.5251312  35.6713343  24.6906638  40.5136204  34.2862773  25.8128023
  40.5027342  33.7511110  23.7398696  40.4991817  34.2530107  22.5662851
  40.7942152  32.5324321  24.0013981  36.5071583  35.6751943  23.7468076
  35.9472895  35.1692963  22.7715564  35.8435249  36.2554193  24.7788453
  36.3656163  36.6835165  25.5300188  34.4006753  36.2344980  24.9967098
  34.1103816  35.1853085  25.0518012  34.0384245  37.0171499  26.2490439
  34.4268560  38.0276966  26.1224890  32.9538298  36.9442248  26.3292861
  34.7493625  36.3958359  27.5105691  34.5645809  35.0970411  27.9399157
  33.8601685  34.4621181  27.4231100  35.2318025  34.6089792  29.0616894
  34.9838448  33.6161232  29.4068789  36.1577463  35.4104662  29.7854352
  36.7190886  34.9225950  30.8583665  36.6950107  33.9637804  30.8995366
  36.4989662  36.7064428  29.2904830  37.2104311  37.3085356  29.8361039
  35.7515860  37.2446632  28.1710148  35.9820318  38.2048702  27.7336287
  33.6234283  36.8668795  23.8097310  33.9459991  37.9651785  23.3841276
  32.4790120  36.2532973  23.4045362  32.2685242  35.3905821  23.8856959
  31.5389919  36.6662669  22.3781753  31.9803548  37.3779988  21.6805053
  31.0123897  35.4400349  21.5545034  31.7273808  34.6258354  21.6726804
  30.0337267  35.0316048  21.8065071  31.0264945  35.6438398  20.0351095
  32.0138812  35.6202912  19.5740068  30.4869413  34.7564244  19.7042394
  30.1943994  36.8961048  19.6693742  30.7266927  37.7332473  20.1209927
  30.1444697  37.0032740  18.5858047  28.8235950  36.7405939  20.1881862
  28.5618734  37.1960473  21.0508394  27.7523279  36.2903309  19.5837092
  27.7361321  35.6937933  18.4019113  28.5579324  35.5715251  17.8276324
  26.9178438  35.1876950  18.0947053  26.6545320  36.1700034  20.2325964
  26.7846823  36.2413883  21.2316275  25.9999728  35.5581117  19.7665048
  30.3380299  37.4345136  23.0453348  29.6541238  38.2606745  22.4267077
  30.0979686  37.2219968  24.2979860  30.6685543  36.5293431  24.7614074
  28.9229918  37.7442145  25.0039387  28.7358308  38.7369108  24.5945096
  27.8250289  36.7112327  24.8184085  28.2594800  35.7351637  25.0343752
  27.0609856  37.0280504  25.5283141  27.3083162  36.6160345  23.3745384
  27.5128508  35.5654669  22.7680302  26.6529226  37.5623989  22.8394198
  29.1507268  37.7291703  26.5100884  29.8357940  36.8618822  27.0827007
  28.4988713  38.6357260  27.2401547  27.9021597  39.2990160  26.7667818
  28.5592198  38.6785126  28.6843204  29.5891142  38.8216043  29.0113473
  27.7934313  39.9396253  29.1157246  28.1859589  40.1477146  30.1110697
  27.8834033  40.8178854  28.4764552  26.7577982  39.6233439  29.2403150
  28.0378580  37.4244642  29.3465161  28.3798957  37.1799231  30.5076528
  27.2437263  36.4960647  28.7150455  26.7643142  36.8157434  27.8855395
  26.9156027  35.1771832  29.3029475  26.8067431  35.2855325  30.3820705
  25.5108142  34.6802282  28.8007522  25.3880382  35.0416255  27.7797627
  25.3895378  33.6013842  28.8981438  24.2984176  35.3093314  29.5777822
  24.2688775  36.3946962  29.4818187  23.4044862  34.9514198  29.0670109
  24.2430067  34.8796940  31.0164666  24.9763322  34.0594363  31.5227962
  23.3477497  35.5675578  31.7035151  23.2834315  35.4236770  32.7011466
  22.7501988  36.2849212  31.3182592  27.9743624  34.1030765  29.1382766
  27.8536916  32.9976344  29.7210765  28.9107704  34.4350910  28.2745838
  28.8996553  35.3301215  27.8067183  30.1111412  33.6264968  28.0828309
  29.8244810  32.5750566  28.1028843  30.7096195  33.8121319  26.6607022
  30.0119805  33.8963246  25.8274460  31.3146663  34.7187829  26.6597939
  31.7324758  32.7504706  26.4150119  32.4977732  32.7481508  27.1911693
  31.2132621  31.7928600  26.4537048  32.4663234  32.8469920  25.1298261
  33.5597110  32.3397136  24.9142671  31.8698907  33.3271384  24.1440630
  31.1465907  33.9654922  29.1277838  31.5721107  33.0495167  29.8436809
  31.3740659  35.2843165  29.3047237  30.9129739  35.9921861  28.7511706
  32.0900416  35.7439899  30.4423904  33.1328583  35.4286981  30.4073119
  32.1411133  37.2672749  30.4566312  32.9232478  37.4932384  29.7318506
  31.1481762  37.6628804  30.2429199  32.4681759  37.9127097  31.7605972
  31.4708066  38.4205675  32.5486946  30.4549551  38.3132243  32.1980858
  31.7128110  39.2129111  33.6994696  30.9274268  39.6863842  34.2699075
  33.0400872  39.3835735  34.1175127  33.3932614  39.9166489  34.9878621
  34.0389633  38.8220549  33.3346367  35.0794625  38.8683462  33.6203241
  33.7933326  38.0577946  32.1904445  34.5533752  37.6312304  31.5526533
  31.5823603  35.1868486  31.8174338  32.2251821  34.8395801  32.8156066
  30.2282023  35.3262329  31.9493389  29.6678638  35.6620979  31.1790705
  29.4707870  34.8918748  33.1198716  29.9162197  35.4465914  33.9456940
  28.4110618  35.1091075  32.9861045  29.6630335  33.4258342  33.5191727
  29.5882344  32.9660392  34.6338749  29.7490573  32.6018929  32.5146389
  29.7206473  32.9443312  31.5648866  30.1781178  31.2245178  32.6432157
  29.5368505  30.8022165  33.4168673  30.0650191  30.4310322  31.3869739
  30.5717087  29.4784164  31.5415549  29.0288258  30.1605272  31.1839175
  30.3158283  31.0420656  30.5198932  31.5860963  31.0456109  33.3487153
  31.6131639  30.1409721  34.1978025  32.6508236  31.7564464  32.9454231
  32.5106335  32.4157119  32.1932149  33.9502406  31.7051864  33.5033441
  34.1813588  30.6399798  33.4991693  35.0225663  32.4457932  32.7449584
  34.7401834  33.4774351  32.5350189  35.8866620  32.4747205  33.4087348
  35.4129148  31.7296743  31.4412403  34.8721647  30.6619644  31.1045766
  36.3214326  32.3111320  30.7518172  33.8114071  32.0237136  35.0768876
  34.4866443  31.4395380  35.9272814  32.9429460  32.9827929  35.4492044
  32.4087262  33.4484124  34.7295475  32.9048443  33.4438038  36.8927765
  33.9679408  33.4424663  37.1334505  32.2031927  34.8310661  37.0573592
  31.1475277  34.5598316  37.0467854  32.5429726  35.3464413  38.4675241
  31.8317294  36.1423469  38.6883759  32.4267244  34.5097065  39.1563344
  33.5656905  35.7155991  38.5441327  32.5601244  35.9913945  36.0608506
  33.6389995  36.0070062  35.9063053  32.0301056  35.7294631  35.1451111
  32.2322321  36.9598556  36.4385700  32.2997856  32.3790359  37.6916409
  32.7483630  32.2063088  38.7779522  31.2392712  31.7396712  37.1885347
  31.0802984  31.9410038  36.2116551  30.5508685  30.5688643  37.8190708
  30.3221512  30.7519174  38.8689685  29.1532254  30.3442144  37.2293711
  29.3182874  29.9647713  36.2209654  28.6820769  29.5511293  37.8100061
  28.2328629  31.5416646  37.3122621  28.1153798  31.8646765  38.3466530
  28.6556983  32.4087787  36.8048906  26.8887353  31.2026072  36.7104840
  27.0223641  30.7658052  35.7208133  26.2886500  30.5969858  37.3896170
  26.0558987  32.4086928  36.6166139  26.0983324  32.9054475  35.7382441
  25.5199289  33.1522202  37.5546169  25.5582857  32.8357649  38.8431501
  25.7151532  31.8842030  39.1431856  24.9394321  33.3539867  39.4502497
  25.0940537  34.3579555  37.2778773  25.1393938  34.7410440  36.3444495
  24.7767663  34.9254155  38.0508065  31.4008403  29.3485856  37.7327561
  31.4116859  28.5319424  38.6505103  32.2227216  29.2199111  36.6874242
  32.0184302  29.8118353  35.8949661  33.2344079  28.1249452  36.5971804
  32.8210950  27.1304822  36.7654562  33.9762378  28.0262327  35.2358198
  33.2083511  28.0302835  34.4622326  34.6605730  28.8684773  35.1337862
  34.9846077  26.8726587  35.0750208  35.7139683  26.9151616  35.8839250
  34.3586540  25.5160618  35.3242350  35.0861669  24.8599362  34.8464036
  34.1188550  25.2921057  36.3636780  33.4960485  25.3922129  34.6695042
  35.5834579  27.0317912  33.6241841  34.8808837  26.8235564  32.8172612
  36.0118103  28.0259967  33.4970284  36.4264250  26.3577509  33.4719539
  34.2383695  28.2821822  37.7274609  34.5722222  27.3558831  38.4346008
  34.7199988  29.4790816  37.9391265  34.4184494  30.1877999  37.2857594
  35.7404256  29.7897816  38.9592171  36.5657592  29.0965033  38.7970710
  36.1720037  31.2423348  38.8468480  36.6743779  31.3301134  37.8835106
  35.2865863  31.8778777  38.8617635  37.1689630  31.7786741  39.8608041
  36.8588996  31.5414166  40.8784819  38.1249571  31.3240910  39.6009493
  37.3500633  33.5743785  39.6029139  36.1135674  34.1909146  40.8658457
  36.4493418  33.9044881  41.8624973  35.8884192  35.2571726  40.8434534
  35.1476097  33.6877370  40.8229542  35.2703285  29.4431949  40.3934383
  36.0265446  28.8103151  41.0928059  34.1237450  29.9317670  40.8110332
  33.6933589  30.6930900  40.3058004  33.4784746  29.4447255  42.0621252
  34.1370535  29.5814276  42.9198456  32.1925044  30.3610206  42.3258018
  31.4335847  30.1044893  41.5866566  31.7703485  30.0546455  43.2828903
  32.4332190  31.8511009  42.3356915  33.5309577  32.4951863  42.9620695
  34.3850446  31.9113445  43.2720137  33.5501385  33.8613796  43.0995798
  34.3931937  34.2822075  43.6273718  32.5546265  34.6306753  42.5425529
  32.5949049  35.7039118  42.6563168  31.5360022  33.9987969  41.7624283
  30.8230162  34.6231771  41.2445450  31.4317703  32.6020360  41.7108488
  30.6553340  32.1483326  41.1127663  33.1606150  27.9672575  42.0421410
  33.4541321  27.2900677  42.9777384  32.6707649  27.4076200  40.9221506
  32.2847795  28.0024219  40.2028942  32.3780036  25.8852768  40.8524799
  31.6951728  25.6818724  41.6773891  31.6325498  25.5997038  39.5964432
  32.2465396  25.9804034  38.7802410  31.4885879  24.5384574  39.3936467
  30.3838873  26.1927795  39.5662284  30.4916286  27.1189094  39.3375969
  33.5961342  25.0088716  41.0197020  33.4645343  24.0425563  41.7637014
  34.6810484  25.2461004  40.3175020  34.8123240  26.1062026  39.8045802
  35.9390759  24.5108128  40.5157661  35.8717775  23.4372878  40.3393650
  37.0878983  25.0636172  39.6206379  37.1072078  26.1448455  39.7572947
  38.0701590  24.6762037  39.8911619  36.8603182  24.7700882  38.1815696
  36.4041948  23.7410903  37.6986980  37.4271631  25.6231308  37.3895884
  37.4548435  25.4342008  36.3978028  37.9648232  26.4026833  37.7407575
  36.3969326  24.5536923  41.9723177  36.9556570  23.6178923  42.4400330
  36.1218524  25.6993723  42.6877499  35.6748724  26.4754438  42.2208214
  36.3129878  25.7858849  44.1328955  37.3410511  25.4377627  44.2328882
  36.3302994  27.2815061  44.4775295  37.1326017  27.7908731  43.9437103
  35.3526258  27.7192903  44.2760372  36.7433405  27.5895810  46.2006903
  38.0231547  27.2603321  46.0042953  35.4537511  24.8434234  44.9752951
  35.9803677  24.0460420  45.7810211  34.1492343  24.9040413  44.7537661
  33.7818193  25.7162881  44.2790461  33.1761718  24.0091014  45.4340219
  33.3275390  24.0730143  46.5115690  31.7544580  24.3923020  45.1423120
  31.6068411  24.1135001  44.0989637  31.0927343  23.7757230  45.7506418
  31.3284183  25.8167648  45.2888060  31.8969440  26.5651250  46.3220644
  32.5675964  26.0936522  47.0251560  31.5260673  27.8855515  46.4390850
  31.8756247  28.5106063  47.2474909  30.6584787  28.4621930  45.5179453
  30.2490592  29.7747803  45.6289053  29.8783851  30.1620173  44.8325109
  30.0950789  27.6784825  44.4462729  29.4816446  28.1405854  43.6869574
  30.4721189  26.3484383  44.3694735  30.2089620  25.7221460  43.5298872
  33.3838892  22.5107837  45.1639366  33.1340861  21.7342210  46.1097431
  33.8073349  22.1350670  43.9377832  33.9910460  22.9160333  43.3242321
  34.1883063  20.8050656  43.5029840  33.2808733  20.2027154  43.5458803
  34.5495677  20.7685137  41.9488287  33.7729645  21.2957644  41.3947582
  35.5108237  21.2201810  41.7037010  34.6416879  19.3515527  41.4370728
  35.3653932  18.8478339  42.0778656  33.6659098  18.8823104  41.5626383
  35.0543141  19.3110037  39.9522042  34.3249249  19.8823261  39.3780255
  36.0258579  19.7457862  39.7173262  34.9651265  17.8403449  39.5229483
  35.6838846  17.2156048  40.0532198  33.9848924  17.3875678  39.6720576
  35.1714921  17.7294159  38.0424237  34.4836593  18.2415378  37.5088334
  36.0991669  18.0639815  37.8242803  35.0789595  16.7923844  37.6770282
  35.3201246  20.1857877  44.3494320  35.2019382  19.0263057  44.7757578
  36.3942575  20.9469175  44.5460510  36.4073849  21.8697095  44.1356993
  37.6505208  20.4547071  45.2766943  37.8574944  19.4151402  45.0226068
  38.8614273  21.2036109  44.7120857  38.7990069  21.1778545  43.6241817
  38.8855457  22.2602057  44.9787855  40.2998924  20.6673813  45.1019478
  40.6766415  19.4549668  44.4663429  40.0725460  19.0774262  43.6545992
  41.8633509  18.7731576  44.8514175  42.1963406  17.8651977  44.3706608
  42.6076794  19.2367041  45.8515167  43.7102413  18.5210669  46.2949610
  43.9050436  17.7949297  45.6979847  42.3099661  20.4634929  46.4226055
  42.8854942  20.9312701  47.2076845  41.1654282  21.1875367  45.9891462
  40.9318590  22.0846677  46.5432167  37.6228952  20.6689835  46.8199205
  37.8822660  19.7633505  47.6341343  37.2071075  21.8744469  47.2946358
  36.9995260  22.6428509  46.6728926  37.0338154  22.0866060  48.7850142
  37.9964781  21.7493439  49.1692448  36.9831300  23.5950422  49.0263796
  36.2046242  24.0896893  48.4455585  36.6125727  23.6673832  50.0489092
  38.3160567  24.2655993  48.8567066  38.9913130  24.0766859  47.8473330
  38.7477732  25.2020884  49.6825361  39.5490623  25.7796860  49.4717836
  38.1659341  25.4857254  50.4578495  35.7549882  21.3431454  49.2838335
  34.7286105  21.3156629  48.6461735  35.7701182  20.8507895  50.5126047
  37.0346308  20.6342888  51.1986256  37.4238420  21.5963483  51.5318823
  37.6807332  19.9967349  50.5951452  36.6271710  19.9655545  52.4699640
  36.6845155  20.6734943  53.2967854  37.1512842  19.0237141  52.6322699
  35.1954651  19.4650722  52.2856998  34.6884084  19.4050455  53.2487106
  35.3102541  18.4683907  51.8596029  34.5848703  20.3744054  51.2455082
  33.8900208  19.8402715  50.5974483  33.8786960  21.6270924  51.8764877
  34.5758367  22.5246596  52.2501659  32.5414014  21.6355276  52.1721840
  31.5979218  20.5521941  52.1775246  32.1438980  19.7405100  52.6583290
  31.3761377  20.3507590  51.1295033  30.3774738  21.0468245  52.9657507
  30.5589414  20.9965563  54.0393639  29.5152402  20.4578757  52.6530266
  30.3453183  22.5033164  52.5133276  29.7923851  23.1180000  53.2236338
  29.8448277  22.4627495  51.5458775  31.7556119  22.8951716  52.3053551
  31.8148065  23.3898234  51.3358641  32.1873355  23.7649417  53.4988880
  31.8521285  24.9422026  53.4399128  32.7147985  23.1504059  54.5741510
  32.9477572  22.1676660  54.5670462  33.1848311  23.8526535  55.8229876
  32.4761653  24.6219850  56.1296177  33.3137298  22.9533625  57.1108580
  34.0927100  22.2271872  56.8785572  33.6152339  23.6286831  57.9115677
  31.9672179  22.1701026  57.3152637  30.9579396  22.8557372  57.5803185
  31.9656873  20.9067488  57.2823858  34.5545220  24.5011616  55.6340933
  34.8845816  25.3755236  56.4728260  35.3734088  24.1057372  54.6883392
  35.0214338  23.3025646  54.1872120  36.6711760  24.6757436  54.4222593
  37.3332167  24.4744229  55.2644444  37.3365712  24.0521359  53.1641483
  37.2986174  22.9655290  53.2412720  36.7583084  24.4379115  52.3245716
  38.8073659  24.6211743  52.9569721  39.0620446  25.9525919  52.6664734
  40.3670406  26.0214138  52.4684095  40.9866524  26.8841624  52.2731113
  40.9113312  24.7451925  52.5701761  41.9149351  24.6318984  52.5641251
  39.9443674  23.8335133  52.8234434  40.0732470  22.7684379  52.9475737
  36.5711999  26.2194490  54.3019724  35.5399275  26.7880082  53.8658810
  37.5074029  27.1124530  54.6778345  38.3354592  26.6946650  55.0776768
  37.3337555  28.5720873  54.6550512  36.4823031  28.7744331  55.3048086
  38.6691642  29.2604280  55.1699495  39.4425297  29.2145133  54.4032049
  38.5726881  30.3224134  55.3957319  39.3285966  28.7053251  56.4081192
  39.8643374  27.7608037  56.3134384  40.1802301  29.3642354  56.5774155
  38.4708619  28.7031388  57.7020264  38.1312966  27.6086211  58.1382942
  38.1248474  29.8274040  58.1957722  36.9095349  29.2300606  53.3372974
  36.0037637  30.0585270  53.3072805  37.5842500  28.7705374  52.2753716
  38.2511997  28.0267930  52.4241304  37.5468373  29.4296527  51.0022593
  37.6433420  30.4957628  51.2076712  38.6120844  28.9198375  50.0585318
  38.5728788  27.8337526  49.9749184  38.6077929  29.5856380  48.6960602
  37.7794909  29.1426802  48.1430531  38.6232138  30.6741047  48.7517738
  39.5433068  29.3913293  48.1715059  39.9643779  29.4040155  50.6194592
  40.2157688  29.0186095  51.6075706  40.8321714  28.9663839  50.1259899
  39.9464798  30.4936218  50.5962181  36.1670399  29.1964889  50.3052282
  35.7776117  30.0810623  49.5719719  35.4754615  28.0733848  50.5612850
  35.7812381  27.5385404  51.3616276  34.0156126  28.0588484  50.2060938
  33.9967203  28.1245828  49.1182423  33.3613038  26.7138290  50.6993532
  33.3579469  26.6836810  51.7889309  31.9687033  26.6723228  50.1450729
  32.0772147  26.6687560  49.0604925  31.5135908  25.7020092  50.3437328
  31.2985158  27.5068736  50.3511763  34.3072009  25.5488586  50.2309036
  34.6491337  25.6663895  49.2026186  35.2062201  25.5305099  50.8469677
  33.6849499  24.6603417  50.3378677  33.1321692  29.3195605  50.6119156
  32.3664165  29.8629475  49.7750998  33.3068919  29.8525524  51.8745565
  33.9621425  29.4264126  52.5142050  32.5364113  31.0453129  52.2690916
  31.5025067  30.8642244  51.9752359  32.6650739  31.3519168  53.7424326
  32.2940183  30.4841161  54.2877197  33.6779952  31.6030025  54.0571404
  31.9671488  32.1567512  53.9731836  33.0210662  32.2441363  51.4441299
  32.2262478  33.0401111  50.9173679  34.3973470  32.3466015  51.4062071
  34.9319363  31.5864205  51.8017340  35.0046206  33.4307957  50.7005835
  34.8756623  34.3741894  51.2311268  36.5240407  33.3298564  50.7221889
  36.7613506  32.3119998  50.4127550  36.9079113  34.1117287  50.0668812
  37.2010303  33.5376883  52.0200396  36.7600942  34.4278669  52.4686575
  36.9388700  32.7159786  52.6864958  39.0237117  33.5521793  51.8972540
  39.4254732  32.9252720  53.4589243  38.8860822  33.6295867  54.0922499
  39.1587925  31.8796206  53.6125565  40.4833555  33.0046940  53.7092733
  34.4621849  33.5708690  49.2268372  34.0668201  34.6720624  48.8061619
  34.2933154  32.4256229  48.5403347  34.6674919  31.6134953  49.0099525
  33.8584495  32.3448157  47.2037697  34.4618988  33.0085349  46.5845537
  34.0791416  30.9040809  46.7194366  33.9808869  30.2170110  47.5599003
  33.4666085  30.5775547  45.8790302  35.1053715  30.7100916  46.4074707
  32.3942780  32.7895927  47.1440268  32.1851659  33.6578393  46.3300467
  31.6123509  32.4479675  48.1520891  31.9635773  31.8087435  48.8507557
  30.1962256  32.7328253  48.2575607  29.6484041  32.4336743  47.3639679
  29.6887922  31.8519688  49.3945932  30.4626679  31.6679335  50.1398134
  28.8668394  32.2546864  49.9864626  29.2858315  30.4658198  48.7634182
  28.5447288  30.4076743  47.9662418  30.1580763  29.9176979  48.4072399
  28.8371778  29.5122075  49.8939466  29.5167398  29.4881439  50.7458401
  27.8766465  29.9444127  50.1744461  28.5041523  28.1657481  49.4783640
  28.2553792  27.9579258  48.5217953  28.3416152  27.0767021  50.2163649
  28.1477523  27.2663212  51.4355469  28.0633926  28.2134700  51.7759752
  28.1681561  26.4978290  52.0906067  28.3441615  25.8692956  49.7492743
  28.3729959  25.8042836  48.7417793  28.1483865  25.0585055  50.3188324
  30.0183487  34.2237329  48.5395098  29.0588737  34.7846174  48.0042171
  30.9554434  34.9659157  49.2102385  31.7827892  34.5409656  49.6039629
  30.8150768  36.3797569  49.4085789  29.8171735  36.6883993  49.7200727
  31.7665410  36.8732333  50.4637194  32.7726340  36.6414118  50.1142406
  31.7260408  37.9484797  50.2896309  31.3806891  36.4797831  51.9046783
  30.4664397  37.0215869  52.1469498  31.2879872  35.4008269  52.0285845
  32.5590754  36.8772388  52.7894640  33.4701753  36.6530418  52.2347260
  32.5043225  37.9602265  52.9000998  32.4126744  36.1744070  54.0887690
  31.3429928  36.1541414  54.2972660  32.7533937  35.1455879  53.9723969
  33.1133437  36.8797684  55.1731873  32.7402973  36.5197062  56.0399580
  34.1150498  36.7852950  55.0850821  32.9889417  37.8818679  55.1526451
  31.0058141  37.1161127  48.0726767  30.1624823  37.9134846  47.6863623
  32.1883273  36.8480730  47.4695969  32.8641629  36.3165212  47.9995012
  32.5677109  37.3034215  46.1231804  32.6189256  38.3818007  46.2734556
  33.9723229  36.8283105  45.7161760  34.5684075  36.8927860  46.6264677
  33.9018750  35.7813001  45.4213810  34.6044540  37.6102781  44.5862722
  33.9832830  37.4250770  43.7099457  34.6289349  39.1331601  44.8232555
  35.3009605  39.6629834  44.1481447  33.6227083  39.5521665  44.8165846
  35.1582861  39.2061758  45.7732821  35.8950067  37.0631814  44.2075729
  36.2160492  37.4307585  43.2329321  36.6389942  37.3444223  44.9528837
  35.8537650  35.9741759  44.1859913  31.4959598  37.0269608  45.0734091
  31.1585760  37.8881288  44.3129349  30.8870101  35.8459878  45.1672173
  31.2816477  35.1507187  45.7844400  29.7937918  35.3908443  44.2988729
  30.2346921  35.5786777  43.3198786  29.5553231  33.8937140  44.5025539
  30.4470181  33.3252549  44.2382860  29.3974304  33.7288117  45.5683804
  28.4105062  33.2252026  43.6500311  27.5848246  33.8921905  43.8979721
  28.7668824  33.3382154  42.6261568  28.3175111  31.7868090  43.9723587
  29.1092539  31.0203886  43.4505987  27.4042392  31.3283467  44.8385048
  27.4928117  30.3897524  45.2008533  26.8913698  32.0625591  45.3054047
  28.4933782  36.1851692  44.4772816  27.8348041  36.6155267  43.5022020
  28.1972528  36.4836907  45.7009315  28.8395524  36.2144852  46.4324188
  26.9993639  37.2948265  46.1176634  26.1686325  36.8844104  45.5436039
  26.7701960  37.2445750  47.6551151  26.8883324  36.1694527  47.7902269
  27.4644995  37.8123617  48.2745171  25.3836393  37.6782990  48.1566286
  25.2549410  38.4548998  49.1200876  24.3734431  37.3867369  47.4894047
  27.1201301  38.7740588  45.6082964  26.1355805  39.3254924  45.1900530
  28.3188510  39.2903399  45.6128025  29.0704441  38.7622023  46.0326529
  28.6485028  40.4930019  44.8353672  27.8892016  41.2140131  45.1381922
  30.0533700  41.0720110  45.1563072  30.8249855  40.4738379  44.6716404
  30.0663638  42.5036144  44.5847797  30.2333927  42.5686884  43.5096216
  29.1168237  43.0120897  44.7519255  30.8907509  43.0171585  45.0795078
  30.3957367  41.1871958  46.6378212  29.7956467  41.8954897  47.2090626
  30.4480815  40.1991129  47.0950413  31.3983512  41.6136694  46.6692114
  28.5221767  40.4109097  43.3096027  27.8397822  41.2188768  42.7507544
  29.0773845  39.4045687  42.6446152  29.7490358  38.9154124  43.2188177
  28.9763689  39.2012668  41.2068510  29.3722224  40.0523281  40.6526899
  29.8350072  37.9364204  40.8769894  30.8843541  38.2182980  40.7902861
  29.8090506  37.1426606  41.6235638  29.4966388  37.2291064  39.6048570
  29.8041797  37.8892970  38.3862472  30.2800751  38.8485599  38.5267282
  29.4381309  37.4096560  37.1064448  29.7906542  37.8756166  36.1981416
  28.7310648  36.1386943  37.0455074  28.4254408  35.7283998  36.0943747
  28.5221052  35.4897380  38.2833242  27.9656816  34.5711803  38.1690979
  28.9104843  35.9617591  39.5493984  28.5849166  35.5210638  40.4800940
  27.4955869  39.1429138  40.7545805  26.9582558  39.7504711  39.7833538
  26.8279624  38.2366180  41.4480686  27.3155642  37.6093531  42.0716763
  25.4177451  37.8911400  41.1382294  25.4128599  37.5202441  40.1132822
  25.1381874  36.7291903  42.0452166  25.8995843  35.9512615  42.1018076
  25.0505948  37.0811486  43.0731058  23.8024569  35.9960413  41.8094778
  23.5746002  35.5174851  42.7619314  22.9498982  36.6320109  41.5711689
  23.9342880  35.0080156  40.6607151  24.2852283  33.8637924  40.8938885
  23.7103987  35.4261255  39.4872499  24.4552708  39.1438723  41.2276220
  23.8046527  39.4649720  40.2648258  24.5473409  39.9445868  42.2584105
  24.9951315  39.5889354  43.0909348  23.8697624  41.3122511  42.3634863
  22.7936745  41.1900806  42.2401619  24.1184902  41.7799520  43.7690783
  23.7026906  41.0449409  44.4582605  25.2010441  41.7369556  43.8887691
  23.6701465  43.1268930  44.2875242  22.6293993  43.3657408  44.0686798
  23.6934876  43.1374598  45.3772259  24.4799614  44.6817923  43.6856794
  26.1282754  44.6076155  44.3796539  26.6570115  45.5507517  44.2416668
  26.0361290  44.4490528  45.4541159  26.7125559  43.8141584  43.9136648
  24.3572283  42.3239613  41.3126040  23.5087752  43.0138016  40.7298470
  25.6361270  42.4203253  40.9115458  26.1865497  41.8688250  41.5541840
  26.3358712  43.2385445  39.9147725  25.9236526  44.2343760  40.0775528
  27.8775406  43.2236528  40.1781607  28.0152917  43.3371258  41.2534523
  28.2915211  42.2825909  39.8160458  28.6952329  44.2508602  39.4181180
  29.7566843  44.1300726  39.6345210  28.6237764  43.8927937  38.3910942
  28.3355498  45.7987165  39.3883419  27.2828984  45.7520771  39.1093302
  28.4919667  46.2410784  40.3721905  29.0636611  46.5004539  38.2827926
  29.8875999  47.0557690  38.4640336  28.6043072  46.5952396  37.0183849
  27.5024414  45.9601498  36.6155648  26.9565105  45.3989983  37.2536612
  27.1181321  46.1609602  35.7033801  29.1993403  47.2256327  36.0922551
  30.1049662  47.6509905  36.2301373  28.6896396  47.4320650  35.2450871
  25.9608746  42.8981829  38.4830999  25.7019615  43.8939810  37.7307177
  25.7195640  41.5985250  38.2324433  26.0046744  40.9272766  38.9311814
  25.1999617  41.1034060  36.8984222  25.7869625  41.6035414  36.1281013
  25.5093336  39.5910001  36.7443609  26.5160751  39.3374610  37.0764756
  24.8306489  38.9501548  37.3072147  25.5571723  39.0710545  35.2389598
  26.8180585  39.1526437  34.6903348  27.7162862  39.3961477  35.2383232
  26.9407916  38.7662506  33.3132410  27.9398012  38.7898850  32.9035783
  25.8509898  38.2691741  32.5546694  25.9399867  37.9507041  31.5265346
  24.5464039  38.3339596  33.1130838  23.6433363  38.0399632  32.5988555
  24.4257855  38.7208605  34.4608235  23.4257174  38.7665701  34.8660088
  23.7515092  41.4674187  36.7084670  23.2136822  41.6199684  35.5813432
  22.9843307  41.7156124  37.7884197  23.4101129  41.6247225  38.6997652
  21.5634012  42.0923090  37.7648449  21.2139249  41.6826057  36.8171573
  20.9657788  41.3788509  38.9808559  20.9202909  40.3435135  38.6430597
  21.6073942  41.5476704  39.8456860  19.9215043  41.6445017  39.1452408
  21.3977170  43.5901403  37.7461815  20.2464795  44.0172338  37.6779509
  22.4499559  44.3840694  37.6218414  23.3330870  43.8940382  37.6291728
  22.5185204  45.8475256  37.6152968  21.5318060  46.2819099  37.4546528
  22.9889178  46.3446712  38.9901257  23.9577127  45.8985043  39.2147851
  23.2606649  47.4000311  39.0117502  21.9643545  46.2504196  40.1656437
  21.0678697  46.8187237  39.9177718  21.7062497  45.2121782  40.3743076
  22.5174356  46.8145370  41.4633322  23.5830784  46.5874100  41.4937305
  22.4766278  47.9028463  41.5083027  21.8961430  46.2402868  42.7011919
  21.9871426  45.1569033  42.6231241  22.4357843  46.5662479  43.5903740
  20.5105519  46.6304970  42.7955484  19.9516273  46.0923958  42.1489048
  20.0854850  46.3748407  43.6753559  20.4150009  47.6332426  42.7216911
  23.3807087  46.3336611  36.3753223  24.1998053  47.2684765  36.3986135
  23.3625174  45.5291986  35.2960014  22.6087141  44.8597622  35.2348471
  23.8830805  45.9278488  33.9639473  24.7698474  46.5140486  34.2050266
  24.1239572  44.5880270  33.2028317  23.2272005  43.9684820  33.2125378
  24.2542458  44.7207499  32.1288157  25.3698993  43.8188839  33.5747504
  26.2520814  44.4590807  33.5740519  25.2801228  43.4242296  34.5868206
  25.8571696  42.5444984  32.4116969  24.3041110  41.6143370  32.0767760
  24.4215083  40.7218552  31.4621282  23.8717628  41.3101625  33.0300117
  23.4739041  42.1479273  31.6140199  22.9174876  46.8470097  33.1625915
  21.7737222  47.0076132  33.6351395  23.3227015  47.4459076  32.0288229
  24.6902585  47.4430609  31.5299225  25.1742268  46.4739132  31.4089847
  25.2762151  48.0956984  32.1770930  24.6211123  48.0169392  30.0776768
  24.3876624  47.1437740  29.4684315  25.4956007  48.5658598  29.7283053
  23.3919692  48.8588095  30.2019286  23.0548286  48.9216805  29.1672850
  23.7864161  49.7594166  30.6724787  22.4136019  48.1287622  31.0800242
  21.9593358  48.9866161  31.5758371  21.5262628  47.1543264  30.2651572
  21.7602134  45.9643364  30.3002000  20.4871249  47.6787186  29.6810961
  20.3115439  48.6447048  29.9180245  19.5127177  46.9708872  28.7676740
  19.3243158  45.9822273  29.1861963  18.0825722  47.5861263  28.9031458
  17.3881340  46.8701410  28.4635782  17.9247928  47.6495934  29.9797964
  17.7862120  48.9726257  28.2945800  16.7435193  49.5603132  28.5824823
  18.5610342  49.4098473  27.4047375  20.0837159  46.7062378  27.2801208
  19.7192621  45.7298756  26.6170549  20.8748555  47.5225830  26.7986727
  20.2265477  46.9248867  24.6957660  47.5036895  64.0433058  18.9205571
  48.3088910  64.5543918  18.8388654  47.6645624  63.2577309  18.3978482
  70.9610533  32.1206260  12.6996108  70.4589223  31.3158632  12.8278752
  71.7566942  31.8372751  12.2491666  39.2693066   1.7206693  35.2229043
  40.2148127   1.8697596  35.2275201  38.9075064   2.4909854  34.7847863
  52.0297670  68.2686663  58.6051893  52.2066402  67.3506975  58.8108206
  52.4198103  68.7561083  59.3307877  30.6894516   9.6899820  28.7313195
  31.1736320   9.6564746  29.5563527  30.1830362  10.5005670  28.7835618
  16.8983292  36.4258266  21.4812299  17.0309614  36.4568067  22.4286862
  17.3873733  37.1773839  21.1462232  65.5873298  59.0278745  43.1732198
  65.7779776  58.2636667  43.7171575  65.0630151  58.6827302  42.4505921
  47.3281753  58.2300958  44.9943658  46.3817584  58.1938657  45.1329823
  47.6366269  58.8873133  45.6181928  31.0175884  59.1644176  37.2175956
  31.0349310  58.5542806  36.4802599  30.2577770  58.8949426  37.7336407
   3.8129114  11.2598300   6.7039987   4.3137311  10.9136749   5.9653588
   3.1165718  10.6179500   6.8430491  51.9732498  31.2444330  12.5016709
  51.5485786  32.0930219  12.6272984  52.2481131  31.2475515  11.5847846
  70.2225124  59.7808966  14.7553321  69.9655497  58.8683304  14.6233483
  70.8498632  59.7509989  15.4776689  38.9062749  24.1263938  10.7783767
  38.7338923  23.6933732   9.9423095  39.1158496  25.0298238  10.5414697
   2.4789392  27.8307107  17.0508834   2.6921331  28.6416164  16.5891381
   1.6087973  27.9859623  17.4182864  27.8651025  31.4503848   5.9741326
  28.2162833  32.3057678   6.2215634  28.6054277  30.9941160   5.5741712
  27.8666615  34.9141145  56.5477610  28.3746958  34.7799897  57.3478508
  28.2106948  35.7277513  56.1791563  41.6854858  16.6401935  49.0258408
  41.2807560  16.0979760  48.3487701  41.0454702  17.3320615  49.1929579
  14.0268171  69.4449290  60.5975819  14.6702087  70.1455261  60.7045603
  14.2981041  68.7730505  61.2230539  74.6592808  25.4870868  58.1882095
  75.0046396  24.6908903  58.5919809  74.3392897  26.0092878  58.9238358
  50.2204775  19.5569921  30.2690335  50.8405041  19.3387008  29.5732232
  50.0255035  18.7186265  30.6877919  53.8989341  40.1866608  29.4746419
  52.9444420  40.1540535  29.4104882  54.1794550  39.2823231  29.3342420
  70.9958553  39.2109847  40.3772449  71.5941191  39.9009919  40.0905275
  71.5513182  38.5963798  40.8567810  51.8985593   2.8977522  46.6603108
  51.2308061   3.2586082  46.0771104  52.4027836   2.3012337  46.1069985
   5.3925049  52.3931703  44.4891568   5.7089483  51.7935499  43.8134786
   6.1008655  52.4247643  45.1321717   2.0220196  67.8712567   3.7954732
   2.3556148  67.2315511   4.4245406   2.5962221  68.6301741   3.8982793
  64.9720156  69.5545944   6.4553185  65.2483928  68.6774167   6.7206641
  64.0176284  69.5367750   6.5264674  33.5306061  69.9903544  61.5049696
  33.6006773  70.3294805  62.3973322  33.9188946  70.6732435  60.9580469
  70.6753265  29.5903655  41.5685578  71.6172087  29.5662584  41.3997193
  70.3160822  30.1085445  40.8483716  39.3468248  47.5854238  41.5532418
  38.9873647  48.4121093  41.8751260  38.6522150  46.9454762  41.7088624
  56.1069405  48.0871877   7.2819825  56.3859236  47.6227399   6.4928742
  55.4010832  48.6614522   6.9849702  44.9824858  27.2608733  57.8648472
  45.8521605  27.0878172  58.2253265  44.3807697  26.8380785  58.4775591
  32.9711056  12.6395702  61.8976831  33.6365891  13.1472147  61.4332914
  33.0797505  11.7464983  61.5708065  23.4688175  52.6929816  50.1714611
  23.4371031  53.4606751  49.6006107  23.8835419  53.0085178  50.9743738
  75.4412425  69.0155058  50.8402014  75.1457894  68.2180681  51.2795544
  76.3657868  68.8559370  50.6504965  68.5260021   9.9432445  19.2461606
  67.5735568   9.9917913  19.3281480  68.7043904  10.2320695  18.3511754
  54.6776664  70.4522904  18.4248944  54.3609392  71.3554796  18.4120770
  54.6610224  70.1796016  17.5075074  72.9745806  63.9371481  23.0659676
  72.8563321  64.5197066  22.3157167  72.8283775  63.0594643  22.7130818
  44.6309888  64.6889337  18.0691405  45.5579578  64.7795018  18.2899495
  44.3483448  65.5775293  17.8529473  64.8458635  22.7815386   2.6957818
  64.5871126  21.8869075   2.9169436  64.1262209  23.3251974   3.0163737
  45.1995802  46.9710732  56.8718767  45.3319359  46.1053467  57.2581863
  44.2493820  47.0862532  56.8621016  58.8268744  70.8164057   3.4593221
  59.1873705  71.3029679   4.2006226  57.9866754  71.2390098   3.2812615
  67.4940394   5.6891179  46.9993325  68.2561158   5.2567554  47.3847314
  66.7444753   5.2990652  47.4490472   0.3275955  68.7916263  55.5753422
  -0.5413496  68.6030071  55.2209520   0.2260411  68.6957439  56.5222979
  15.3203070  47.6194859  50.7083988  14.7089922  46.8916464  50.5953646
  15.9690869  47.2927570  51.3317490  11.4016808  70.1182038  60.7497263
  12.3422921  69.9427312  60.7234240  11.1650575  70.2928379  59.8388243
  63.9292061  52.4619993   2.4452659  64.5982491  52.5137051   3.1278630
  64.3860733  52.7133533   1.6425677  32.0583986  10.6925702  23.5801335
  31.3864492  10.5528665  22.9129048  31.6468834  10.4108262  24.3971463
   9.3412601  46.8500134  15.5679007   8.7681066  47.2230622  14.8981543
   9.5445549  47.5854429  16.1458703  46.7915440  17.4472654  40.3704309
  47.0590734  16.5861559  40.0492668  47.6013088  17.8464663  40.6884766
  57.7095639  45.9997615  22.4926301  58.1414401  46.8533906  22.4604817
  57.0401680  46.0953661  23.1701203  43.9850437  19.1565915   1.7832871
  43.0920708  18.8181611   1.8489428  44.3050205  18.8268122   0.9435912
  44.9768149  36.5127498  10.6076404  45.4544556  35.8036027  11.0379907
  44.8182177  36.1907266   9.7202941  50.0302493  61.3509640  15.0873729
  49.9621283  60.4126915  15.2641030  50.7544243  61.6466483  15.6390782
  26.1682474  55.4827746  16.9644423  25.7475674  54.6326336  16.8359109
  27.0170986  55.3980514  16.5302726   2.6592361  25.3166458  51.4248773
   1.9662821  24.7571119  51.0742112   2.3057711  25.6463488  52.2510644
  41.6730022  27.5809431  61.4097548  40.7164383  27.6134753  61.4221144
  41.9246817  28.1957364  60.7206106  21.7386913   7.7795541  49.7749996
  20.8732247   8.1874752  49.8032665  21.6806173   7.1437371  49.0618420
  40.4032755  10.3300440  46.3224554  40.7382011  11.1041760  45.8699322
  40.0009823   9.8039556  45.6313515  39.2705584  51.4632988  51.0694981
  39.6643090  50.6109810  51.2559032  39.8555207  51.8615580  50.4249525
  36.5895366  62.7050170  44.1884919  37.0177614  63.1215509  43.4405919
  37.3093569  62.4538144  44.7672673  67.6455879  54.0533018  42.9662323
  67.2967434  54.7960091  42.4733543  68.1948423  54.4509506  43.6418343
  32.0087194  51.3136673  47.1855116  31.1791515  51.4982653  47.6259327
  32.3963714  52.1756172  47.0338583   0.6940102  22.7139354  28.5229417
   1.5945267  22.5835491  28.2257863   0.7777642  23.2434678  29.3159219
  49.2302739  57.2797474   8.6256047  50.0276553  56.7532143   8.6819669
  49.3121564  57.9152807   9.3366786  60.1323271  14.3617499  47.6149130
  60.6457138  14.7815990  48.3051252  60.1808929  13.4270048  47.8152227
  33.5769199  21.5845514  26.6113206  33.7850593  20.8494878  26.0346051
  32.9958080  22.1397758  26.0914536  22.6534712  70.5451211  35.3784200
  22.9799854  70.1912173  36.2056848  22.0045340  69.9060329  35.0840112
  16.8526578  36.4395547  57.9008675  16.2308073  37.1447730  57.7214193
  17.6472676  36.6960526  57.4328518   5.7476472  11.3717914   1.6813775
   5.5688332  11.7706561   2.5329419   6.2354778  10.5745721   1.8880006
  17.9760324  45.1161447  38.5749169  18.5887873  45.0689408  37.8410645
  17.9734909  46.0398814  38.8257905  64.6856117  46.8321896  53.8249016
  64.9307394  46.2644148  53.0943060  65.3999376  46.7342472  54.4544840
  72.1481847   4.0449334  28.7069531  72.4934434   3.5393334  27.9711553
  71.8749594   4.8762727  28.3190747  61.6383623  22.1876359  20.8434316
  62.3087572  22.8216195  20.5887528  61.5307688  22.3182512  21.7855569
  47.7852631  38.6630559  58.6727619  48.2423544  38.4528756  59.4870853
  47.9488134  37.9099464  58.1050396  34.4317554  24.3202806   4.5789166
  35.3780006  24.4429994   4.5028134  34.3321632  23.6199117   5.2237388
  36.1358427   0.5159068  29.8086759  36.5635275   0.8128310  30.6118890
  36.8535351   0.2094460  29.2543908  18.5289263  36.9350267   9.1348859
  18.2559894  36.6391158   8.2664557  19.4493364  36.6795659   9.1966554
  42.3783588  52.1519232  56.3346243  42.8944492  51.7649651  57.0418358
  41.9915438  52.9369879  56.7222834  45.6783295  22.7029204  50.1615381
  45.2907324  21.8374443  50.2917433  46.3903284  22.7449942  50.7999086
  73.5583746  49.6281430  36.3698407  73.6019098  48.7773653  35.9333630
  72.8845608  50.1094648  35.8896943  18.9761745  53.3776053   5.1534959
  19.7233402  53.5297259   4.5748540  19.0724718  54.0314361   5.8459302
  15.2480900  53.7561067  33.4867593  15.1975262  52.8002795  33.4950562
  16.1805069  53.9475116  33.5877343   5.1212251  26.3043737  53.6562300
   4.6751910  26.7489219  54.3771076   4.4226825  25.8473730  53.1878042
  74.8030662   9.2512966  21.6741677  73.9438294   8.9005971  21.4397450
  75.3267192   8.4790969  21.8880101  67.0945120  68.3565426  59.1003656
  66.8493652  67.5979710  59.6301842  67.8446674  68.7360239  59.5580721
  50.5692017  65.8506545  20.9404393  50.5112326  65.1506480  21.5907212
  51.1781966  65.5161342  20.2820702  41.1495436  56.9650610  51.0454226
  41.5495718  57.8338846  51.0086060  41.8901003  56.3634726  51.1222506
  71.6355621  55.8337006  20.5752393  70.8908617  56.1257991  21.1009141
  71.6087162  56.3862261  19.7940656  65.7540380  51.3418695  37.4713727
  66.5316355  51.1954316  38.0100079  65.2624905  52.0171424  37.9389401
  30.8815050  44.5065975  53.0385113  30.8028769  44.0564823  52.1974134
  31.8247986  44.5824289  53.1823206  46.9833027  23.4925613   3.6342279
  47.3401247  24.2074022   4.1614000  47.5899540  23.4117946   2.8982393
  26.0344148  24.3074298  56.8206120  26.2790370  23.8766646  56.0015678
  25.2575374  23.8336635  57.1176672  34.9429512  64.6853828  51.0891724
  34.4068408  65.2335215  50.5161476  34.9075699  63.8158369  50.6905842
   0.7736360  43.0070945  18.3919450   0.6288397  42.1883717  18.8662454
   1.2572967  42.7473327  17.6078387  50.0140364   4.4361473  30.4720612
  50.5712453   4.8208785  29.7954961  49.1639726   4.3234229  30.0467130
   6.3589823  49.0168604  40.5637475   5.5291807  48.9481207  40.0915833
   6.8763172  48.2759937  40.2479764  67.8638184  60.4849228  24.2938729
  67.3362886  60.1881799  23.5523339  68.4211742  61.1733612  23.9310571
  51.1522138  50.6757447  12.4180337  51.4235579  50.4787787  13.3145877
  51.8299162  50.2797159  11.8702098  16.2958204  60.8970961   2.0034524
  15.5470526  60.5292782   2.4727937  15.9522354  61.1139163   1.1367532
  23.2216608  31.4145651   8.8147326  22.5570452  30.7848969   9.0940877
  23.8140261  31.4855083   9.5632668  44.5138216  47.1542168  45.9108686
  45.3982258  46.8635178  45.6882620  44.4284487  46.9672441  46.8457413
  70.9146845  65.0638112   2.5475903  70.4937326  64.6526727   1.7926093
  71.8335115  64.8040470   2.4804088  48.5420990  32.2784591  53.7045431
  48.3129644  31.3500166  53.6629677  49.4223356  32.2913241  54.0803719
  13.5140418   5.2566648  16.4802047  12.7076839   5.6090665  16.1035987
  13.4126948   5.3824830  17.4236747  29.2851806  52.1473932  48.9893198
  29.6275711  51.4782047  49.5819283  29.4360852  52.9736900  49.4483376
  68.6551415   3.8489294   1.9970437  68.7391852   3.6202693   2.9227229
  67.7115618   3.8536811   1.8362161  75.8007347  37.2022306   2.1122523
  75.6151497  36.6518789   2.8731128  75.3496706  38.0260671   2.2968217
  64.8551166  41.7495617  38.3693524  65.0565326  41.2343677  37.5881692
  64.9751150  41.1388245  39.0965577  67.2455883  30.1453781  41.4705181
  66.4678621  30.6868982  41.6051626  67.5539589  30.3823543  40.5958843
  44.9894094  54.7953987  38.8278890  44.3630791  54.1068411  39.0511203
  44.4766855  55.4341698  38.3326006  71.8225920  48.2972642   8.9891978
  71.4031136  48.3354541   8.1296559  71.7664110  47.3758730   9.2423984
  70.6031036  47.6753235  60.7011223  70.4093742  47.9409170  61.6000986
  71.0807896  46.8509007  60.7926083  65.3624784  50.0239190   9.0681573
  66.1500179  49.6134170   8.7110778  64.9208295  50.3982004   8.3058663
  61.0553681  69.5233735  36.7968675  60.1380288  69.6221026  36.5419599
  61.5270316  69.4432100  35.9678002  51.5666687  50.3487131  15.2895947
  51.5436136  49.6244928  15.9150573  50.6469833  50.5753025  15.1515122
  10.1689004  52.1115137  17.8452893  10.4938816  53.0115819  17.8231784
   9.5187758  52.0743013  17.1437283  67.1309756   3.2926393  12.9740735
  66.8959724   3.7809515  13.7630959  67.8175937   3.8178087  12.5629970
   3.6216043  20.8014369  16.4897176   3.1404566  20.3610301  17.1902677
   3.9044117  21.6296697  16.8773766  73.3994114  43.6116233   6.8772527
  73.9053452  44.1599455   7.4769231  72.9813158  42.9616412   7.4420091
  53.4219002  48.2088018   0.1023885  53.9216303  47.4893976   0.4883548
  52.5240492  47.8799749   0.0579997  58.7815845  61.9394382  24.3402024
  59.6815836  61.6155991  24.3033048  58.8400423  62.8446659  24.0346261
  62.5544035  49.5841500  12.6344367  61.9145596  50.1118227  13.1123420
  62.8641784  50.1590940  11.9346400   5.9033035  -0.0037932  14.2741557
   6.7174767   0.4980779  14.3126126   5.7883548  -0.3421735  15.1621409
  66.0984373  48.7905550  22.7044058  65.2352619  48.4640598  22.4503279
  66.4279604  48.1394911  23.3238912  18.4616970   4.0679145  21.8151971
  19.1314100   3.5435605  21.3761540  17.6729463   3.5267020  21.7806073
  33.9529680  18.1770158  12.5109549  34.3788647  18.5332513  13.2906600
  33.0169701  18.2289911  12.7044412  75.8284008  44.7798833  25.3777238
  75.5738413  45.5209323  25.9275266  75.0107777  44.3087711  25.2171632
   3.6945390  26.2381053  18.6747285   3.2143926  26.7527223  18.0259915
   4.0304326  25.4878164  18.1843491  55.5128514  70.1273688  41.5511437
  55.8326852  70.4811796  42.3810597  55.3047645  70.8999380  41.0257264
  49.1877604  35.8536243  40.7811975  48.7406778  35.8074450  39.9360871
  49.1786909  34.9534297  41.1064672  73.9644682  47.9523178  24.4977303
  73.4612619  48.7028989  24.1820737  74.4789087  48.2984468  25.2269574
  40.1488447  53.3371305  26.3299108  40.3133583  54.1339588  26.8341208
  40.5576897  53.5025597  25.4803777   5.6693411   8.7591797  57.1969128
   5.6095552   7.8039300  57.2093678   6.4748239   8.9550102  57.6755333
  36.6375040  32.3063445  14.9649783  36.4531063  33.1788659  14.6172210
  36.7109751  32.4359680  15.9105130  36.0219395  53.1833204  25.0559827
  36.3724911  54.0739163  25.0695821  35.9327709  52.9751929  24.1259499
  28.9981365  60.1027441  51.3026714  28.2086110  60.6086016  51.4950037
  28.9375734  59.9108028  50.3668737  33.9697527  16.9062353   0.8538791
  33.0778526  16.6727901   0.5964824  34.2355703  17.5720430   0.2196237
  61.5265810  65.5377444  27.6805135  62.0844066  65.6408295  26.9095155
  62.1158778  65.2115210  28.3606072  40.2628231   0.8343726  57.4174547
  40.5438566   1.7171451  57.6582098  39.4036269   0.7362801  57.8278112
  47.8190815  69.2026814   4.7217437  47.7701008  68.2467827   4.7122737
  48.3183014  69.4247278   3.9358016  28.6608671  12.4735093  17.9750987
  29.3396067  11.8520189  17.7118655  28.7207626  13.1801248  17.3321792
  35.6424152  58.3476743  30.5586739  35.4365360  58.7024697  29.6938249
  35.3037559  57.4526438  30.5371972   8.7599206  29.3251157  44.2802715
   8.2975471  30.0994372  43.9595413   8.6034250  29.3267322  45.2245903
  44.4846414  -0.0686216  41.1745664  44.4188475   0.8851624  41.2214776
  44.7740244  -0.3319931  42.0481416  61.8691980  53.5535082   6.8327733
  61.7123186  53.0692347   7.6433869  61.6806781  52.9235920   6.1371442
  21.2445389  53.8947353   3.8584654  22.0079242  53.6314592   4.3724291
  21.5073119  53.7522802   2.9491274  69.9804162   2.9908610  26.5134164
  70.7462596   2.4221540  26.5927239  69.6637951   3.0927778  27.4109670
  52.5609624  53.4078690  60.0066682  53.3674466  53.0701169  59.6171399
  52.4493896  54.2735049  59.6136590  23.8753295   7.6094049  51.9853258
  23.3163738   7.8308320  51.2404966  23.3476281   7.0075262  52.5102091
  46.1888182  47.5770840   6.8823167  45.5752336  47.0944735   7.4362393
  45.6324756  48.0430850   6.2581702  36.7539858  14.8008085   6.0145160
  36.8356871  14.7632003   5.0615474  35.9418177  14.3310142   6.2040015
   3.8460866  36.7359734  60.2611685   3.0348510  36.2345839  60.1790953
   3.8303214  37.0720434  61.1572933  33.6999416  42.8411579  61.5979958
  34.0467286  42.1686506  61.0117340  34.0777016  42.6321173  62.4522972
  46.3497829  36.8333244  47.2026968  45.5500793  36.4626169  46.8294954
  46.6636229  37.4451280  46.5367889  49.3163359  58.1571659  21.2588330
  50.2059328  58.4838733  21.1242505  49.2548215  58.0118474  22.2029420
   0.9551775  23.4861657  31.4204808   0.9208881  22.5483629  31.6091081
   1.8396866  23.7494072  31.6745969  60.0883090  55.5962690  15.8248206
  60.2174937  56.5096578  16.0802861  60.9714877  55.2282628  15.7965489
  49.6817958  48.3926591  49.7481938  49.4116365  47.5815948  50.1787969
  50.6374585  48.3855423  49.8019429  51.0727798  67.5018081  23.1270429
  50.9251630  66.9234475  22.3787518  50.6009709  68.3047542  22.9058953
  66.8183994  30.0406575  57.8877974  65.9642410  30.4232717  58.0884266
  66.9305134  30.1844716  56.9481277   9.2790138  15.4037134  38.5914516
   8.5117018  14.8791925  38.3626580   8.9310896  16.2816755  38.7475491
  20.8497774  11.9850215  56.2822553  21.1749327  12.2454723  57.1440431
  21.3417160  11.1917123  56.0703679  30.3869354  70.2925643   2.1849128
  30.1956760  71.0036286   2.7965041  31.2194263  69.9317488   2.4898930
  75.9566736  29.3612933  48.8245916  75.8249617  30.2103090  48.4026241
  75.6003332  29.4739532  49.7058153   3.3979713  22.0368191   2.1694394
   3.8339149  21.5761634   2.8863641   2.7827846  22.6278790   2.6035186
  47.2532343  21.0774684  35.1833459  46.7826914  21.7666316  35.6522485
  47.9935287  21.5273261  34.7761269   4.9350988  66.9834503  39.8839875
   4.8006689  67.2743949  40.7859345   5.2989971  66.1021456  39.9683209
  56.6735446  43.4645643  25.5102559  56.5031349  44.3150374  25.1054212
  56.9672405  43.6756947  26.3964864  53.2695353  53.5996863  11.1195632
  53.3819544  52.9598829  10.4165383  53.6266958  53.1679949  11.8956538
  16.8435633  55.4386854  57.9923344  16.8376768  56.3606453  57.7350664
  17.4027944  55.0123739  57.3429155   2.7801001  66.0672125  30.2360841
   3.2587015  65.2397140  30.2852937   3.0647671  66.5548738  31.0089894
  26.9447302   5.4746604  27.7512475  27.2486948   4.8588634  28.4180566
  27.7376818   5.9274269  27.4640962  67.9111861   7.5893426  10.4969331
  68.6231421   7.9793287   9.9897262  67.1138715   7.8894925  10.0605460
  36.4234852  22.1127057   1.3532182  36.3873314  21.5324140   2.1136018
  35.5877565  21.9753957   0.9071895  57.8386986  62.4082192  26.9683762
  58.3321845  62.4666246  26.1502667  57.8392374  61.4752373  27.1823235
  50.1637554  28.4334302  52.3289394  50.6832075  27.6554608  52.5318289
  50.4843855  28.7191105  51.4734793  11.0269749  39.0827211  36.2352200
  11.2058365  40.0122967  36.0933419  10.4532873  39.0633857  37.0012113
  24.8091244  13.9359069  24.6089955  25.4231047  14.0308977  23.8808270
  23.9545225  14.1416431  24.2301007  74.1143429  60.8836516  16.0708924
  74.3396055  60.0214013  16.4201947  74.6651947  61.4926824  16.5626927
  12.7302216  41.0308242  17.8940173  13.4152149  40.9863210  17.2269078
  12.1500873  40.2970386  17.6909467  10.5146658  61.1576780  46.4409181
   9.9784481  61.4854916  45.7189485   9.8856747  60.9536704  47.1329995
  61.8336760  62.5870308   7.4364873  62.4826323  63.1637963   7.8395101
  61.0840666  62.6175817   8.0309459  55.8972799  49.6381363  21.9907304
  55.4674732  50.4391273  21.6908761  55.1979076  49.1309091  22.4028417
  18.7614691  23.5030219  13.9964600  19.5408976  23.9855846  13.7210389
  18.1190264  23.6722967  13.3073731  15.7566559   0.2849428  58.0713844
  16.4765417   0.3578750  57.4447393  15.3149759   1.1330692  58.0285501
  52.0054150  46.2678623  43.7635899  51.3283014  45.9123945  44.3392563
  51.5776682  46.3467455  42.9109192  26.2965834  43.8980665   9.0704223
  25.8436977  44.5797631   9.5668240  27.0767605  43.7022468   9.5892735
  13.0015051  22.2011622  39.7801324  13.9438021  22.1671351  39.9449178
  12.9274046  22.2813841  38.8291760  21.7358993  20.5909610  14.0073796
  20.8520578  20.6155086  13.6407014  22.0989393  19.7596288  13.7018939
   4.3919562   0.7492447  47.7648755   3.4975838   0.4696489  47.5695439
   4.6546935   0.2084351  48.5096761  34.8049241  71.0399350  43.4272309
  34.4177889  70.9098729  42.5615235  34.4093495  71.8507441  43.7471410
  55.5432892  44.0124702  48.6012602  56.2644911  44.4883633  49.0131187
  55.3163099  44.5383978  47.8343725  70.7471859  17.0804128  40.5185719
  71.3338148  17.7355894  40.1406213  70.9457218  17.0928534  41.4548703
  58.9011698   9.2324615   0.8093949  59.2096906   9.9136997   0.2119370
  59.2786019   8.4230113   0.4650660  46.0751915  55.3738260  41.3505173
  45.6989241  55.0739765  40.5230236  45.4561329  55.0758886  42.0170259
  62.5301027  33.9261007  50.0533295  62.1041822  33.1165051  49.7715855
  61.8852854  34.6106291  49.8748255  52.3363579  14.1137815  13.6184045
  52.0024391  14.8460651  13.1002446  51.6198484  13.8957620  14.2144843
  30.8053505  54.1807672  23.9048787  29.9677479  53.8630971  24.2421266
  31.1483204  54.7389921  24.6027299  28.0846952   4.5282674  42.0754929
  28.1494783   3.6664439  41.6640397  28.9593195   4.6914935  42.4285050
  34.6944403   7.3390317   5.0059863  34.3588900   6.7160774   5.6506272
  35.4785370   7.7066636   5.4137488   3.4863722  50.8871230  20.8004304
   3.7552893  50.1069328  21.2854215   2.8534281  50.5641409  20.1591035
  60.5467879  58.7935099  24.4590493  59.6518361  58.7239846  24.1266938
  60.8405816  57.8868064  24.5474168   0.8178638   5.7731367  33.0881425
   0.9708737   6.6732145  32.8006001  -0.0872923   5.7717538  33.3994695
  51.1928594  26.6947004   9.7959348  51.0127985  27.6324304   9.7290584
  50.4794943  26.2787154   9.3118926  25.8945631   5.9250760  11.3784762
  26.5416454   6.6039682  11.1871215  25.4727386   6.2171960  12.1865388
  16.0662435  13.6770416  12.1943398  16.3875317  14.5308280  12.4842568
  15.2757000  13.8763214  11.6927834  46.1548399  29.3347526  14.9231025
  45.6095194  29.3943477  15.7075139  45.7868074  28.6010385  14.4307156
   8.2778788  27.2245884  40.8919382   9.0945959  27.5324512  40.4989672
   7.7969789  26.8282485  40.1653862  13.1463491   8.7424699  57.0532751
  14.0180790   8.9826147  57.3673630  12.6093208   8.7022249  57.8446102
  49.6336615  64.6929034  29.5988866  49.4111502  64.8175510  28.6762830
  50.1489675  65.4664525  29.8276063   4.0473949  66.5996965  16.9341584
   4.2858755  67.0189890  16.1073895   3.4460222  65.8987960  16.6825314
  37.3882866  24.7240448  61.1868954  37.1338034  25.5030107  61.6815472
  37.3207188  24.9899817  60.2698612  14.7515177  12.5550580  23.9422818
  15.4848741  11.9664169  24.1209622  14.0392493  11.9752765  23.6725541
  75.1385116  10.1594568  24.2675038  75.3939222   9.8061777  23.4153291
  74.2702292   9.7904706  24.4292565  11.9702196  21.2785435  44.0233469
  12.4897146  22.0038867  44.3700933  11.8776751  21.4744568  43.0909920
  50.2737402  27.5842548   1.8416520  49.4373964  27.2443557   1.5234967
  50.1268124  27.7483631   2.7731582  73.1522953  49.0530631   3.1004735
  72.5835621  48.4097775   3.5235043  73.4975588  49.5787307   3.8220664
  64.8509884  46.5768337  45.4018641  65.3365612  46.6390467  44.5793200
  64.4041777  47.4196863  45.4805660  30.0846874  64.9786648  19.6433278
  30.2787506  64.3187508  18.9776822  30.8869564  65.4967483  19.7080155
  46.3031685  48.0978462  16.1757012  46.6916859  47.8663370  15.3320809
  45.4051506  48.3527097  15.9639426  60.3252888  68.8873148  46.3419437
  60.0466490  69.5420647  45.7017136  59.5494318  68.7343693  46.8812847
  40.7040321  65.2340421  12.2324391  41.0774433  66.1149463  12.2608157
  39.7649586  65.3677114  12.3609086  66.5885078  43.9578440  14.3141337
  66.3940632  44.6369585  14.9600669  66.1207878  43.1850871  14.6308633
  73.0666422   8.4693694  24.7009393  72.5761627   8.0991674  23.9670392
  72.3935889   8.7856651  25.3035851  19.5061027  62.9827389  18.1599255
  19.9535477  62.1536025  18.3289262  18.9858543  62.8181967  17.3734828
   3.3664297  16.7737317  14.7111054   2.9271625  17.5093007  14.2842456
   4.2986177  16.9326902  14.5628282  44.2151308  23.8758445  57.5734043
  44.2516565  24.8323369  57.5692320  45.1293135  23.6015630  57.6460123
  15.1099132  16.7207933  29.8040505  14.2497538  16.4216638  30.0988122
  15.0269579  16.7884756  28.8528653  57.5420952  11.3926303  45.7580376
  57.3229790  12.3131204  45.6134033  56.9720840  10.9133875  45.1566648
  50.6708421  30.2485729  27.8397008  51.2192856  29.8035598  28.4857675
  49.8631970  30.4527927  28.3111115  50.9133017  68.0141410   9.6160432
  50.0994837  67.9452046   9.1168662  51.2687289  68.8703283   9.3776198
  52.3023033  60.0167084  50.3457594  52.3477030  60.7305813  49.7097111
  51.3669443  59.9082279  50.5176973  55.6399679  53.3954763  56.2592411
  55.1950693  52.6831484  55.8000183  55.4921436  54.1645050  55.7088089
  10.3400612  47.2544336  49.0046120  10.4059899  46.3205194  48.8053942
  11.2216210  47.5947094  48.8519812  55.2285242  18.0624247  58.0619335
  55.8047819  18.7285554  57.6871920  54.8099947  18.4980249  58.8044405
  24.6394800  26.2538219  19.0960141  24.9888204  27.1431661  19.0388890
  25.2544760  25.7220102  18.5908624   3.6519241  53.3471584  48.6257029
   3.8568163  52.5759363  49.1543484   3.5188103  53.0035067  47.7422857
   0.4105257  27.4211955   7.4121591  -0.3314782  27.0761943   7.9087897
   0.1085829  28.2701564   7.0891639  71.9423866  55.2221346  55.5650997
  71.8721247  55.9725285  54.9750137  71.9613504  55.6073093  56.4411783
  59.3053328  31.1524212  43.0971261  60.1218211  31.6095691  42.8956529
  59.4444000  30.2612701  42.7765962  73.1480705  67.3684462   0.4070445
  73.9813196  67.4983128  -0.0457887  73.0536758  66.4177998   0.4670068
  41.1819231  49.4281718  24.0964528  41.4356958  49.6701332  23.2057877
  41.0884308  48.4759578  24.0685388  52.5066805  61.8744659  44.1356754
  52.0112324  62.6745510  44.3106699  53.1250763  62.1212673  43.4479904
  12.9147684  49.8679682  33.5618039  12.4053871  50.3841254  32.9370328
  13.7883388  50.2586063  33.5392590  30.6453144  56.2121662  13.9704581
  30.1483738  57.0059499  14.1684218  31.0346233  56.3810405  13.1124659
   5.4501223  11.6020322   8.8872500   5.6619715  10.7158924   9.1806861
   4.8777436  11.4734531   8.1308909  31.9482397  10.0367809  12.2755977
  32.3399376   9.1780830  12.1160861  32.4971413  10.4278875  12.9552861
  16.3158714  70.9142884   4.0238114  16.4749634  69.9705585   4.0065881
  15.4175484  71.0115465   3.7079259  23.5057520   3.0041290   2.0243998
  24.2507099   2.4554062   2.2697040  22.8482078   2.8303504   2.6979466
  22.8376889  39.7619271  56.8212223  22.5720072  38.8828635  56.5512371
  23.5952878  39.6194792  57.3886585   0.9081137  60.2751311   5.3555175
   0.8264553  60.9256896   6.0528966   1.7704021  60.4399070   4.9740239
  29.8101535  23.8455376  17.0942517  30.5999940  23.4251841  17.4343797
  29.6499592  23.4117838  16.2561437  31.1627329  66.5434965  39.3741918
  31.8121851  67.0131337  38.8508558  30.5462158  66.1920770  38.7318182
  42.2274864  45.3640636  53.4368372  42.7386988  44.6625908  53.0333185
  42.8287685  46.1079343  53.4736061  36.5074719  66.1684265  58.1150055
  35.8338059  65.8530053  57.5125837  36.0220659  66.4531734  58.8892984
   0.4060853  52.1793552  39.8619103  -0.1792705  51.5425619  39.4519305
   0.2738441  52.0557924  40.8018446  57.2184617  57.1631070  60.8533096
  56.4808304  56.5978571  61.0827112  57.1858252  57.8719910  61.4956903
  63.8086092  36.0071898  19.4836064  63.5399186  35.6435290  18.6399289
  64.6735560  35.6293389  19.6427556  50.4403817  28.9745459   7.0406838
  49.4977295  28.8357922   7.1322604  50.5199730  29.8710462   6.7148276
   8.0624855  49.0868195  48.5920715   8.3566583  49.9830683  48.4294939
   8.8706697  48.5797771  48.6693954  63.2835674   8.2054830  54.2448807
  63.1961393   9.1359210  54.0378237  64.0960217   8.1473076  54.7476435
  42.3393059   0.1876836  33.2286620  42.8909826  -0.5871075  33.1210327
  42.8406429   0.7598480  33.8096261  16.5573179  48.9585241   8.5101624
  17.1788418  48.2721540   8.7527295  15.7288753  48.4967395   8.3810397
  13.0850756  61.0719212  22.5819322  12.8875410  60.2774772  23.0779859
  12.3377811  61.1788401  21.9934197  70.9244596   1.3138470   6.5897818
  71.3925802   0.4854664   6.6941043  71.4795315   1.8307432   6.0058757
  31.0659611  55.0828394   7.3421498  30.4226314  55.7675275   7.5253554
  31.9121277  55.5254158   7.4080821  25.7908667  67.7492558  19.4060040
  25.3657568  68.0079596  20.2236748  26.3792313  67.0371126  19.6568274
  37.2184277  22.5255179  58.3962727  37.3849702  23.4580135  58.5339212
  36.4320397  22.3441315  58.9109802  35.1994491  13.9642501  55.2830076
  34.9426866  14.7600889  54.8172331  34.6125507  13.9288962  56.0383415
  55.2719867  15.4559668  15.5798789  54.8889148  15.7928845  16.3898011
  54.7856342  15.8969888  14.8833247  44.9875259  43.4458151   1.0957786
  45.8676588  43.2440146   1.4133855  45.1313769  43.9817008   0.3158017
  66.0449945  26.4890316   1.0716172  66.2329494  26.2213608   0.1720305
  66.5099585  25.8514002   1.6133424  60.3238832  11.6961614  48.3804846
  60.7425081  10.8697931  48.1394577  59.3940246  11.4811651  48.4537792
  43.7854826  34.7175841   4.2030116  42.9938256  34.2549374   4.4777270
  43.5396122  35.6425514   4.2176696  59.7701836  26.1951470  39.7110963
  58.8467646  26.4095712  39.5785975  60.0681925  26.8186188  40.3734446
  60.6512785  31.9849491  34.3307257  60.2805662  31.5248442  33.5776591
  60.1862907  32.8213215  34.3530583  49.4977295  36.0567333   3.7267705
  48.5504376  36.0097803   3.8558598  49.6769583  35.4203765   3.0345555
   2.9418957  53.7920495   5.2336617   3.1394588  54.0759882   4.3411466
   3.0318367  54.5847317   5.7626220   7.6911830  13.4776760   3.9376279
   7.9201769  12.8952480   4.6618958   6.7340516  13.4870744   3.9312621
  34.2765129  69.4494962  36.7305923  35.0618637  69.2005589  36.2432647
  34.2241943  70.4000781  36.6311502  68.8917255   5.7566220  50.2562618
  69.4161034   6.4649403  50.6298208  69.0742350   5.7930213  49.3173265
  13.2478678  49.8022756   2.3756905  13.1057894  50.4792925   1.7141028
  12.6550877  50.0369522   3.0896731  68.1418026  61.8697681  33.6841297
  67.6643324  62.2452220  32.9443407  68.6209798  61.1306020  33.3096242
  69.9106980  69.3677228  32.3756480  69.8084355  69.0635133  33.2774401
  70.7175506  69.8826011  32.3866034  42.4498034  12.2529101  24.0093708
  41.8012238  12.0022666  23.3515310  41.9744968  12.2187173  24.8395181
  12.6948797  21.8139323  33.1264325  12.5276482  21.7987546  34.0687867
  12.9362070  20.9129425  32.9114648  57.4950075  36.7424631  50.4946518
  58.2236147  37.1542859  50.0301504  57.0755482  37.4612570  50.9675360
   5.0549257  71.7470209  41.8343925   5.2578843  71.4063031  42.7055740
   5.2728260  71.0292757  41.2397575  45.2683126  50.6017729  54.7852155
  44.5219147  50.8620294  54.2454072  45.8597719  51.3537547  54.7546597
   8.4389972   2.6887775   6.1308452   8.6213039   3.6014772   6.3543912
   7.7347421   2.4324203   6.7262765  72.3546743  35.5373287  36.0383272
  73.2546473  35.5438137  36.3642693  72.3153877  36.2742901  35.4287553
  39.2373692  35.1629299  14.4630738  39.7702205  34.4654168  14.8448821
  39.7822499  35.9467045  14.5340320  18.0381001  56.4914557  46.9320440
  17.5251329  55.7113465  47.1430588  17.3891008  57.1354218  46.6486025
   8.9415419  18.8384208  22.8105851   8.3523046  19.5918628  22.7737733
   9.6192133  19.0946802  23.4361478  67.7150345  22.5416994  52.1626139
  68.0636644  23.2293010  51.5952539  67.7231789  21.7546654  51.6178703
  52.2837603  38.4059861  23.5635014  52.4342834  38.3700215  24.5081063
  51.3339078  38.4847658  23.4751531  64.3972111  69.2100900  61.2832785
  64.5985592  69.7068035  62.0763493  65.0917709  68.5536834  61.2289762
  44.9506283  40.1423883  56.0926104  44.8095608  41.0705328  56.2793636
  45.3415871  40.1305866  55.2189684  62.0642090   6.8215626  49.2249012
  61.3053656   6.6205782  48.6771917  61.7203331   7.3957556  49.9092150
  14.1190874  13.7268528  14.7406407  13.4091007  13.1396254  14.4811889
  14.7632372  13.6494001  14.0368625   4.8687326  16.1047622  11.0983153
   3.9329493  15.9800753  11.2564059   5.2862656  15.3613194  11.5332814
  53.5977644  52.1694573  37.8044319  53.7095172  51.5092131  38.4884048
  52.7134774  52.5092062  37.9416871  51.2006127  49.4108983  40.0799104
  50.6411850  50.1669964  40.2576371  51.0329926  49.1995486  39.1615029
  34.7698223  46.8128690  21.4855691  34.1998112  46.1743077  21.9140073
  35.2665245  46.3004860  20.8476182  45.9517050  11.5059495  56.6746378
  46.7565012  11.4525986  56.1591911  46.0133457  12.3463583  57.1286726
  26.8773020  64.8000320  49.7540092  26.4773024  65.6308158  50.0109673
  27.5523079  65.0448521  49.1210318  45.0898265  32.4967905  20.4827043
  44.8681628  32.4349349  19.5535870  44.5081114  33.1765344  20.8229848
  62.4744927  65.6067070  30.4063054  62.2415459  66.5321192  30.4809781
  63.4306848  65.6031975  30.3625222  65.6864655  52.3993858   0.1821443
  66.1827576  51.6951212   0.5992003  66.3472616  53.0498644  -0.0554685
  53.3335590   6.6733509  44.5681095  52.4015856   6.5597075  44.7544956
  53.6661959   5.7825607  44.4582129  50.5408370  44.6612772   6.2223550
  49.7737181  44.8979416   5.7010575  50.8400952  43.8336047   5.8460113
  73.2487392  22.7582002  59.1427040  73.6695194  22.1010518  58.5883284
  73.7735271  22.7678227  59.9431658  33.0289173  12.3425031  27.9228568
  32.2543001  11.8868732  28.2524014  33.5332227  11.6638112  27.4742103
  20.1140356  50.7728815  56.3141918  19.4795716  51.1229515  56.9396019
  19.8469806  49.8626471  56.1861944   9.6930832  24.2751503  61.4017296
   9.0418631  24.0150261  60.7502079   9.8029011  25.2165771  61.2679768
  30.3039015  68.4156724  55.3892803  31.1348093  67.9610332  55.5275583
  29.6602095  67.8869223  55.8607864  74.0765488  53.6790522  25.2867146
  73.6917364  53.5409399  24.4212266  73.6019957  54.4302460  25.6427308
  27.8946233   7.7911699  59.0408278  28.7554145   7.4057364  58.8773870
  27.3143125   7.3543251  58.4174156  35.5500627  20.0757456  55.7973909
  35.5911279  20.3369498  56.7173481  34.6195555  20.1196384  55.5772543
  56.5665150  51.0740852  48.1629705  56.4354944  50.4186106  48.8481092
  57.3957539  51.4950466  48.3896589  59.7480308  34.2557904   3.4530612
  60.2037584  34.4033491   2.6243468  59.8302113  33.3146849   3.6073323
  67.4072325  17.2967228  11.2428685  66.4885389  17.2006508  10.9918710
  67.6483356  18.1717559  10.9388658  70.1232779  13.1071385  22.7378770
  70.5223238  13.8374480  22.2649690  70.5960714  12.3345097  22.4284478
  39.5354604  49.9995920  29.7887441  39.6344852  50.9420129  29.6535893
  39.3587994  49.9091824  30.7251473  63.4894085  29.6336102  47.8060913
  64.1889477  29.3442178  47.2203207  63.4934092  30.5878377  47.7308321
  41.4245331  45.4923406   5.0665732  41.9938516  45.2917930   4.3236800
  40.7356393  44.8289880   5.0263186  34.0728068  30.2232024  23.2984754
  33.8751429  30.8649924  23.9805814  34.9837374  30.3978774  23.0619927
  41.2505484  10.1544273  32.9364324  41.9768333  10.7610095  32.7922153
  40.5427074  10.4937685  32.3886752  49.0324163  29.2816639  24.6442366
  49.2681360  29.4693422  25.5527782  49.5570612  29.8945951  24.1291666
  27.7078295   7.7304387  39.8360395  27.8794813   8.2612264  40.6138802
  27.2592735   8.3248788  39.2346478  12.3589754  14.9727690  56.6110182
  12.5536966  14.8021722  55.6894922  12.8483534  14.3020701  57.0873690
  11.8156826  37.8558784  28.0919476  12.3510420  37.1279254  28.4077187
  11.1381304  37.4409557  27.5580998  48.7603247  53.1535527  49.7472211
  48.4547197  53.7712499  49.0829297  49.4021689  52.6093480  49.2910405
  61.6956984  30.5371525  13.7216731  62.6411330  30.6309595  13.6051007
  61.5977966  29.7553786  14.2652484   4.7765112  33.0458379  41.0875654
   5.0220251  32.3228192  41.6647959   3.9432287  33.3600974  41.4384508
  24.4943153  37.3468105   0.5119630  24.9116814  38.1853137   0.3146001
  23.8795959  37.2097137  -0.2088384  26.8214571  51.3613352  47.8316899
  26.5856325  51.0700735  48.7124749  27.7514612  51.5795573  47.8925630
   2.5626718  44.9667897  57.1321507   1.6338837  44.7404334  57.1805879
   3.0185663  44.1320923  57.2401734  74.2587244  29.9073216   9.0754481
  74.5555317  29.8085239   8.1708070  74.3457710  30.8434543   9.2552014
  14.3406737  71.5073089  54.7196770  14.6117318  71.9829105  55.5048943
  14.3674434  70.5856524  54.9767065  51.0506964   9.2861021  27.1568918
  51.7960215   9.7531992  27.5344396  50.3844261   9.9614334  27.0294452
   9.7392618   5.7397684  18.6165734   9.3154108   5.2256807  19.3038102
   9.8185455   5.1346120  17.8791877  22.4623859  42.9053935  60.2498007
  22.9808844  42.6485261  59.4872999  22.8984201  43.6897834  60.5827284
  60.2859163  20.8757043  48.3839035  60.2433252  20.0569391  47.8898954
  59.4920778  21.3481998  48.1333113   2.3180962  -0.0476490  41.5827465
   1.7599344   0.7058527  41.3906002   2.0636988  -0.3151482  42.4659014
   6.1252129  15.6199130   8.5178729   6.8546450  15.0015601   8.5603162
   5.7340204  15.5891308   9.3909427  67.3707914   3.7824473  26.3471842
  68.0714321   3.1430268  26.2188339  66.6467571   3.2742327  26.7128730
  16.7824900  53.5043510   3.4826585  17.6975738  53.6128386   3.2236548
  16.7868673  53.6220297   4.4325849  39.9614037  70.9039979  59.0269470
  39.8381079  70.6793256  59.9492025  39.6545637  70.1331692  58.5495520
   2.3002708  65.9340789  53.3238411   3.0984867  65.4764255  53.5877323
   2.5210560  66.8625548  53.3974552  65.7022392  46.2951096  15.3712197
  64.9454128  46.8034133  15.0795480  66.3948786  46.9446501  15.4919644
  41.9244587  66.9974836  40.6781598  41.8531429  67.2703990  41.5928574
  42.5364696  66.2616905  40.6947728  22.7813768   7.4794972  19.5577025
  23.3860207   8.1810534  19.7994804  22.9615068   6.7807263  20.1865935
   2.2658348  68.9421384  42.8461476   2.1696138  69.2285530  43.7544080
   2.9421234  69.5150464  42.4847146  17.8404331  16.4279616  34.4541097
  17.1050096  16.8902302  34.8562169  18.0871415  16.9738913  33.7075663
  48.2806158  21.3967347  51.3665390  48.6344004  21.3605237  50.4778576
  48.7395906  22.1293902  51.7773819  50.9393930  69.7804086   6.1430379
  51.0779953  70.2381866   6.9721719  50.1398373  70.1674669   5.7864877
  19.5465326  24.5985031  38.0594349  19.1755247  24.2373848  37.2543430
  20.2701807  25.1505542  37.7631021  30.7874298  11.0084021  42.8950787
  30.7129717  11.8714583  42.4878645  30.4157805  10.4064620  42.2502708
  27.5157881   3.8321131  36.8505526  28.3826566   4.1173840  37.1393275
  27.0668244   3.5769093  37.6564884  51.5791285  62.6804074  30.7836839
  51.2298738  62.8243908  29.9041768  52.2413003  63.3628901  30.8931275
  60.0820780   3.1474078  48.8489389  59.9029922   2.7413568  49.6970463
  60.9251213   3.5852900  48.9662838  38.1598843  62.3328396  46.4951515
  38.6947859  61.8937483  47.1564484  38.7890518  62.8196027  45.9627581
  53.6725962  38.3939966   9.7835847  52.7419865  38.1715476   9.7569390
  53.7475478  39.0253424  10.4991408  43.3679533  17.7252162  52.1193695
  44.1428041  18.2195532  51.8520308  43.6164331  16.8083453  52.0017290
  38.9794647  55.8915886   3.6681386  38.9792072  54.9758240   3.3895560
  39.4094383  56.3595637   2.9523536  42.0779716  58.6141380  21.3426896
  42.0590412  59.1167411  20.5282803  41.1931621  58.6998590  21.6976663
  66.6215431  15.2754244  16.9612523  67.2409164  15.7029089  16.3697549
  66.5489065  14.3815240  16.6267463  35.1861595  10.2716518  11.8620463
  35.7722973  10.8616376  11.3881370  34.3964790  10.7905126  12.0150729
  36.7926668   3.4696389   0.6620236  35.9348415   3.7986708   0.3934976
  36.9548773   2.7240706   0.0840541  20.4291927  21.0118898  -0.0991801
  20.4961311  20.2714559   0.5037375  19.4898569  21.1844417  -0.1632384
  66.4922583  50.0527760  20.0481530  66.9836723  49.5832797  19.3741246
  66.5061056  49.4679173  20.8057710  54.9860155  60.0544843  22.6583978
  54.1092431  59.8792776  23.0001565  54.8341691  60.5319127  21.8427773
  60.4884291   5.9186637  60.1190758  60.2604246   6.3744080  59.3088055
  61.4403629   5.9988439  60.1792526  73.3531046   4.3335506  48.8227987
  74.1275406   3.9544612  48.4071350  72.6154280   3.9604533  48.3402395
   0.9213495  31.0057092  37.0593214   1.6434336  31.3253689  36.5183520
   0.7011557  30.1526403  36.6851234  19.0139210  17.4756380   5.9311458
  18.8777649  16.5589961   6.1708566  18.9696180  17.4822828   4.9749919
  55.6225860  55.7025882  34.3352529  55.3671872  54.8325893  34.6420213
  54.8089396  56.0920581  34.0150567  11.9935715  71.0596093  19.1441747
  12.1774446  71.0892972  18.2052728  11.4650738  70.2699694  19.2598840
  63.8629925  61.3270530  12.7587863  64.3501555  60.5126175  12.6338740
  64.5052397  62.0177635  12.5954791  68.4635460  41.6136750  10.0877448
  68.0211985  42.1179553  10.7705756  69.2576658  41.2850126  10.5091592
  12.5012028  42.3058947  38.6477776  11.6403067  42.2669968  38.2311555
  13.0860245  41.8661585  38.0306455  60.9443855  33.4461689  24.0590668
  60.7064152  34.3715668  24.1159844  61.5703154  33.4038520  23.3361173
  59.1229879  43.1222912   1.9040652  59.2884194  43.1900337   2.8444262
  58.9349186  42.1948465   1.7601605  68.3228350  18.5356760  40.2521372
  68.7219477  17.7053189  40.5118418  67.9265594  18.3547318  39.3998098
  51.7033291  17.5424647  38.3009505  51.2649632  16.8978000  37.7455449
  51.0381413  18.2116556  38.4620070  12.1756471  67.9928239  47.0862675
  12.4520195  67.4498116  46.3480377  12.1921814  67.4009558  47.8383684
   9.3500316  37.3041749  57.0035791   9.4022816  36.3561511  56.8821239
   8.9666593  37.4133849  57.8738260   4.5760309  66.4353022  42.7229043
   4.3047106  66.6727981  43.6095925   5.2765095  65.7954654  42.8500672
  44.4206656  71.1833790  15.4250348  45.2772749  70.8078412  15.2215052
  44.4144190  72.0258551  14.9706924  38.4303368  68.9774885  57.6308775
  38.3441771  69.4612490  56.8094254  38.7724579  68.1222906  57.3704529
  71.5676308  15.2845478  43.2155609  70.9362268  14.5741677  43.3292341
  71.1141396  16.0623503  43.5405207  16.4591133  70.8301672  27.9924031
  16.4641153  70.0641211  27.4184915  15.9887516  70.5406698  28.7741872
  44.1578388   6.2517005  52.1724701  43.7313986   6.9680721  52.6427841
  43.8677168   5.4607081  52.6267767  74.5117056  50.9246453  25.8490582
  74.5147621  51.8804153  25.9012719  73.7291777  50.7151302  25.3391763
  46.0306333   5.0565696   5.3661700  45.3304457   5.6543136   5.6282111
  45.5912804   4.2165900   5.2333661  11.3613617  53.1733617  15.1158639
  11.0466349  53.8967248  14.5737191  12.3105585  53.1768736  14.9923964
  60.0462341   2.8179470  41.5408230  60.3292418   2.2252096  40.8445454
  59.8143435   2.2400489  42.2677946   8.4087122  56.3155612  52.1259546
   7.7066267  55.7332524  52.4161673   9.2044271  55.9353896  52.4981642
  19.7115576  31.1599043  24.0506097  19.7986900  31.9401174  23.5029717
  20.3692209  30.5535301  23.7099858  51.3351523  33.9737290  19.6343060
  52.2023880  33.9084437  20.0341340  51.4614450  34.5509424  18.8812371
  10.9656059  37.4275907  13.0006715  11.4046728  36.8645213  12.3631736
  11.4217102  38.2664531  12.9335090  34.0143734  15.6749758  18.9886590
  34.5476782  15.2486619  19.6595307  34.3870741  15.3745684  18.1597539
  52.7296483  30.7550433   2.6578160  53.1052434  31.3880041   3.2697984
  51.9753634  31.2065714   2.2791215   7.7879381  43.3968210  57.6395845
   7.1485853  42.7029037  57.4785519   7.7219057  43.5701227  58.5786486
  58.7492096  68.5930952  13.4337684  57.9733598  68.0328545  13.4133264
  58.6732828  69.1360959  12.6491567   6.7874872  52.4885830  10.7916518
   7.6845848  52.1686419  10.8869286   6.8489897  53.1819638  10.1346370
  71.8094789  61.1937078   7.8143044  71.9576704  60.2844533   8.0741664
  71.5002977  61.6233834   8.6118146  62.3570144  25.3181502  35.6460210
  63.2550251  25.0233086  35.4947682  61.8644845  24.5132455  35.8065625
  39.7499668  33.5127618  17.2114392  39.2768871  33.8993851  17.9482957
  40.6739819  33.6256144  17.4343320  48.3519709  30.8179062   1.8419667
  47.7549636  30.9200447   2.5831672  47.8038513  30.4685023   1.1393186
  62.8907811  59.4358548  14.8233815  62.6812732  59.4854101  13.8907023
  63.6326324  60.0305160  14.9341412  43.8077105  66.7718594  53.0966663
  43.9313543  67.6729467  52.7983618  44.3694342  66.6956939  53.8679600
  51.2865961  64.5987167  44.7156572  52.1343697  64.5908119  45.1600170
  51.3128317  65.3802200  44.1635752   3.8732254  65.4721841  10.4359504
   4.1546452  66.3852414  10.4939052   2.9539358  65.5210766  10.1737519
  64.9405562  18.4783896   6.9153949  65.1034867  19.3696340   7.2242089
  65.1075470  17.9260060   7.6790782  24.3418301  68.4191983  53.7516212
  23.5004938  67.9713630  53.6631155  24.8603428  67.8455206  54.3157768
  47.2670364  16.7025673  17.6619422  47.2846317  17.4551940  17.0707786
  46.4685106  16.8206930  18.1763744  50.2971888   0.3089474  58.5410261
  49.6172142   0.9138923  58.2445288  50.5492401   0.6364500  59.4044161
  47.3068165  23.6652971  16.6715070  47.4098467  23.3401752  17.5658818
  48.1978630  23.6942172  16.3230344  52.1265911  26.0046840  14.7529336
  51.8427776  26.0105014  13.8387938  51.6699623  26.7462325  15.1502105
  15.5116140  62.9414114  11.4236327  15.0432074  63.1159028  10.6073113
  16.0360538  62.1626958  11.2371036  57.5426674  25.9904623  52.4128819
  58.1956673  25.7216334  53.0590677  58.0129623  26.5878725  51.8313742
  65.7456076  18.1175348  14.8061486  66.5082848  17.5422391  14.8660489
  65.9045755  18.6453017  14.0235730  17.2618246  18.0364513  51.8840218
  16.8231058  17.2184372  52.1177101  16.7629290  18.7144601  52.3396969
  60.6560421  17.8192401  56.3911057  59.9456549  18.1858337  56.9175959
  60.2355766  17.5536990  55.5732250  37.1135544  24.0223289   4.2611905
  37.0605301  23.9057327   3.3125993  37.8137182  23.4305358   4.5364829
  59.3743456  66.8642905  49.5911312  59.8209703  66.2843271  50.2078915
  60.0779188  67.3735075  49.1887474   3.7329351  42.4885240  12.9068061
   3.1153547  43.1456711  13.2277127   3.8858759  42.7295509  11.9931575
  68.7467527   6.4695513  44.4921350  69.2628193   7.2157818  44.7971773
  68.4385586   6.0476178  45.2941465   6.5065729  29.3946197   9.2105218
   6.6327488  29.7407022   8.3270379   5.5807650  29.1537401   9.2434379
  39.7842932   8.9347416  41.2615442  39.2400694   8.3774751  40.7052135
  39.5609450   9.8274153  40.9979486  55.8790684  33.6036229  38.1738782
  55.5643892  34.0479279  38.9611530  55.7001543  32.6770401  38.3340812
  56.3417768  14.3445408  56.4963913  55.8702183  13.8341486  55.8380842
  55.6803989  14.9309123  56.8637848  20.1576530  45.2766332   4.8870440
  20.1641190  45.6800636   4.0190383  19.8240911  45.9612831   5.4668923
  68.7735807  68.4118756  28.4529038  69.7233259  68.3982452  28.5713502
  68.5558617  69.3402847  28.3699151  59.0156364   2.1520232  44.2069912
  59.5982170   2.2720489  44.9569464  58.3519125   2.8343451  44.3076849
  70.3174973   1.3326162  53.4742355  69.8131847   1.6148959  52.7112007
  69.7316170   0.7372136  53.9416504  67.0753681  58.5270842  15.0150367
  67.4282515  58.9121946  15.8171578  66.5404140  57.7930054  15.3170081
  53.9464366  25.5422028   9.7913524  52.9967296  25.6578275   9.8216887
  54.1225683  25.2398642   8.9003964  57.7928209  56.0842705  44.0091658
  57.6614237  55.9054804  43.0780363  56.9407272  56.3939810  44.3161583
  16.3643217  53.5593605  47.5317955  17.0164824  53.0030155  47.1058893
  15.7723093  53.8181353  46.8255472  29.5058071  41.2624433   7.1921750
  30.2085697  41.5933045   6.6328021  28.7133276  41.3603743   6.6643353
  36.1198305  12.3643327  10.3726979  36.8083500  12.9894758  10.5993434
  35.4813408  12.8795696   9.8796531  44.3659126  14.5817956  19.3381234
  43.7344944  14.5743808  20.0574895  44.4900143  15.5095586  19.1379090
  55.0997019  25.1050663  31.1728072  55.8158827  24.8219967  31.7413068
  55.5026531  25.2015114  30.3099298  47.1805859  35.0128746  27.4658751
  46.9216824  34.4653106  26.7246771  46.7505360  35.8527517  27.3049426
  43.5898293  49.1177090  39.3262982  43.4952200  50.0573977  39.4820690
  44.5245064  48.9954051  39.1600037  72.4049818  50.1511010  23.8749619
  71.6603815  49.6621415  23.5246488  72.1067392  51.0604521  23.8940736
  12.5631821  41.7794778   4.2203494  12.4380886  42.6925441   4.4789859
  13.3908045  41.7780014   3.7394353  70.2244627  59.0948423  24.1409322
  69.3955385  59.5708331  24.1914483  70.1231491  58.3711490  24.7591802
   7.4418186   3.8630820  22.9643556   6.7151522   3.3918333  22.5567838
   7.0847534   4.1839600  23.7924691  64.3908083  68.0235084   1.7393037
  63.6001551  68.4187468   1.3720294  64.5162045  68.4716066   2.5757953
  41.5891409  18.8245201  58.8037205  41.3347101  18.2907712  58.0509853
  41.2680006  19.7017145  58.5948372  69.9544954  43.1530809  47.0570230
  69.3990183  43.7816954  47.5180292  69.3497753  42.4750900  46.7555714
  12.9758871  67.2216725  59.1864157  13.5028732  66.4636853  59.4393444
  13.3296478  67.9434904  59.7060919  60.3302431  45.7534170  52.6920223
  60.6444979  45.2386427  53.4353161  60.8521461  46.5553856  52.7183437
  68.7067902  41.9590619  24.7363587  69.3247187  41.2696054  24.4933721
  67.8503572  41.6119572  24.4868108  73.0436396   5.6231237   3.5133429
  72.1479868   5.7709575   3.8169547  73.0231451   5.8550048   2.5848790
   2.3483122  59.0894028  45.4658747   2.5192082  59.1684659  46.4043713
   1.9902313  59.9409314  45.2150583  12.4182760  53.3839985  25.7583066
  11.6773045  53.4631845  25.1575395  12.5881779  52.4432250  25.8063622
   8.1806015  13.7321067  19.2601796   7.4226355  13.4993053  18.7239667
   8.8170790  14.0814090  18.6363908  47.9929781  21.7816496  59.9605656
  47.5394678  22.0844293  59.1738749  47.3271036  21.2985706  60.4499292
  52.7330875   4.1079444  53.3761168  53.4223032   3.4728339  53.5706568
  51.9175243   3.6288327  53.5228825  30.1270306  64.3729743  16.2317010
  30.8827793  64.1623720  16.7800876  29.8932564  63.5425958  15.8169099
  74.1702913  13.2939124  25.2350636  74.2919325  13.7927175  24.4272157
  73.4394907  12.7055002  25.0455018  51.5517628  31.1049401  18.8420316
  50.8465111  31.6622301  19.1710969  51.7926919  30.5572757  19.5891877
  40.9349691  65.9535703  22.8637811  40.0814270  66.0214361  23.2916757
  41.5238976  66.4609894  23.4222814  70.6400919  17.5875509  48.1616640
  71.2159920  17.4520528  47.4091959  71.2341833  17.6521075  48.9094067
  25.1405668  22.0204020  51.6288900  24.4208288  22.4965334  51.2147617
  24.9377012  21.0978031  51.4743328  72.7751076  54.6356698  22.7308770
  73.6411058  54.4912526  22.3495313  72.2661077  55.0345096  22.0251294
  64.3999004  21.1887741  50.1970625  65.3274202  21.0594225  49.9990606
  64.0273523  20.3071213  50.1857471  17.5659048   7.8451117   6.0054608
  17.5001728   8.2334122   6.8778916  17.2015249   6.9657763   6.1065980
  56.9377447  56.9894501  56.6941166  57.5666160  56.5398510  56.1296558
  56.2176133  57.2259804  56.1095667  36.7741108  11.2765408  57.9184055
  36.7343640  12.2317338  57.9659271  37.7063322  11.0799146  57.8260231
  32.9768383  16.0011312  10.9619065  33.3912861  16.8513557  11.1088153
  33.1920731  15.7832619  10.0550242  52.6806068  35.9779167  57.7985764
  53.0526209  35.9413457  58.6797714  53.4414101  36.0061002  57.2183895
  30.6522012  13.8679838  52.3776150  31.5175605  13.4692824  52.4693918
  30.6066513  14.5076990  53.0881929   6.2658846  65.8400520  14.2185851
   6.5893375  65.8087500  13.3182307   6.0105049  66.7531880  14.3497296
  20.5812084  23.8654682   7.1821948  20.4412853  23.7665388   6.2404605
  19.9483549  23.2691225   7.5823184  19.4769323  14.7844553  49.9949551
  19.8417211  14.6483612  49.1205168  20.1144004  15.3463078  50.4356241
   8.2933628  42.2180160  21.0665151   8.9972555  42.2406336  20.4182454
   7.6973259  41.5395185  20.7493230  75.4567385  33.1200123  34.4407320
  76.3170815  32.7332067  34.2781878  74.9443102  32.4102616  34.8279071
  51.9007063  14.8034465  53.8151264  51.2879276  15.1450551  54.4663048
  51.3425684  14.4728637  53.1112576  63.2382965  36.2162304  25.8160210
  64.0540934  36.7163420  25.7915711  63.5130262  35.3047752  25.7159948
  18.0198419  46.1788702  58.7135792  17.5130796  45.4183149  58.9981508
  18.9138985  45.9916306  58.9996529  37.0823229  59.1413506  36.4582372
  37.4672497  59.9885281  36.2338448  36.6392220  58.8600405  35.6577635
  29.3854022  26.8046474  57.2687483  29.9379444  26.8751669  56.4903164
  29.7070241  26.0246778  57.7208996   5.4158926  35.6190634  42.7728701
   4.8364878  36.3076282  43.0990505   4.8809004  35.1332736  42.1451569
  65.4589939  44.4029284  51.9769621  65.7146454  44.9343395  51.2229872
  64.5131397  44.2911577  51.8815374  30.4563761  39.6924829  54.0143776
  30.7033205  39.5522809  53.1002712  30.2373266  40.6229973  54.0632868
  17.0262110  36.8135373  24.1834184  17.7288496  37.3161719  24.5955964
  16.9542896  36.0213411  24.7158547  42.3644400  42.1764088   7.9877549
  41.5325403  42.3133945   8.4409773  43.0089903  42.6356030   8.5262048
  52.3282337  29.2573595  29.8687148  52.3866272  28.6645174  30.6179547
  51.8872499  30.0344825  30.2119994   9.9058199  58.0129433  48.6587000
  10.2542543  57.4500751  49.3500853  10.0692415  57.5278807  47.8498507
  30.1360487   1.6541887   2.5673791  30.6309818   2.4623990   2.4329539
  30.6734775   1.1418939   3.1714984  43.8710188  54.0336105  25.8958836
  43.8080060  53.0836066  25.9946366  43.0871486  54.2756649  25.4027387
   6.0449039  63.3573398  25.1029702   6.2656414  62.6773604  25.7394715
   5.5382931  62.9011139  24.4310780  26.3414919  52.0938834  17.3735019
  26.4145529  51.1475214  17.2498341  25.5351841  52.2081527  17.8765365
  42.1384048  13.5760128  52.4241018  42.5508833  13.0550170  53.1130552
  42.8395557  14.1403556  52.0983171   7.6583815  46.6354132  59.4950867
   8.1775618  46.7951298  58.7069416   7.0658445  45.9242153  59.2515230
  56.9961834  19.8074567  49.6565533  56.5473270  20.6185651  49.4180965
  57.2906971  19.9521410  50.5557537  11.7387055  32.6001764  17.8081389
  11.0146045  32.6898837  18.4276982  11.8182873  31.6566825  17.6677199
  18.9282440  10.2206540  27.0427342  19.0521883  10.4720045  26.1274739
  19.7621130   9.8258376  27.2977086  53.6234545  32.0971752   4.8795911
  54.5595716  32.0980049   5.0793811  53.3955692  33.0230880   4.7959872
   0.7965290  47.3259434   7.3364469   1.6739523  47.6809331   7.4790736
   0.9363853  46.3886901   7.2014352   4.8888695  68.6203965  15.4495068
   5.0995933  69.4700035  15.0622149   4.8237764  68.7947115  16.3884469
  59.8905479  46.7083856   5.9795638  60.7972824  46.8535122   5.7093783
  59.7075474  47.4181434   6.5951844  60.6722021   3.2000604  46.2436533
  60.7066965   4.0792173  45.8666563  60.5873823   3.3466035  47.1857595
  59.3388510  21.5596342  42.0920372  58.6467123  21.9768858  42.6049519
  59.3219805  20.6431794  42.3678207  69.1525459  14.1835916  47.4285221
  69.0160704  13.3247769  47.0284700  70.0577164  14.1620409  47.7390671
  72.6114714  52.3918995   9.8351022  73.4076511  52.0335826   9.4427558
  72.1656286  51.6317984  10.2088710  74.7968876  62.9927000  19.3759557
  74.7000849  63.5469421  18.6015721  74.6638548  63.5872897  20.1141950
  44.8230480   2.0005417   0.8301326  44.0982698   1.3945270   0.9840127
  45.3973841   1.5371633   0.2205010  41.0469269  33.9396930   4.7076388
  40.1916241  34.2878271   4.4556590  41.0111545  33.0153013   4.4617673
  58.1443167  55.5104637  26.3716912  57.4988699  56.1820841  26.1513424
  57.6656342  54.8890638  26.9202852  73.4990179  60.3199133   5.7707473
  74.2499887  60.9010037   5.6498786  72.9990684  60.7195386   6.4824935
   3.0756044  70.7575655  53.2614231   2.8022861  71.4091349  53.9071703
   3.5002613  71.2674999  52.5715971   1.2415659  33.4716145   0.2113267
   0.3650200  33.7788277   0.4426642   1.4750349  33.9775604  -0.5669669
  43.8563347  12.7010822  34.5090485  43.2080698  12.7612722  35.2107334
  44.5454264  13.3135736  34.7664094  64.6668005  17.0991969  43.8574982
  64.0308809  16.8890166  43.1736374  64.1342354  17.2851205  44.6308279
  71.6459619  65.6303200  33.1310388  71.8068134  65.7308992  34.0692445
  70.8899891  65.0454911  33.0789777  47.0600128  23.0717635  57.5176382
  46.5891314  22.3658609  57.0746851  47.8926468  23.1347656  57.0496798
  18.0685818  62.6803693  15.9350606  17.2703278  63.2074555  15.9697600
  18.3197843  62.6866492  15.0114318  34.8418306  19.1279722  25.3065320
  35.3680681  18.6657405  25.9589501  35.2909016  18.9645887  24.4771501
  66.5363228  46.6154786  30.0992509  67.0118725  45.8057949  29.9135228
  66.7136776  47.1760591  29.3439217  43.1323217  20.4201103   7.5663825
  42.2435974  20.7522846   7.6931163  43.1258654  20.0493312   6.6839333
   1.8576144  31.4985347  20.4821320   1.8444799  30.6132865  20.1182767
   1.2576698  31.4602638  21.2269994   8.4811591  32.9960513   3.7466069
   8.5916685  32.0923925   4.0422793   8.0452942  33.4353805   4.4768449
  34.5029091  15.0475049  15.6237384  33.7426590  15.1469112  15.0506993
  34.7727751  14.1364885  15.5077573  21.3832844  65.6940033  51.8006802
  20.7734526  66.3510140  52.1363401  22.0634211  66.2021889  51.3586473
   2.5145410  10.1827836  24.2278596   2.0371841  10.9263301  24.5959588
   2.1055077   9.4145751  24.6263333  15.5907499  47.3653528  33.6471101
  14.8919784  47.1851524  33.0182382  16.3384830  47.6218065  33.1073304
   7.8190672  68.9263758   8.7323399   7.7026665  68.9484939   7.7825042
   6.9322025  68.8331994   9.0802213  44.7419178  69.0996083   7.9716035
  44.1696083  69.3500647   7.2463771  44.2043220  69.2216548   8.7541171
  56.7249381  68.3080157   3.4245463  55.9610187  67.7399691   3.5244723
  56.4597165  69.1379937   3.8208123  32.7314543  42.1702791  13.9712401
  31.9945644  42.7766824  13.8970824  32.8356432  41.8110729  13.0901309
   4.7311890  59.3747028  29.7902890   4.5693170  58.7766823  30.5199452
   4.6038401  58.8380321  29.0079900  18.9770185  70.0113686   9.7713777
  19.1915380  70.7224449   9.1675683  18.5721504  70.4476580  10.5210229
  38.8845943   5.2640224  10.3323861  38.9980053   6.2015176  10.4888268
  37.9562210   5.1671720  10.1203271  69.0413475  12.6991546  34.7368526
  68.5776281  13.2390213  34.0967417  68.3905363  12.0603454  35.0277114
  23.8179754  27.2577930  11.3133164  24.2117523  27.4428678  10.4607221
  23.0607246  26.7076135  11.1130401   4.8711168  56.4817604  10.1177808
   3.9451086  56.3015803  10.2798816   5.3045856  56.2702712  10.9445878
  67.7283764  18.5592127  26.8219852  67.4667883  19.2231143  27.4599791
  67.8972483  17.7764666  27.3464108  67.7282392  31.5612599   1.6179772
  68.3604252  31.6362488   2.3327847  68.1097710  32.0747560   0.9059449
  48.0808138   8.0188966   8.8084002  48.4742283   8.5703016   8.1320783
  48.7428259   7.3513341   8.9882108  25.7937502   9.1464687   3.1301661
  26.1300110   8.4298587   2.5919887  25.9633659   8.8697124   4.0306493
  55.7784712  54.8837730   4.9391385  55.6981599  54.6429190   5.8620521
  56.2046015  54.1300150   4.5311042   7.6536989  33.5532904  51.3001490
   6.8846750  33.1166792  51.6664934   8.2535982  32.8396678  51.0831547
   0.6746721  47.4750757  38.0862689   1.3402796  47.2138262  38.7226248
   1.1642218  47.6341820  37.2792625  31.5464413  31.1870744  16.0602542
  31.5606892  31.2315404  15.1041909  32.3306381  31.6628888  16.3338633
  29.7476362   8.5203576  13.0712291  30.6142067   8.1197191  13.0021258
  29.8245262   9.3424297  12.5869533   6.8668949  51.7365321  22.9507943
   7.3091566  51.1629173  23.5765763   6.5301859  52.4573108  23.4830876
  29.8727310  70.2434093  45.0290060  30.2609623  71.1176241  45.0644350
  30.4540909  69.7013696  45.5623388  75.0509119  45.5585670  53.4718990
  75.8550406  45.0763416  53.6644077  75.3522015  46.4119720  53.1602049
  48.1096506  10.3670371  58.5090065  48.3600807  10.4962480  57.5942230
  47.1986675  10.6578076  58.5513020  70.8013916  32.2290134  34.4144082
  70.9566736  32.4613261  33.4989023  70.7187939  31.2754011  34.4088340
  31.9345355  62.4624777  55.5631304  32.5828028  62.7993202  54.9446487
  31.1838961  63.0484581  55.4661703  42.7027941  62.7296686  44.7675943
  42.5658655  62.6698208  45.7130575  43.6464071  62.8572512  44.6698475
  33.3141351  46.2429619  59.1364956  33.9798665  45.5567503  59.0901518
  33.5482550  46.7517662  59.9127293  72.3202908  42.5294271   0.5368443
  72.7277147  42.3929640   1.3921901  72.4082386  43.4690508   0.3768273
  24.8563838  47.7382660  58.4276867  24.6011925  46.8771791  58.0965614
  24.0374899  48.1308794  58.7301779  55.7538080   8.0844086  50.6860209
  54.9747896   7.5473863  50.8308363  56.4070845   7.4722993  50.3472233
  20.7094013  35.0631213   7.1371194  20.8522808  34.2632123   7.6430436
  20.7485926  35.7665609   7.7850934   7.8512108  21.3140043   8.1365891
   7.0814049  20.7474240   8.1877347   7.8171837  21.6852924   7.2549888
  45.3927576  63.6940917   7.0174857  44.5331215  63.3012804   6.8659659
  45.9987533  63.1423005   6.5229913  25.2425825  42.4415865  15.6299754
  25.7810223  41.8166276  15.1444455  25.2257215  43.2230952  15.0775357
  71.2402344  25.9572029  45.1470757  70.3535748  25.6185150  45.2709866
  71.1361408  26.9087100  45.1527786  27.9895247  71.1737539  47.9079676
  28.0467642  71.7545944  47.1493006  27.3817623  70.4855321  47.6373959
  11.2819075   7.0626760  12.1168967  11.5503310   7.8432584  11.6322585
  11.6911076   6.3362861  11.6466351  21.8923902  34.5811081  61.0506248
  21.2665415  33.9322376  60.7288933  21.7778540  34.5737100  62.0009184
  72.0648479  17.8095031  50.2419281  72.7164841  18.4515452  49.9601793
  72.0193529  17.9155838  51.1921453  44.4388401  31.7468154  11.8259879
  44.4229996  32.2502458  12.6399537  44.4360458  32.4089464  11.1347505
  17.0620787  22.3526212   7.7443143  16.2253534  21.9496104   7.5125619
  17.6242792  22.1897980   6.9869204  40.9995115   0.0304309  61.0335456
  41.6830814   0.5209056  60.5770426  40.4033173   0.7021013  61.3646669
  31.4816737  65.3867388  53.4349680  31.6519809  65.8276272  54.2673397
  31.3074350  66.0979414  52.8184795   2.9082643  53.1091472  23.0722447
   2.9745542  53.6562845  22.2896405   2.5548136  52.2783169  22.7544042
  20.8649325  19.7303069  51.2249327  21.5535617  19.3718672  50.6649828
  20.5631423  20.5122685  50.7626629   9.1306650  69.5001396  25.8399888
   9.2139446  69.6251735  24.8946591   9.9807703  69.7636851  26.1922570
  21.7198610  37.5424242  29.8619819  21.9821405  37.5935984  28.9428401
  21.4142275  38.4245586  30.0733113  47.2584581  13.0567336  60.0881195
  46.5203285  13.5963023  59.8048019  47.5339842  13.4448290  60.9185982
  36.3646137  58.9570817  23.3918973  37.0110714  58.5531887  22.8129407
  35.7408058  59.3761119  22.7990170  60.9087765  41.6044899  10.9201213
  61.1773931  42.3899796  10.4435893  60.0844633  41.8495288  11.3404771
  69.2816973  54.8773050  36.2835097  69.2394066  55.6325579  36.8700552
  70.0993776  54.9950266  35.8000112  23.0043661  32.9554778  12.0798322
  23.0996429  33.2165235  12.9958077  22.0804846  33.1088393  11.8819352
  54.7664499  42.7047539  38.0558586  54.8260498  43.6546850  37.9543161
  54.4828224  42.3894787  37.1977282  14.7003889  15.7506001  58.6838865
  14.1246653  15.0312781  58.9434004  14.6346331  15.7775664  57.7293253
   6.5833616  35.7460070  34.6753049   6.9812059  36.0654163  33.8654113
   5.6666040  35.5918312  34.4472408  72.1655024  65.8734884  61.5579081
  72.6614416  65.1398297  61.1945724  71.2815130  65.5275287  61.6808510
  63.0050659  30.0314307  50.5918074  63.2003832  29.6853137  49.7210121
  62.2674370  30.6255674  50.4534864  46.4450359  25.4553342  59.3913126
  46.9781780  24.7203302  59.0883923  47.0084858  26.2212753  59.2813540
  55.9278810  45.0574806  13.4718152  55.8246314  44.1811165  13.1009265
  56.8397033  45.2873370  13.2929917  46.7361689  47.0397949  39.6943402
  47.0344353  46.6020298  38.8970757  46.3561535  46.3391972  40.2244186
  51.1176825  40.0626183  28.6592340  50.9543180  39.1217732  28.5932398
  50.2457237  40.4574680  28.6624670   1.7580044  61.5237817   1.8128034
   0.9172737  61.2533268   2.1819373   1.5922558  61.6047653   0.8735486
  67.9615450  56.9307995  47.8540611  67.5685549  57.2398567  48.6703157
  67.2156239  56.7562246  47.2801638  28.0518305  60.9954151   3.1541987
  27.5901663  60.4326495   2.5325938  28.3093988  61.7601618   2.6393624
  16.6897844   5.4667163  30.3037473  17.5696587   5.1417518  30.4946538
  16.1099743   4.7446847  30.5460759  42.2915316   9.1764414  37.2703648
  42.3555326  10.0340044  37.6907468  42.0215178   8.5849142  37.9728031
  33.1481218  39.7837806  54.5650434  32.2898769  40.0777245  54.8704004
  33.5777640  40.5808067  54.2545748  65.8743477  40.6532764  46.3829660
  65.1749516  40.4121304  46.9903612  65.9700727  41.5994883  46.4913988
   4.3879997  34.1501259   3.5640641   3.9801418  34.4723957   2.7603026
   4.5972311  34.9413988   4.0603896  54.7528623   3.9367390  17.2251531
  53.9460443   3.4234143  17.2671386  55.2615808   3.6456728  17.9819318
  28.7567865  66.7715534  52.2281857  28.0051338  67.2563847  51.8873235
  29.3994200  66.7965492  51.5192243  29.7741520  45.1493176  13.6925002
  29.2394506  44.8116192  12.9739686  29.2415630  45.8427843  14.0819760
   8.7103128  23.2587624  52.5621176   9.5075369  22.9438019  52.1361160
   8.7230158  22.8489447  53.4270573  47.5791429  14.9166465   6.2234088
  48.4267639  14.4858385   6.3337871  47.3671984  15.2547336   7.0934697
  73.4519815  45.9199286  29.1657519  72.7502489  45.3237772  29.4272923
  74.1421032  45.3461552  28.8329625  69.4990133  17.1532989  34.2565556
  69.4415938  16.5909982  35.0290509  68.7058734  16.9569898  33.7579270
   7.7965605  71.2763986  11.2684985   7.7213919  70.4112944  11.6712161
   8.7148773  71.3393697  11.0058947   6.0648489  40.2885246  60.0914526
   6.2184000  41.0373306  59.5153093   5.9437227  39.5489883  59.4959307
   2.8983593  62.5596428  45.5979872   2.8819561  62.5659513  46.5550280
   2.1126652  63.0426264  45.3417826  12.8032731  26.2963319   5.3609248
  13.6289429  26.7805791   5.3634091  12.4470090  26.4258361   6.2398644
   2.3239921  15.1560903  11.2494059   1.5700554  15.2197957  11.8357011
   2.0153164  14.6188522  10.5198022  48.1265066   5.2533889  15.3760882
  49.0620724   5.0945163  15.2507516  48.0839645   6.1089158  15.8032771
  30.4502272  15.1910234   3.1660481  31.1581491  14.5964790   2.9178687
  29.7546028  14.6155668   3.4841557  35.4812216  10.6772256  32.7550813
  35.4800104   9.9168849  32.1736070  35.1018070  10.3543163  33.5723897
   7.7425873  33.7677024  22.8093072   8.6578905  34.0178167  22.6832410
   7.2460663  34.4171164  22.3113557  10.2935802  51.8248888   1.6472598
  10.7516682  52.3162171   2.3291560   9.9204266  51.0713812   2.1046563
   5.5300295  58.0518826  14.2675467   6.0203134  58.4910330  14.9625274
   5.5125248  57.1319136  14.5313283  53.6912453   8.8469926  54.4811153
  53.9354336   9.4448797  55.1876116  53.8516437   7.9741613  54.8398256
  17.7460337  42.9551077  16.8880951  17.7202463  42.5128412  16.0395861
  17.5337648  43.8670778  16.6893947  30.3078281  36.4313574   8.7668248
  31.0743439  35.9902350   8.4006377  30.3975212  37.3414939   8.4842702
  16.2832689  69.6971035  42.1415567  15.7061338  70.4511547  42.2621918
  17.1369886  70.0790739  41.9378519  74.8450851  65.6632996  53.4328032
  75.4134750  66.4290762  53.5149240  74.0785408  65.9838486  52.9575253
  14.4512605   6.1293531  11.5573378  14.7094797   6.9301010  11.1008807
  13.8110112   5.7183862  10.9764596  71.5771103  50.9830427  34.8928976
  71.4977694  50.2628565  34.2673850  70.8241129  51.5444946  34.7085023
  54.8532391  52.1306753  59.0218925  55.6684399  52.4496794  59.4090843
  54.9230766  52.3586988  58.0948782  11.5588522   0.1795970  26.7893982
  11.6228151  -0.1347336  25.8875442  12.4405146   0.4880060  26.9986415
  13.0654633  55.6337520  16.2806102  13.9768421  55.5755886  15.9938355
  12.5541460  55.4866978  15.4848977  74.3095875  33.5787344  61.4636040
  74.0945768  32.6965046  61.7663717  73.9061356  33.6397696  60.5977297
  56.3494110  47.5671148  47.9083586  55.9409809  48.2611942  48.4257269
  55.8408689  47.5417328  47.0978165  60.5326700  33.4989524  46.3256979
  61.0725403  33.0252504  45.6929398  60.6627512  34.4219494  46.1080170
  38.4426093  34.2704415   9.7608691  38.6259675  34.5884061   8.8768381
  37.8336143  34.9129224  10.1249778   5.8866178  61.9876870   2.3696586
   4.9706375  62.2191533   2.5233909   6.0233366  62.1573051   1.4375802
  75.0286913  38.5226297  26.8387628  74.8890066  39.4468665  26.6325855
  74.7728157  38.0581379  26.0418892  56.1822103  20.4669595  13.4041758
  56.0873960  21.4070487  13.5574122  55.5502867  20.0624729  13.9985677
  27.4183678  55.8193231   8.2773515  27.9278635  56.6293550   8.2553454
  28.0355190  55.1565385   8.5873052  56.8259907  49.6192884  50.5901098
  56.6658592  48.7292433  50.9038115  57.5697374  49.9258900  51.1088324
  15.8515703  59.9120053  36.7875501  15.1532804  60.2160605  36.2077447
  16.0438072  59.0241703  36.4858552  10.5401670  64.6599969  12.1962424
  10.1806604  63.8976106  12.6498433   9.7718203  65.1319250  11.8750544
  12.3795080  16.8857276  42.0422316  12.7334166  16.4155865  41.2872839
  12.5132418  16.2901127  42.7795172  50.7377731  58.9422401  53.3160993
  50.6921780  59.6845540  53.9186974  50.3465855  59.2675432  52.5053140
  45.2215551   2.5492311   5.4764243  44.5244478   1.8944097   5.5149671
  46.0121035   2.0726514   5.7296773   7.8537428  59.5692333   7.4562522
   8.1163275  58.8109168   7.9780169   8.6479580  60.0990256   7.3871394
   2.5352764  14.9630046  35.1545072   1.7887259  15.5599213  35.1037264
   3.2726765  15.4726148  34.8186922  16.3170767  28.9039993  60.9473324
  16.7790079  28.3982587  60.2786922  15.8760214  28.2452536  61.4837646
  64.7580694  15.2366186   5.6424256  64.7076391  14.2812038   5.6129428
  64.0841841  15.5310560   5.0297137  67.1634113  55.6742760  29.9350091
  67.1280348  54.8433575  29.4611379  67.3379766  56.3285669  29.2585011
  57.1442699  33.8442159  50.2464056  57.5368357  34.7156000  50.1933670
  57.8483057  33.2483602  49.9904442  32.1908640  27.0004487  18.0025741
  32.8378271  26.7696023  17.3359557  32.7119850  27.2578550  18.7631055
  33.9894306  70.3482326  11.1057206  34.6022236  70.0758275  10.4226991
  34.0843498  71.2998184  11.1470195  66.6780281  10.6095445  43.1878090
  67.0343733  11.4739847  42.9828835  66.3081646  10.7048678  44.0655041
  61.2702238  52.2823819   9.3115254  61.0273611  53.1164833   9.7134229
  60.4413807  51.8139490   9.2124101  28.8347197  63.8037062  44.8784971
  28.7656260  63.0132771  45.4139233  28.8721991  64.5199013  45.5124426
  71.3412868  68.8565072   1.7504950  71.9465649  68.4458026   1.1330863
  71.7437088  69.7006282   1.9548198  11.7443298   6.4452291   0.9421988
  10.8213376   6.4062906   1.1928054  12.2057008   6.6426731   1.7572995
  58.2517719  15.6718349  46.3529301  58.9790344  15.1636446  46.7121887
  57.8085756  16.0318220  47.1211863  45.6261539  40.3278875  35.1338458
  46.4266205  39.8266268  35.2894878  45.6105042  40.4662132  34.1868234
  22.4354326  70.3554377   3.8205644  22.4004852  71.3014945   3.6791964
  21.9338190  69.9859866   3.0938407   2.9244423  44.0903950  19.9826133
   2.2212648  43.7002802  19.4633985   3.6896658  43.5462570  19.7966576
  63.2982063  24.8096466  61.3299274  64.1344357  25.2624440  61.4391470
  63.4634829  24.1637564  60.6430960  55.3622257  41.0455986  23.5966607
  55.6489384  40.7535591  24.4619580  54.7033798  41.7163094  23.7763711
  30.5322754   7.0955888  58.4746599  31.4802372   7.1038667  58.3421993
  30.3308880   6.1892644  58.7075663  21.4417576   5.4766870  15.7722922
  22.3629688   5.2829528  15.9456988  21.2573694   6.2545371  16.2987681
  49.3153929  32.0588708  20.5173131  49.9555801  32.7692867  20.4760953
  48.4662556  32.5003362  20.4998322  59.1939163  43.6387491  51.3775444
  58.6414814  44.1075230  50.7520056  59.5906401  44.3280268  51.9102192
   7.1870947  38.6180496  46.7112446   6.3134909  38.4826326  47.0782852
   7.0309401  38.8150263  45.7876396  28.3814167  20.0596977  16.5159341
  28.7177872  19.7556949  17.3589440  29.0847896  20.6019092  16.1588546
  58.4016180   3.7811461  54.5045948  58.3228016   3.3022135  55.3296089
  58.0705404   3.1741098  53.8426876  16.4548159  54.5343781  51.9858599
  16.8535948  53.6808205  52.1550846  15.5126238  54.3717957  52.0313406
  38.2061409  53.1937433   3.5179492  37.5078653  52.6630807   3.1344958
  38.9977859  52.6685071   3.4011098  38.4416819  43.9884567  52.7356243
  38.4009409  44.0547276  53.6896563  37.5404787  44.1322613  52.4468422
  41.8593311  23.5594130  56.0188675  42.3362398  23.8041401  55.2258348
  42.5376320  23.4701109  56.6883183  44.0053057  29.5903087  16.9320985
  43.7518238  29.0542150  17.6834794  43.3101629  30.2442766  16.8590566
  14.7608005  65.9987863   9.8049375  15.6814348  66.1465248  10.0213738
  14.6082031  65.0792107  10.0224849  65.5770826  12.5899351  49.1343403
  65.0338936  12.3389661  49.8814583  64.9731588  12.5999737  48.3917713
  36.3226580  28.7871528   1.4544364  35.9621738  29.2519451   2.2095843
  35.5920528  28.7272764   0.8389207  66.8408155  60.3554344  35.3969073
  67.3543978  60.9878588  34.8944139  67.2795391  59.5179176  35.2474856
  67.6707756  48.6304840   7.7329751  67.7346384  49.1231975   6.9148131
  68.5666382  48.6075720   8.0693217   2.2145176  49.0266275  54.3945408
   2.5136089  48.6283207  55.2119303   2.6406813  49.8835182  54.3756771
  30.3567839  71.1098623  55.6891060  29.4070196  71.0645866  55.7992363
  30.6570482  70.2115774  55.8275366   3.6586630  59.9269303   4.9603625
   4.5481216  59.7698816   5.2772733   3.7149488  59.7955879   4.0138884
  64.1931438  37.8478575  50.9431171  64.1927195  37.4177456  51.7982388
  65.0146437  37.5719309  50.5366325  32.2177994  59.8678049  15.8091422
  31.3403999  59.8962602  15.4275819  32.0754826  59.6010503  16.7173406
  52.2442436  56.4571142  20.9744883  52.1328974  56.1523485  20.0739598
  52.5841331  57.3475266  20.8857036  54.7048067  59.4699026  47.7060815
  55.5905126  59.1281820  47.5836869  54.7785353  60.0645280  48.4525510
   1.9129372  40.8349609  52.1224785   1.6678667  40.0241470  51.6766644
   1.0786200  41.2557220  52.3301077  51.1544536  20.7225490  37.0541497
  50.6867241  20.1311231  37.6437875  51.1016725  21.5776134  37.4811192
  14.3798315  61.9683465  13.6207744  14.7054111  62.4886474  12.8862592
  14.1930782  62.6108703  14.3052598  17.1605921  49.9228430  61.7697906
  17.9491758  49.5214844  62.1348715  16.6521406  49.1863060  61.4303493
  72.3441957  12.2881961   1.0417672  73.2546591  12.5821519   1.0120221
  72.3952459  11.3804651   1.3411780  68.1972170  24.4462490  49.5530939
  67.9842663  25.1383924  48.9271355  68.5371017  23.7320447  49.0140009
  69.1068434  35.7669092  37.3957940  69.5128702  36.6319013  37.4520513
  69.6597647  35.2821803  36.7829724   7.7548849  54.4538435   2.9338904
   8.0284035  55.3541883   2.7583953   7.7507221  54.0329071   2.0742246
  44.4854652  52.4749752  10.0116940  43.6602604  52.9255899  10.1911899
  45.1019394  52.8429791  10.6447526  75.0020456  44.7017193  31.3024807
  74.9670649  43.8174963  31.6673875  75.7738066  45.0975561  31.7073679
  24.1407846  10.6365705   6.9309731  23.4549784  11.1864782   6.5521546
  24.5361542  10.1949811   6.1793681  70.9979319  22.7339149   5.9148284
  71.0025190  22.9957414   6.8355103  70.8331560  23.5460115   5.4356881
  72.1957182   9.4855285   1.7530652  72.4832415   9.1067291   2.5837727
  72.7565359   9.0741897   1.0954066  66.1630011  14.5551932  53.7376118
  65.3133821  14.2855334  53.3888054  66.4107704  13.8505089  54.3361616
  12.3052072  40.9309435  46.6289473  11.4991903  40.6583309  47.0674086
  12.0120001  41.2961864  45.7941675  44.5692492  28.5265541  45.9478378
  44.4993019  28.9618778  45.0982285  43.6839008  28.5640240  46.3097668
  62.3615360  11.0488641  58.5846567  62.1862555  10.1230431  58.4162426
  62.4452305  11.1075222  59.5363855   7.5603866  13.2832456  15.8160277
   7.5662493  12.4222875  15.3977605   8.4608792  13.4106374  16.1145469
  52.6866198  21.9432807  53.3133936  52.6265860  22.6651239  52.6876354
  51.9844198  22.1119118  53.9416552  10.6528532  64.2149075   0.4227229
  10.2657425  63.3402022   0.3871127  10.5805313  64.4715866   1.3420268
  24.4137466  59.6271630  56.7859840  24.2045486  60.2841004  57.4499893
  25.2930677  59.3264266  57.0152903  14.0428781  49.6741247  41.4729214
  14.4445467  50.3191566  40.8908319  14.2139578  48.8318777  41.0515165
  56.2922489  50.3363820   0.2368041  56.9160282  49.6116206   0.2798530
  55.4378521  49.9125346   0.1556130  48.4829962  55.2827259   6.9221898
  49.1555154  54.6637865   7.2065564  48.6623132  56.0782513   7.4234076
  30.7369375  39.9484015  51.4031839  31.4411020  40.3564501  50.8993292
  30.1267481  39.6225786  50.7415581  53.5542202  32.7368569  53.2145500
  52.6540947  32.9532743  52.9713106  54.0943241  33.2285452  52.5958729
  68.3928680  13.7192798  61.1350393  68.5044670  14.5331264  60.6436825
  68.1828451  13.0644131  60.4692507  10.8132088  51.0356566  31.7586156
   9.8881065  50.8369550  31.6139146  10.8067095  51.8053779  32.3275777
  50.0628780  39.7947717   7.2430392  50.7658600  40.1875472   6.7255708
  49.7577642  39.0585781   6.7127963  13.6201679  64.0508922  21.1438580
  13.3865940  63.6791095  21.9944116  14.4053900  63.5711368  20.8802434
  24.3231630  58.1527328  48.3488941  23.8185596  57.3861742  48.6209249
  24.9852514  57.8041315  47.7519464  69.1565966  15.2545762   4.4692584
  69.2246031  15.1185871   3.5242101  69.0836595  16.2036586   4.5700332
  36.3541710  59.2744860  13.9655133  36.9972145  59.9708399  14.0990277
  35.6930935  59.6652779  13.3941289  58.6197233  69.3387890  34.6207476
  59.3758821  68.9867258  34.1511679  58.0922413  69.7612333  33.9428544
  64.7174537  57.3861870   3.1017514  65.4393541  56.8421515   2.7869197
  64.1446316  57.4874052   2.3415776  57.6203966  54.5066738  41.8264866
  58.5180378  54.3734264  41.5219927  57.1447468  54.7993851  41.0491133
   6.5076363  23.2868425  38.3990288   5.9490883  23.1939832  39.1708016
   7.0972645  22.5338212  38.4380937  29.5568870   0.5611349  16.3722106
  30.4882502   0.4698015  16.1710807  29.4520639   0.1321602  17.2214623
  29.5636951  58.9772304  14.3714734  29.4862568  59.8621353  14.0148517
  28.8973295  58.9362677  15.0574084  44.5808411  46.1578894  48.2849121
  44.2986870  45.3885126  48.7795639  45.5368757  46.1118221  48.2951069
  56.3198709  52.3425341  45.6716681  56.2772322  51.9378376  46.5380573
  56.3613129  51.6040134  45.0641251  33.1682634  47.4697495  52.4028587
  33.8981867  46.9823217  52.7847719  32.5225496  47.5250816  53.1072903
  22.5620031  37.0175409  55.6019688  21.6850233  36.7304707  55.3475428
  23.1172514  36.7773509  54.8601913   2.6179016  50.0457200   9.8603499
   2.2738922  50.9312590   9.9774128   1.8470848  49.5133742   9.6636802
  56.0903740  32.9164362  54.8239660  55.2036238  33.1454587  54.5456553
  56.3421440  32.1928763  54.2501163  33.6456274  27.6925779  20.1327916
  33.0072330  27.8186345  20.8347913  34.1144012  28.5256410  20.0829240
  57.1543192   0.4979706  17.7163049  56.5154146  -0.0932026  17.3181172
  57.9633211  -0.0124096  17.7517339  72.2763895  19.0775562  24.3749448
  71.4257502  19.4302345  24.6362325  72.0668959  18.3928228  23.7397405
  26.4718555  11.3796068   2.1189710  26.0612606  10.5831600   2.4555942
  27.0640444  11.0721040   1.4326831  56.9275665  35.1016569  42.3857164
  56.9882154  34.7336388  43.2672548  57.5744629  35.8071017  42.3756409
  54.0553020  29.5258975  19.1114160  54.4703840  28.6885524  19.3182774
  54.5939039  30.1775718  19.5602628  72.6545561  70.3127127  50.1576090
  73.4539354  69.9114538  50.4984951  72.8475512  70.4857537  49.2361736
  64.5908617   5.7455421  11.4382335  64.7459577   5.2052951  12.2130319
  63.6623835   5.9731365  11.4868947  41.4259218   9.0412832  18.6851331
  41.1979507   8.3803583  18.0313464  41.0793327   9.8595691  18.3294412
  16.8532228  44.2891693  45.5680370  16.1613131  43.7323666  45.9250355
  16.8378592  45.0725460  46.1178732  65.4312515  57.8080368  39.6128631
  64.6612120  57.8868580  39.0497804  65.6418848  58.7090015  39.8580837
  37.3241590  17.1222568  18.7728520  38.0594467  17.4109769  18.2322808
  37.7114366  16.5061403  19.3946668  38.7612413   3.2666135  21.4959832
  37.9101919   3.4387088  21.0930844  38.9703535   2.3683978  21.2396451
  46.6444588  29.2376781  61.3543415  46.1286020  28.4719205  61.6068077
  46.0568619  29.9797940  61.4965582  55.1062107  19.8986375  38.5543633
  55.1989412  18.9965546  38.2479668  54.7931576  19.8146904  39.4550204
   7.3377430  59.0549668  10.1774712   6.9598209  58.4484133  10.8142587
   6.8949377  59.8865351  10.3467341  32.7716076  47.2926160  17.3007174
  33.2667171  47.2220310  16.4845582  33.4265243  47.5255915  17.9587718
  54.0724110   8.7526679  17.7377053  53.2292341   9.0052390  18.1138631
  53.9650177   7.8298927  17.5070926   5.1448273  21.7345119  13.0154963
   5.4394840  21.8968654  12.1193667   4.4385074  21.0951066  12.9232427
  19.3911575   2.2102785  17.3650046  18.6151718   2.6265479  17.7402373
  19.1338800   1.2975884  17.2344752  23.2363581  25.7758880   3.3311578
  23.9468359  25.2468515   3.6938878  23.1088613  25.4318548   2.4470683
  42.2918009  12.0060373  30.8370801  42.7739929  11.4753747  30.2029534
  41.3764309  11.7555976  30.7121392   7.3147726  39.5113468  34.0686154
   7.8334379  39.9172330  34.7632194   6.4449358  39.9000549  34.1609263
  30.1239109  60.6538391  59.8658562  30.2213430  59.8980522  59.2866087
  30.8451366  61.2350845  59.6245670  50.6971001  13.5460782  28.4012242
  51.6274237  13.6632610  28.5935517  50.3028511  14.3956972  28.5985776
  23.6842680  63.8036680  55.3438568  23.4999418  64.3403435  54.5729923
  23.4980822  62.9079866  55.0622129  60.9986960  66.1049470   8.1094190
  60.0816643  65.8557662   8.2242843  61.4858734  65.2909454   8.2370540
  10.2486813  62.7185806  14.3395873   9.8454964  61.8504962  14.3292113
   9.6710360  63.2443532  14.8928710  30.8373869  51.7587420  18.4175253
  30.6422365  51.7568143  17.4804318  29.9801767  51.7111655  18.8407922
  65.1947451  32.8287959  36.2227821  64.5526648  32.4438548  35.6263089
  64.6735668  33.3576083  36.8269014  21.7946196  10.8636034  10.3900671
  21.7135954  11.3177359  11.2287748  21.0311460  11.1492145   9.8883116
  21.7344427  14.2989457  55.1641369  21.2860537  13.4940743  55.4236746
  22.6424456  14.1656721  55.4361868   9.9310028  39.9964100   1.1872455
  10.0719606  40.6350016   0.4882737   9.2269337  39.4358909   0.8611556
  18.9171017  70.8881494  55.8496857  18.1394899  70.8508264  56.4066076
  18.6739862  70.3958879  55.0655890  57.4842584  26.8360796  61.5554543
  58.2444393  27.2100821  61.1099454  57.0707499  26.2785068  60.8963986
  37.9501867  11.6814196  43.4566259  37.8280115  10.8634222  42.9747677
  37.3473024  12.2971773  43.0399704  63.5345459  12.6969516  47.1767807
  63.6049318  12.9479241  46.2557507  62.6550913  12.3278832  47.2579193
  66.0003960  46.7369315   2.1253797  65.2522027  46.5860316   1.5477391
  65.8591616  47.6165720   2.4754067  39.9467098  25.0683936   7.5162478
  40.0930130  25.7314524   8.1909152  40.5855381  25.2756568   6.8342133
  19.6510590  47.9841002  37.7645350  19.2545021  47.2462233  37.3013830
  19.1276062  48.0764540  38.5605884  52.9730785  42.9287919  41.5206528
  52.9117573  42.7605589  42.4609566  53.6601341  43.5903700  41.4400053
  44.0896881  68.3702805  26.3863444  43.8751257  69.2329501  26.7413044
  44.7326315  68.5470100  25.6995940  58.5420895  12.8887498  42.6311588
  58.2491350  13.6164463  43.1796741  58.8917160  12.2478342  43.2502079
  13.6190521  47.8104350   5.3640862  13.5371172  48.7382862   5.1436063
  14.5601904  47.6388105   5.3319045  21.8005716  42.9241284  19.1906472
  21.6930830  43.8309583  18.9037057  22.6972782  42.6991215  18.9426251
  48.4738266  30.2243968  13.6899110  48.7877285  30.2509841  12.7860375
  47.5691139  29.9196121  13.6203929  65.1193714   7.6247793   9.0676939
  64.6183109   7.1260959   9.7130489  64.9313021   7.1942365   8.2337320
  31.1620939  66.2235018  27.4549961  31.3680828  65.6633415  28.2033420
  30.4604042  65.7616820  26.9960999  62.5701082  44.4678315  51.5467215
  62.3588503  44.0748127  50.6998825  61.8410910  45.0624474  51.7233467
  33.1246006  37.8244040  15.1110955  33.6540520  37.4148310  14.4268723
  32.6868927  37.0924073  15.5456325  51.1204481  17.3817849  21.3234687
  50.6126261  17.2757041  20.5190444  50.5218315  17.1158254  22.0214367
  17.8168404  49.8634764  12.1677895  18.7183201  50.1837906  12.1987601
  17.8151047  49.0971610  12.7413674  43.4840143  52.0269497  39.6008444
  42.8513372  52.4812277  39.0444469  43.0103052  51.8607219  40.4158306
  57.7122688  16.0843313  58.4792042  57.2313595  15.4445755  57.9541588
  57.1780825  16.1992383  59.2651272  48.1228710  53.4044945  61.1045565
  48.1093384  52.4548840  60.9850261  47.2321583  53.6242401  61.3776241
  35.3271794  22.1270490  31.5752578  35.1895404  23.0703473  31.4888024
  34.4491339  21.7674732  31.7016554   1.1061918  53.6391612  25.0448342
   0.2198469  53.9120850  24.8078843   1.5161430  53.4070953  24.2115708
   7.5324404  41.6888555   6.2927409   8.1458389  42.4168005   6.1923953
   7.2759735  41.4666441   5.3977128  36.7999721   5.4534751  45.0700665
  36.3277411   5.7781082  44.3033600  37.5951290   5.0586736  44.7121716
  75.2846920  67.4452409  10.6836053  74.5936787  67.8443583  11.2122222
  75.3063833  66.5315565  10.9681102  27.1467722  47.1204122  52.7381754
  28.0553854  47.3769148  52.5804949  26.6372002  47.9033359  52.5293732
  66.5732061  28.3869639   2.9703637  67.5281345  28.3405867   3.0172034
  66.3277018  27.6766565   2.3775550  17.6686632  33.5943302  15.5706950
  17.0860969  32.8348255  15.5715438  17.6753723  33.8920539  16.4803906
  70.8721161  10.5603945  41.1174440  70.0057602  10.9660757  41.0845661
  70.8472157  10.0052559  41.8968201  62.7641153   5.0438213  30.8743095
  63.6132765   5.2064216  31.2850571  62.1382475   5.5167150  31.4228463
  58.8823927  68.7178414  38.8823509  59.3782270  68.6077165  39.6936750
  59.1235197  67.9600718  38.3495522  50.5997312  63.5412749  22.2595998
  49.7345364  63.2323631  21.9908162  51.0054194  62.7824005  22.6788350
  48.3213699  64.7430815  54.2566061  48.6099995  65.6338700  54.4551516
  49.0114677  64.3868174  53.6970806  22.0835007  58.2630011  42.1746302
  22.0175064  57.3143013  42.0657873  21.4759052  58.6211678  41.5275002
  47.8749025  38.9277514  29.0172577  47.8285540  38.2866510  28.3079839
  47.7125967  38.4185442  29.8113608  24.5807958  28.1229496  58.9296579
  25.1569939  27.4488497  58.5693598  24.2378497  28.5802746  58.1618834
  75.2485991   2.1626499  33.3915615  76.1582279   1.8710585  33.4530592
  75.1368427   2.4064770  32.4727082   0.2514124  46.8440390  50.8807898
   1.0001755  46.2734842  51.0541630  -0.0471258  46.5888262  50.0078821
  11.0365438  17.1610069  57.5116253  10.1100874  17.1773708  57.2714996
  11.3314581  16.2833703  57.2687101  34.9752903  14.9988127  36.4541960
  34.6799207  14.4588709  35.7210851  35.9267020  15.0362802  36.3560033
   9.3374205  21.3499308  29.9365187  10.0595331  21.7630482  29.4631028
   9.7510767  20.6485605  30.4397106  12.0235311  45.6337145  25.5894586
  11.9309055  46.5307840  25.2686521  12.9640972  45.5257293  25.7305642
  57.1908569   6.2190461  49.4671202  57.2735310   5.8046347  48.6082458
  58.0147362   6.0173160  49.9106932  75.5308306  65.6203612   7.0955344
  75.6439125  66.4820632   6.6943904  74.6432983  65.3573665   6.8519183
  39.7007072  61.8119975  31.5010619  39.3589008  62.6713987  31.2544250
  38.9209450  61.2863978  31.6798115  68.2556772  59.1180038  56.4164543
  68.1795883  58.9540720  57.3564386  68.2479382  60.0719738  56.3383007
  61.2021494   7.9611427  30.9984970  61.7750549   8.7038159  31.1893988
  60.3213644   8.2821983  31.1918283   0.7549679  40.9966680   5.3819199
   0.6308996  41.1915007   4.4530078   0.4645836  40.0895732   5.4772540
  19.6725607   9.4617146  38.3893657  18.7779760   9.5559281  38.7166023
  20.2223444   9.5410883  39.1688943  26.3327646  12.0650923  45.7647991
  25.9479380  11.1940730  45.8621168  27.2419500  11.9578409  46.0442638
   7.3744440  12.9469681  23.6323524   7.3489809  13.9027357  23.6780858
   7.7698851  12.6779580  24.4615030  66.5882301  23.9098930  54.1626596
  66.2590837  23.2890391  54.8126078  67.0160103  23.3627868  53.5039425
  19.5063829  49.5872498  59.6098328  18.6647749  49.4136143  59.1881847
  19.3537378  49.3988466  60.5358124  16.8542242  14.6338403  56.5832043
  16.6104460  15.4971886  56.2493896  17.4233389  14.8179364  57.3304987
  16.7604696  45.4580822  16.1454078  15.9607422  44.9327078  16.1199256
  16.8084108  45.8634814  15.2796241  46.4017462  27.5339580  20.1311227
  47.2082113  28.0451370  20.0637456  45.8697342  28.0089450  20.7695504
   8.7062597  29.3160367  10.6873238   8.3296633  29.1344237  11.5483832
   7.9499388  29.4896507  10.1269019  17.5376844   8.6691535  54.5809364
  16.8821955   8.3981872  53.9381790  18.2182741   7.9982936  54.5263624
  65.8749151  22.5334883  45.7015371  65.9075451  23.1151485  46.4610338
  65.9133816  21.6521454  46.0729980  55.3802502  42.7292624  12.3532172
  54.8465263  42.1132829  12.8551503  55.2801716  42.4472758  11.4439841
  18.5859632  46.2483883  32.7177453  18.1218576  46.0432816  33.5293913
  18.4157896  45.4980087  32.1483541  68.5827292  66.6454338  49.4588804
  68.5869444  66.5251403  48.5092783  69.3745554  66.2000026  49.7602510
   8.7513590  70.6015651   2.4944945   9.2129087  71.1085479   1.8265315
   9.3554831  69.8934333   2.7176877  45.8137846   1.5916392  57.2635794
  45.5013657   0.7442006  56.9466019  45.1424170   2.2141381  56.9843102
  57.7509283   1.8015147   3.4449311  57.3310923   1.8394518   2.5855514
  58.1901430   2.6472736   3.5344716  67.8570986  27.3943830  45.6620550
  68.6558867  27.3786807  45.1348782  67.8976488  28.2263899  46.1335993
  45.6276596  47.9946335  61.1923361  45.5766857  47.3925551  61.9347191
  44.7306860  48.3078869  61.0759830  64.9070263  56.1985016  51.2506723
  64.6999311  56.2909842  52.1806145  64.7350550  55.2769089  51.0574913
  70.3888083  20.2958560  44.1954613  70.6194544  20.2691770  45.1240730
  70.1850796  21.2155700  44.0255976  17.6295614  39.8416495  36.0117936
  18.5494757  39.9205208  35.7592583  17.1626234  39.7296906  35.1837468
  46.3010895  53.8869890   5.3409501  46.4930665  53.5762926   6.2257310
  45.3905761  53.6330589   5.1902266  60.7172812  55.9716829  25.3825259
  61.0027636  55.0987884  25.1127410  59.8366964  55.8379634  25.7331419
  60.3683626  28.4360167   4.8530599  59.8307812  29.0895047   5.3004857
  59.7451603  27.7678111   4.5678349  54.4039606   1.7811942   1.1729165
  54.2990374   2.0315099   2.0908280  54.3436884   0.8259011   1.1767693
   9.2010736  16.6995120  49.8548365  10.1124620  16.8137681  50.1241827
   9.0844965  17.3196268  49.1350460  36.0408508  49.4105467  10.9027644
  35.8009064  50.3265270  10.7626315  35.9231197  48.9984735  10.0468608
  66.3047695  32.6856160  28.3037519  65.3668499  32.5485373  28.1705189
  66.7232609  32.1488380  27.6307273  26.5983772  64.9430513  58.7214708
  26.8334794  65.8390331  58.4802771  26.4557528  64.4995070  57.8853130
  66.6819096   0.3040405  52.5349712  67.1912909   0.2853457  51.7247820
  66.2118578   1.1372714  52.5031900  63.6213160  50.7259019  57.0525122
  64.0777910  50.9345659  56.2374544  62.7082956  50.6053122  56.7915869
  67.5222015  37.3706079  39.5957518  68.1854248  37.9432011  39.2103863
  68.0048513  36.5857577  39.8551559  29.8947287  24.7776413  58.8090563
  30.4250669  25.0207496  59.5679188  30.2455854  23.9309263  58.5330057
  51.0055542   4.1798854  25.1668096  50.8457422   5.1172674  25.0572300
  51.6396952   4.1270098  25.8818603  15.7402754  19.1179347  39.2958736
  15.5150652  20.0190902  39.5270252  15.7745409  18.6570728  40.1341248
   2.1847868   5.1508766  51.9883394   2.5834799   4.8004764  52.7848911
   1.5809202   5.8252650  52.2994328   5.5946339  57.9681047  52.6064205
   6.4168728  57.5191184  52.4100447   5.0861919  57.3291501  53.1058788
  23.2369387  39.9092358   1.1681577  23.9387857  39.9546796   0.5188676
  23.1113493  38.9725276   1.3199302   7.5335932  32.3653293  32.1671367
   8.4187937  32.3896599  32.5305319   7.1537638  31.5587234  32.5154924
   2.9306078  41.4053583  60.8599710   3.7398338  40.8973026  60.8028793
   2.2391844  40.7472897  60.9314346  17.0137464  43.3752992  31.8538876
  16.0759842  43.5104027  31.9902059  17.2125160  43.8639327  31.0551663
  43.9838839  20.9639478  51.5738153  44.3680334  20.2900171  51.0130310
  43.0556917  20.7350898  51.6218424  74.6957493  57.3103571  52.3217630
  74.8877954  58.0739784  51.7774868  73.7617922  57.1493196  52.1874952
  13.7883627  49.2790457  21.6028806  12.9164516  49.0845295  21.2591287
  14.3800079  48.7483856  21.0694142  71.3315523  58.6244329  57.2264957
  71.7036665  58.0871411  56.5271521  71.3032663  59.5083185  56.8601942
  29.3689871  21.5808725  46.7442369  29.8257112  20.7574844  46.9164705
  29.5778322  22.1328020  47.4978876  57.7203178  14.4796777  53.1399536
  57.0245886  13.8747859  52.8824711  58.0009365  14.1694510  54.0009069
  58.9614677  48.6965132  44.8202991  58.7152481  49.3195963  44.1366482
  59.5552921  48.0851603  44.3845844   0.7558203  26.5264869  45.3096819
   0.8543730  25.6171775  45.0274086   0.7192755  26.4781141  46.2649584
  73.4127092  14.6674407  20.1602149  73.7131596  13.9381874  19.6178579
  73.8107729  15.4417086  19.7623646  14.0877556   7.5806737   6.3298245
  14.0974330   8.5375858   6.3511868  14.9974035   7.3356748   6.1602565
  14.2672586  12.4660289  55.9154654  14.8240805  13.1157839  55.4865170
  14.8719263  11.7772782  56.1915684  34.6775352  35.8151981   5.8411618
  34.9146378  35.1519104   5.1930400  34.2660343  35.3209765   6.5501376
  69.5281506  15.1643598  36.0584211  69.7303200  14.2802668  35.7522511
  70.0399733  15.2626729  36.8612957  14.9892591   3.3967495   2.7121087
  15.4318880   4.0261054   3.2815143  15.6976580   2.8733969   2.3372622
  71.5472460  61.9492674  21.6449475  71.0329723  61.9415998  22.4522257
  71.5995932  61.0293722  21.3855648   4.0584648  52.8887483  27.0446062
   3.8283337  51.9914361  27.2856474   3.2165468  53.3255788  26.9158292
   6.9401514  67.6586327   3.7278434   6.5671741  67.3271760   2.9109879
   6.2079870  67.6547059   4.3444081  25.8938705  52.8606769   3.7844869
  26.2225210  52.7348038   2.8943320  26.4402496  53.5590514   4.1450091
  42.7362072  36.5168678  12.3833581  43.4360325  36.7617810  11.7779799
  42.1117413  36.0317917  11.8439313  16.3630856  54.1820463  21.6995358
  16.0423458  54.6455797  22.4731588  16.0907925  54.7289094  20.9626317
  42.5022577   8.0788112   2.2149821  41.9705652   7.2954727   2.3561307
  41.9587683   8.7982679   2.5362893  57.3882173   1.8565917   0.1708194
  57.3241686   0.9273315   0.3912898  56.4916300   2.1142221  -0.0436381
   8.2234251  50.4918858  31.3774701   7.7363073  51.1996123  30.9554788
   8.0193912  49.7161051  30.8551999  23.5068857  29.0750202   1.4500161
  23.8225948  29.5057293   0.6556292  23.6855900  28.1457725   1.3058062
  36.2665796  20.4162955  36.3236332  36.4239931  21.2675357  35.9151697
  35.4902124  20.0768733  35.8783531  40.5283869  60.2861830  45.1908922
  40.8683289  60.5173679  44.3264723  39.5785893  60.2588769  45.0752878
  61.6426802  32.2951198  41.9773149  61.2523365  32.8733134  41.3219118
  62.3335171  31.8300653  41.5053988  37.6237286  45.4353293  17.6820421
  36.6953075  45.2033194  17.7030206  38.0466879  44.6920737  17.2520292
  19.9576616  38.1326175  59.0133047  20.6544352  38.5540938  59.5163965
  20.2828932  37.2475481  58.8486481  69.4660675  29.1095796  24.3723794
  68.9586603  28.3711972  24.0353986  69.3240320  29.0858027  25.3186818
  64.8984658  46.1842665  26.2097379  65.4532587  45.8834883  26.9294377
  64.4124472  46.9236645  26.5748521  10.2915691  29.8946596   0.8337565
  10.8488487  29.2293811   0.4299375  10.1700901  29.5913864   1.7334815
  24.1930437  46.8077803  15.8719075  24.8213339  46.9196749  15.1584899
  23.5319471  46.2130070  15.5177593  17.0319128  35.2768159  60.4030800
  16.2537146  34.7315526  60.2876472  17.0570803  35.8270788  59.6202612
  38.9754093  55.6396016   9.2345577  38.0867899  55.7391592   9.5761406
  39.3162668  56.5329333   9.1897458  17.0462334  43.9087787   5.8031436
  17.6638662  43.3691021   5.3096791  16.7427694  44.5623800   5.1731034
  71.7459917  30.0489616  54.0938616  71.2181520  30.7090855  54.5431423
  71.1714840  29.7092700  53.4077215  70.5418491  40.0565720  23.8358712
  69.9213362  39.6049285  23.2638431  71.3596535  40.0703573  23.3386469
   8.6324739  40.4262543  44.6308565   8.0135012  41.0780907  44.3018913
   8.1947565  39.5870018  44.4884109  60.6911850  25.2640772  49.1055584
  59.7648954  25.0974226  49.2800617  61.1565065  24.6694732  49.6939039
  55.4495621   3.5368735  50.0420570  54.8591757   2.8247228  49.7960520
  55.3617287   4.1759145  49.3348455  40.6916153  56.7071661  13.1381293
  41.5989029  56.5623149  13.4066077  40.7276368  56.7439469  12.1823188
  22.3632097  18.0674076   3.0842143  23.1332636  18.6307085   3.0071658
  22.7020979  17.1805036   2.9626113  75.5557060  19.8669875  20.3508544
  75.4852057  20.2945971  21.2043238  76.0267353  19.0529656  20.5289865
  49.4420815  19.6061218  61.4683771  49.0292072  20.4154205  61.1670446
  49.4874811  19.7002733  62.4198532  47.0132637   4.9891594  37.2299147
  47.5613165   4.3529987  36.7703772  47.4687433   5.1441848  38.0574059
  28.2957733  66.9211634  56.7583942  27.4635113  66.8606435  56.2894535
  28.0480946  67.1219050  57.6609421   2.6110899  60.6684145  22.8322812
   1.6789686  60.8608302  22.7305051   2.6608908  60.1392611  23.6283704
  30.9431672  11.2602520  50.4255772  30.7594061  12.1622336  50.6880522
  30.8068466  10.7466316  51.2217188  66.5266562  21.6031337  37.2943258
  67.3148727  21.9575095  37.7058697  66.4311695  22.1071148  36.4861679
  49.5519924  51.7290258  40.3861284  48.6359978  51.8041468  40.1186514
  49.8108530  52.6234579  40.6079721  21.4770842  16.9321609  54.8344851
  20.6124830  17.0947361  54.4572878  21.5077066  15.9841883  54.9634933
  54.5821333  20.8148336  54.8532629  54.8549271  21.7276716  54.7608471
  53.6384630  20.8295250  54.6935797  62.1250200  15.4524970  28.4603977
  63.0658007  15.4475880  28.2839322  61.7392254  15.8715916  27.6911426
  57.0354628   3.5270095  11.0845872  56.5947603   4.1507078  11.6616603
  57.1819090   2.7559328  11.6325208  70.1577187  22.9478407  44.0190506
  69.7106791  23.4908557  44.6683025  69.8119164  23.2465863  43.1779766
  56.9595789   7.2451997  11.8939706  56.5054106   7.9432559  12.3658582
  57.7727579   7.6499439  11.5920564  71.9222700  49.7736463  13.2274743
  71.5280306  49.0897378  13.7688418  71.2163555  50.0551053  12.6454945
  17.8163207  15.4771006  30.3691149  17.0459998  16.0451353  30.3823352
  17.9408300  15.2638733  29.4443083   1.0097170  24.9215031  37.1765780
   0.2151966  24.9662924  36.6446376   0.9050465  24.1248775  37.6968288
  44.4332504  28.4473801  21.7507505  43.7793827  28.1561422  22.3862600
  44.7447634  29.2847514  22.0942616  12.2551870  23.4371519  59.8297501
  12.0593882  24.2612529  60.2755690  12.5572252  23.7009120  58.9605904
  35.7580078  64.0703543  48.0296993  35.8154333  63.4839704  48.7840796
  36.6565693  64.3689462  47.8894854  71.9041395  37.8544807  58.7660742
  71.0785103  37.5995541  59.1778755  72.0182228  37.2287774  58.0507326
   5.1926672  67.8057107  10.5811234   5.9128534  67.9869231  11.1850520
   4.5409929  68.4790167  10.7766028  69.0533411  27.5341352  11.6634866
  68.7428057  28.4345474  11.5683194  68.7586843  27.2700175  12.5350686
  23.8059961  64.2803868  13.1661817  24.4238054  64.9553260  13.4472581
  23.1576836  64.2413291  13.8693162  39.3018268  14.1234947  16.9984599
  38.6250090  13.4563804  16.8839761  39.2701649  14.3393302  17.9304715
  26.4848280  28.8238430  60.5613470  27.1058702  28.2092857  60.9523153
  25.9750223  28.2925940  59.9497080  57.2705149  11.4144016  12.8179093
  56.6557859  11.2870813  13.5404893  56.7154097  11.4912677  12.0419093
   2.0222628  55.8683595  10.4325219   2.2122633  55.1403555  11.0242482
   1.1365997  55.6934854  10.1143094  43.4172678  14.4800150  48.5277128
  42.8704786  15.2323866  48.7539673  43.3337927  14.4003820  47.5774908
  71.4147722  70.3841719  15.4460021  71.6068708  70.6936845  16.3311740
  71.3948976  69.4304284  15.5247994  31.6514540  23.0261469  19.1865027
  31.9298983  23.5249591  19.9545419  32.3557234  22.3939085  19.0432870
  34.9030865  57.4946316  43.6261702  34.1288937  57.0061632  43.9059114
  34.5697535  58.1287118  42.9912996  61.3582563   8.6249936  51.3670397
  60.5605793   9.0873134  51.1097383  61.4677906   8.8343245  52.2946215
  69.9749660   5.2254522   6.9851106  69.7953510   4.6773398   7.7490103
  70.6873131   5.8003211   7.2649646  55.0516033  20.7109904  17.8229678
  55.6268740  21.2486196  17.2786808  55.5836105  20.4888773  18.5870790
  26.9228279  52.0348581  27.5726434  25.9984123  51.7990908  27.4945374
  27.3906242  51.3111111  27.1560021  10.1023733  58.3198294  10.0929042
   9.2051088  58.6076173   9.9245807  10.0391066  57.3673471  10.1636668
  68.5503340  26.0622287  54.2619991  67.8740549  25.3872991  54.3198442
  68.4341955  26.4437056  53.3918190   3.8168287  17.7948868  58.2647705
   3.2493734  17.9937041  57.5199890   4.5683622  18.3775532  58.1555414
  57.3828030  35.5218887  32.9669976  57.0007277  35.7178235  32.1115088
  56.8239212  35.9853816  33.5907435  13.2606518  31.0996282   6.8276044
  12.4513733  31.6108027   6.8273040  13.1702196  30.5075153   6.0809728
  22.8166819   2.9188475  45.2831078  22.6167726   3.7171280  44.7942162
  23.7084818   3.0517799  45.6044340  26.0774958  50.0636312   3.7760755
  25.2720606  49.7433182   4.1821643  26.0495436  51.0118338   3.9039966
  24.4789564   7.4551376   1.0261031  23.6674940   6.9935044   1.2374183
  24.5954716   8.0761084   1.7451640  23.4127558  63.8078704  17.4013376
  22.8401316  63.3591058  18.0233860  24.2557228  63.8664295  17.8510141
   8.1355715  54.4590998  55.4795694   8.8414240  54.1305733  54.9227190
   8.5094500  54.4667196  56.3606977  16.8872690  22.9349017  43.9188433
  16.5663195  22.0834279  43.6218357  17.0612383  23.4199524  43.1121874
  34.5909321  68.5770401   3.0741139  34.7157204  69.5187529   2.9564925
  33.8464081  68.3620700   2.5122376  71.4273369  58.5623702   5.3203269
  71.2865698  58.2487663   6.2136765  72.1182978  59.2195782   5.4032823
  50.1586294  21.8604803  34.4606280  50.0259399  21.4312029  33.6154389
  50.3955412  21.1493111  35.0558949  17.2904444  52.2957659  41.8954182
  17.0563555  53.2238483  41.9055176  16.7483187  51.9045448  42.5804520
  65.6206263  57.9572388  58.9063597  66.1981428  58.6506756  59.2255068
  65.6350840  57.2960886  59.5983887  13.2150125  29.4518304  20.0950217
  13.6987829  30.2777863  20.0945759  13.3359575  29.1039014  20.9785080
  46.9295443  65.6795617  48.7802219  46.5682114  65.3350922  49.5969296
  46.4661921  65.2011432  48.0927229  38.1032823  23.4850335   8.2839080
  38.1372522  22.6647210   7.7918073  38.7870859  24.0280652   7.8917809
  75.8033848  58.6480665  56.4743185  76.1745596  58.9959908  57.2851229
  75.2987385  57.8831434  56.7508221  35.7198727  63.8687810  10.2965756
  35.9985935  64.7845014  10.2964993  34.7638142  63.9094218  10.2734490
  53.9295387  40.3585386  54.1154337  53.7967873  41.3057899  54.0791082
  54.1029167  40.1762247  55.0389814   1.9554043  44.2489910  53.5561895
   2.1071529  43.3042908  53.5833216   2.6257133  44.5822144  52.9596329
  34.8392891  53.8643670   7.5446053  35.3711819  54.1447378   6.7998143
  34.2388128  53.2147336   7.1790429  71.3796425  54.1272497  30.6743765
  71.7778158  53.2572842  30.7035470  71.6053057  54.4649982  29.8076391
  68.8852358  24.1509199  41.8493700  68.0965376  24.4610786  42.2943306
  68.9704800  24.7228479  41.0865688  20.1367199  63.6727508  11.8256112
  19.8156273  63.5008177  10.9404155  21.0375797  63.9708861  11.6999265
  46.9885706  13.2033611  19.1904756  47.4003242  12.9984355  18.3510133
  46.5507006  14.0418649  19.0441152   1.9180548  44.5274803   9.1712066
   1.7653810  45.2134946   9.8210593   1.0423958  44.2788103   8.8752051
  53.2540203  63.2779383  58.8854651  53.1544090  62.7372956  59.6690563
  54.1486050  63.1088137  58.5899169  13.2255316  36.1305857  33.6617327
  13.2852793  36.7767167  34.3654203  13.9399576  35.5182743  33.8374972
  28.8704157  46.6499233  55.5252266  29.3099928  46.8661785  54.7028828
  29.5810080  46.4157057  56.1222553  67.3765135   6.1079454  57.0738745
  67.7900648   5.3226262  56.7154312  67.3299265   5.9453326  58.0160093
   6.2747240  18.3905065  33.6451674   6.7897844  18.1573927  32.8727674
   6.8436670  18.9762712  34.1445851  51.9739056  62.9786253  18.3680320
  52.4637032  63.1950235  19.1614425  51.5632725  63.8031435  18.1076884
  59.3601418  49.3682718  25.0901985  59.7087336  49.8770142  25.8222485
  59.5648432  49.8919964  24.3155766  54.3896580  17.1802402  13.7399399
  53.6237288  17.5095069  13.2696545  54.6135283  17.8803992  14.3530393
   8.6441219  70.4634914  57.2774792   8.5348785  71.1777190  57.9053164
   7.7930534  70.0256706  57.2623110  56.1973333  31.6812706  11.1761665
  55.6441355  30.9001637  11.1851978  56.8085003  31.5503168  11.9011176
  45.2500820  34.6014404  23.9797807  45.0374413  35.2997875  23.3606482
  44.4179296  34.3986416  24.4071293  25.1760733  55.6776270  10.4091235
  25.7633984  55.7098850   9.6539756  25.6780397  56.0760173  11.1201402
   5.3354513  55.2170583  15.0459405   5.5029308  54.9582299  15.9521361
   5.6394159  54.4740888  14.5245620  62.6219248   6.2109638   3.6322137
  63.0913710   5.9208608   4.4143220  63.2018541   6.8582702   3.2310840
  40.3925335  68.1205090  16.0007497  40.7365906  68.9051804  15.5739613
  40.5803692  68.2514891  16.9301577   0.6618166  22.4352908  38.2651114
   0.7714558  22.3143959  39.2082953  -0.2454042  22.7234554  38.1644320
   2.5354910  62.6902962  48.1887770   2.2442627  62.1750212  48.9410448
   2.1358204  63.5503531  48.3183956   3.4515762  56.6824150  56.6577673
   3.4374857  56.5232754  55.7139921   4.3765497  56.8166685  56.8642378
   2.3719072  20.0246716  25.9393215   2.2372007  19.7480822  26.8457341
   3.0912256  19.4763744  25.6259799  62.3397541  62.5981665  29.5411706
  61.6916227  63.1725264  29.9489307  62.0502853  62.5175571  28.6323571
  56.1136580  19.5428813  43.7473869  56.0454512  19.6494734  44.6961832
  57.0519543  19.4474006  43.5839319  60.4420090  62.5890160  57.0993996
  59.7375822  62.5828218  57.7474594  60.2449036  61.8496466  56.5243196
   5.9948492  50.5334949  55.9331608   6.7146158  50.8399677  56.4847326
   5.6676054  49.7520733  56.3787222  17.8633177  51.7766460  15.4324742
  18.0306065  51.2661370  16.2247058  17.4640333  52.5867864  15.7494517
   5.8490610  41.1257124  57.3417139   6.1296701  40.8382416  56.4728975
   4.8941088  41.0648346  57.3172998  27.0416605  51.7890855  21.8157597
  26.9159138  52.7333554  21.9094296  27.4799358  51.5244326  22.6245233
  19.8580563  63.8587746   0.4645797  19.6999466  64.5778116   1.0763188
  20.1672184  63.1394419   1.0152265  59.3272257  18.3304775  58.7197065
  59.9150562  18.2297730  59.4683981  58.7767220  17.5476956  58.7404299
  21.6643667  56.0022163  40.7537222  21.5303373  55.0561857  40.8110476
  21.7644834  56.1736345  39.8173332  65.2874231  41.2935114  14.4579089
  65.7373047  40.4737663  14.2533100  64.4167757  41.1913109  14.0735149
   3.9851475   9.1209626  26.7811871   3.6340380   8.6425865  27.5322604
   3.7512875   8.5836035  26.0243630   2.9066181  26.9876337  26.0633945
   1.9861031  26.9047737  26.3124299   3.1858730  27.8171015  26.4509988
  34.1042793  55.4978927  26.9812655  33.5414207  56.1716457  27.3626828
  33.8086498  55.4243537  26.0738349  56.1085463  20.1568532  60.3459692
  56.0543489  20.4001641  59.4217968  56.4680338  20.9321856  60.7770872
  26.1789024  66.0954901  13.5308945  25.6897963  66.5948581  14.1848350
  26.0205401  66.5585499  12.7082598   7.0546865   7.9522926  15.7262218
   7.6263285   7.7405983  16.4642143   7.1174288   8.9035183  15.6398225
   1.9055044  29.0751513  29.4466229   2.3188507  29.7886911  29.9326631
   2.6151192  28.6960187  28.9280339  53.3737040  14.9580479  60.9982586
  52.8557825  15.7516420  61.1331367  52.8215742  14.2517924  61.3337946
  37.6350021  12.6205504  34.5556974  37.5058818  12.3988736  33.6335158
  38.4056401  12.1167624  34.8175073  27.8119135  14.3824363  29.9494886
  26.9875097  14.6988130  30.3189325  27.5530481  13.6805999  29.3522906
  27.5747753  46.6597411  14.9472161  28.1815594  47.3683032  14.7327777
  26.8896451  46.7214641  14.2816182  20.7517289   3.7013388   8.7429543
  20.5984353   4.1516304   7.9123135  21.3274812   4.2895484   9.2315741
   9.2793082  30.8611751   6.9971677   9.8444675  31.5701461   6.6902705
   8.4418129  31.0163618   6.5604182  12.3468316  28.6444139  50.2795506
  11.7056549  29.3265986  50.0801802  13.0698192  29.1105580  50.6993484
  20.2725201  68.2737430  29.3502828  20.1906120  68.0450758  30.2761479
  20.4054483  67.4356231  28.9074250  64.9692749  20.0809551  21.6267701
  64.8466324  19.4201160  22.3083039  65.3455912  20.8317256  22.0860787
  48.9718245   7.1443439  20.0295182  49.1515795   8.0675054  20.2075311
  49.6801051   6.6734147  20.4685994  74.9884235  58.3173808   9.6421786
  74.6316826  58.9339551  10.2815553  75.9367954  58.4326967   9.7015496
  27.7844620  25.4291224  53.8910913  28.3937716  24.9033213  54.4092655
  27.8107810  26.2956190  54.2969465  22.1448916  37.7380533   2.5744124
  22.4777132  36.8902408   2.2800036  21.4206194  37.5203889   3.1611701
  63.8109457  56.2924727  28.5089322  63.1878387  56.7905888  27.9799195
  63.3536398  55.4766652  28.7127896  29.9317646  55.6404492  19.7735520
  30.4796153  55.3513595  19.0438195  29.0371504  55.4494068  19.4917794
  75.4507362  54.9725219   9.0159007  74.5463192  55.0448796   9.3209096
  75.5108988  55.5983969   8.2941695   4.0204167  33.7404418  60.9755373
   3.7577933  33.0052447  61.5293837   3.2023203  34.0542173  60.5901861
   3.5881090  39.0482497  56.6594362   2.7097893  38.7660837  56.4041519
   3.7577063  39.8207045  56.1201954  31.3036846  25.6618667  23.7480184
  30.4445194  25.6920362  23.3271142  31.6221165  26.5636278  23.7073537
  45.9315907  41.2464264  23.5888883  45.6608068  42.1613547  23.6651441
  46.1098539  41.1263522  22.6561280  56.3768487   4.6373582   4.1704675
  57.2507249   4.3565202   4.4419547  56.5230273   5.4640413   3.7106248
  45.4424083  70.1785025  22.4376412  44.9244999  70.7093223  23.0428143
  45.8466732  69.5102009  22.9909726  26.6354227  31.9544315  56.7217064
  26.8366909  32.8881693  56.6595697  26.5295601  31.7941213  57.6594305
  35.7726395  60.7164606   3.2523175  35.1776802  60.1360830   2.7775403
  36.3786995  60.1250848   3.6986323  73.2474697  13.6189651  41.8905926
  74.0372700  14.0107691  41.5178490  72.7812266  14.3534613  42.2898006
  44.8718475   1.1263919   8.8135930  45.2684372   1.8773747   8.3720323
  44.9855726   1.3094187   9.7462197  14.5898616  45.2929211  61.2367249
  14.0810907  44.8011303  60.5921078  13.9645326  45.4930496  61.9332457
  52.7915561  61.2223300  16.2606641  52.4813663  61.8244919  16.9369908
  53.7217152  61.1043581  16.4533301  15.8854353  20.5894256  59.5466757
  15.5181491  20.7991099  60.4053783  16.3122630  21.3984609  59.2646980
   7.6468837  52.6664122  29.8772927   8.5988104  52.7381441  29.8071309
   7.3154628  53.0984410  29.0900536  75.1699232  22.4006963  25.8954831
  76.0197352  22.4527097  25.4580518  75.3689217  22.5346923  26.8221303
  29.8508286  67.3858643  60.9773922  30.2060032  67.3677111  61.8660736
  29.9451160  66.4865732  60.6633568  10.2156329  41.5581942  49.3692160
   9.5820433  41.1440039  48.7833500  11.0658526  41.2391472  49.0666199
  49.0658080  54.9749705  28.3922978  48.8480985  54.1268011  28.7788697
  48.2214415  55.3438338  28.1330224   4.8267329  45.1070404  32.7966452
   4.6291071  44.4935322  33.5043049   4.9935091  45.9386873  33.2402468
  51.4019244  12.9868675   2.4038573  52.1642058  13.5620380   2.4696942
  50.7547383  13.3788848   2.9901191  65.8437990  20.2723098  52.5538083
  66.1016439  20.0695777  51.6545602  66.4966010  20.9050775  52.8532811
  24.8058057  11.9306338  31.5561032  25.5828857  12.3509634  31.9244766
  24.0715265  12.3477495  32.0067501  49.3383538  42.9347464  19.6735021
  49.2879784  43.1699940  20.5999680  49.6737444  42.0382294  19.6719190
  53.5161518   4.6573520   6.7042275  52.8092613   4.5103097   7.3326512
  53.4521454   3.9216280   6.0952588  13.3828950   2.4748725  38.4989953
  14.1043651   1.9945823  38.0927515  13.2761550   2.0655803  39.3576670
  17.7865553  71.3417625  52.6090145  17.8699565  71.2115049  51.6643953
  17.6568043  70.4613972  52.9616547  43.5756176   8.0065656  31.5020009
  43.8401066   7.5248409  30.7182809  44.2433142   8.6849761  31.6028710
  29.7424489  26.4142665  16.3479777  29.7695687  25.5418166  16.7408200
  30.5027943  26.8657013  16.7144652  72.4257430  27.8284526  55.8368778
  72.6493174  28.4347725  56.5430069  72.4648359  28.3610630  55.0425005
  26.8804839  62.3785814   7.1622868  25.9958625  62.6930078   7.3488685
  27.2078485  62.0692595   8.0069085  70.5589449  61.9703540  10.2774402
  71.0807192  62.5655302  10.8157178  69.6877300  61.9908031  10.6734200
  50.6969198  14.0172077   9.9644586  51.0355736  13.6665845   9.1406842
  51.3997224  14.5778537  10.2930566   7.5736402  21.2906576  23.7918969
   7.1939539  21.0973192  24.6490403   7.5167917  22.2429920  23.7140580
  46.4360549   8.5794425  27.1479054  45.6353175   8.0550504  27.1399709
  47.0103099   8.1493497  26.5142842  60.3798949  14.9430967  23.5853311
  59.5907973  14.4169498  23.4560033  60.9683870  14.3742395  24.0816232
  34.3548130   2.6675535  17.8481074  33.8152002   2.7908516  18.6290379
  34.9231647   3.4374309  17.8257056  45.8812832  10.4416585  13.5069533
  46.0937338  11.1997915  12.9625960  46.3230016  10.6127143  14.3387338
  42.2472177  34.4280109   6.9640104  41.9445978  34.2429480   6.0749666
  41.4602648  34.3577370   7.5043814  32.3160135  68.4462580  12.0142909
  32.9260224  68.9912685  11.5172168  32.8676784  67.7760443  12.4176665
  26.4347052   3.3223462  39.6039887  27.2141861   3.1973410  40.1452943
  25.9447597   2.5053525  39.6973058   9.7691059  53.2371664  57.2889900
  10.5909085  53.6159277  56.9768810   9.8899847  53.1486464  58.2343912
  69.1836690  10.6367898  16.6812249  70.1380025  10.7107997  16.6827174
  68.8759982  11.5009189  16.9548198  31.2871313  42.1335077  55.6661081
  30.5901980  42.7702236  55.8245659  32.0764470  42.6641941  55.5584669
  54.9645233  70.0366068  58.7919950  54.3167400  70.1943111  59.4788265
  54.7528315  70.6758976  58.1117535  22.2733140  68.0318451  50.1033115
  21.3564110  67.7679253  50.1799202  22.2805142  68.6678886  49.3880320
  51.2016909  20.9050870   3.5486241  51.9085414  20.2944208   3.7576314
  50.9407516  20.6734062   2.6572963  66.1734211  34.6662144   7.8634950
  66.3784897  35.3006984   7.1767541  65.6808674  33.9787694   7.4151107
  46.0180842  55.2282914  24.9074384  45.2967989  54.6562072  25.1695367
  45.6889426  55.6909677  24.1368314  38.5536360  68.4000715   4.0191527
  37.8646254  67.7381572   3.9611550  38.9824545  68.2266268   4.8571654
  10.3674196  45.0070119  44.1249200   9.6758102  44.5061803  43.6924001
  10.6673860  44.4382310  44.8339578   4.7140241  44.4285202  54.7440720
   4.5463333  44.8912907  53.9231205   3.8811976  44.4657516  55.2144384
  43.2094193  36.7254663  60.9780836  43.0447054  37.1708107  60.1469564
  44.1284513  36.4620900  60.9306669  71.1731862  44.2537809  21.3447114
  70.5720948  44.3888784  22.0772859  70.8876299  43.4301448  20.9493466
   4.5925259  14.3257976  50.3170796   5.3708505  14.8478103  50.5118771
   4.9181651  13.5994697  49.7854443  51.1937153  57.9916176  61.7766877
  52.0040643  57.5140675  61.9542046  50.5966055  57.3292097  61.4289685
  72.9934644  46.2057329  32.5225182  73.4717034  46.7630220  31.9085523
  73.4000443  45.3440690  32.4305077  71.8202042  33.6092353  18.1894799
  71.7230319  33.4093881  17.2584315  71.1903261  33.0347705  18.6247655
   1.9776880  47.4531778  35.7486363   2.7508890  48.0093786  35.8436986
   1.6189205  47.6860758  34.8923226  73.7976693  13.4566236  15.5143948
  73.7958907  13.3333516  16.4636203  73.9481758  14.3943382  15.3949281
   1.2606572  16.9335103  32.0069428   0.5917882  16.4969898  32.5344773
   1.6908931  17.5345064  32.6151677  72.4262761  17.4686027  34.7434159
  71.5377473  17.3211408  34.4193765  72.3039745  17.8458524  35.6145974
  43.6281776  23.9578080  53.6521864  44.1336775  23.4161139  53.0461550
  44.1414547  23.9561033  54.4601345  39.2069184   1.0404683  28.3300610
  39.5829498   0.9856320  29.2085954  39.8618280   0.6328416  27.7633401
  10.2219355  50.0094652  57.8445148   9.2823863  50.1914692  57.8633261
  10.5768478  50.5057335  58.5820675  41.1200498  16.5039230   9.2658015
  41.9898533  16.7259431   8.9335605  40.6041025  16.3184667   8.4811803
  51.8026114  56.1183882  39.5241213  52.4209547  55.7883930  38.8722110
  52.2436047  56.8745995  39.9112940  15.7913660  21.6440034  26.2133523
  16.1244129  20.7672954  26.0217877  16.2885450  22.2210479  25.6336423
  68.1173979   7.7989793   4.7319146  67.1666335   7.6927495   4.7634240
  68.3417689   8.1983161   5.5724021  52.2368943  70.3690561   1.5692016
  52.1602475  71.0972532   0.9526893  52.8631579  69.7727116   1.1588355
  62.2718810   8.1612277  25.0527688  61.6418766   7.4705863  24.8470136
  63.1219231   7.7865339  24.8219796  16.8704044  67.6922902  23.6060449
  17.1199989  68.4016618  23.0138226  17.5968819  67.0710954  23.5552712
  70.3362929   0.6229997  29.6964093  70.1438021   0.5559135  30.6316491
  70.0911938   1.5189076  29.4650956   9.7613667   1.8285990  23.0120393
  10.2687167   2.0512557  23.7925931   9.0859913   2.5052214  22.9642983
  12.5640654  12.1660829  10.1246282  12.0819973  12.6588703   9.4605466
  13.1790041  12.7999378  10.4938241  46.2555205  52.4010202   7.8111669
  46.7452943  51.5903469   7.6727363  45.7308232  52.2331556   8.5939475
  28.7430024  57.6447535  52.5945950  28.1886673  57.6520109  51.8142796
  28.8372469  58.5677481  52.8300333  58.3622694  51.0719633  60.2638674
  58.2182884  51.8516207  59.7275448  58.6888170  50.4151678  59.6488762
  67.2486710   0.1699496   7.3763343  67.5539874  -0.4464984   8.0419179
  67.0303511   0.9627366   7.8662892  52.3211441   1.3542176  26.0884019
  52.7495130   2.1239257  26.4629479  52.8766607   0.6199098  26.3499852
  63.5568785  15.8731628  21.2889977  63.9305006  16.6259647  20.8308240
  63.1598507  15.3444219  20.5968686  30.2640175  14.0540433  16.7291137
  30.8962177  13.5312772  17.2223350  30.0669788  14.7949863  17.3021861
  49.6511126  46.1593151  51.1620235  48.8641262  45.9146500  51.6488695
  49.8037863  45.4240894  50.5684185   5.6595361  58.1748533  27.1142769
   5.3028965  57.3789978  26.7197490   6.5997279  58.1275082  26.9409847
  75.1467632  13.8731981  11.4366885  74.6161126  14.6657873  11.3564082
  75.3188180  13.6076379  10.5333014  13.0848931   4.1444612  23.3729573
  13.2640528   4.3313051  24.2944833  12.2606849   3.6578298  23.3830758
  55.0789713  12.4778629   4.1609736  54.9237131  13.1112171   4.8616763
  55.5557608  12.9712034   3.4935018  68.5774278   7.4890209  41.7383691
  68.5772883   6.7872215  42.3892995  69.3266391   7.2935701  41.1755963
  70.8086871  17.9299713  14.6805831  70.9360813  18.8636423  14.5124694
  71.2608050  17.7719570  15.5093499  11.7613434  37.5175310  31.8514176
  11.4865302  36.8149019  31.2623330  12.2409939  37.0711732  32.5492307
  69.1195166  26.0915222  28.9814874  69.2672884  26.9430652  29.3929120
  69.9926674  25.7945725  28.7252446  22.4937986  10.0437093   2.1905108
  22.4061083  10.6523586   2.9240533  22.9555725  10.5442453   1.5178557
  37.9381072  46.0119423   7.1279832  37.2734272  45.4270789   7.4918004
  38.7012755  45.8875927   7.6922007  67.8553854  32.4035907  19.6245023
  68.6639093  32.8697896  19.8370667  68.0089795  32.0437503  18.7509175
  17.1926569  54.3437549  30.8362409  17.0940756  53.3926317  30.7928868
  17.1873408  54.5426687  31.7725297  39.9949335  27.2435594  26.5689870
  40.0770973  27.8428150  25.8271142  40.8614229  27.2457099  26.9757195
   6.7587625  53.0120107  13.6201259   6.3345825  52.3164662  14.1226455
   6.6350471  52.7566072  12.7059670  37.2164655  58.5855722  56.8897295
  36.6750121  58.1376410  57.5396681  36.7983842  59.4392347  56.7770290
  20.4294642  53.0093476   9.7057458  20.8454948  53.8689228   9.7711678
  19.6745377  53.1514772   9.1346808  56.5150135  47.5267339   4.3956681
  57.3103188  47.9214216   4.0379783  56.7008542  46.5879274   4.4139167
  33.7616598  65.4552111  16.5116139  34.7160470  65.5215415  16.4803525
  33.4524893  66.3196572  16.2407323   7.1037387  33.8587594   6.1110421
   6.3668870  33.2533813   6.1935016   6.7210316  34.7234893   6.2593718
  62.5915181  32.7959466  22.0035859  63.3123576  32.5002838  21.4475175
  61.8151580  32.3768449  21.6323014  19.0646767  28.1658388  25.3318807
  19.7339844  27.5303769  25.0780221  18.5258650  27.7028251  25.9733888
  29.8383974  27.2212625  20.4159470  30.3813528  27.0762611  19.6410867
  29.9410604  26.4224458  20.9332391  44.1285133  15.1660100  51.5634537
  44.2235970  15.0212137  50.6220627  45.0253021  15.1625291  51.8981028
  34.9605327  52.2207781  10.4631635  35.1029753  52.8617844  11.1596223
  35.0176316  52.7293285   9.6542474  47.8462612  69.2355713  34.1400357
  48.6792719  69.0366658  34.5675393  48.0792129  69.8287972  33.4258576
  64.5470440  63.2217606  28.1418630  65.1994812  62.5234159  28.1954499
  63.8919126  62.9884585  28.7995835  17.7333277  61.8775877  25.1896020
  16.8532568  61.5461596  25.0110932  18.1543183  61.1804899  25.6926461
  22.4889540  31.0642887   3.1293794  22.6515077  30.4265952   2.4342795
  23.0494427  30.7797885   3.8512822  13.2942461  28.7419534  45.3441068
  13.7893652  27.9445672  45.1563188  12.8670572  28.5667587  46.1825868
  61.1017262   0.4420019  15.8985253  60.3614878   0.0930262  16.3950082
  61.1231910  -0.0839591  15.0990649  48.6591041  61.9980678  48.5293885
  49.4622600  62.3711118  48.1660577  48.6228620  62.3338469  49.4250222
  66.2568735  12.7891422  19.9783822  66.0149585  12.6163745  20.8882543
  66.5484904  13.7008357  19.9770661  15.6063675  10.2325988  29.0267297
  15.0884270  10.2107788  28.2220574  15.8874344  11.1441589  29.1060086
   7.7509545   8.2932067   8.1275245   7.2856258   8.6785436   7.3850842
   7.1068953   7.7190757   8.5420009  24.8184412   5.7808677   7.0975888
  24.9157753   4.8862688   6.7713207  23.8875153   5.9754077   6.9891328
  70.0433886  38.0012941  48.1228542  69.1146326  38.0010009  47.8912401
  70.3281850  38.9021921  47.9695415  68.6320924  19.6463466  11.5801831
  69.0827011  19.7850013  10.7471391  68.5086202  20.5266881  11.9351312
  66.7477512  49.8390627  57.7376366  66.1043406  49.1729021  57.9794741
  67.5926828  49.3966866  57.8190231  60.2559328  60.9498978  59.5294428
  59.8628092  60.1781559  59.1218901  61.1950588  60.7648802  59.5364428
   6.0436701  19.0652824   8.3114310   6.6963815  18.4543348   7.9694577
   5.8476614  18.7394405   9.1898604  55.6905782  57.1182617  45.2861901
  55.2105462  57.9059252  45.0304910  55.1955163  56.7655262  46.0256024
  18.8424419   4.5345760  27.2281667  18.7302612   5.2082277  27.8988667
  18.4075474   4.8924232  26.4541837  48.2810604  67.5457677   8.2235881
  47.6337754  67.8921255   8.8378259  47.7640116  67.0688328   7.5744172
  62.0060765  22.0699152  12.7020093  61.6831958  22.8096017  12.1873780
  61.4598023  22.0683822  13.4880229  45.3933477  65.1729918  58.7873745
  45.1637220  65.1169538  59.7149324  44.5524931  65.2515650  58.3367968
  20.6600975  19.9865461   5.1711770  20.8222793  19.7067380   6.0720893
  20.7662033  19.1904807   4.6503564  51.7763233  46.4276409  52.6516533
  51.2347221  46.2933969  53.4293890  51.1928320  46.2359762  51.9174576
  29.1010615  16.6505464  10.2601596  29.3402880  17.1730217   9.4946404
  29.9089217  16.5886029  10.7698270  37.1597171  67.7626896  54.5480061
  38.0574870  68.0687094  54.4192028  37.2001076  67.2290707  55.3416395
  12.1990238  18.1617984   4.6057646  12.3059820  19.0341112   4.2264788
  11.9151805  18.3248863   5.5052511  66.4001821  44.0812374  22.1957799
  66.1076580  43.1698347  22.1930524  65.7724797  44.5325590  22.7601643
   2.8571138  51.5101957  41.9722605   3.1056452  50.9358358  41.2479830
   3.5102201  51.3369942  42.6502609   8.7011456  28.4659815  51.3077450
   7.8366882  28.3814096  50.9055090   8.8653666  27.6105618  51.7046309
  69.4702243   7.1632409  20.2635499  69.6781241   6.4291692  19.6854993
  69.0404605   7.8018642  19.6946069  55.7661426  65.9865030  44.0657350
  55.4334366  66.8746957  44.1947766  56.5461122  65.9402141  44.6186658
  49.6734810  36.1461163  57.8515625  49.4852209  35.2192283  57.9987574
  50.6056976  36.2355590  58.0495596  15.5891537   4.3415952  15.0574561
  14.9771284   4.7409702  15.6756421  16.3020634   4.9759365  14.9825879
  20.3756404  23.8272095  56.0841084  20.6798220  23.3773541  55.2958584
  21.1246252  24.3536830  56.3635302  64.5167040  68.3372426  16.7225429
  64.5243524  69.2936254  16.6835948  64.7728883  68.0596567  15.8430262
  40.4257345  50.8435711  55.3581830  41.2657034  51.1907061  55.6584855
  40.0043630  51.5824815  54.9192162  65.2798556   5.7735372  31.8839475
  66.1803984   5.4951024  32.0504685  65.2011036   6.6130996  32.3369046
   6.6911792  22.6828552   5.4995700   7.2201847  23.3745551   5.1021596
   6.9571899  21.8851877   5.0421878  58.9157091  22.6154694  12.6202623
  59.7377859  23.0074248  12.3256533  58.9912687  21.6918668  12.3805086
  32.8763366  53.6728859  61.4944553  32.2413540  54.2102385  61.9680405
  32.7631712  53.9211321  60.5769587  39.1566538  47.9973992  32.4869462
  38.2775795  48.3578524  32.3706170  39.6814799  48.7387630  32.7888890
  43.4686005  66.6075357   9.0151235  43.9739787  65.7951650   9.0447255
  43.4204196  66.8258580   8.0843993  17.0283770  43.8065410  29.2896768
  17.3282503  43.1201053  28.6937638  16.7054151  44.4994760  28.7136861
  66.4050387  24.2453599  43.3563348  66.6818129  23.3629108  43.6031266
  65.5651473  24.3656612  43.7994405   0.4436349   1.4895106  10.1190492
  -0.1772667   1.6692186   9.4130631   1.2566303   1.9074536   9.8351594
  74.0857266  34.9523092  22.0479890  73.8405942  34.7865463  22.9582997
  73.7189268  35.8150030  21.8544599  40.3275108  47.1491528  53.0371523
  39.7496557  46.6582632  52.4529028  41.0979939  46.5900755  53.1372499
  26.9667362  23.4823633   3.6883946  26.8107914  24.1920925   4.3114491
  26.3468622  22.7990938   3.9436027  51.5679455  25.9637666  60.5141973
  52.4899292  25.8600092  60.2787971  51.3599682  26.8670702  60.2754021
  11.0638474  19.3477846  25.8128758  10.8697747  20.2159238  26.1662885
  11.5757941  19.5198656  25.0226041  41.0197150  37.2184664  14.3087836
  41.8319308  37.0336134  13.8372250  41.1373043  38.1050351  14.6499558
  23.0918430  22.1061111  43.4330769  22.6472544  22.1706319  44.2782994
  22.4733614  21.6379476  42.8722497  22.6024008  57.5544739  51.2172031
  22.6596665  56.7584467  50.6887245  21.6906357  57.5844574  51.5070581
  41.2347548   7.9447246  21.1007329  40.7631170   7.1123624  21.0696813
  41.3801019   8.1720567  20.1823541  32.0734155  66.9151625   9.4989320
  31.3183206  66.6985496  10.0458737  32.1447277  66.1819014   8.8878079
   9.3025118  53.9885330  45.0443792   8.7069362  54.2708588  44.3502522
   8.9559627  54.3964672  45.8379316  54.9046361  41.7455676  35.0590058
  55.0721323  41.6185233  34.1251775  55.0738346  42.6757893  35.2083035
  61.3683927  68.1087669  20.6848641  61.8794548  67.8884324  19.9060841
  61.2571632  67.2752150  21.1420937   2.7282535  63.9905485  18.2370587
   2.5150358  63.9089378  19.1666337   3.5450661  63.5020694  18.1349011
  47.9825068  19.2335641  57.7196884  48.4364986  18.6205733  58.2979298
  47.1658230  19.4340384  58.1769276  69.0541148  51.6310978  53.2407713
  69.6710527  51.7186451  52.5141668  69.3261308  52.3010635  53.8679790
  59.6595871  48.7163028   7.6609345  58.9510738  48.2857427   8.1393262
  60.3688299  48.7910470   8.2993909  59.3147790  64.7384175  23.7316533
  58.8235485  65.5464801  23.8798352  60.0252044  64.9944385  23.1434556
  72.7979182   3.3660841  14.0126964  72.6172565   4.1346479  13.4714909
  73.1024097   2.7030516  13.3930989  42.4641454   2.4012081  48.9636803
  41.5562665   2.6489393  49.1386557  42.4714279   1.4472333  49.0418673
  54.1804826  67.1817979   4.0517016  53.5150706  66.6473111   4.4850369
  53.7786948  68.0470022   3.9728375  40.8407234  35.1288963  10.8770867
  40.0198244  35.0344777  10.3939315  41.2613892  34.2721773  10.8042928
  48.9853096  10.5267489  49.6895742  48.4097767  10.4007721  48.9351702
  48.5529137  11.2035668  50.2103233  30.5323242   3.8301206  12.4458190
  29.8926186   4.5372177  12.5296231  30.9252046   3.7582326  13.3157130
  62.7319204  70.7392320  32.0633813  63.4034669  71.3005361  32.4509355
  62.7256715  70.9782132  31.1365148  69.0347683  65.2251824   9.1932937
  68.2933866  65.7976254   9.3905230  69.4558489  65.0782284  10.0402423
  54.6510260   3.2863593  24.3509599  54.8129870   4.0385771  23.7815972
  55.2420564   2.6076222  24.0250226  47.3884344  29.0847826  45.4778671
  46.4682913  28.9875698  45.7230473  47.8671932  28.9876413  46.3010263
  40.6168245  15.8670688  15.4778882  40.1276945  15.2398706  16.0104342
  39.9426149  16.3808895  15.0332852  10.0117086  21.7915798  22.1361085
  10.6567477  22.4213434  22.4578973   9.6165942  21.4274574  22.9282781
  17.8982471  45.8276582  13.6144086  18.3931898  46.6129423  13.8480588
  17.1684050  46.1525846  13.0871650  53.0803108  69.0110350  42.4662828
  53.1413078  69.7480106  41.8585157  53.7126637  69.2156696  43.1551075
   8.6508154  25.0292993  28.6800214   8.5713552  24.9363399  29.6293755
   9.5397924  24.7334648  28.4839745   7.0255565   7.3359514  30.7524510
   7.2071313   6.4730525  31.1248322   7.1163224   7.9390932  31.4901563
  10.9615969  61.3457132  20.7431146  10.1788544  61.7311693  21.1367818
  10.8213376  61.4293600  19.7999497  36.8335271  49.4784307  53.9750433
  37.2393346  50.3046560  54.2375326  36.9068718  49.4681120  53.0207157
   7.8171181  19.1844774  13.0589744   8.6786770  19.6011758  13.0414315
   7.5495886  19.2260862  13.9770862  32.1084713   3.0839396  10.3920957
  31.3929867   3.4351731  10.9221431  32.5312590   2.4381662  10.9581872
  12.1665310  34.2256570   8.3050462  11.5405725  34.4665838   8.9879533
  12.9397487  34.7587181   8.4900065  15.6278776  32.1834588   6.9582578
  14.7327923  31.8501401   6.8953772  15.6779646  32.5720048   7.8316136
  10.6619142  25.6002307   3.6000176  10.0099300  25.5331922   4.2976256
  11.4563035  25.8991504   4.0425416  72.8729056  43.1419874   9.7108670
  72.4065708  43.9634014   9.5558139  73.7872600  43.4028030   9.8211547
  14.8409283  35.8686069  16.3071986  15.3662168  35.6693505  15.5322143
  14.6287023  36.7979237  16.2202378   6.1489366  32.0579696  26.6265126
   5.9827541  31.3476825  27.2462769   6.8144940  31.7081571  26.0341474
  50.1028608  14.7587610   3.9208957  50.5647491  15.4852987   4.3392631
  49.3600582  15.1699710   3.4788724   1.8719672   2.7682758   0.7047530
   2.5544571   3.0978918   0.1201220   1.0522865   3.0521489   0.3000661
  21.2968731  62.4843264  58.5908604  20.8676434  62.8729916  59.3530512
  21.7361760  61.7062807  58.9342165  46.8673944  63.6884975  56.6151237
  47.4203491  64.0289402  55.9118605  47.1214771  64.1954279  57.3862934
  62.3152708  42.2423911  35.4653092  62.3596643  41.2864995  35.4883881
  62.2261499  42.4556566  34.5364304   5.9729492   6.1759607  57.3212814
   6.7908441   5.7458011  57.5707626   5.3931248   5.4584114  57.0660114
  73.8117897  67.5869450  24.8860761  73.1468069  66.9215926  25.0630971
  74.4769299  67.4459967  25.5598374   5.0223516   4.6319358   7.0166703
   5.5381845   3.8548915   6.8013736   5.6724666   5.3219764   7.1486779
  74.3976306   4.8788000  16.0403987  74.5136689   5.7045484  15.5703898
  74.0279054   4.2825008  15.3892728  38.0809854  47.9081083  12.5952598
  37.2255300  48.1217790  12.2227450  37.9425167  47.9314924  13.5421010
  25.3428339   2.3950172  11.9833108  26.2551378   2.6347709  12.1459218
  25.1848625   2.6553703  11.0758468  27.9972458  46.2536287  46.8228149
  27.5269079  46.9301081  46.3355923  27.4477673  46.0837793  47.5879669
  43.9181530  13.2343618  54.7455692  44.7823846  13.3628408  54.3546343
  43.6185383  14.1178075  54.9600077  63.6060905  42.9249620  55.6134796
  63.4582376  42.4081039  54.8215008  62.8585291  43.5214520  55.6532431
  42.2037040  17.8779531  16.4393159  43.0830746  17.7872873  16.0722753
  41.6881328  17.2049261  15.9949609  45.7828522  40.8910894  58.6050081
  45.6620264  40.7797575  57.6620150  46.3148594  40.1402807  58.8686085
  51.7663514  70.5808815   9.2003127  51.3945543  71.3890013   9.5537826
  52.7086651  70.7455691   9.1663667  65.2548896  23.1841159  31.1235543
  64.4019662  23.5998512  31.2497159  65.8320450  23.8985706  30.8539506
  62.3368251   0.2422611  24.7968388  62.0846950   0.5106536  25.6803703
  62.8339588   0.9847776  24.4536686  31.7708683  61.9135857  58.2069635
  31.6363883  62.2823381  57.3339367  32.7034545  62.0420694  58.3801794
  11.9150328  25.2988124  35.7386228  11.6197180  26.1766220  35.9804364
  11.9077348  25.2988649  34.7814485  65.4476439   7.9784704  33.9295884
  65.5874263   7.3843027  34.6669122  64.8089932   8.6143375  34.2521306
  19.8545669  27.3515630  19.4365235  20.6858801  27.6355625  19.0564080
  19.6239351  26.5626932  18.9458867  70.4166686  53.6722494  27.7250501
  71.1199449  54.2651296  27.9898663  70.7031392  52.8105379  28.0277558
  45.2609205  38.0207467  51.9976664  44.5852518  37.4354649  51.6553926
  45.8591700  38.1519938  51.2620687  62.6088345   3.7066261  33.9588904
  62.1441400   4.3076984  33.3766508  61.9168341   3.1893150  34.3708992
   6.6190671  42.4374652  17.7057572   6.4393615  42.9645849  16.9272443
   6.8927144  41.5872932  17.3614379  55.6212913   9.3380777  41.4939451
  56.4187633   9.8569910  41.3890505  55.4918920   9.2865602  42.4409580
  21.4825176  32.8785158   0.0940820  22.0057320  33.0812717   0.8695622
  22.1252560  32.7703739  -0.6069354  60.1192713  36.0174799  57.3431921
  60.1493979  36.3718796  58.2318544  59.2286444  35.6792736  57.2502756
  15.4795669  17.9356218   1.6945907  14.8765205  18.3913350   1.1073180
  15.5265211  18.4943891   2.4703523  50.3719627  23.6251327  16.1460181
  50.9431731  24.2671892  15.7244512  50.4486238  23.8139340  17.0812770
  64.8288190  28.6202502  36.1013675  65.1768160  28.8300228  35.2346921
  64.0149450  28.1483483  35.9248805  13.1887543  53.6415287  21.1379357
  14.0555822  53.4814605  20.7648107  13.2154476  53.2181868  21.9960137
  34.0072017  30.2428594   3.1114980  33.5284101  29.4140419   3.1042453
  34.0014630  30.5147555   4.0292521  23.2134546  41.5639367   3.8060399
  23.3262874  41.5368989   2.8558989  22.3071551  41.2903580   3.9474889
  47.8467595  47.0306119  14.2231627  48.0590713  47.7099916  13.5831614
  48.6972486  46.7042288  14.5170566   4.4277060  55.4057356   3.5000964
   5.3265988  55.1157471   3.6554309   4.3256485  55.3705069   2.5490066
  20.1000093   8.7113452  30.2414246  19.9234222   9.6058584  30.5328008
  20.9199833   8.7763858  29.7518941  44.9427664  20.7723042  14.8650714
  44.4021522  20.4550144  14.1416808  45.7901942  20.9653291  14.4640227
  28.0278767  62.3301943  60.9736681  28.6222923  61.6603323  60.6357574
  28.5762251  62.8735300  61.5396452  29.0001035  17.9892421  35.4875231
  28.5866404  18.8240898  35.2677298  29.0738201  18.0023706  36.4417911
  43.8057255  37.6709681  19.7756596  44.0124917  38.2860687  19.0720006
  42.9124331  37.8960026  20.0356980  53.4645081   9.4846123  10.8199143
  54.3041039   9.3683755  11.2646663  53.1210518  10.3075302  11.1678731
  37.1159577  53.9468241  32.0472598  36.6744518  53.1176329  31.8635535
  36.8102479  54.1926432  32.9203844  74.6365440  47.0286568  59.2612362
  74.9347628  46.7383536  60.1232195  74.9112261  47.9440816  59.2085361
  53.4074098  70.0926665  45.9540510  53.7629316  70.9207389  45.6313562
  52.8647155  70.3405014  46.7025805  32.7043145  52.9251214   1.7520591
  32.1645712  53.2661911   2.4652072  32.4370479  53.4324881   0.9856482
  54.7291026  67.9580202  11.7581379  53.9561982  68.4693920  11.9976151
  55.2549458  68.5541784  11.2249255  44.4800865  12.9266247  17.1895715
  44.3293440  13.4393510  17.9836818  44.7449827  12.0637807  17.5082560
  61.9313967  48.0564245   4.3436500  62.0650112  48.7277779   3.6745711
  61.3980615  47.3897418   3.9108439  56.2953865  37.3160150  15.8745309
  56.2834274  38.2256576  15.5768081  56.7787396  37.3406276  16.7003604
  52.3311865  41.1944147   6.2577411  53.0430781  40.6303900   5.9555503
  52.0530521  41.6694060   5.4746362  60.5423844  17.7121425  61.3057423
  60.7449794  17.1179044  62.0282841  61.3937783  17.9205835  60.9211445
   9.3691886  65.6515106  46.6428518   8.7575186  64.9379405  46.8242598
   9.2736090  66.2442502  47.3883438  65.2944242  28.9065775  45.6494733
  66.1384785  29.1692671  46.0166284  65.4779160  28.7352630  44.7257825
  13.3094144  26.8981457  54.8411465  14.1276991  27.3482919  54.6313572
  12.6545882  27.5954413  54.8759937  58.6674232  46.8625482  61.3516665
  59.0593535  46.1096843  61.7941809  59.3673462  47.5148877  61.3235092
  74.5672739  61.0063573  49.1322708  74.8419536  60.3691383  49.7916174
  74.3323148  61.7858090  49.6357393  10.9628094  57.8124162  40.5878735
  10.4648626  58.2464405  41.2806273  11.7135680  58.3866712  40.4367876
  49.8642063  35.2683997  54.1281509  50.6535196  34.8990798  53.7321568
  49.1515779  34.9746895  53.5605860  62.5921546   3.9083338   5.8353825
  62.6463484   3.7468887   6.7773076  61.9018947   3.3192945   5.5307408
   2.0591295  70.1238375   5.7412255   2.5718916  70.1204068   6.5494919
   2.6010311  70.6049531   5.1158422  43.3912730  22.1383166  32.4856067
  43.1756020  21.3779426  33.0255628  42.6506996  22.2234988  31.8851686
  18.4949458  14.9915481  36.7942405  18.1432033  15.3638577  35.9856033
  17.7962983  14.4243968  37.1205282   0.3484451  20.5024191   1.4951058
  -0.4317177  20.1804205   1.0435553   0.2099955  20.2643129   2.4118253
  13.2106471   9.1436815  61.4018154  12.8337896   8.6076236  60.7040691
  13.2481003  10.0259161  61.0323668  15.5245435  21.8457651  40.3441095
  15.3905475  21.2445617  41.0767984  15.9229398  22.6208425  40.7400513
  58.8580269  67.8143500  59.8946667  57.9434527  67.7614169  59.6172094
  58.8293696  67.6772743  60.8415651  67.2218633  32.6242757  47.9395342
  67.4014658  33.2884216  47.2740412  66.3220996  32.7989244  48.2154989
  38.9353371  27.2694397  60.7707644  38.1766963  27.2772837  61.3543987
  38.5670877  27.4035525  59.8974705  23.1552315  24.2722654  57.6142406
  23.4081936  23.5379910  58.1737757  22.4760365  24.7288251  58.1107044
  36.3599825   4.9751180  40.7882500  36.8700266   4.1882399  40.9803677
  35.5292749   4.6445480  40.4463720  22.9394663  48.2240757  49.6972609
  23.4866655  48.2605275  50.4817867  23.5562075  48.0677255  48.9821243
   0.1014709   3.9209867  50.8411980   0.0637913   4.7534478  50.3702211
   0.9037733   3.9756393  51.3603878  31.8506277  63.2079884  46.0033417
  32.5970686  62.6118632  45.9425926  31.8790377  63.7110820  45.1895094
  14.5099270  13.9598358  21.4016557  14.4193172  13.3508360  22.1345544
  15.0376439  13.4850276  20.7595444  66.3779079   2.3573622  38.6417314
  66.9949305   2.9380044  39.0871259  65.5448257   2.8280457  38.6674901
  14.9723804   5.1523638  60.1925468  14.1918755   5.0668794  60.7400322
  15.3806186   5.9679222  60.4831314  74.8193684  35.2236962  37.1038675
  75.7454274  35.1025128  36.8941998  74.6936301  34.7410917  37.9208851
  73.3298504  24.0108820  17.1960278  73.6498892  24.7935971  16.7475100
  74.0785992  23.7052449  17.7080747  35.4702544  16.8697727  61.2286997
  34.7535682  17.4717247  61.4293098  36.1884236  17.4372792  60.9487009
  59.5631587  60.1267680  36.8381616  59.7975027  60.9888824  37.1817799
  60.2137792  59.9553498  36.1573239  69.5155441  43.2119843   5.1176759
  69.4594013  42.2599896   5.2000543  69.4484817  43.5345283   6.0163995
  48.7958288  37.9296494  61.1956120  49.5812607  37.4185443  61.0004091
  48.9780903  38.3344007  62.0436621  23.2076858   4.9285818  38.0690499
  23.9815926   4.5179725  38.4546777  23.1385301   4.5383144  37.1977635
  42.8109652  48.5577568  32.1456170  42.3423994  49.3162235  31.7971802
  43.7308628  48.7324961  31.9469047  37.8859568  11.4169073  48.3993101
  37.8974104  12.1369660  47.7687407  37.4291611  10.7085335  47.9456806
   4.3203127  27.9487982  38.2806321   4.7020637  28.7755397  37.9856797
   3.3996641  28.0053439  38.0248280  65.4596424  34.0846920  44.6901226
  65.7619429  34.7139239  44.0352106  65.1047707  34.6253276  45.3958225
  49.6800603   0.9642816  12.8713199  50.3921446   1.5945483  12.9805680
  48.9522894   1.4823628  12.5275584  34.2508584  48.0773887   4.4298001
  33.5145068  48.0216154   3.8207789  34.5727771  48.9738258   4.3349238
  28.0371178  65.9539922  17.1534371  28.7291086  65.5045845  16.6682446
  27.9297674  65.4369231  17.9517770  55.1249540  68.4740975  44.8511887
  55.7582641  68.2265251  45.5248785  54.5508925  69.1067191  45.2830172
  20.1615178  47.0805963   6.9808169  19.6834844  47.1825227   7.8038188
  20.0864732  47.9335853   6.5530225  15.7845234   5.0222421   8.8984509
  15.0538658   4.4454122   9.1212626  16.3179087   5.0508762   9.6927520
   1.7650043  56.2804302   0.5187055   1.0620748  56.6462740  -0.0182132
   1.3490831  56.0879167   1.3590499  21.6436648  34.1317058  19.0034640
  21.8188238  35.0248766  18.7071526  22.0439243  33.5749602  18.3355892
  31.0378385  27.0491672  54.8113203  31.8458056  27.5621915  54.8262691
  31.2981486  26.2029195  54.4475412   0.6942223  16.9761300  36.2764378
   1.3916563  17.6315427  36.2922307   0.0774239  17.2985149  35.6192704
  51.7883301  18.6610472  28.2687378  51.5206003  17.9530287  28.8546228
  52.7011013  18.8318264  28.5009170  52.0550203  42.8889990  58.7979698
  51.4505959  42.2133303  58.4907675  52.1740055  42.6987886  59.7285032
  59.5952892  28.3950424  30.3410721  59.8849535  27.6007390  30.7898593
  60.3412056  28.6485076  29.7973895  60.5589163  51.4746412   5.2201148
  60.1934945  52.2841975   4.8633023  59.7989499  50.9093174   5.3582974
  53.9566028  58.3938464  20.2533933  54.6282804  57.7991184  19.9196645
  54.4138348  59.2253860  20.3787442  74.6515984  29.0188813  45.8572483
  75.3148960  28.3511281  45.6829739  75.1531626  29.8169446  46.0238600
  72.8189230   7.2940010  29.8926210  73.3804798   7.7183199  29.2439008
  71.9438410   7.6381230  29.7136092   0.9051827  21.2660265  61.0358238
   0.4060583  20.4566884  61.1457300   1.6092342  21.0329247  60.4306746
   1.7954385  12.1408852  35.3459092   1.6341722  13.0381998  35.6375428
   1.6553676  12.1678432  34.3993970   5.8040041  38.5222340  40.6568289
   5.6656629  38.5223675  41.6039753   5.2404165  39.2246032  40.3323555
  62.9341148   4.6958185  15.9406205  62.2911154   4.1299987  16.3679715
  62.6495360   5.5847383  16.1529180  20.7303476  17.7393472  46.3994932
  20.8309674  18.4924626  46.9816637  20.9802485  18.0688524  45.5362368
  17.0597065  54.9144193  41.7785025  16.1127079  55.0510498  41.7511034
  17.4258698  55.6886669  41.3510704  33.0434560  61.9362506   7.6365443
  32.9358088  61.8417796   6.6901227  32.4072343  62.6071676   7.8841802
  14.2568684  52.3838854  56.3309431  14.3874407  52.1204901  57.2418785
  13.6688221  53.1374645  56.3814497  64.0851426  12.4619925  39.4866514
  63.7858403  11.7517221  38.9190531  64.1278875  13.2261491  38.9117861
  24.4159865  14.0542173  33.3547473  25.2575898  14.0735412  32.8991556
  23.9144111  14.7684848  32.9617095  68.5888898  57.7767881   7.0807858
  68.0606615  58.2608518   7.7155229  68.0097067  57.6582846   6.3279696
  33.1774653  60.3178819  45.4244328  33.7169493  60.0198504  46.1568022
  33.6842001  61.0255393  45.0260925  64.1821467  44.7060987   9.2376395
  64.6320593  44.3313732   8.4804126  64.6478068  45.5239418   9.4123574
  67.8217375  53.4395501  16.6092320  67.5811922  53.7808248  15.7478972
  67.9384767  54.2194351  17.1518060  37.8379559  71.3663134   2.0613500
  37.8737175  70.5455932   1.5700551  37.9163622  71.1005982   2.9775830
  37.9557776  61.4006552  35.2316972  38.8999497  61.4252647  35.0762483
  37.5672042  61.5113815  34.3639584  23.8344932  13.7137818  36.7291331
  24.1150951  14.6193874  36.5973282  23.5777545  13.6742628  37.6504135
  22.5723558  54.7888287  17.2052117  22.3237425  55.4948648  16.6086074
  22.2032991  55.0476858  18.0496188  38.0176675  62.9374679  15.7773705
  38.3493125  63.7385115  15.3716966  38.3662486  62.9582986  16.6686030
  70.3982841   6.2766338   4.1227933  70.3432571   5.8288265   4.9669953
  69.6273028   6.8435312   4.1016789  43.2616591  44.9501821  30.1113244
  43.0244886  44.9180164  29.1845342  42.5035989  45.3486743  30.5388566
  52.0030415  63.8654813   2.3700019  52.6782929  64.5254048   2.2126313
  52.1836364  63.1799182   1.7268678  68.3851730  40.5661970  19.2057630
  67.8228056  40.8575019  18.4880467  67.7835142  40.1689568  19.8353978
  35.8051133  12.8209484  41.7189264  35.2978373  12.2901368  42.3330450
  35.6016135  12.4526465  40.8591747  67.7455973  15.1810289  12.9625626
  67.2326456  14.4767881  12.5661298  67.7434932  15.8776451  12.3060962
  18.6382377   8.6131048  60.4467297  19.2977846   9.1823286  60.0502253
  18.2431078   9.1478306  61.1353302  73.2608956  41.8783569  19.2607319
  73.6623338  42.7439165  19.1840327  72.4211836  42.0410156  19.6904492
   4.4679092   7.0290351  13.3936044   4.0649246   7.5641513  14.0773316
   4.1031002   6.1543250  13.5278674  37.3996210  59.1310963   4.3554040
  37.0531392  58.6652573   5.1164409  38.3462071  59.1494688   4.4963571
  17.7175533  54.5199474  25.2833291  17.1028864  55.2536806  25.2904721
  17.7586805  54.2330560  26.1956044  15.7552671  32.5738907  46.6308737
  15.5187595  31.9668794  45.9295654  15.6449592  33.4421921  46.2434244
   7.4464559  24.2610145   2.7006932   7.5283407  25.0315023   3.2627269
   7.0926165  24.6006704   1.8787023   2.9921401  65.5394896  57.7312422
   3.4599460  65.7530548  58.5385704   2.9647887  64.5827987  57.7161932
  50.5093657  54.7247704   2.2917481  50.4735648  55.4155084   1.6300603
  49.8550665  54.9814316   2.9415580  67.0208036  41.3566556   7.8723975
  66.5267574  42.0429065   7.4238320  67.3277342  41.7707523   8.6789628
  72.6469088  -0.0461813  26.5385056  72.5837564   0.8978694  26.3935518
  73.2962561  -0.3434529  25.9011602  65.8093559  69.0087422  22.2537061
  65.7848417  68.6818084  23.1530114  64.9131619  69.2958888  22.0787354
  65.9457647  65.6718406   2.2629138  65.3778707  64.9056562   2.1811076
  65.3850138  66.4116200   2.0294257  19.0708660  20.0582958  20.7617017
  18.6624454  20.2038408  19.9083253  18.4240030  20.3723407  21.3935014
  12.1995019   5.1706672  10.0240775  11.6903733   4.3703056  10.1522990
  12.4553799   5.1466251   9.1020270  63.4594023  60.4726728   3.7078687
  64.2355263  60.0643786   4.0914842  62.9165375  59.7367033   3.4252377
  32.6002765  34.7900009  61.0084534  31.8360710  34.9445748  60.4531813
  32.4044943  33.9704823  61.4626503   3.3112603  26.4657855  57.4032402
   3.8057971  26.8993759  56.7077827   2.8184223  27.1712899  57.8222942
  27.0913160  66.7304217  43.5638285  27.6344526  66.0371651  43.9388323
  27.3702801  66.7852702  42.6498270  51.6000521  55.1534029  14.6806069
  51.3239991  54.4685849  14.0714665  52.1306979  54.6948346  15.3320380
  53.3416211  51.4506647   0.3715964  53.4389173  50.5452951   0.6666776
  53.1073391  51.9364473   1.1623927  31.9305646  57.8269299  18.0765029
  31.1176669  57.8583368  18.5809251  31.8973839  56.9857630  17.6208993
  38.0790257  46.0909128  58.2151461  38.8835740  46.3448286  58.6673260
  37.7244759  45.3742647  58.7414026  14.5412135  17.6804686  45.3361988
  14.1769922  18.2359481  44.6469831  13.9420593  16.9355834  45.3851223
   6.9324659  15.8392978  21.2829324   6.9654726  15.0849891  20.6945725
   7.7942037  16.2472368  21.1979314  55.2374935  45.2425241  55.3741741
  55.6792593  45.9250259  55.8794117  54.3174076  45.3140736  55.6282473
  54.4205438  36.6756273   2.8547402  54.3333726  36.9435525   1.9399424
  55.3001611  36.3025403   2.9122611   8.4615916  62.2354603  41.1235523
   8.6903954  62.2272539  40.1941395   9.2997611  62.1472740  41.5773439
  62.8245079  58.6432108  11.8830796  63.4238898  58.0718907  12.3632546
  63.3448612  58.9757189  11.1517116  20.4047799  58.0737972  52.8484583
  20.5814719  57.4133682  53.5184145  19.7104812  57.6910686  52.3120785
  16.2532330  12.7510083  19.4270909  16.2331724  13.1353068  18.5506523
  16.5286803  11.8453360  19.2852509  14.1994821  55.3290650  26.1620923
  14.3967354  55.0279554  27.0490285  13.7505018  54.5895990  25.7524129
  75.2071809  29.7015071   6.4766522  74.6704792  29.1405607   5.9167214
  75.3542184  30.4903865   5.9548493  34.2327904  26.2726379  16.5553542
  34.1128467  26.1819721  15.6100388  34.5281099  25.4088474  16.8432542
  75.2456915  38.5831940   9.8145266  76.0261881  38.8308590  10.3102275
  75.5187952  37.8221076   9.3022796  42.7325726  15.7197189  55.7118416
  43.5112524  16.2692809  55.8005571  42.0023680  16.3044381  55.9146738
  35.4938721   2.5014186  11.4002486  35.0384354   3.3349133  11.5189715
  35.8898090   2.5664926  10.5312081  15.8811331   6.0865325  26.5040207
  16.1900842   6.9748771  26.6818523  16.5707779   5.6960684  25.9672165
  22.4335977  68.1670698  11.6800853  23.3708399  68.0454978  11.5283318
  22.3858830  68.6706408  12.4927159  43.4354639  53.9036322  42.3979425
  42.5738382  53.9329529  41.9820452  43.3375740  54.4331312  43.1893158
  62.4935114  57.2988900  42.7600213  63.0289185  56.7078527  43.2894059
  61.6161191  57.2289261  43.1362077  37.7837717  56.3524231  21.8106481
  36.8741869  56.0694488  21.9045278  37.9127132  56.4346560  20.8657475
  21.7815983  57.6417622  14.6654530  21.6498053  57.2248897  13.8139363
  22.0892202  58.5235104  14.4554063  56.0606432  12.3603177  52.4212170
  56.1514568  11.4094901  52.3586750  55.1442909  12.4981332  52.6610899
   1.5049225   9.9909312  58.6087656   1.4134507  10.3036630  59.5088005
   0.6157053  10.0150383  58.2552910  22.7995706  16.3134015  48.2692862
  23.1370521  16.4509952  47.3841858  22.3055124  15.4955113  48.2127857
  62.5520563  15.0198698  60.6255579  62.6497793  15.9718287  60.6468964
  63.3745241  14.7029769  60.2522516  75.6310557   3.8057828  25.7786294
  75.2162360   4.6670127  25.8280202  76.5508579   3.9933443  25.5915090
  24.5819211   8.3138359  48.4616613  23.7190366   8.5182589  48.1012821
  24.7022557   7.3815942  48.2808971  72.8091866  39.4265676  61.4142752
  73.4070843  38.7934375  61.8116379  72.7552721  39.1614938  60.4960918
  29.2050815  23.6653638  33.5398531  28.5317969  23.2378125  34.0691161
  28.7156677  24.1447902  32.8713799   8.8757765  56.8574342   2.2880717
   8.2728445  57.3503097   2.8446456   8.9782297  57.4003157   1.5063973
  30.5846739  38.5521293  58.0361891  31.3281560  39.1549206  58.0467224
  30.0669622  38.7969398  58.8031769  43.3446531  13.4042335  14.6465941
  43.2849525  13.1567598  15.5693217  44.2309134  13.7524009  14.5488521
  18.8720584   4.4440290  31.6013432  18.5625839   3.9893088  32.3847246
  18.8565719   5.3707445  31.8404889  20.7584929  29.4607544  56.7163610
  21.6732168  29.4018245  56.4406109  20.6964660  30.3059387  57.1613884
   7.1123159  51.9497522  51.1008358   7.7618897  51.5065082  51.6465616
   6.7365420  52.6196106  51.6720772  29.6435404   8.1170040  55.8819056
  30.0131679   7.7461898  56.6832209  29.6403670   9.0619498  56.0345459
  37.4839807  12.6836860  55.2964258  36.5468979  12.8583574  55.3835773
  37.9074430  13.4469402  55.6893015  43.0216312  59.7755909  40.9343624
  43.2122564  60.6722546  40.6588840  43.8751888  59.3425846  40.9478235
  74.5055878  26.4544722   3.7073632  74.0628588  26.0412797   2.9660865
  74.5065033  25.7835480   4.3900748  35.0247836  13.6544752  48.6679983
  35.7586002  13.4915018  49.2606068  34.9198914  12.8344584  48.1855011
  57.7142035  39.7692263   6.6680594  58.5035550  40.3101199   6.6923591
  57.9463398  39.0319702   6.1034366  35.2462422  50.7973596   3.8884755
  35.9000742  51.1010775   4.5181533  35.7588374  50.4097744   3.1790706
  44.2129468  59.1905793   1.3875981  44.8294353  59.4277891   2.0803519
  44.2113161  58.2333812   1.3858672  19.3563747  41.2894773  42.0578194
  20.1501966  41.4128494  41.5373802  19.5811272  40.5944157  42.6763725
  16.5006435  57.6882168  52.5062752  16.7069042  57.2204348  51.6970348
  15.9682978  57.0723959  53.0098724  22.5637602  21.9664598   3.7323590
  22.3581098  21.0945297   4.0695115  23.3613085  21.8423343   3.2178279
   0.5107020   6.5591073   7.6025887   0.1378034   6.7919326   6.7523118
   1.4003037   6.2679935   7.4023601  35.2826237  14.2738271   0.4367371
  35.6988024  14.4731880  -0.4018811  34.9210524  15.1103473   0.7295438
  59.2717778  40.0166186   0.9212085  59.2334759  39.0648183   1.0152312
  58.9139544  40.1857918   0.0496741  13.2260358  65.6604528  54.3161345
  13.0722046  65.1813459  55.1303959  12.6552856  65.2348614  53.6763334
  12.5302029   4.4180307  53.1530428  12.7018058   3.7268496  52.5134706
  11.7946219   4.9076372  52.7850199  67.1936513  57.5819953  50.6158257
  66.3666964  57.1032401  50.6721401  67.1536625  58.2143267  51.3333178
  25.3054703  51.5165242  52.8265047  25.1851500  52.3777076  52.4263573
  24.5199144  51.3875135  53.3580017  30.0049936  51.0320314   2.8451463
  29.6790507  51.5160772   3.6038896  30.9515404  50.9850427   2.9795810
  70.9553349  37.4561202  16.0484525  71.8415653  37.0979917  16.0991450
  70.3853476  36.7146273  16.2522527  46.5007913  46.7226192  23.6459180
  46.1085617  47.1295520  24.4184419  46.1060726  47.1837899  22.9058095
  40.5034304  16.9500577  56.8291092  40.4154634  16.3669240  57.5830650
  39.6149111  17.2666717  56.6662502  49.3578912  60.4772910  60.5156088
  49.6480342  60.8510693  59.6835375  49.7929799  59.6258660  60.5603790
  19.5050025  11.4964068  34.8027229  19.8225307  10.7421029  35.2991438
  19.9080563  11.4020193  33.9396644  42.5633943  54.8304817  11.5356322
  43.0230760  55.2739605  10.8227130  42.8711032  55.2694067  12.3286553
  58.1712305  34.9699411  29.7789021  57.7551233  34.1120480  29.6946069
  58.2834398  35.2713368  28.8773461  33.7399458  44.9100694   8.5315629
  32.8863501  44.8470798   8.1030341  34.3714791  44.7308817   7.8349372
  46.4389896  13.5915649  53.7064505  46.5893221  12.8601086  53.1076145
  46.6062689  14.3719745  53.1780481  48.5934322   6.1841083  11.2934895
  48.0262231   5.8318162  10.6076404  48.1935752   7.0214868  11.5283223
   8.6392105  62.0146513  56.5757561   9.0987009  61.4204884  55.9824038
   8.2112521  62.6465273  55.9979868  24.4486928  39.6535969  54.4426346
  24.2130828  40.0610590  55.2761173  24.5066929  40.3841209  53.8268375
  62.8676843  17.7359033  13.2720824  62.7981757  17.9417491  14.2042991
  62.7923249  18.5833192  12.8334065  60.0781298   0.3443409  59.4254065
  60.1260996   1.2798625  59.6222067  59.3005848   0.2550741  58.8743258
  40.4582214   6.9703627  45.4593229  40.9176588   7.6380301  44.9500418
  40.9503031   6.1653358  45.2980185   3.1934741   3.4826639  20.4683828
   2.4420586   2.8906983  20.5027795   2.8800762   4.2913055  20.8734918
  19.0522289  15.1812816  58.5758448  19.0541589  15.6666434  59.4008589
  19.8054790  15.5238128  58.0946827  32.4131053  57.2667345  12.1022483
  33.2273483  57.6871928  12.3787518  32.1291548  57.7722272  11.3406154
  46.2367641  58.9617046  27.0249101  46.8123376  59.6233686  27.4085160
  45.6022655  59.4637069  26.5134068  32.1027470   3.2990783  48.7292004
  32.3323035   3.1382912  49.6444511  31.1594558   3.4610015  48.7437487
  10.3189194   9.2395598  29.0333939  10.6081414   9.7326630  28.2656479
  11.1298645   8.9776438  29.4692826  66.2760209   0.8319044  13.8811561
  66.6620623   1.6741634  13.6407395  65.3605281   1.0343194  14.0738555
  63.6941075  12.7027869  35.1874685  63.9230323  13.1312871  36.0122180
  64.5144391  12.3141944  34.8836875  40.5304861  54.5454741  56.0065413
  40.3059149  54.1285610  55.1746845  39.8674273  55.2264643  56.1198425
   5.6785213  38.7815564  26.2628003   6.5305674  38.4467104  25.9832974
   5.8683311  39.6471479  26.6246816  19.8563755  33.2218122  60.3520250
  19.7304678  32.3102260  60.6154394  18.9828312  33.5211015  60.0998783
  47.9620087  43.1422784  54.0917607  48.1110942  42.7739456  53.2209321
  48.7818658  42.9874137  54.5608827  25.8036971  22.0579362  54.2843294
  25.5024719  21.9415665  53.3832455  25.0272846  21.8936658  54.8195219
  22.8691435  31.5708423  40.7050133  23.4590697  31.1638474  40.0705242
  23.1989360  32.4644232  40.7997847  19.7895360  17.9789054  52.9280758
  19.0159750  17.7311397  52.4216700  20.0847530  18.7974918  52.5293303
   5.6111097  38.0326056  58.4264374   4.8612070  37.7559829  58.9530849
   5.2235079  38.3981752  57.6312256  38.3636974   4.7295833  14.5136805
  37.8817438   4.0398050  14.0574380  39.2393278   4.7053886  14.1277858
  50.6891823  38.3585382  51.8543053  50.6110716  39.0409708  52.5209522
  51.5847158  38.0337310  51.9478321   9.3566679   6.2798953   2.3991939
   8.8316893   6.6688323   3.0987378   9.7710012   5.5187202   2.8056117
   2.7758419  43.3430859   3.6709567   3.0864536  44.2166516   3.9089366
   1.9146740  43.4930995   3.2809325  72.7705716   8.3964324  12.7411052
  73.4478139   9.0550924  12.5870152  72.4827312   8.1393934  11.8651410
   1.6048872  16.8697115   8.3256265   2.4037897  16.7401096   7.8145619
   1.9121420  17.1932408   9.1724797  17.3084366  69.8215199  47.1932793
  16.4004016  69.5284843  47.2696638  17.7831018  69.3022108  47.8423119
  46.5032780  40.7089942  14.5135041  46.9838368  41.0257610  13.7486812
  47.1784460  40.5582749  15.1750632  52.8074252  11.0126385   7.0058795
  52.4915158  10.1692661   7.3301526  53.0369174  10.8469328   6.0914918
  46.2201977  36.6512370  60.9979963  46.9390154  37.2757578  60.9004974
  45.9598494  36.4436936  60.1005697  60.5990934  37.1496749  21.5333486
  60.5004644  36.3197351  21.0667610  61.5023518  37.1405458  21.8500113
  45.6362009  19.1001761  50.6953335  45.3596115  18.3769095  50.1326466
  46.5925980  19.0742695  50.6659555  51.4677309  17.0523429  13.0420562
  50.8031057  17.6756549  12.7488204  51.4127659  17.0753646  13.9973994
  14.3771147  59.4126535   5.9901877  14.2809867  60.2645231   6.4159842
  14.5275091  58.8004613   6.7104884  52.5539541  65.7188892  59.7220421
  52.4070978  65.6820345  60.6671906  52.6444387  64.8033333  59.4578409
  73.7431382  28.3509660  12.5655623  73.0599331  27.9971433  11.9961139
  73.7576102  27.7597118  13.3181830  37.6055908  64.5548725  51.5887737
  36.6562223  64.5080709  51.4759064  37.8444076  65.4188395  51.2529802
  21.1315155  60.1541281  50.1947975  22.0369220  59.9238586  50.4032421
  20.9113431  59.6037292  49.4432545  20.4134201  12.1332002  18.7080499
  21.3488411  12.1040893  18.5071202  20.3113674  12.9072833  19.2617818
  62.7396679  39.6477151  23.1215453  62.9820395  38.7862921  22.7817798
  61.7833328  39.6303034  23.1582499  66.2602055  54.0778264  23.7834950
  66.2399494  53.1311485  23.6434098  66.0699141  54.1861900  24.7153111
  53.1260895  34.7305751   4.3552562  53.4610104  35.3606582   3.7172433
  53.2530760  35.1572633   5.2026339  36.2732970  57.6895484   0.3793212
  36.9424760  57.2854170  -0.1730470  35.8406865  58.3230313  -0.1932029
  35.8654022  61.1036714   6.9276067  35.0959938  61.6313061   7.1417161
  35.5101835  60.2462658   6.6932746   4.1755163  47.4023649  15.9088298
   4.0654814  46.5242776  16.2736436   3.3721554  47.5577792  15.4121610
   4.7780131  33.1508375  16.4058705   4.0674805  33.4596181  15.8437081
   5.2388929  32.5015855  15.8745595  63.1775475  42.0300770  60.7658768
  62.8416872  41.9980383  59.8701096  63.1522560  41.1207819  61.0638189
   0.4636431  48.6662674  46.0075760   1.1529255  48.8208389  46.6535091
  -0.2890778  48.3792639  46.5245581  48.7404919  48.8831997  21.4445710
  48.8631296  49.7140360  21.9038105  48.0506945  49.0622902  20.8055592
  57.9873168  66.2758144  10.5553838  57.0969665  66.5786513  10.3770610
  57.8853571  65.3507217  10.7790824  71.1739027  57.7025374   1.6758414
  71.5024244  56.9724091   2.2004529  71.9568836  58.2013973   1.4428016
   4.8212813   1.3087917   9.9416896   4.8568105   0.3593707  10.0581857
   4.7002124   1.6542578  10.8261224  46.4119530  42.6749802  46.4980030
  45.5812216  43.1230593  46.3388157  46.7857361  42.5465918  45.6262016
   5.4222988  47.8660894  57.0892068   4.5217465  47.5861764  56.9252225
   5.9615563  47.1993471  56.6638871  63.1703698   6.0908643  45.5674314
  63.9305746   6.5047113  45.1587105  63.4400475   5.9354917  46.4726210
  52.0302486  11.6783142  51.4944172  52.5073099  12.4782848  51.2737560
  52.7115393  11.0139275  51.5976954  12.1305679  16.6685224  10.4963895
  12.6668548  16.8183399   9.7178098  11.2433671  16.5504718  10.1570245
   7.5270914   5.5241752   7.3351975   8.0635785   5.3190160   8.1009170
   8.1562828   5.8013845   6.6692325   4.5491814   2.3770380  50.4015180
   4.9398087   2.1056605  49.5708581   5.2961134   2.6127100  50.9517690
  46.3947355  66.5047773  45.0893422  46.6440808  67.0833739  45.8099576
  47.2190201  66.3071045  44.6446916   2.6736139   8.4515262  15.0361939
   1.9712471   7.9425311  15.4409572   2.3696112   9.3580032  15.0821658
   2.7795552   6.1494565  21.2738915   3.2357382   6.2478567  22.1096250
   1.8507575   6.1633087  21.5049191  14.8692154  21.2369132   5.9595271
  15.0741218  22.0342708   5.4711982  14.0273975  21.4209676   6.3763019
  20.9460998  18.0780125  61.8155718  21.3578916  18.8192260  61.3714266
  20.1852751  17.8671038  61.2743759  49.7688723  40.9427023  50.0690460
  49.9424696  40.6380939  50.9597254  49.7198915  40.1417208  49.5472622
  71.8988621  44.3968293   4.4629880  71.0699188  44.1236826   4.8560258
  72.4950039  44.4952639   5.2053901  53.7708175  69.2893037  30.5285283
  53.3340775  69.5811685  31.3287183  54.6829497  69.5562419  30.6424924
  34.2195898  65.7085856   4.4838258  34.1006839  66.5169701   3.9852210
  33.5753482  65.1035246   4.1162892  41.7439960   2.6944471  35.5419846
  42.5138163   2.1600271  35.7369252  42.0140671   3.2441259  34.8063489
  11.1353635  38.3804536  24.6150323  11.5419792  39.1884876  24.9280377
  10.5313372  38.6661840  23.9296552  37.2857464  66.1551507  44.6112585
  37.7037275  67.0160498  44.6306372  37.5799740  65.7278874  45.4156876
  26.2900137   4.7952724   3.7028953  26.8763708   4.8230148   4.4589683
  25.5722975   4.2244339   3.9772244  47.7315092  66.0842800  35.4533529
  48.0466938  66.9368887  35.1534438  47.2765112  66.2723351  36.2742329
  49.0139520  62.9906353  38.9094182  49.3766272  62.1160468  39.0501042
  48.1918823  62.9907521  39.3997594  11.8196820  -0.1484584  16.7687770
  11.6235923   0.6855607  16.3419362  12.6935123  -0.3792429  16.4535161
  17.7555775  30.3355289   6.4219876  17.0846962  31.0181976   6.4111730
  17.8192686  30.0478673   5.5112620  54.3945252  62.0007595  29.1018506
  54.9389994  62.1158871  29.8806497  53.4981858  61.9805440  29.4371148
  44.5217918  36.1835742  14.6682998  45.1215481  36.9204450  14.7846719
  43.9786552  36.4326167  13.9204951  54.3367430  13.0606485  30.9255238
  53.6965119  12.3578906  31.0371705  55.0742205  12.8028894  31.4786263
  15.4850220  24.8616720  12.6964065  15.8930420  25.7236886  12.6147004
  14.5528792  25.0231004  12.5505324  15.4032110   1.2649942  42.5975438
  15.6952595   0.4376126  42.9801389  14.8684858   1.6692925  43.2808038
  50.8056307  53.0803776  62.2115040  51.2857056  53.3082008  61.4153528
  49.8852015  53.0972242  61.9492769  36.3061511  42.1562138  15.1851436
  35.5906188  41.6164562  15.5211564  36.8647944  42.3141709  15.9461947
  72.4901926  57.0729407  12.3766824  72.5433742  58.0197557  12.2465058
  72.7664959  56.7001733  11.5394612  20.5173993  53.0711317  54.6180582
  20.1605058  53.5305929  55.3781605  20.6182814  52.1655321  54.9112129
  33.0621219  44.1523504  56.9763088  33.9810944  44.3901443  56.8531132
  32.6874256  44.8875809  57.4613571  17.4611437  18.3341205  49.3793249
  16.5455854  18.1626618  49.1589022  17.5334358  18.0967307  50.3037977
  60.6591606  33.7148499  52.7760410  60.3917456  32.8160334  52.5840664
  61.5143776  33.6256480  53.1966114  46.8902779  47.4388456  54.7467804
  47.7066660  47.8378820  55.0476360  46.2462997  47.6797199  55.4127407
  43.7971901  53.1758714  13.3694764  43.1918739  52.9870725  14.0865441
  43.2521414  53.1506658  12.5830193  47.3248684  61.7670187  17.0085450
  46.4858305  62.0233973  16.6257735  47.5062525  60.9055075  16.6328736
  22.9775743  64.4027885   1.9540282  23.6210353  64.0651211   2.5770636
  22.1429091  64.3503484   2.4196645  57.0211904  30.0049234   0.6306382
  57.9482292  29.7773385   0.5596801  56.5595548  29.1818834   0.4702445
  58.2118416  44.3230534  59.0138435  57.6667690  44.7778463  59.6559429
  57.7421808  43.5083675  58.8351345  32.2295022  31.6095376  59.5781040
  32.8203082  31.2501884  60.2399540  32.1796298  30.9290600  58.9067650
  34.9788736  14.9842048   9.0045567  35.1378750  14.3128848   8.3410188
  34.9162697  15.8007217   8.5089656  62.5571548  25.4918465  16.4425631
  62.7897393  24.6000966  16.7012521  62.8873217  26.0412713  17.1534463
   3.3014654  11.3763595   0.6691619   3.1272410  10.5587221   0.2029582
   4.0473603  11.1755062   1.2344333  30.2519894  47.5344563  47.4712849
  29.6371841  46.9156981  47.0770979  29.7548485  47.9501486  48.1757593
  72.5980472  58.4582067   8.2108756  73.3207058  58.5139299   8.8360854
  72.2130441  57.5956941   8.3660670  30.6969237  14.2987287  58.4222269
  30.0476503  13.7177610  58.8186550  30.9690046  14.8760533  59.1355991
  45.5827904   0.9495554  46.5108013  46.0468149   1.6000283  45.9837341
  44.6570635   1.1071128  46.3252211  41.7111301  70.3622040   3.5855790
  42.2245669  70.6402310   2.8270837  40.8758163  70.0747188   3.2170220
  72.0398926   2.2644043  19.3148538  72.3039388   2.4330807  18.4103890
  72.0793675   1.3120199  19.4022389   3.6677145   1.6346670  17.0506116
   2.9752516   2.2548151  16.8222543   4.4650649   2.1637559  17.0735570
   9.2415451  24.8792005   5.8861991   8.5431146  24.9500490   6.5368958
   9.4906949  23.9551282   5.9019061  50.7875764  62.3600778  27.5439950
  49.9561369  62.8047928  27.3791619  51.2808930  62.4653443  26.7304917
   2.7454947  19.0366102  35.7603951   2.3487471  19.8737359  35.5194589
   3.4217309  19.2666364  36.3975926  75.2850198  43.2974220  42.3294564
  74.5830988  43.0320764  42.9237004  75.4285525  44.2230583  42.5265141
   3.0627512  40.3743959   1.4334842   3.6672567  40.9478784   1.9045707
   2.8764652  40.8404947   0.6184503  25.9054518   9.6932656  50.4543543
  25.5174828   9.1828370  49.7435951  25.2859020   9.6048057  51.1786222
   3.7209700   1.6773296   3.0038711   3.1185984   1.8331170   2.2764703
   3.4672521   2.3195935   3.6667081   6.6952943   9.5535112   5.8901378
   5.9298252   9.7135377   5.3381606   7.1244954  10.4064298   5.9575530
  63.6523401  69.0781435  29.8122235  63.7832295  68.7613663  30.7059594
  64.4719159  68.8721665  29.3626710  26.0651564  30.0979114   7.3720666
  25.2706264  30.6127906   7.2311850  26.7662023  30.6323982   6.9991179
  41.0646534  46.7739391  39.5523262  41.5954971  47.5691605  39.5977068
  40.2729750  46.9858980  40.0468445  18.4880184  33.8506914  31.6320249
  19.0948032  33.3647371  32.1905061  19.0508531  34.4101119  31.0967751
  15.1269125  34.2894292  12.6172276  15.3950285  33.3706785  12.6327821
  15.8319544  34.7523761  13.0698081  26.4812492  33.7257266  46.2887116
  27.0637916  34.4137359  46.6104527  25.6383394  34.1628385  46.1676045
  36.8964659   7.0030427  28.8581105  37.5815212   6.4874292  29.2836400
  36.4292156   6.3735843  28.3088513  57.0832353  10.9467912  29.4496365
  57.2349380  11.1301494  30.3767796  57.9128610  10.5849290  29.1381761
  64.9894546   3.6612559  23.6547395  65.5495821   2.8859306  23.6915799
  65.5322992   4.3659282  24.0082761  18.5060310  59.7990131  47.4830532
  18.3517325  59.4574118  48.3638096  17.8807640  60.5180407  47.3920918
  34.5769763  62.5003862  58.8304949  34.5701838  62.0799637  59.6903992
  34.7964001  63.4141684  59.0123796   8.2772325  37.4150253  12.8389665
   8.2827138  36.7396474  13.5172482   9.1848062  37.7157522  12.7930709
  75.4721807   2.4510742  30.7749577  74.9384450   2.0587802  30.0839730
  75.4160379   3.3931852  30.6152459  15.5779766  18.3247781  23.8128968
  14.6781038  18.4801555  23.5259934  15.7324528  17.3987985  23.6259862
  21.7613109  64.2602524   8.0786916  21.9679734  64.8602280   8.7953158
  21.0859569  63.6837706   8.4361812   1.1806868  22.2998405  10.7761832
   0.9713816  22.6155353  11.6552468   0.4501962  21.7249370  10.5479165
  53.3987289  28.8227630  34.5566197  53.7673761  28.0515790  34.1257974
  54.1368513  29.4265151  34.6396275  68.1230139  31.7150140  14.2426129
  67.5677918  32.4636484  14.0246602  68.9442014  32.1050334  14.5422288
  48.2055712  37.5118995  31.4821625  47.2958088  37.4083328  31.7611599
  48.5585690  38.1867433  32.0620012  65.2469159  70.6816906  46.0009432
  65.1668633  71.6200114  46.1723423  64.3920124  70.3213739  46.2366199
  63.3344221  53.6839056  58.4653759  63.3997393  54.1403913  57.6265717
  63.8831186  52.9068899  58.3585596  15.7164740  50.8278776  13.7108918
  16.4005875  50.7594037  13.0449077  16.1819910  51.0843969  14.5069571
  43.6431610  55.8278045   9.1242524  44.5249116  56.0645517   8.8366815
  43.1934547  55.5606052   8.3226319  58.8873279  48.6661014   2.6805325
  58.5310709  48.2300242   1.9064876  59.4521224  49.3543466   2.3290273
  56.5050602  24.5627093  36.6801047  55.9561014  24.1303849  37.3343015
  56.1126041  25.4291534  36.5729308  25.2431464  27.5728893  54.7332764
  25.5380249  26.7787528  54.2876005  26.0231590  27.8995442  55.1817226
  67.6364338  56.1663708   0.4697724  67.4897396  56.0411700   1.4073440
  67.5505316  55.2898904   0.0947591  19.6593487  36.8086004  61.8804932
  19.3158948  37.2358537  61.0958099  20.1987910  36.0919547  61.5463400
  67.5562608  67.5217295  38.9391470  67.9994887  68.3509159  39.1186762
  67.5554585  67.0636892  39.7796416   9.1544508  35.9246183  38.1150838
   9.4006490  35.0170303  38.2936879   8.3824800  36.0751796  38.6606332
  45.0948047  58.1671485  14.9861928  45.2444016  58.6668571  14.1836043
  45.9345018  58.1937512  15.4449244  15.1654648  26.9495798  44.5802327
  14.9491094  26.2078214  44.0152379  15.8909105  26.6358066  45.1201459
  52.3550331  61.2484964   5.3183719  53.1732571  61.4936885   4.8863765
  52.5996077  61.1092099   6.2332555  55.3238022  67.2835025  40.8249303
  55.4233992  67.6233777  39.9356671  55.0975573  68.0507549  41.3506432
  10.7793163   0.9870887  19.1311475  11.2612580   0.4991341  18.4634133
  10.7179879   1.8757606  18.7808057  49.3882858  62.1825680   1.5598269
  49.4871556  63.1329044   1.6174098  49.1089951  62.0250305   0.6579324
  21.0246325  35.7268190  58.3621359  20.6479239  35.1669240  57.6832819
  21.2041163  35.1323390  59.0905619  51.6534519   8.8419175  43.4003639
  52.0324898   8.6074346  42.5532627  51.3001060   8.0198920  43.7404442
  58.7272012  62.5049147  13.4130355  58.8350188  61.6229686  13.0569716
  59.6152818  62.8606423  13.4447165  46.1606585  71.1547336  20.0551816
  45.9390318  70.8653506  20.9402581  46.7416775  70.4725584  19.7185918
  20.5545235  45.0325632  59.2760229  20.4379535  44.8169327  58.3507395
  20.9631920  44.2537785  59.6538019  40.8969164  35.2314544  57.9254198
  40.0140429  35.3117466  58.2864141  41.3683891  34.6949792  58.5627127
   7.3223804   3.5308099  18.2570573   7.0688199   2.7478838  18.7459012
   6.4975881   3.9875961  18.0918380  13.9129996   2.3172708  55.1247215
  13.2750607   1.6286838  55.3121090  13.4111512   2.9898453  54.6642637
  48.6285353   7.6714152  58.8501883  49.4509602   7.5545311  59.3257761
  48.4684420   8.6147565  58.8768196  16.5781224   1.7103732  51.4360476
  17.1614087   2.1715568  50.8332872  17.0979190   0.9725416  51.7548704
   8.3193087  26.3570857  33.8493081   7.8812336  25.8807207  34.5545789
   8.3209251  27.2687507  34.1410180  60.3741586  48.4234795  34.8470708
  61.0976231  48.0440196  35.3459187  60.0418913  49.1270610  35.4045697
  75.6916439  23.4207567   7.3707124  76.1973583  23.2412299   8.1633397
  75.2501642  24.2506846   7.5511237   8.6066114  16.6815225  55.9572792
   8.0553448  16.5468351  56.7281199   8.5715496  15.8474008  55.4890442
   7.0599984   8.8761020   1.8983956   7.4847125   8.3244348   1.2414952
   6.9182514   8.2938028   2.6447650   7.4371921  59.7733625  33.9304753
   6.6229498  59.7363886  34.4323369   7.1551001  59.7708377  33.0157872
  13.7597965  16.2972141   3.0978747  14.3712520  16.7191959   2.4943133
  13.1496738  16.9919992   3.3453771  13.5444080  62.8643330  25.8915063
  12.7568829  62.3436841  25.7335206  13.5104525  63.0727300  26.8251248
  46.2865639  37.8074002  56.0828829  45.5574846  38.4138346  56.2129211
  46.9841528  38.3476162  55.7117128  12.8167856  48.6815023  52.1926260
  13.0238271  48.3605862  53.0703402  13.0748487  47.9676104  51.6095304
  37.5525354   7.4010492   1.7007132  38.2540344   7.5016952   2.3441382
  37.9928707   7.4697185   0.8535834  14.9592279   8.7250781   2.2573300
  14.8541378   8.7153364   1.3059684  15.8218788   9.1149354   2.3990317
  23.0229093  67.1960863  26.2413617  22.8005650  67.6203689  25.4126473
  22.2854822  67.3957142  26.8180676  41.9936848  41.5641642  59.5312548
  42.2892046  42.4458599  59.3042898  41.2148046  41.4264297  58.9921713
  48.1599474  54.7289038  47.4546528  48.9091110  54.9999094  46.9240475
  47.4478865  55.3043556  47.1752787  19.1570055  40.5167866  19.0773928
  20.0764680  40.2934313  19.2220783  19.0210760  40.3766346  18.1403160
  40.1277458  69.0538105   1.9089957  39.6797955  68.7091669   2.6815196
  40.1156115  68.3302936   1.2824126  16.9591926   5.8166337  39.4590112
  16.1379885   6.1419320  39.8278352  17.0028948   4.9028516  39.7406598
   3.0659735  65.9965452  24.5081445   2.7450334  66.2543448  25.3723069
   2.7526771  66.6847094  23.9211961   5.6160033  42.0362425  39.9221087
   5.3283441  41.8690252  40.8196211   4.9533346  41.6138554  39.3755841
  59.7642899  56.8391466  33.1851459  59.3743277  56.1364555  32.6651549
  60.6976938  56.8019342  32.9763222  58.8737059  27.6868820  50.6270409
  59.8067856  27.5389981  50.7810831  58.8353300  28.5354757  50.1858521
   8.8057280  63.2361364  47.7578735   8.6990118  62.2875261  47.6873159
   8.3125830  63.4749174  48.5427475  33.5641170  28.0806208  55.3750658
  33.6470795  27.5808263  56.1871958  34.0761757  27.5854039  54.7356987
  38.0965638  60.3152236  10.6545421  38.2193601  60.8313497   9.8578187
  38.3111786  60.9184035  11.3661214  11.3564312   7.0050661  37.1061587
  11.6074097   7.8676263  36.7756629  12.0044052   6.8101398  37.7831888
   9.3643111  11.6093636  38.4061193   8.7964070  11.2009406  39.0595007
   8.8357830  11.6293013  37.6083136  64.2683554  23.5416269  57.1495342
  63.7351418  22.9327464  56.6384792  63.9256763  24.4067192  56.9249868
   4.2825043  43.8434335  10.5959149   5.1093685  43.8530644  10.1138040
   3.6497652  44.2354241   9.9940701  61.8615246  65.9342909  42.0030451
  62.5904512  66.0612917  41.3957787  61.2347507  66.6197205  41.7715788
  11.8383836  35.6662488  15.8392640  11.2646507  35.6909538  16.6050645
  12.3935293  36.4406324  15.9308215  49.2610057  23.4963298  37.9797479
  49.2930023  24.2200685  38.6053773  48.3798050  23.1351877  38.0761453
   4.6497606  26.8365455   4.2011329   4.2560648  25.9880042   3.9981337
   3.9979004  27.4772001   3.9167519   5.4926348  12.6089787  56.3197756
   4.7782755  12.0197189  56.5620565   6.0916662  12.5785625  57.0657396
  28.6530399  26.2201762  47.0714951  29.4614935  26.4185643  46.5989733
  28.1588221  25.6578612  46.4750195  48.9485455   6.5100294  51.5563631
  48.2695580   5.9617990  51.9496155  48.6985826   7.4043614  51.7885637
  47.0473337  17.9498672  54.0796614  47.4050999  18.6858726  53.5831404
  47.7775908  17.6477361  54.6197271  45.1617920  63.9073738   9.8374673
  45.9976780  64.0776500  10.2716704  45.3503620  64.0130624   8.9049931
  62.5842094  53.9833736  43.4850025  62.6381063  54.4179869  42.6338673
  63.4290075  53.5442591  43.5836363  47.2017502  32.6536775  24.5708295
  46.8735002  31.9559312  24.0036984  46.5530371  33.3529020  24.4902821
  62.9693556  16.0185611  54.3116379  62.3825932  15.5521369  54.9069405
  63.3062172  15.3398299  53.7267590  41.0586929  43.3918333  56.2202215
  40.6104326  43.6917114  57.0110226  40.5134153  43.7098217  55.5006456
   8.6164104  56.4639362  14.4067164   9.5601999  56.5064939  14.5605966
   8.2723677  57.2629842  14.8059531  61.2266671  67.3117098   2.1678372
  61.5355622  68.1129655   1.7449828  60.8131134  67.6121124   2.9771396
  57.1299648  50.3576040  39.7273207  56.7804337  51.2473392  39.6780920
  58.0714989  50.4767132  39.8520637  46.3067256   5.8326650   0.5679437
  46.7901974   5.0558305   0.2868434  46.5985860   5.9841419   1.4668914
  53.9394617  15.7960737  56.9832087  54.2992449  16.5852129  57.3882341
  52.9906988  15.9133530  57.0314503  72.7872840  37.6887894  51.8903065
  72.0611346  37.1653295  51.5512991  72.4093846  38.1774449  52.6214981
  33.9563333  38.9344832   7.3295804  33.7739187  39.7170725   6.8094750
  34.8089241  38.6322414   7.0165749  25.0828505  53.2300377  59.0676069
  25.6829953  53.3429813  58.3305168  25.6141996  52.8163767  59.7478867
  53.6430346  68.3275064   0.4339381  54.4735538  68.2484445  -0.0353364
  53.4929168  67.4573406   0.8034059  59.1038828   5.5628133  18.7344857
  58.8316004   4.8820281  18.1191655  59.0696173   5.1384235  19.5917817
  51.6216707  26.0734653  52.2010803  52.2643089  26.1223197  52.9087973
  51.8053484  25.2398920  51.7678928  35.6880641  35.5675387  54.8392963
  35.6110287  34.6176386  54.9286699  36.5307689  35.7783747  55.2413273
  37.9280304  31.2280250  25.4389020  37.8292250  31.0898328  24.4968911
  38.8545298  31.0589385  25.6098958  19.9623823  59.6523046  41.3632345
  20.1034641  60.5918694  41.2468481  19.2191172  59.5942688  41.9635868
  46.5725756  32.8196502  59.1951370  45.7194996  33.2286954  59.0495968
  46.4282560  32.2180843  59.9255657  71.9666910  32.3994112  48.1715441
  72.0308590  31.9727039  47.3171234  72.6913452  33.0247045  48.1820107
  57.3670769  28.4162664  58.0651569  57.9502964  28.2847023  58.8126707
  57.9037333  28.2020354  57.3020506   4.0026997  22.7544284  10.4549189
   3.7416910  23.6723066  10.3800460   3.2052921  22.3000837  10.7268544
  39.7146130  53.6695051  58.6660910  40.0222588  53.6895514  57.7599001
  38.8530827  53.2552195  58.6174345  22.1369051  49.7146535  17.4098082
  21.6889070  49.6346212  18.2518979  22.3097824  50.6516862  17.3185845
  71.2078250  71.2223323  41.9996452  71.8404306  71.5856179  42.6193714
  70.8627403  70.4444844  42.4379349  39.6542287  66.9986343  56.2654734
  40.2576685  66.7716360  55.5579662  39.6135879  66.2108135  56.8076134
   2.5746511  17.0067430   2.3997279   3.1980728  16.3946796   2.7908202
   2.3625015  17.6166845   3.1062671  65.2670121  65.4578018  41.6518927
  66.0352677  66.0274792  41.6903639  64.7553146  65.7950830  40.9166098
  12.0578479  33.0758977  15.1462861  12.1859049  34.0082670  15.3210040
  12.0068883  32.6744581  16.0137435  29.0935444  14.1856075  44.4343778
  28.4079002  13.9461732  43.8108464  28.9287590  15.1082158  44.6289845
   7.6554644  15.7975427  52.3161745   7.5041639  16.6641847  51.9389868
   7.8573000  15.2409021  51.5640783  35.3255867   9.3950487  45.0347920
  36.1617063   9.0218759  44.7557279  34.6652435   8.8461233  44.6118852
  60.4425001  62.4116755  44.8251915  60.8683586  63.0803728  45.3615856
  60.3887463  62.8026009  43.9531136  46.3451195  55.8407736  55.3284979
  46.1657953  55.9269857  54.3922091  45.7122278  56.4234543  55.7482243
  19.9242329  43.4264970   1.2434741  19.0157722  43.1643701   1.0943957
  20.4089760  42.6018167   1.2774535  65.8453189  31.8926216  21.7049714
  66.2927889  31.0894466  21.9712754  66.3807784  32.2398448  20.9915658
  10.5289185  13.3744470  53.0552435   9.9585306  12.7227727  52.6475525
  11.0400640  12.8786794  53.6949158   8.2605218  54.6787858  25.7416173
   8.8677191  54.0061975  25.4331132   8.0829309  55.2140737  24.9682065
  53.2692253  37.0069766   6.2221785  53.5707738  37.8837467   5.9843322
  54.0727364  36.5149427   6.3910123   3.5959196  56.4604425  53.6967754
   2.8724480  57.0793295  53.5977793   3.3915138  55.7531977  53.0850172
  64.8172283  28.8007879  42.7248335  64.6920681  28.7563181  41.7768955
  64.8502827  29.7376347  42.9183722   6.5597009  10.5801750  14.6446629
   6.8840979   9.9264837  14.0252372   5.9860968  11.1410261  14.1224976
  20.1545214  32.2905374  39.3334123  20.8132957  31.9750142  38.7147923
  19.7579073  31.4946247  39.6876069  39.4973588  54.6445608  37.3344445
  38.7890482  55.0934458  37.7959967  39.7256279  55.2335215  36.6152430
  59.6339773  29.2999053   0.4054089  60.3768133  29.0853095   0.9696551
  60.0260614  29.7353387  -0.3514890  28.5455858  61.7757806  15.6105681
  28.9313423  61.4574942  14.7944041  27.8778374  62.4022707  15.3315421
  21.8729280   8.9418674   7.3001738  21.0949158   9.4885898   7.4098082
  22.6058220   9.5271278   7.4914189  31.9972967  18.8905883  37.6753827
  31.1567711  18.4693647  37.8551694  31.8922352  19.2725921  36.8040200
  48.3516621  10.3655649   2.1706029  48.9195322  10.5002189   2.9293033
  48.1251072   9.4361282   2.2029563  56.9664812  40.9635544  54.1014862
  57.0242262  40.3592443  54.8415565  56.0862732  40.8287859  53.7503386
  20.3979467  27.2406030  16.0864850  20.0367378  26.5362192  16.6246339
  20.5403065  26.8384338  15.2296182  72.1669542  65.2497419  21.0659905
  71.9946157  64.7623929  20.2603742  71.9702112  66.1594185  20.8423539
   2.1562349  15.3434507  51.1067533   2.5258648  16.0736982  50.6104326
   2.8375542  14.6713964  51.0872698  52.9799354  65.4942759   8.3335896
  52.0918238  65.5818447   7.9874297  52.8571856  65.3203234   9.2668124
  55.6915068  29.6163965   7.6126166  56.4768194  29.8427987   8.1108781
  55.1050733  29.2199254   8.2569333   8.2476866   9.9144880  40.2214575
   7.3698103   9.5337526  40.2460718   8.4480297  10.1138250  41.1359835
   5.3314756  13.7404848  27.6832601   5.6805753  13.0516315  27.1177121
   5.8466004  14.5162416  27.4617215  37.9692339  40.7648731  -0.1957873
  37.7532362  40.8790565   0.7297059  37.3173546  40.1428724  -0.5189065
  72.4279379  20.0196815  15.1947280  72.1198248  19.6173835  16.0067960
  73.3682512  20.1389146  15.3282519  41.0307669  14.8955655   6.1951705
  40.6262850  15.5436588   5.6184503  41.6523765  14.4310689   5.6347438
  58.5486614  13.3893911  55.4338932  58.8726675  12.7275506  56.0448074
  57.8387129  13.8242380  55.9062481  38.2756018  13.8260770  10.2567407
  38.5085749  14.2758775   9.4445582  39.0756821  13.3685375  10.5151244
   0.5085777  10.3283048   3.9003058   0.6532096   9.5311380   3.3905574
   0.2817534  10.0148940   4.7758361  31.6829324  50.4767847  53.2090330
  32.5791335  50.2523184  53.4593725  31.2372446  50.6446934  54.0393400
  41.0877251  26.5842891  18.4844705  40.9591173  26.6433263  17.5377913
  41.7196154  27.2750688  18.6838838  48.1215870  64.4062694  24.1134377
  47.4490940  64.6315559  23.4706136  48.8147890  63.9918622  23.5996648
  48.1577276  35.1916671   8.0572101  47.6706385  36.0110307   8.1445237
  48.7960314  35.3650451   7.3653050  59.5404326  60.1556643  20.1521512
  60.3074681  59.5830997  20.1596852  58.8154327  59.5882806  20.4142209
  43.6136555   3.2933036  56.3535690  44.1359853   3.8962738  56.8825579
  42.7739500   3.2400934  56.8099594  37.7502130  35.6645179   2.0784923
  38.4306597  36.2471748   1.7412492  36.9791340  35.8643031   1.5476914
  19.1984819  56.3939023  18.5801145  19.7811340  55.6989503  18.8863774
  18.3323406  56.1370016  18.8963719  25.3767920  62.1782351  47.1200037
  25.9324193  62.8113747  47.5745916  24.9814939  61.6598225  47.8208733
  37.9796051   6.2354780  35.9243127  38.9241623   6.1011386  35.8468934
  37.8843998   7.1716762  36.0995217   6.0045290  33.1597900  56.3684893
   6.2856913  33.7891126  57.0326662   5.0633097  33.3096528  56.2797499
  56.3894450   8.2496333   0.7620736  56.3490211   7.8090930   1.6109057
  57.2055565   8.7490440   0.7900401  18.6675285  13.1377864  11.2781926
  17.8061317  13.2188535  11.6876574  19.1937517  12.6606298  11.9197865
  23.3538317  31.3584447   5.9231158  22.4788116  31.0262227   5.7226201
  23.3409523  31.5123439   6.8677731   8.0368578  16.3811723  58.9527369
   8.7698519  16.4193574  59.5671415   8.0313646  15.4756872  58.6424303
  26.4467214   9.5560384   8.0313893  25.6832670  10.1308132   8.0862161
  26.3509630   8.9591766   8.7735578  12.0685255   3.9289705  49.1804838
  11.4233553   4.3004123  49.7821617  11.6831266   3.0994789  48.8982725
  72.0945024  43.4741020  56.1252022  71.3395786  43.7053442  56.6663599
  72.3532915  44.2972422  55.7108355  26.7258596  48.6325121  46.2156916
  25.8079481  48.6713171  46.4843416  26.9822359  49.5481920  46.1060095
  65.1100874  25.1724863  27.6751781  65.8197403  24.5643592  27.8820777
  65.0815153  25.1906753  26.7185760  59.7029305  62.3806810  54.2057753
  59.9314451  61.6291189  54.7527361  58.8022709  62.2109413  53.9296722
  51.4403069  51.1905941   4.6669122  52.0369851  51.6659554   5.2450486
  50.6170356  51.6759094   4.7209998  73.4900618  68.0960417  17.0228314
  72.6282215  67.7423191  16.8029547  73.5862637  67.9271746  17.9600954
  39.6927452  62.9165554  52.4641657  38.9880109  63.5127783  52.7173376
  39.7258592  62.2712946  53.1704044  28.7607788  15.4973388  14.1748591
  29.2626976  15.5901885  13.3651133  29.3564390  15.7970739  14.8615762
  51.2360668  62.4692822  47.9891348  51.8443680  63.0891371  48.3916092
  51.7943287  61.8837214  47.4775743  72.7142298  20.6164876  36.9863844
  71.9603645  20.1181165  36.6708589  72.3853027  21.0905019  37.7501535
  62.8645802  42.2642756  52.9347181  62.6401186  43.0148458  52.3847294
  63.6504269  41.8971682  52.5298595  74.6562540  36.8916837  39.7456026
  74.3012297  37.0486680  40.6205559  74.3629658  36.0081140  39.5231009
  15.8676529  58.4045792  46.1768198  15.4965353  59.1496849  45.7042408
  15.4188120  57.6419210  45.8119535  56.2615108  38.7431812  47.5026941
  55.7050467  39.5083427  47.3574162  55.6825352  38.1002355  47.9121351
  11.9131433  47.2216877  13.8237878  11.0896170  47.4985298  14.2255231
  12.4065124  48.0333206  13.7051793  74.9101734  42.7239275  55.3340101
  75.5001783  43.2142067  55.9065104  74.2322111  43.3548069  55.0919676
  60.4814892  34.6932817  31.1224385  59.6656763  34.8380399  30.6431409
  60.2439182  34.0834785  31.8209573  36.9833398  55.1617813  45.6579828
  36.2634349  55.2565241  45.0342894  36.6348362  54.5885420  46.3407516
  10.6468498  57.9030641  56.1770841  11.0021173  58.7727055  56.3607713
  11.2993156  57.4927863  55.6094666  34.8148798  47.9665399  12.9698678
  34.6874784  47.0383191  12.7738925  35.1530718  48.3390355  12.1555587
  12.0288443  37.9250026   7.0545407  12.4514769  38.3547092   7.7981587
  11.0932802  37.9703260   7.2517749  50.3710293  23.4835935  12.2672339
  51.2867330  23.2090354  12.3155566  50.3546118  24.3393016  12.6958676
  55.6848895  19.3570081  32.4327946  55.5324137  20.1286260  31.8872762
  54.8377168  18.9123289  32.4608588  48.7619305  33.5558891  48.5924911
  49.6479082  33.9071321  48.5036039  48.4820080  33.8302469  49.4657660
  36.0490060  53.9799118  53.8060999  35.7346725  54.7618580  54.2599535
  37.0024896  54.0634108  53.8174725  18.0484259   8.4968273  46.7194748
  17.3846781   7.9740659  47.1693563  17.5569117   9.0023176  46.0720778
  19.8649572  12.0427394   9.0298863  19.3981384  12.3556924   9.8047229
  19.1751264  11.8622423   8.3913012  62.3100817  27.8998224  35.2227950
  62.4478209  27.0058195  35.5359006  61.9560277  28.3667890  35.9796429
  37.3633633  10.9085814   7.8269263  38.2384311  11.2475650   7.6383038
  37.2770916  10.9837691   8.7772580  30.9880232  13.9633680  21.5907689
  31.6327070  13.3863569  21.1812898  31.4515089  14.7919298  21.7128106
  68.3069813  68.1488689  51.7429086  68.6336481  67.9973134  50.8560296
  68.5157787  67.3433598  52.2159692  15.8966183  31.6732479  15.6121036
  15.0376581  31.9386888  15.9406730  16.0240387  30.7907987  15.9603616
  24.6961283  44.4048524   0.6982013  24.0042042  43.7608028   0.5476447
  24.4051622  44.8934102   1.4681884  29.6015858  35.5202365   3.7830611
  29.6693920  36.4369321   4.0500756  28.6609339  35.3641582   3.6991568
  60.1855469  51.6123056  16.4851129  59.7978449  52.3363876  16.9766617
  59.9515247  50.8306360  16.9855762   2.5335525   4.5144439  13.9574548
   2.5050877   3.8776112  14.6715041   1.7776083   4.2967677  13.4121152
  -0.0137032   7.3987905  36.3019156  -0.3180492   8.2986442  36.1841583
   0.9410726   7.4668733  36.3014126   1.9731521  12.6564575  43.9976331
   2.5442146  13.2048154  43.4596559   1.5509223  13.2689786  44.5999356
  10.5415725  12.7988410   8.3960410   9.8275231  13.3606506   8.6972638
  10.2992724  11.9224430   8.6951228  53.1117439  69.9958944  61.0437918
  52.3162699  69.7568941  61.5195322  53.1821012  70.9439135  61.1557961
  46.6668844  41.4622307  40.7201719  46.4023781  40.9565353  39.9517035
  47.3688555  40.9461164  41.1165190  11.4414643  14.1119409   6.0195037
  11.4980387  14.8865390   6.5789910  11.3464068  13.3814407   6.6307040
  26.6169237  24.1155506  32.4732037  25.8694242  24.4217849  32.9867192
  26.7272304  23.2008529  32.7327939  43.3933233  46.3681722   6.8508120
  42.5714086  46.2183214   6.3836595  44.0717958  46.0792756   6.2405272
  53.3426762   6.4266747  38.7405610  54.2407799   6.5701431  38.4421349
  53.1966877   7.1079040  39.3969488  54.0366840  11.1002696  48.7651491
  53.0825996  11.0231471  48.7627506  54.3278170  10.4514372  49.4058418
  40.4815113   0.7946435  47.0878077  41.2797462   0.2900354  46.9315386
  40.1417267   0.4550735  47.9157400   5.9272587  56.9151315   6.7475959
   5.0307667  56.6133603   6.8941327   6.2839281  56.3027939   6.1041184
  48.9521265  34.2376661  61.6007042  48.0089235  34.0829897  61.5489578
  49.2916870  33.9304709  60.7601309  33.2872652  57.1661878  20.7908650
  34.0275978  56.8188310  20.2933904  32.7659677  57.6415849  20.1439687
  25.3543161   0.0065041  36.4442082  25.7564663  -0.2305221  37.2798654
  26.0427259   0.4740143  35.9711762  52.7427959  50.6719637  51.9439220
  53.1411839  50.0818872  52.5837088  51.8144846  50.6863165  52.1768665
  66.7233610  59.6114159  60.9657431  67.1732664  59.4759417  61.7996883
  65.8676720  59.9642229  61.2097788   6.8070887   3.1956411  10.7309791
   7.3287605   2.4135423  10.9110137   7.3150753   3.9142776  11.1074611
  46.5424061  38.5187078  49.6150160  46.5142584  37.9090667  48.8776016
  46.2203646  39.3450952  49.2550039  48.2959366  65.0283670   2.6497746
  48.1825924  65.6093168   3.4020242  49.0789080  65.3577995   2.2085640
  15.4017233  20.5925632  30.4411622  15.7161306  20.7943893  31.3224336
  16.0570501  19.9928880  30.0845548  64.7466682  25.3232646  24.8676034
  64.0933775  25.9652734  24.5896359  64.3875681  24.4805408  24.5899506
  63.2968771  60.7710075  59.6295547  63.0884337  61.5273380  60.1779556
  64.2517579  60.7789898  59.5634365  69.6012770  32.2018695   3.5180016
  69.7435414  33.1237150   3.3030768  70.1450561  32.0494390   4.2908545
   9.2700111  31.3894311  51.5180063   9.9469244  31.1662237  50.8790970
   8.7390530  30.5963842  51.5913582  29.2483496  28.5560060   3.6051675
  29.7224687  27.7443242   3.4245749  28.3872770  28.2680488   3.9082690
  29.6710943  19.6172357  18.6975594  29.8531031  18.7832904  19.1307279
  29.5707058  20.2428890  19.4149991   2.6566660  51.1971613   1.9067927
   2.9388296  50.2875122   2.0024796   3.4464228  51.6657564   1.6367217
  62.6878786  62.2338772  50.3198004  62.5888300  61.7285872  49.5128870
  63.6283159  62.4001265  50.3843784  60.7564973  12.8530813   4.6006795
  61.5314840  13.0679536   4.0815850  60.2397036  12.2805477   4.0337916
  24.8958801  24.2881370  26.8415852  25.0051950  25.2383829  26.8052884
  25.7785343  23.9512086  26.9953175  68.3249104  69.2122158  56.6765424
  68.3690798  70.1534661  56.8448468  67.6930725  68.8839086  57.3162576
  50.1780939  30.9571052  59.3795586  49.6313238  30.7780099  58.6145735
  51.0015726  30.5047464  59.1965723  54.8549128  44.9417830  46.2835169
  54.9417162  45.3972006  45.4460859  53.9210749  44.7432375  46.3525105
  46.8546092  62.9199943   4.2844125  47.2795927  63.4958037   3.6487504
  47.5103723  62.7951774   4.9704333  48.7185609  57.9737576  29.9844476
  48.8346064  57.5571498  30.8383771  48.4557569  57.2599133  29.4034215
  57.0854604  59.8694858   6.4371892  56.4275968  59.6509560   7.0972606
  56.8601286  59.3229660   5.6843444  11.8628167  47.2252393   2.7524205
  12.6603722  46.9913030   2.2776433  11.7490052  48.1604791   2.5832959
  59.6991980  34.6005368   8.2316514  59.7523081  33.9686591   8.9486857
  60.2336704  34.2183885   7.5355645  12.9186057  31.3933301  -0.2164487
  12.1572756  31.9339109  -0.4271058  13.0953406  31.5776325   0.7060643
  54.1799212  45.5116177  37.9028153  53.3338499  45.6303167  38.3344483
  54.7290087  46.2119246  38.2553816  57.0154524  51.4975071  32.2451735
  57.6096296  52.2090673  32.4836302  56.2359428  51.9391537  31.9082046
  64.6330726  59.4224080  10.0190135  65.1573359  58.8993367   9.4125672
  64.5575177  60.2770409   9.5945998  49.3980419   2.2546283  50.0907326
  48.9419949   3.0766288  49.9102449  50.1410973   2.5081913  50.6382799
  38.5412764  39.1858316  13.8989039  38.0324673  38.5877824  14.4463321
  38.6388706  39.9745298  14.4324418  35.2561975  44.4977665  59.8259354
  34.6356463  44.1940928  60.4884577  36.0743642  44.0498734  60.0409317
  36.0172962  46.0133481   4.6557971  35.4051660  46.7452932   4.7318288
  36.3436197  46.0663438   3.7574979  17.1123373   3.2388917  59.4811964
  17.4978554   3.7960187  60.1573753  16.2373888   3.6013881  59.3423176
  65.5282175  23.7490694  48.1916332  65.9635841  23.2972757  48.9145231
  65.9376251  24.6139852  48.1684780  45.7388269   3.7982885  46.8795109
  46.6734540   3.9890329  46.9589806  45.4847896   3.4801761  47.7458239
  27.6311087   1.1156989  35.2794190  27.3988270   1.8626428  34.7277375
  28.4310030   1.3891602  35.7284470  48.2272720  26.9206190  37.0234752
  48.0651569  26.7117000  36.1035275  47.6166010  26.3640213  37.5067019
  55.4828119  64.0509796  50.7421637  56.0775900  63.8092995  50.0321913
  56.0576057  64.2236137  51.4878464  67.0332527  55.7225275  34.2505050
  67.1831465  54.8785973  34.6765876  66.1067343  55.9072828  34.4043231
   5.3342306   9.3552438  53.8349104   5.3457605   9.6876375  54.7324753
   6.2483894   9.3932573  53.5536671   4.5115328  54.5188284  32.0751882
   5.4457426  54.6583986  31.9202447   4.2703009  55.1944447  32.7088904
  19.9805569  33.8198734  28.4452363  19.7332262  33.8149953  27.5205537
  19.5081781  33.0782152  28.8234349  47.3312759  58.3679247  53.8075161
  47.3201180  59.2928362  54.0537930  48.2080746  58.2255936  53.4508657
  69.7356033  46.8345165  29.4779873  69.6757507  47.5602150  28.8566923
  69.3511438  47.1775293  30.2846861  69.6202517  34.4968867  53.9078856
  69.5565748  33.6298943  54.3085051  69.4503498  34.3442678  52.9783297
  62.8667545  69.8610401  41.9197321  63.4853268  69.3588638  41.3892508
  63.0351639  69.5762014  42.8179216  30.9083532  16.0192895  18.4487363
  31.7746281  15.9461379  18.8492986  30.3359531  16.2950540  19.1646596
   4.0899586  29.7904182  22.9107686   4.6935820  29.4125486  23.5503694
   3.6051535  30.4538131  23.4017869  25.2046728  66.8634939  56.3778114
  24.9775934  67.5516081  57.0032454  24.3686819  66.4497709  56.1629057
  56.0188723  15.2677941  60.3498268  56.3506174  14.8525393  61.1459017
  55.0765419  15.1006460  60.3673410  47.8520655  15.6438280  32.5144883
  48.7160658  16.0534692  32.4705525  47.9607557  14.8065448  32.0635148
  41.8376457  69.9885711  14.8732205  42.5475013  70.0438389  15.5129739
  41.7846679  70.8674463  14.4977208  11.2708330  45.6722355  32.0230436
  10.5031061  45.7073498  31.4524341  10.9352636  45.8991766  32.8902912
   2.5617074  29.0786004  12.2348376   1.8589662  29.6135354  12.6039382
   3.3662962  29.4835449  12.5587054  69.3097496  48.5860682  58.4747505
  68.7638426  47.8005886  58.5099459  69.9570465  48.4591532  59.1683865
  31.9127296  42.5241256   2.5038644  32.2609829  42.5353265   3.3953973
  32.6874708  42.4651981   1.9448157  22.3843359  53.1470037  23.9157506
  22.6367449  54.0503621  23.7247773  21.7169784  53.2238412  24.5976373
  52.4254370  70.0883913  32.6270413  52.0013237  69.4764948  33.2286644
  52.4204969  70.9245491  33.0929255  27.4380279  65.5772209  24.0180326
  26.6550398  65.2633858  24.4704413  27.1379566  66.3368607  23.5189009
  20.5786467  65.2201271  41.3644028  20.4842067  65.7468081  42.1580791
  20.2104712  65.7659006  40.6695604  56.7263174  47.0129585  51.5335321
  55.9032345  47.2733498  51.9470024  57.1950960  46.5316820  52.2153330
  74.0179455  52.3086020   4.3822499  73.3742010  52.9609331   4.6584531
  74.7497045  52.4225053   4.9887057  20.2525209   5.1032854   6.5444489
  19.5787071   5.1696563   5.8678361  20.9006237   5.7649351   6.3027640
  67.8664385  19.1765237  19.9110433  67.9581081  19.5483947  20.7882710
  67.6579117  19.9262500  19.3536683  75.1203226  51.8772912  30.1379033
  74.5352148  51.5683866  30.8296128  75.9648966  51.9940019  30.5729981
   2.3242676  70.4768309  14.7784015   1.7466652  70.0150188  15.3861304
   3.1906235  70.4200682  15.1814338  51.6006804  31.2821937  49.1505384
  50.8378363  30.8345652  49.5165110  51.6097260  31.0251379  48.2285452
  61.5367985  55.3393126  49.0798712  62.3074436  55.2865982  49.6451712
  60.8141851  55.5318069  49.6773672  47.2210455  35.2947569  55.3857327
  46.7106152  36.0442162  55.6923246  48.1039333  35.6420851  55.2588129
  37.3075294   2.3893968  58.4776354  36.8180370   2.2615186  59.2902088
  37.9989242   3.0094091  58.7095642  46.2181616  17.2669518  23.0529118
  46.6602182  16.5229475  23.4619045  45.2953100  17.1511114  23.2790947
   4.3837797   9.6169321  20.9520507   5.0661671   9.5060960  20.2900147
   3.9684498   8.7567750  21.0142589   4.6633350  70.5650648   6.7505666
   5.6014120  70.7550296   6.7633363   4.2995369  71.1076507   7.4501964
  14.0255426  14.7519517   0.2726909  13.6528992  13.9355350   0.6056090
  13.5692905  14.9034906  -0.5550174  50.5733799  31.8472743   1.1840602
  50.6581806  31.4795089   0.3044053  49.7892879  31.4316917   1.5428420
  42.0269012  51.7784929  31.7323375  42.5427055  52.4114943  32.2318244
  41.7675638  52.2515583  30.9416485  69.8978102  67.4503287  -0.2604703
  68.9561712  67.2808513  -0.2316741  70.0734293  67.9615554   0.5294867
  71.5297079  54.6728992  33.8892579  70.7550001  54.2209053  33.5549521
  72.2344065  54.4102478  33.2971048  62.5139272  19.6764509  56.6718817
  63.1742846  19.4660799  56.0116529  61.9486749  18.9044801  56.6997433
  75.9157680   6.8917156  22.7069493  75.2152442   6.2508226  22.8284188
  76.1299561   7.1832872  23.5931416  42.9080498  62.9960832  19.2720147
  43.4835159  63.3254131  18.5816499  43.0693352  63.5768708  20.0155946
  20.3483402   6.8821994  40.6333208  19.6353447   7.2600929  41.1481619
  20.0520002   6.9526807  39.7258830  25.4385781   6.4806074  22.1960759
  25.4068756   6.9044679  23.0537295  25.9001231   5.6568360  22.3529410
  70.4035758  25.4078699   5.1055070  70.0423955  25.0864005   4.2794105
  70.6647300  26.3094640   4.9180051  17.9236937  48.9972305  46.0183144
  17.6879072  48.1820393  46.4611435  18.8805056  49.0136671  46.0403109
  27.9935478  14.7498775   4.3777915  27.4404167  14.0819145   4.7828837
  27.7331613  14.7501064   3.4566852  48.7794279  33.4016872  35.5311509
  49.0626215  32.4947715  35.6475087  47.8233074  33.3563257  35.5343553
  50.5610597   7.7873651  61.5607452  50.5458796   7.5786249  62.4947834
  51.2572038   7.2360746  61.2034035  21.4406263  12.8728239  45.1983309
  22.3243963  13.2268087  45.0990009  21.2962353  12.3621408  44.4017172
   6.2722074   4.0065614  54.0945673   6.7355358   4.7965471  53.8161993
   5.3455507   4.2246095  53.9945889  45.3554653  44.7240758  13.4675475
  44.7198128  45.1970220  12.9304238  44.8302769  44.3137098  14.1545745
  68.9102423  20.1461355  34.2819524  68.9071094  19.2122880  34.4920707
  69.8157608  20.3328363  34.0341401  25.5273067   5.6118528  59.3315458
  26.2106859   4.9834386  59.5646191  24.7520506   5.3089277  59.8042440
  52.4152874  42.0195413   1.2154885  51.4930700  42.0553995   1.4693805
  52.5438665  42.7954889   0.6699582   1.4315653  68.4719467  24.3023872
   2.1812820  68.9989996  24.5787358   0.9130573  68.3569765  25.0987315
  49.7601700  59.0226221  57.9243803  50.0661516  58.1799269  57.5890064
  50.5171585  59.3869591  58.3831358  26.3963579  30.2774167  23.5704347
  26.2592195  29.4362235  23.1347485  27.2466730  30.5776239  23.2493897
  27.0122503  41.6702438  11.5877744  26.7365908  41.1371160  12.3334428
  26.4882254  41.3464666  10.8551093   3.6680222  62.4891472  58.2211733
   4.6114302  62.6344013  58.2926416   3.4185934  62.1150303  59.0661860
  57.5001120  54.3229700  15.4348489  58.4437727  54.3694044  15.2812453
  57.4156069  53.8595987  16.2681409   8.7606764  69.6674728  38.7532997
   8.9470053  70.5872726  38.9416432   9.6230459  69.2593002  38.6762381
  62.8600740  49.3051147  36.1304688  62.5197887  49.0234232  36.9796395
  63.7631989  48.9882135  36.1172700  61.0451483  24.1920543  11.1610146
  60.4624056  24.8066306  11.6070386  61.3603090  24.6731449  10.3958627
  33.6410211  32.7420545  16.5461799  33.5464500  32.6228786  17.4912091
  34.5868753  32.7537275  16.3997050  53.6563873  47.0457554  27.3069310
  53.5804272  46.1113262  27.1137977  53.7054634  47.4647093  26.4476848
  54.2675638  16.3849318  54.3100166  54.3066931  16.2771988  55.2603292
  53.7458086  15.6422257  54.0060520  75.0747537  49.4994092   6.4747449
  75.5187940  48.6715913   6.6585322  74.9506568  49.9007440   7.3348399
   3.9730846   5.4962388  59.6610403   4.4140684   6.3405601  59.5667982
   4.1502487   5.0403348  58.8382435   2.0856726   1.2364427  60.9665346
   2.2671854   1.6234533  60.1100826   2.1017420   1.9773141  61.5724087
  11.5040087  56.7471052   2.1676703  11.5242576  57.6930166   2.0225020
  10.5836295  56.5513826   2.3432418  52.9661989  56.1197853  56.1766005
  52.6636791  55.7735634  55.3370476  53.7948179  56.5532589  55.9723330
   7.7355337  65.2049398  35.3179717   6.8996954  65.1216412  35.7769489
   7.8885794  66.1485291  35.2684283  71.5413237  67.9634047  45.0584841
  71.7796040  67.2255754  45.6197882  71.1877728  67.5577259  44.2668676
  15.9729933  58.4956003  23.8738748  15.6161283  58.8641668  24.6819802
  16.7976068  58.9631677  23.7410756  49.5708358  11.5796224  53.1454992
  48.7197124  11.3122217  52.7986336  50.1818740  11.4271585  52.4246597
  71.2161970  49.8788691  49.4300461  70.9481049  49.1546059  49.9955606
  70.4781628  50.0025749  48.8331985  70.0001596  11.3563133   4.1194507
  70.5994963  12.1024251   4.1007300  69.3343805  11.5674186   3.4649201
  39.2583202  53.6732698  13.1207534  38.5801577  53.6865354  12.4453612
  39.6989464  54.5186258  13.0343743  22.1761286   0.3375284  24.0355325
  22.5043976   0.5094186  24.9181008  21.9959032   1.2052289  23.6738038
  29.2420887  33.1777454  12.4663325  29.2434715  33.6339784  11.6248580
  28.5432695  32.5286079  12.3856898  60.1699041  24.9214816  15.1073905
  60.8312773  25.3905654  15.6160947  59.3529676  25.0671649  15.5844851
   9.3943273  22.4899808  55.1723909  10.3260624  22.4241201  54.9631929
   9.3123543  23.3200971  55.6418753  67.5049973  45.7098675  40.7169628
  68.3358860  45.4218626  41.0949898  67.5926733  45.5301666  39.7808790
  25.7202589  30.1138631  39.7497797  25.0699722  29.4129507  39.7041464
  26.4857351  29.7045080  40.1531458  23.6929344  53.0820012   5.1930543
  24.2158579  53.1242395   4.3924304  24.3351101  52.9608083   5.8924504
  50.2623819  44.9679399  11.6727277  50.3586697  44.8684144  10.7255956
  50.2484106  45.9145761  11.8138858   8.4758400  41.9421745   3.4883519
   9.3019627  41.4856267   3.3292409   8.4630393  42.6468873   2.8407021
  54.9601460  16.6201413  51.0087061  55.1973915  17.3639345  50.4548836
  55.5023098  16.7214823  51.7910242  23.9754618  59.0957113  34.5702195
  24.5228231  59.0469154  35.3539610  24.5826996  59.3293973  33.8681602
  31.9680977  67.3544114   2.0169946  32.0330048  67.5143974   1.0754939
  31.8547964  66.4068787   2.0916768  65.0544727  14.6682239  58.8793182
  64.6233010  15.1487720  58.1726360  65.7379210  15.2618241  59.1903925
  57.3996269  25.4938539  23.9968892  56.5955483  25.7009396  23.5206529
  57.5686633  26.2703177  24.5305177  11.6580534  15.1914525  51.0374403
  11.2361372  14.8850858  51.8401623  12.0406365  14.4031918  50.6520796
  45.5244804  36.1017067  58.4716160  46.1449338  36.4289482  57.8203217
  44.9483813  35.5159331  57.9804851  14.7722864  27.5697041  15.3528070
  15.1520896  28.2235718  15.9396946  14.5179069  28.0654263  14.5744884
  11.3917661   1.6480121  59.4451666  11.3139200   2.5979319  59.3567133
  12.3349130   1.4858098  59.4650841   2.3282124  28.8941789  47.3326731
   2.5783443  28.0840468  47.7769136   1.4306213  29.0585375  47.6217222
  36.0069656  24.0911802  12.4293633  36.8150567  23.7055024  12.7676984
  35.6465041  23.4209904  11.8487187  64.0184986   2.1789202  14.5387431
  63.1128895   1.9352564  14.3470879  64.0173661   3.1359991  14.5235177
  65.6205249  27.7124405   9.8287416  65.9978282  26.8845272   9.5313621
  64.7727180  27.4693704  10.2007270  54.6381664  12.9656363  54.8177195
  54.0104437  13.0589890  54.1011477  54.4810200  12.0859277  55.1607180
  18.1553185  30.5186462  29.6057200  17.3621750  30.6224632  30.1314378
  18.8620770  30.4562140  30.2482367  70.5077791  10.1475501  37.4723601
  70.1324326  10.6989336  38.1588912  69.9208480   9.3929893  37.4235511
  18.9544236  24.9892851  22.9001161  18.5152739  25.3586921  22.1340104
  19.4251292  25.7281372  23.2858201  44.2634106   6.4628255  49.2660999
  44.3538141   5.5177391  49.3880463  43.8442469   6.7690802  50.0703001
  52.9021513  53.2128426   2.5164290  52.8151094  52.8101775   3.3804437
  52.1559345  53.8090500   2.4537679  36.7095304  11.7969382  37.0454144
  36.8245149  12.0553350  36.1309528  37.2849035  12.3850155  37.5346398
   1.8885946  21.8146968  35.7684755   1.1954403  22.0138526  35.1391029
   1.5265226  22.0775294  36.6146755  58.4836852  51.3262614   7.9474612
  57.7632081  51.2096831   8.5667773  58.7592995  50.4357013   7.7302714
  49.1862922  63.1502726  50.8297682  49.8018770  63.7189063  51.2923098
  48.3230639  63.4916546  51.0632801  56.8815744  59.9248131  31.4110208
  57.0405984  59.3343910  30.6745791  56.9960523  59.3761214  32.1869469
  62.6720906  45.7590040  60.8863974  62.1738828  45.1081928  60.3919601
  63.5860742  45.5786046  60.6665754  17.7692259  39.6976861  56.5772247
  18.4680975  39.3861755  56.0021019  18.2276142  40.0991972  57.3153973
  73.8718379  63.8996466  36.5860248  73.0838335  64.3506344  36.2828875
  74.5942104  64.4493636  36.2823462   6.0960840   0.4189659  43.7134477
   6.5593695   0.4765582  44.5490762   6.5544318   1.0355306  43.1424828
  53.8567865  65.0556489  24.9164581  54.4176662  64.7823747  24.1905308
  54.1432179  64.5190861  25.6555700  23.2074917  23.7578782  29.2853522
  22.3058498  23.4446105  29.3570280  23.4985292  23.4552392  28.4251571
  22.0409036  32.4026871  44.2351580  21.7104244  32.9205179  43.5010815
  22.9398465  32.7077389  44.3579531  11.1207212  62.6030864  41.9026184
  11.7233980  62.0610984  41.3934374  11.5753615  62.7529087  42.7315235
   9.5855654  66.9037186  37.8888941  10.0324834  66.0594418  37.9496551
  10.0182665  67.3520213  37.1622419  11.9885576  35.8654857  25.2374625
  11.2426245  35.7075787  25.8161521  11.9562483  36.8047595  25.0559425
  25.9444380  14.4334042  41.1558867  25.0347948  14.2863786  41.4150476
  26.4351869  13.7434077  41.6023207  42.6808537  71.0624249  58.7267494
  41.8474138  71.5223461  58.8271761  42.4357164  70.1815907  58.4434271
   9.1483629  51.8147608  48.7297678   9.6023596  52.5732847  48.3626699
   8.7982858  52.1260293  49.5645094  18.9688659  27.4338365  41.9544744
  18.1120121  27.7812099  42.2021961  18.9518905  27.4143386  40.9976244
  61.6476822  42.1523293  48.7076187  61.8781412  43.0813535  48.7018061
  62.4845481  41.6985806  48.8076115  59.5573164  50.6465685  51.5339450
  60.0637938  50.4746568  50.7401196  59.7448946  51.5613281  51.7443279
  35.1698804  33.0911899  60.4781342  35.9194279  33.6864352  60.4684305
  34.4207573  33.6526036  60.6777859   1.8607412  12.3616827  50.6878328
   1.6943070  11.4401805  50.8862448   2.7785620  12.4956095  50.9242678
  75.4518235  64.3832531  11.9898164  76.3095797  64.6065744  12.3512197
  74.8737181  64.3441143  12.7517188  22.9803872  14.4200242  30.6162381
  22.4751806  14.3905616  31.4287210  22.6919103  13.6496866  30.1267552
  15.5188894  17.7687669  32.9453754  15.1072013  17.6292121  32.0925760
  16.3845563  18.1210732  32.7386570  28.2916379   6.4827436  45.1313066
  29.2143393   6.3490325  44.9145651  28.1806993   7.4334919  45.1302528
  49.0599481  55.5962606  54.7187662  48.2237524  55.9658249  55.0023699
  49.1930922  55.9515484  53.8399744  74.2781591  34.0648556  39.5318580
  73.4316123  33.6350346  39.6536946  74.9214122  33.3677578  39.6603584
  10.0944627  62.5245842  29.2472696  10.1820410  63.2813903  28.6677814
   9.3431771  62.7336129  29.8023462  31.6133440  61.7447682  41.5365934
  30.7290161  61.5888181  41.2051153  31.6850555  62.6978656  41.5885019
  38.2751274   7.3105925  60.1945972  39.1635275   7.6548117  60.2867222
  38.1450629   7.2332084  59.2494345  23.4059322  67.9431610  39.5451546
  22.7382410  68.5953089  39.7575784  23.8679684  67.7958541  40.3704119
  39.5403194   2.1175854   6.0521859  39.0035033   1.4808369   6.5240020
  39.7204351   2.8027484   6.6958797  39.4600677   7.9363447  10.8452737
  39.7236419   7.9355526   9.9250782  39.8479199   8.7341714  11.2048233
  74.8528755  56.6350659  42.6665020  74.8998607  56.5882357  41.7116022
  75.6865490  57.0257112  42.9284525  53.3122966  50.5445584  33.6787295
  52.5334150  50.2313455  34.1385913  53.9664221  50.6614407  34.3677068
   2.0525516  43.0577930  33.9285564   1.8708122  42.3468073  33.3139825
   2.9845775  42.9696044  34.1280079   9.6278721  23.4845638  35.2552533
   8.7260967  23.4125304  35.5680561  10.0133264  24.1763926  35.7928681
  45.8843374   2.0722842  51.0624790  45.7452774   1.8759850  51.9889545
  46.3809013   1.3240896  50.7310295  21.5329552   1.0460822  52.0512056
  21.7815518   0.9565943  52.9712152  22.1311259   0.4631250  51.5836763
  46.4759922  10.3436995  22.8773808  46.9322443  11.1755228  23.0044103
  46.6388130  10.1186681  21.9613647  21.7375060  56.7795762   1.4126130
  21.1931079  56.8483409   0.6283112  21.1637485  57.0555362   2.1273728
  19.7312104  58.2237276  -0.0707654  19.3442571  58.3236607   0.7990142
  20.0599145  59.0959963  -0.2883319   8.5145319  10.5624473  46.2491894
   9.4676065  10.6316960  46.3047266   8.2336861  10.3955233  47.1489096
  65.9385205  67.9080798  28.9157677  66.7860044  68.0845412  29.3242574
  65.9022964  66.9544422  28.8416386  13.3140302   4.6868896  26.0179090
  13.2083488   3.8899800  26.5375233  14.0535259   5.1403576  26.4225626
  43.1412327  33.1304550  25.4072781  43.3713936  32.2467866  25.6943150
  42.3128545  33.0223605  24.9400159  45.2342606   6.2501132  44.9266052
  45.7600307   5.6567860  45.4630375  45.7843876   7.0258832  44.8180866
  14.9303412  59.2215570  12.2512027  15.4766267  59.2349728  11.4653130
  14.5320451  60.0914463  12.2809096  44.5565426  35.6091292  21.2263986
  44.2405378  36.4632480  20.9316941  43.7793517  35.0504309  21.2184735
  55.9922873  38.6613124  32.3604890  55.2221882  38.4667167  32.8946324
  55.8590185  38.1595185  31.5563317  24.8460424  46.2672313  22.8285122
  24.1681326  45.5915912  22.8150249  24.6063936  46.8612083  22.1171808
  14.0292549  15.5831611  37.5340009  14.7972500  16.0782838  37.2489214
  13.9145398  14.9111724  36.8620586  10.9951342  61.7906585  51.7722940
  11.6199506  62.2447022  51.2068892  10.8374727  60.9551641  51.3326073
  69.9418938   0.0012549  11.6769381  70.0530683   0.6583318  12.3640510
  70.7334101   0.0758656  11.1438628   5.0900757  24.5768281  22.0605203
   5.0559198  25.3180798  21.4558621   6.0064804  24.3005964  22.0492860
  35.2175885  34.2165948   3.6055966  34.7501707  34.8187195   3.0266353
  35.2849733  33.4048056   3.1029149  68.3338451  12.9356933  17.7352130
  67.8362846  13.3969891  17.0600295  67.6895809  12.7392554  18.4153342
  40.3742027  12.1486807  34.9976778  40.5520248  11.2459242  34.7337842
  41.0414076  12.3415112  35.6563783  24.3476391  11.3076842  38.5175657
  23.9883447  12.1890759  38.6189961  24.5938635  11.2542129  37.5941229
  49.2290378  66.5354185  40.9144115  49.9492238  65.9780683  40.6195831
  48.5139996  66.3438191  40.3075838  15.9505760  47.1946200  12.3934527
  15.1168262  47.6374790  12.5514670  15.9992420  47.1082577  11.4413997
  51.1846673  35.9530003  35.9259530  51.2052381  36.0117545  34.9707719
  51.4785683  35.0624068  36.1175176  28.0710506  21.2771034  55.5668926
  28.3803940  22.1829391  55.5685711  27.2489190  21.3056755  55.0774908
  41.7385077  16.8475100  11.9058343  41.0644531  17.4876150  12.1341916
  41.4127600  16.4309749  11.1079474   4.1827167  66.0675063  49.9641180
   4.8251761  66.2433430  50.6515503   3.4218133  66.5951159  50.2067804
  66.0348522  35.4811758  22.8008386  65.8304083  35.4386190  21.8666955
  66.0121881  34.5698516  23.0927392  74.1779434  33.7785136   1.0755273
  74.2719805  32.8924456   1.4252015  73.2568800  33.8395491   0.8222505
  21.5324270  27.9850253   4.2979213  22.3035824  27.4936255   4.5809003
  21.3757955  28.6122587   5.0038119  47.1916401  43.5391804   2.9701968
  47.6989877  42.8627964   2.5214978  47.2704565  43.3211633   3.8988992
  52.8762257  28.4733310  12.8940221  52.3279035  29.2115792  12.6283856
  52.7660787  28.4226200  13.8435098  53.1472683   0.4895168  39.5197344
  52.6503658  -0.0940960  40.0930691  52.5309753   1.1867316  39.2954397
   5.1726073  13.9216137  33.1978393   5.0849235  14.6837616  33.7702680
   6.0986429  13.9090538  32.9559040  17.4111975  49.3993004  53.8398457
  17.0748747  50.1422580  54.3409777  18.2853258  49.2448481  54.1979933
  18.5742796  48.3811983  24.9539089  18.5499704  48.7526949  25.8357430
  17.6713360  48.4441336  24.6425200  58.5574185   4.6001014   0.4477664
  57.8434121   4.3727669  -0.1478414  58.1435811   4.6509584   1.3093825
  43.5782135  63.1056371  48.1916571  43.0974472  63.9145806  48.3668947
  42.8989065  62.4623462  47.9892921  37.4794865  13.4878635  50.2343178
  38.1494808  14.0894067  49.9095345  37.7773094  12.6229072  49.9525642
  30.1910437  66.4988052  45.7191324  30.6538523  67.3253717  45.8563423
  30.6439674  66.0902991  44.9814224  58.8009644   3.4002620  24.9639773
  58.4946620   3.6660567  24.0969348  59.7055221   3.7107503  25.0040221
  71.4738094  45.5398669   9.7422095  70.5797111  45.3790512  10.0438138
  71.9851219  45.6307062  10.5462857  71.7796004  52.3212405  18.9724183
  70.9916747  52.8603920  18.9037240  72.0199621  52.1317276  18.0654776
  39.5578313  17.0585608  52.1431446  40.3824854  17.5365472  52.0553589
  39.0290546  17.3551655  51.4024353   6.2149084  66.7948046  51.5150738
   6.2192357  67.7297320  51.7203188   6.4617384  66.3682993  52.3356867
  29.0909553  23.8980675  55.9885168  29.7878599  23.4700084  56.4858294
  28.5613394  24.3413687  56.6512537  39.3717135  63.5051980  41.4455080
  39.1781271  64.3989202  41.1626339  39.3984640  62.9977264  40.6343412
  45.5667459  40.3072473   3.4926387  46.1522400  39.6782562   3.9143010
  45.2371251  40.8467206   4.2113515  12.4458766  17.7202713  50.5749130
  12.1427631  16.9151092  50.9945202  12.7293444  17.4440908  49.7033596
  65.0947881  58.3578881  26.0911989  64.5511389  58.1661709  26.8553472
  65.7385779  58.9913841  26.4081359  60.2426434  12.1626782  53.0011749
  59.6190023  11.4850450  52.7401972  59.8477221  12.5669217  53.7737370
  48.8332748  11.4168477  30.4324889  48.2539940  10.6845725  30.2216864
  49.3596458  11.5408945  29.6426940  14.6945990  56.4738318  32.5082922
  14.7850454  55.6292935  32.9496598  13.7738359  56.7078146  32.6252604
  49.0036737  22.5494369   1.9297620  49.8452508  22.2463461   2.2705146
  49.1998040  22.8545436   1.0439416   7.2373450  69.9235038  32.7631235
   7.3443020  70.6875035  33.3297777   7.6356090  70.1837220  31.9325185
  50.8418718  33.6290463  59.1402054  50.5927729  32.7140959  59.0096569
  50.9273566  33.7209424  60.0891447  39.7719658  63.1933787  33.9768338
  38.9590157  63.6413189  33.7429738  40.0498522  62.7635898  33.1679511
   1.4386976  37.5260242  35.5868578   0.7561434  36.9529303  35.2376914
   2.2560728  37.1552261  35.2542353  27.3785341  53.4684475  33.9854026
  26.4470804  53.4649094  33.7649202  27.8216827  53.2900485  33.1559300
  61.3454927  52.5317915  30.9617758  62.1201623  51.9922265  31.1198473
  60.8316148  52.0328673  30.3267670  48.5962152  20.7817841  32.1588731
  47.9436445  20.0941610  32.2913861  49.0984678  20.4917979  31.3973713
  23.3284593  23.5413504  37.2877264  24.2744184  23.3952498  37.2944975
  22.9516649  22.6790380  37.4628735   8.5031319   2.8259149  28.4363604
   7.6212466   3.1492460  28.6206627   9.0639013   3.5967577  28.5233712
  12.7809727  27.0262959  18.7243577  12.9613363  27.9087671  19.0483113
  12.1444332  26.6692468  19.3436833   7.8146374  31.0628348  22.1645375
   7.8923189  32.0105207  22.2744866   7.0286524  30.9472939  21.6305848
  30.7485342   9.2608362  46.7954159  30.7582855   8.3320117  46.5642834
  29.9947238   9.3548298  47.3777962  27.2552514   8.7941134  61.7679834
  27.6155806   8.3897942  60.9787273  26.7779922   9.5597976  61.4483213
  62.2810018   8.0091676  14.1759225  61.7865097   8.8076528  14.3606730
  63.1916320   8.2450160  14.3530103   2.9052555  33.7158173  14.2875596
   3.2059681  34.5078386  13.8420173   3.0424797  33.0154338  13.6496993
  25.1876926   9.0233099  20.1942444  24.9635267   9.3924576  19.3400133
  26.1404538   8.9335245  20.1738048  67.4152399  60.0195762  17.4115741
  66.7343259  60.4619583  17.9184139  68.1852556  60.5806108  17.5040352
   8.6660469  54.9876913  60.3826571   8.4611166  54.1195878  60.0353384
   9.3876446  55.2998742  59.8366976  11.5819693   3.4448698  19.9450648
  11.9936776   4.2681783  20.2075362  10.6506491   3.5751978  20.1236391
   1.5356028  18.7281355  44.3599244   1.6246616  18.4605857  45.2746507
   0.7584202  19.2867812  44.3483659  47.5798416  13.7694561  30.7566953
  46.8946934  13.5470343  30.1263547  48.2832479  13.1459606  30.5758429
  46.4348042  45.6111022  17.6526233  47.0466530  45.0170496  17.2179099
  46.5616190  46.4508137  17.2109958  31.0686958  68.8638898  28.3009624
  31.9655884  68.7904321  28.6271763  30.8661116  67.9930844  27.9590726
  72.4506057  68.2339447  20.9759307  71.5681327  68.5765984  20.8343005
  72.6362932  68.4232490  21.8956685  50.0842702  56.4979466  34.9958821
  50.9316098  56.0567197  35.0556107  50.0068795  56.9803604  35.8189889
  62.2065544  18.1237149  52.8653193  62.1301937  17.3798215  53.4628344
  61.3182545  18.2576191  52.5348234  67.0167935  53.3923741  35.4436326
  66.6771436  53.7265678  36.2738037  66.3971031  52.7086600  35.1891708
  74.6339334  52.2238966  53.4809589  75.4473913  52.1332522  52.9846716
  74.0489829  51.5665468  53.1041908  54.1247618  59.5449242   2.4033614
  55.0544464  59.7677549   2.3557921  53.6982548  60.3551086   2.6825114
  33.8509655   9.6757710  52.8416443  34.4683743   8.9443105  52.8391600
  34.1737747  10.2639925  52.1589851  68.4637261  37.2371348  50.2471352
  68.7932885  37.7183279  51.0061312  67.9476286  37.8804501  49.7613144
  64.1557265  49.6175965  53.8703346  64.0762187  48.6644515  53.8325882
  65.0970853  49.7768863  53.9389133   4.6968662  60.2840384  17.6460524
   3.7465631  60.3373870  17.7475949   5.0451862  60.6176242  18.4728642
  55.5647373  70.6214087   4.7316571  54.8719692  69.9693172   4.6264049
  55.4728460  71.1935799   3.9698096  27.1261681  65.2371367  34.4060445
  26.8189991  64.3593123  34.6325493  26.7357863  65.8060893  35.0694656
  15.2336491  57.5939914   7.8613204  14.5060313  57.5964805   8.4832519
  15.6614483  56.7484566   7.9965699  75.1150345  25.5490613  29.7359582
  74.2981290  25.0880742  29.5452043  75.4567002  25.1170040  30.5187913
   7.8423775  59.7187682  42.5821543   7.1292985  59.3339940  42.0725441
   8.1598008  60.4421886  42.0416546   3.6803759  60.7678529  50.3034496
   3.7771476  61.7079695  50.4552650   3.6455143  60.3859516  51.1804724
  52.6814377  27.8032007   6.6992160  51.7989218  28.1599167   6.5984651
  53.0412805  28.2646986   7.4566909  60.1746642  41.2103900   7.2492333
  60.9401190  40.8321186   7.6819249  60.4840409  42.0479807   6.9043275
  69.4052660  43.4596344   7.8840037  68.9532577  44.0966752   8.4372636
  69.4201195  42.6572218   8.4056779  58.2693755  62.1138009   1.1490508
  58.3843767  62.8388723   1.7632790  59.0441596  61.5664419   1.2768765
  71.4678181  69.0414455  52.7004433  70.9342897  69.2953788  53.4534979
  71.3980043  69.7812479  52.0970774  14.9776781  19.8884559  57.1335030
  14.0749288  20.2066708  57.1296644  15.3577113  20.2557468  57.9315662
  33.0963874   5.6812602  47.7128839  33.7360001   5.0587708  47.3669958
  32.4779105   5.1408869  48.2045269  55.8525683  47.9920840  61.6820218
  56.1274577  47.5937795  62.5078683  56.6262127  47.9382550  61.1209417
  68.8945448  41.1096146  39.5908471  69.4110262  40.3069657  39.6631928
  68.4922754  41.2141230  40.4531022  29.8364866  58.4132727  33.9700055
  29.0493858  57.8964981  33.7978220  29.7843159  59.1423055  33.3519268
  59.9357832  48.4738644  53.3264971  59.0770293  48.0567440  53.2573414
  59.8829067  49.2293962  52.7411699  70.9577656   0.9816514  45.3836870
  70.6782198   0.0897346  45.5900145  71.4866638   0.8896030  44.5912075
  27.6210165  27.9892588  39.2677355  27.9784155  28.4485745  40.0276899
  26.9005823  27.4670076  39.6205211  61.5778828   1.3960643  35.6891727
  61.4746189   0.8909835  34.8826599  60.6876087   1.4916342  36.0275722
  28.0193651  57.6277157  40.7214928  28.5975779  58.3065494  40.3735161
  27.7152432  57.9781886  41.5586948  32.7062869  17.4957705  58.3319139
  33.2096672  18.1362760  58.8345003  31.9957376  17.2360957  58.9183569
  37.9596329  21.2872028  56.2227535  37.1508622  20.9378910  55.8484554
  37.6832819  21.7148352  57.0333052  13.6882948  12.1914276   1.3201209
  13.0968391  11.4390859   1.3400241  14.0348279  12.2472891   2.2106381
  69.4207394   1.6923753  47.5711966  69.7943222   1.2320510  48.3227015
  70.0976288   1.6383735  46.8965578  59.0548372  19.0517163  20.9692025
  59.2742348  18.1233656  20.8900571  58.3991432  19.2017698  20.2881861
  71.4139854  28.2264378   6.6201182  70.7505810  28.8011840   6.2382909
  71.1800539  28.1731388   7.5467606   7.0879889   4.4899103  39.0760708
   7.4258518   3.6893216  38.6746502   7.8481752   5.0688559  39.1323757
  30.6194663  25.4083967  35.6572008  30.0134182  25.0258780  35.0226808
  30.0631118  25.9307289  36.2350154  59.2622172  31.5532985   3.4323903
  59.8803150  31.1133754   2.8487321  58.8214433  30.8408576   3.8953992
  67.9968845  44.3589231  30.0489732  68.9330685  44.3801727  30.2472993
  67.7121555  43.4893938  30.3301831  25.5050266  56.3245662  52.3378801
  25.9490574  56.7409059  51.5991449  24.7604359  56.8968245  52.5231838
  57.1675348  25.9081674  11.7986631  56.2655163  26.1987352  11.9334412
  57.1498203  25.4552221  10.9555984  56.6836249  56.9133243   7.5626536
  57.0755660  57.3461684   8.3211156  57.1827995  57.2418889   6.8149205
  28.8606768  63.0260762   1.5182944  29.6710240  62.9652962   1.0124513
  29.0007185  63.7679442   2.1067258  24.5065308  10.5724657  14.0447104
  25.3919816  10.2088845  14.0407741  23.9340425   9.8096979  13.9630163
  28.3240438  30.6260157  28.1718040  28.1111741  31.0616779  27.3465061
  28.2481599  31.3144040  28.8325572  52.4017143  25.7869864  54.8456144
  53.2760239  25.6790471  55.2200031  51.8852043  26.1757255  55.5515385
   9.6983206  63.7253269   6.1112662   9.4687330  64.4295796   6.7175218
   9.0078985  63.7451872   5.4485770   0.5942076   2.7140245  43.8521957
   0.4725140   1.9283128  44.3851900   0.4858751   2.4110530  42.9506969
  21.4985334   9.8758825  16.2394877  20.6703913  10.3149899  16.0455771
  21.2411320   9.0415892  16.6318294  71.3965332  33.3390301   7.2452422
  70.5872976  33.7516233   6.9433518  71.2326157  33.1356757   8.1661197
  43.6920881  10.3752291   8.6890578  43.4680748  11.1856103   8.2315320
  44.6416903  10.3012300   8.5941291  17.4048542   3.9045406   4.6119328
  18.0503868   3.2041955   4.5168754  17.2988295   4.2542553   3.7272378
  33.7066406  35.8387226   2.0554229  32.8726255  35.5211434   1.7093106
  34.2814177  35.8838983   1.2913438  35.9215069   5.8349508  58.8474035
  35.0307918   5.7653075  59.1909266  36.4544129   5.3264660  59.4587040
  62.3137676  20.1350292  11.0610743  62.2573506  20.6919786  11.8375131
  61.4248669  19.8009058  10.9408828  46.2958002  14.1432929  49.1376925
  47.1157694  14.4764388  48.7731457  45.6422806  14.7998154  48.8966084
  36.7120266  49.8351479  51.4357281  35.8169222  49.8766327  51.0991287
  37.2589731  49.7631788  50.6534863  55.9513187  27.0499110  18.2266212
  56.1195612  26.1312199  18.4362197  55.4023981  27.0201612  17.4430192
  22.9168153  28.3095217  20.6451607  22.8367567  28.6719108  19.7628355
  22.9710913  27.3632646  20.5114245  19.2537176  40.9195211   7.5744267
  18.5393488  41.3104978   8.0774613  18.8297283  40.2513817   7.0358582
  47.3384129  49.9634024   1.2596723  48.1223523  49.4393703   1.0951682
  47.1936428  50.4407796   0.4427358  40.9446001  12.4472690  26.2667370
  41.3608885  11.9792581  26.9905496  41.0516691  13.3726621  26.4867687
  33.0324459   7.2894031  57.4453545  33.9589357   7.0846689  57.5715876
  32.9983354   8.2458848  57.4308395   7.3075211  31.7068076  43.9724159
   7.3904765  32.6409078  44.1642809   6.3646746  31.5422511  43.9863110
  42.7433526  55.7896050  21.7877885  42.7980864  56.7212256  21.5749093
  42.5599205  55.3630277  20.9507676  19.6974337  62.3974332   6.6916152
  20.4269087  62.3364576   6.0748645  19.0522825  61.7717704   6.3621303
  36.2028515  62.4035391  13.7837430  36.8070232  62.4361500  14.5254584
  36.6519463  62.8832730  13.0877467  28.4210610  18.0084670  60.1188183
  28.3907509  18.9069092  60.4476261  27.6285386  17.5993669  60.4663467
  22.1107149  26.0307860  38.2298589  22.5131655  25.1962686  37.9893494
  22.3304391  26.1449957  39.1544724  48.0118942  29.8380470  20.7129765
  48.6714411  30.5317497  20.7152462  47.6287794  29.8746777  19.8365545
  54.0681040  61.3565835  20.5672666  53.7217080  62.2412523  20.6838914
  54.9469602  61.4884361  20.2116509   5.0965988  53.4089836  24.6200295
   4.3733847  53.1708332  24.0399667   4.9593317  52.8778788  25.4044553
   5.6853818   6.1698509   0.7992097   6.4161586   6.2125469   0.1824685
   5.8091043   5.3400875   1.2600919  25.3576077  63.2517549  44.5144367
  26.1501110  63.6723377  44.8480272  24.9335707  62.8888663  45.2920818
  59.9811983  22.8681850  28.2782745  60.6966686  22.8255200  27.6438332
  59.3046522  22.2966671  27.9151154  73.6290324  70.2760452  19.5923221
  73.3365715  69.7005295  20.2990603  74.5846427  70.2392173  19.6333861
  17.4898565  68.4791293  54.5265150  16.8734253  68.0988511  53.9007092
  17.1682680  68.1951605  55.3821850  17.0748508  70.3776732  58.0634022
  16.4340628  71.0883100  58.0386305  16.6498793  69.6557172  57.6003551
  51.3474077  50.8457860  59.7829199  51.4019778  51.3534649  58.9732838
  52.1682555  51.0325392  60.2385139  25.1927519   0.3595596  45.7054520
  25.8523655   0.8913139  46.1508512  25.2325106   0.6439289  44.7923326
  48.4250975  36.8985486  24.8090482  48.7077951  36.1328673  24.3090010
  47.5208616  37.0453691  24.5315075  44.9687099  25.8619380  26.5994501
  45.2606297  25.3696275  25.8322191  45.2101135  25.3107071  27.3438263
  39.8118210   3.9880845  55.0877666  39.9672294   3.0686453  54.8716354
  40.0277996   4.4626352  54.2850304   2.6314533  61.6968974  31.1910772
   1.7275847  61.9913753  31.3030267   2.5568617  60.7617982  31.0006618
  58.4622282  53.0796584  48.8797379  58.9551622  53.5471734  48.2054377
  57.6039708  53.5034331  48.8861370  58.4429121   7.9711860  18.1158316
  58.9772511   7.2019207  18.3131862  58.8625050   8.6841822  18.5973001
  57.8089572  58.0864119  53.2214371  57.4862028  57.5915527  52.4683265
  58.3097077  57.4487638  53.7302456  25.4807938  41.1044057  47.5914383
  24.5458544  41.1582001  47.3933983  25.8804215  40.7951911  46.7784691
  71.4249610   8.8487125   4.8280116  70.9637999   9.5723749   4.4038936
  71.0147284   8.0611110   4.4707700  57.1888590  11.2458181  32.1043849
  56.8722105  11.5860879  32.9411530  58.1363392  11.3784003  32.1350312
  21.2670636  20.9700847  38.0560517  21.4985776  21.4321589  38.8617301
  21.4639664  20.0518990  38.2415152  46.1640739  12.0276177  33.1920028
  46.4653015  12.8202033  32.7478170  45.2092266  12.0742249  33.1437635
  47.9275119  26.2207022   0.3291675  47.6613628  26.4508965   1.2193414
  47.1278440  25.8936348  -0.0828866  29.2555070  15.1023602  49.9851322
  29.9580121  14.4805264  50.1749802  29.6055913  15.9501314  50.2589178
   4.8661005  35.9269797  23.7661191   5.4904901  36.0435580  23.0500337
   4.1208851  36.4777042  23.5261460  40.5953634  56.2854167  60.1061201
  40.1778448  55.6127890  60.6441593  40.3691567  56.0474499  59.2069864
  44.6593428  33.2997179  13.9372265  44.7964859  34.2470407  13.9397192
  45.5183411  32.9327989  14.1463077  38.9078927  22.8792143  25.1267314
  38.5427427  23.4650755  25.7898021  39.8466063  23.0663395  25.1325870
  10.4585064  55.8198567  50.2843475   9.7556270  55.8863004  50.9307051
  10.1050604  55.2464815  49.6042395  57.6754469  53.2203277  53.3515358
  57.2952718  54.0892943  53.2227135  57.2216511  52.6640924  52.7183676
   8.4045422  16.9933828  15.9591599   8.5093224  16.7071864  16.8665429
   8.6413061  17.9207560  15.9716578  33.0158544  13.1664014  51.8097353
  33.8655400  13.4173048  52.1721077  33.1799412  12.3322296  51.3698912
  11.2087643  56.1380490  14.2901488  11.0585892  55.5712565  13.5335608
  11.3458263  57.0077070  13.9144631  10.1270603  10.3169084  18.9225026
  10.5402874  10.9788156  19.4768926  10.0331329  10.7428384  18.0704471
  15.4636657  13.5372055  51.8275023  16.1382520  12.8851736  52.0172930
  15.9392178  14.2633998  51.4241123  29.4050598  18.0115998  29.8252892
  29.1212463  18.0505323  30.7386160  29.9198341  18.8088477  29.7002530
  69.4762623  54.3287500   5.1690360  68.7592232  54.1793343   5.7852813
  69.8224842  55.1884684   5.4083033  69.4813622  69.5569017   9.1290969
  70.3645039  69.3655121   9.4447929  69.5909370  69.7132071   8.1911236
   2.3494684  44.3925401  24.1306230   2.3892033  43.4368196  24.0952512
   1.5457546  44.5810768  24.6151086   9.0390158   6.9403976  50.0241423
   8.1981802   7.3133683  50.2889347   9.0335321   6.9919294  49.0683460
  36.4903712   6.3496721  62.1269226  37.0771575   6.7436451  61.4813995
  36.3709259   5.4495186  61.8241215  17.6078367  11.6153133  52.3635292
  18.2320523  10.9758520  52.0204878  18.0159307  11.9420576  53.1653595
  15.8683990   1.7062498  23.1170102  15.6386064   2.1664858  23.9242383
  16.1451124   0.8371187  23.4073087  12.2354496  27.6989341  47.7520943
  12.5038540  27.9944825  48.6220598  11.2823713  27.6287961  47.8064394
  25.8244157  11.1834240  60.7951832  25.4326606  11.0053933  59.9401617
  25.1298118  11.6164553  61.2914085  67.2475159  50.1695618   1.0631534
  67.9374468  49.6471008   1.4721223  66.7354023  49.5373651   0.5588695
   8.5769284  67.2203570  48.7330294   7.6561440  67.4249761  48.5701799
   9.0167416  68.0704620  48.7221909  74.6413767  38.8175609   6.2868424
  74.9716770  39.3950590   6.9750520  73.6918461  38.8195729   6.4077540
  63.7965190  58.0115971   0.2442189  63.3807218  58.8320407  -0.0207643
  64.7045624  58.0986866  -0.0457934  22.2037387  22.4987793  45.9202671
  21.6508031  23.2796812  45.9465027  22.8249598  22.6209474  46.6381741
  22.2999859   0.9655304  43.7576580  22.5095415   0.0924633  44.0894318
  22.4366665   1.5455784  44.5067215  29.6754635  70.9876901  34.5462751
  29.0604628  71.5492806  34.0744424  29.5766724  71.2421030  35.4637432
  56.8458902  34.6749617  20.4478188  55.9642732  34.9001608  20.1507207
  57.3607814  35.4666261  20.2916642  47.2422302  68.3092197  46.8365145
  48.1833494  68.2568928  47.0032120  46.8442667  68.3062809  47.7070570
  73.5724794  49.1407164  17.8726073  74.4412100  48.8598737  17.5850793
  73.6712896  50.0749811  18.0559607  59.4818354  32.6934648  57.7606392
  59.4343615  32.0491290  58.4669018  58.5693645  32.8499818  57.5174856
  69.7954262  61.9815304  17.7147424  69.6398223  62.6526644  17.0502138
  69.6857870  62.4396016  18.5480380  48.4568680  63.1397303  13.8886559
  47.5769651  62.8526803  13.6445022  48.7951315  62.4333998  14.4390249
  55.6181037  40.4996019   2.5532218  55.9681451  39.7851193   3.0854007
  55.3452146  40.0793200   1.7376681  13.0570948  52.1185836  12.4104377
  12.2389614  51.9252321  12.8681537  13.6215889  52.5031718  13.0810138
  52.1108329  55.8216556  59.1161366  52.8289258  56.2785467  58.6781617
  51.3940465  55.8385309  58.4819718  22.4159988  66.8266877   0.5813952
  21.6283184  66.6875442   0.0556251  22.6697811  65.9498009   0.8693047
  24.1872692   2.9795867  50.2198696  24.8293734   2.4939346  50.7376289
  24.2284513   2.5798893  49.3510914  62.2553646  39.8216676   4.2969914
  61.9980514  39.0302547   4.7699471  62.4803006  39.5135754   3.4190865
  59.6584570  32.0534777  14.5348140  60.4637944  31.7164444  14.1422959
  59.6358549  31.6625002  15.4082318   8.1285197  33.6525822  46.0581541
   8.3005941  34.5079422  46.4518309   8.7847602  33.5710502  45.3661060
   0.8304513  60.9129365  19.5617259   0.4337419  61.7717531  19.7076285
   0.7279194  60.4567309  20.3969479   4.0912115  31.4751470  18.7467881
   3.3006536  31.5299031  19.2836781   4.0016329  32.1887180  18.1151029
   7.0573246  42.5207772  37.7003117   6.9084417  41.5918228  37.5239392
   6.7090475  42.6560691  38.5815831  22.6730514  17.9479313  32.4483395
  22.3536372  18.0561042  31.5525126  21.9592619  17.5027454  32.9050112
  60.4990709  60.3938862   1.0762864  60.5861641  59.8628267   1.8678811
  61.0873008  59.9803051   0.4444885  74.5855964  60.5953523  54.3972731
  75.2973641  60.0678595  54.7597218  74.8830927  61.4997008  54.4966698
  17.9462755   5.2716261  24.7752261  18.4897411   4.6888018  24.2449474
  17.1714783   5.4325104  24.2366743  67.1118259  13.1462562  25.7358265
  67.0593357  13.9545417  25.2257752  67.4485874  13.4223747  26.5882254
  61.8576276  44.0813222   2.4609633  61.2767517  44.7984656   2.2069570
  61.6308414  43.3670297   1.8654939  18.2938469  57.8442951  25.9351087
  18.2819689  58.0564018  25.0017786  17.3714626  57.8369757  26.1908197
  55.5127775  43.5112622  -0.0120906  56.2198102  43.1280627  -0.5312184
  55.9516966  43.8826236   0.7531997  31.7485929  19.7311962  34.5615911
  31.4366078  20.4414082  34.0007925  31.5528774  18.9338458  34.0694952
   3.6299180   9.9926973  17.9286166   4.5530342  10.1140952  18.1507607
   3.5950755  10.1070333  16.9789048  44.3385315  24.8312974  48.8558054
  44.8563004  24.1412425  49.2705011  43.4416819  24.4969606  48.8663912
  42.0161486  30.0250936  54.2379618  42.8840446  30.3277540  53.9707851
  41.7158556  29.4840479  53.5076714  57.3748302  10.8605540  48.4975481
  56.8566227  11.6386783  48.7030172  57.2029114  10.6962609  47.5703526
  58.8610851  30.0478473   6.8484231  58.2801640  30.7775837   7.0634719
  58.7287080  29.4191864   7.5579949  53.4150743  29.8452282  51.1643648
  52.7347517  30.0555468  50.5247068  53.5071135  28.8938999  51.1120892
  70.1747990  34.1846991  59.6983051  70.8029318  34.5131826  60.3415632
  69.3745661  34.0325475  60.2010107  52.7456522  28.4364533   1.1728652
  52.8426647  29.1473031   1.8065159  51.8490124  28.1253576   1.2973329
  20.2230810  16.4533019  22.9390260  19.4951128  16.4218879  22.3182984
  20.8572220  17.0454383  22.5347062  74.8144782  33.1731844  26.1846995
  75.6023875  33.3797264  25.6819344  75.0627464  33.3326507  27.0952845
  26.6781902  13.5183108  36.6638279  25.7608652  13.7898004  36.6960979
  26.9307733  13.4182048  37.5816584  27.6371765  11.8346703  10.2749932
  27.5793123  12.7251625  10.6212676  26.7963696  11.4356077  10.4986537
   1.0047388  38.0078411  55.5963469   0.7449818  38.3368802  54.7358322
   0.1778698  37.8223825  56.0414600  64.2558659  68.1239172  57.5243235
  65.0618661  68.4487864  57.9256392  64.0045012  67.3746767  58.0644035
  56.4729023  16.6193032  28.9735937  57.4097061  16.8155694  28.9632583
  56.4168882  15.7040977  28.6988306   3.1358517  69.7725888  34.5868158
   3.1349838  70.7052123  34.8023272   2.2697461  69.6125724  34.2119956
  27.9233921  49.9801453  13.4380627  28.3989513  49.2466744  13.8280571
  28.5608328  50.3982028  12.8591609  11.5161789  63.9621629  48.0415201
  10.5812347  63.7640186  48.0949306  11.6763819  64.1121455  47.1098185
  21.0799562  69.3675026   1.4383908  21.5741598  68.5891494   1.1811801
  20.1935875  69.0452370   1.6018744  34.8889553  56.2858161  24.2557832
  35.7029831  56.0412249  24.6959706  35.1309311  56.3684234  23.3333703
  40.3230572  11.0968721  23.0293059  39.9659538  10.8734405  22.1697783
  40.2706575  10.2824533  23.5295129  34.0690827   7.5636089  43.2140112
  33.8882923   6.6298491  43.3219004  34.1157556   7.6906091  42.2664213
  60.7742357   9.1730642  55.8919239  60.2472878   8.5386652  55.4060268
  61.6772175   8.8824111  55.7639694  43.3837032   1.6387160  24.3256330
  43.3056259   1.3297501  25.2282262  42.9203987   0.9813591  23.8065338
  35.5117201  10.3733230  17.9280492  36.2252544  10.7944847  17.4487515
  35.7355188  10.4991985  18.8501664  43.4385061   2.0164812  59.9190569
  43.9432526   2.4591857  60.6013107  44.0469503   1.3778955  59.5472527
   4.8061970   0.9878380  24.6018100   5.2933389   1.6598973  25.0785303
   4.4817525   0.3987337  25.2829289  13.8255978  30.3553534  53.0019808
  13.4722090  31.2395835  53.0993843  14.4663143  30.4300499  52.2947788
  43.3212590  10.4368743   5.0475617  43.6050355  10.9915289   5.7742377
  43.8709247  10.7063779   4.3117162  21.6341198  64.4433793  30.3536129
  21.9709814  64.0668609  31.1666250  21.9292057  63.8412740  29.6705127
  57.8253078   0.0043727  23.9716315  57.2284174   0.3618768  24.6290088
  57.3580742   0.1074242  23.1425929  34.9580526  22.3043323  60.7123423
  34.3103814  22.9951715  60.8519650  34.9985313  21.8413043  61.5491199
  65.0695610  14.1260612  22.7993202  65.9215879  14.5621121  22.8112221
  64.5357037  14.6595013  22.2105360  40.6009722  15.5873108  59.1718340
  40.2688503  14.7337461  59.4499636  40.5642891  16.1274028  59.9612570
  66.7989302  10.9990954  52.0511627  67.2699118  11.1760044  51.2368488
  65.9399080  10.6859732  51.7678404  54.9128580  30.0254107  56.0866070
  54.1840696  30.3270578  55.5442858  55.6343126  29.9001145  55.4701376
  74.9452316  50.7617482   9.1754504  75.8591711  51.0039410   9.3247529
  74.7386467  50.1559564   9.8871871  38.6456490   2.7678308  46.6382170
  39.3281817   2.1531519  46.9075680  38.1826472   2.9816476  47.4482441
  26.8994045  58.1407070  57.7937651  26.8978405  58.6808634  58.5839891
  27.1722817  57.2745275  58.0962610  48.4008920  21.8494936  22.2515031
  48.5370004  20.9080585  22.1446916  47.9671752  21.9339808  23.1006070
  18.2601774  49.3931707  32.4703789  18.6480368  49.8062166  31.6988921
  18.3919609  48.4552892  32.3316693  56.9401609  45.0292071   2.1222230
  57.7125346  44.5547810   1.8146630  56.8905389  44.8261174   3.0563088
  75.2077579  26.6135311  48.6449385  75.5062628  27.5153208  48.5270357
  74.2529392  26.6779828  48.6649704   1.8200302  10.9551394  54.5026779
   1.4881515  10.9288406  53.6052370   2.7208710  11.2668753  54.4158649
   0.2497603   4.4648289  61.5260260   0.6980253   5.1652026  61.0519342
   0.7661797   4.3466091  62.3232504  63.0639506  48.7936147  44.9086714
  62.8731549  49.6668180  44.5661163  62.8111053  48.8375743  45.8308268
  57.6021671  17.2557390  48.4855175  57.3684263  18.1283903  48.8018703
  57.5053930  16.6895282  49.2512035  45.5666780  11.5938640  49.5371723
  46.1803722  11.1139882  48.9809942  45.7392263  12.5154781  49.3445921
  41.5033484   1.8327306  53.8240242  42.1361923   1.3421997  53.2995081
  40.7283592   1.2715690  53.8508606  61.8474889  57.5119015   5.9134382
  61.8460417  58.4599324   6.0455990  61.0107136  57.2185370   6.2739617
  29.2340506  64.5557173  59.3543482  29.3580902  64.0604766  58.5446692
  28.2843054  64.6346977  59.4436932  58.2773590  41.0938454  47.2517681
  58.7813711  40.9450197  48.0518007  57.3842859  40.8356619  47.4798059
  13.1436216  52.8869828   5.7236358  13.5873186  53.7021371   5.9579202
  13.6723148  52.2008726   6.1310311  44.2196417  29.3333507  49.0221834
  44.6242332  28.7916327  48.3446312  44.6833181  29.0977836  49.8257685
  60.0725412  49.6267509  58.6342382  60.6276655  48.8854980  58.8763237
  60.0933981  49.6391535  57.6773453  27.6616514  71.2283846  56.7818737
  27.2098959  70.4565287  56.4407110  27.0433033  71.9466270  56.6476822
  29.1992592  49.0356565  19.5351335  28.7508272  49.8770166  19.4500085
  29.7012066  48.9487005  18.7247582  53.2257128   6.0863507  54.8656368
  53.8632584   5.5886966  55.3776026  52.7440977   5.4224187  54.3722057
  62.3113060  25.5357218  52.5500917  61.8861246  26.3128161  52.1873569
  63.2001591  25.8239317  52.7576971  56.6453373  55.3835544  12.2158357
  56.7828381  55.2245292  13.1496640  57.3072445  56.0349115  11.9837876
  48.2804060  33.7793851  51.5588570  47.3658848  34.0502071  51.4779806
  48.2968569  33.2204056  52.3357105  69.3523800  39.8873814   7.2318669
  68.5676157  40.4343384   7.2667046  69.9202835  40.2393844   7.9172965
  43.5071564  11.3176382  51.2290907  42.7941704  11.8718112  50.9116364
  44.1725016  11.3667655  50.5427027  51.0003901  33.8231778  51.6617441
  51.1424303  33.7111640  50.7217932  50.0492954  33.7933731  51.7654800
  47.3871756  38.8799691  44.9621725  47.8518295  38.7657952  44.1331434
  47.8603792  39.5830679  45.4071045  25.9881042  14.5042873  21.9764253
  26.3516401  15.2917266  22.3814126  26.7520975  13.9637351  21.7755624
   0.0126982  45.9872341  10.9999299   0.4245090  45.4288530  11.6593659
  -0.4090452  46.6827297  11.5045571  28.6154913  24.5400787  20.0213071
  28.9919304  24.4199205  19.1494771  27.9647516  25.2328229  19.9078198
  55.9060574  30.5605245  50.2209711  55.0517988  30.2948856  50.5614281
  56.0261774  30.0288439  49.4341326  75.4646729   9.5621562   6.3177224
  74.8700260   9.9262023   6.9735356  75.2084254   8.6426711   6.2462064
  63.4750271  47.3459578  56.7243767  62.9850626  47.4891710  55.9146500
  64.3291807  47.0260048  56.4340734  43.2253551  27.3616266  51.4720058
  44.1786528  27.3630762  51.3856602  43.0693626  27.1985054  52.4022150
  58.3158016  39.4263411  30.9255099  58.8413429  38.7236238  30.5431175
  57.7461243  38.9840698  31.5548706  38.8517475  27.7968860  41.7791319
  39.5278883  28.3498240  41.3875628  38.0266237  28.1859756  41.4892817
   1.7482149  51.1559352   5.5724736   2.2142422  51.9483313   5.8392259
   0.8454430  51.3024756   5.8548947  73.1174076  60.9639700  32.8433013
  72.7103603  61.7781659  33.1393266  72.3812974  60.3762349  32.6731801
   6.4471781  48.0791482   9.4233771   7.1030676  48.7256357   9.6843263
   6.5285742  48.0263122   8.4711095  39.4621670  32.4102830  20.8173963
  39.6366405  32.9598102  20.0533219  39.9375438  32.8349900  21.5314504
  12.8737413  68.0453452   5.0046798  13.0682289  67.2510036   4.5072575
  13.7154638  68.3058604   5.3786632  30.9082519  47.4920687  10.1956006
  31.2747299  46.6824492  10.5511924  29.9634468  47.3396191  10.1774951
  68.3404970  66.9123030  26.1702967  67.7915096  66.1364174  26.2836218
  68.5610199  67.1819687  27.0618558  39.4288969  24.5511198  42.8281021
  38.7208748  24.1016197  42.3667049  39.2875886  24.3371224  43.7503099
  11.3777803  34.7969938   0.9363290  11.8323420  35.4518581   1.4661904
  12.0047163  34.5664525   0.2507373  28.3346437  34.9113107  10.2217694
  29.0895962  35.1632381   9.6899672  27.7867435  35.6957984  10.2466937
  60.6103945  36.8186140  62.1942997  60.4285812  37.3044896  61.3898754
  60.9276390  35.9671497  61.8933058  67.2726452  49.2276665  14.6567365
  67.6093780  48.5551926  14.0646001  66.6683351  49.7394511  14.1190358
  40.1069164  24.8560286  45.4911709  39.6928906  24.4540215  46.2548494
  41.0387516  24.8799682  45.7087612  48.8515568   4.8475546  59.4134474
  48.5268068   5.5740643  58.8815117  48.8674927   4.1008133  58.8148165
  14.1514360  44.2023822  32.3209020  14.4615757  45.0667950  32.0510121
  13.6290085  43.8934984  31.5806981  38.1749344  36.3614082  55.6228733
  39.0425014  36.0994816  55.9310198  38.3460498  36.8739319  54.8327637
  62.4296188  37.8783441  43.6672878  61.4969444  37.8493977  43.4539652
  62.5690794  38.7601185  44.0126228  63.0050194  40.7544651  12.8224059
  62.8526127  41.4913931  12.2308513  62.4881398  40.0390589  12.4519177
  73.4176302  42.3069000  36.9341850  72.7346563  42.9752159  36.8782163
  73.9604282  42.5804806  37.6736116  32.1693718   1.0601703  22.2530699
  32.7065861   1.2823526  23.0135083  32.1836292   0.1036159  22.2209907
  41.5154504  30.2240356  13.3504411  40.7710218  30.3755500  13.9327641
  42.0223844  29.5372214  13.7834950  54.4024919   3.0385328   3.6242171
  55.2166056   3.5044814   3.8148662  54.1805576   2.5985170   4.4448062
  64.8828316   6.3924885  56.2615967  64.6985912   5.4690874  56.0894966
  65.8361244   6.4367270  56.3358355  30.7452315  63.8178977   5.5882188
  30.7623076  62.8979238   5.3244277  30.1341447  64.2307338   4.9779960
  55.1307821  10.1153636  36.2164688  55.3741837   9.4503075  36.8604326
  54.5611668  10.7164550  36.6965342   0.7061827   3.4930030  36.4927292
   0.2949297   2.6291601  36.4630151   0.8161461   3.6739389  37.4262190
  27.3414825  17.6908946   3.6308690  28.2303022  17.9861236   3.4332105
  27.3802732  16.7385507   3.5427113  61.0020399  65.3009558  56.0305691
  60.7981586  64.5244598  56.5518379  61.0282278  66.0160875  56.6662836
  46.7583799  48.6581087  41.9908190  46.9426584  49.5141983  41.6043186
  46.7294836  48.0595493  41.2444115  42.2457075  28.8939738  47.2489357
  42.5893593  29.0747595  48.1238365  41.6688776  28.1396532  47.3693371
  26.5930998  66.2224826   3.2759353  25.9946215  65.6027421   3.6930390
  26.2481415  67.0838293   3.5111304  52.9824591   3.8969436  39.6825218
  53.1110716   4.8223832  39.4745493  53.8470602   3.5029626  39.5664167
   3.9688158  29.9750328  59.4045734   4.8742533  30.0602174  59.1059780
   3.4430313  30.1069212  58.6156559  68.0740786  39.1369247  29.6052098
  68.5307360  39.9595428  29.4291472  67.2894049  39.1768026  29.0584707
  14.9558317  68.9073738   9.4278212  14.2557346  69.5241674   9.6415063
  14.5638859  68.0444201   9.5616933  57.0936012  32.2230339  29.7422981
  56.6020679  31.8848062  30.4907846  56.8845415  31.6221118  29.0271640
  55.3647995   5.2129877  52.5613880  55.1619387   4.7091019  51.7732382
  54.6716881   5.8713883  52.6097393  23.5883177  65.8489903  34.7922468
  24.4965256  65.8928993  35.0913572  23.0926693  66.3209059  35.4614687
  75.2876150  52.0677158   1.0297986  75.2458631  51.4000043   1.7143746
  75.7443296  52.8024694   1.4394065  13.8105534  19.3777824  12.9428550
  14.1529702  19.7803760  13.7409135  12.9744409  18.9943910  13.2077285
  49.9105787  25.5235934  39.6938205  49.7506332  26.4627457  39.7867942
  50.7969379  25.3969264  40.0322819  14.8769903  30.1646638  42.0595694
  14.4443846  29.5317101  41.4864588  14.6857309  31.0152984  41.6645098
  10.2211452  30.5946732  47.2822189  10.1457322  29.6444249  47.1951818
  10.6680965  30.8736658  46.4830732  52.4598503  14.8919940  24.6932507
  52.7525902  14.2419386  24.0545297  51.6851807  15.2879894  24.2941189
  49.0054083  36.9973660  27.5263619  48.5523939  36.1545897  27.4992371
  49.0566397  37.2713304  26.6106391  54.6854544  66.2512159  57.7018499
  54.9528217  65.4181051  57.3136854  54.0546083  66.0082150  58.3795071
  63.2608557  65.9035254  39.5025873  62.8393364  65.3109121  38.8802028
  63.0104017  66.7788506  39.2071104   6.7680752  43.9793500   9.3001243
   7.1963226  44.2328211  10.1177998   7.4746715  43.6273250   8.7587996
  25.2356933  25.8932662  50.5327626  24.7128223  25.8069158  51.3298722
  25.8684610  25.1767803  50.5826112  19.3629574  26.2693954   4.7552606
  19.7390818  25.4050041   4.5891400  20.1031803  26.8714261   4.6787377
  40.6159115  25.9714031  58.9014006  40.2412081  26.4885616  59.6144104
  40.1595116  26.2777901  58.1177807  73.5678733  62.6918407  13.9661634
  73.7784422  61.9573273  14.5426905  73.0920542  63.3062317  14.5250463
  32.7476388  65.2155336  23.3582517  33.0952316  64.3632468  23.6209699
  31.8613833  65.2344045  23.7193986  59.7817612  31.1032176  52.5537300
  59.1737032  31.5385938  53.1511784  59.9170637  30.2373457  52.9386902
  49.3585062  43.2647276  56.6492987  48.4078455  43.1626558  56.6946125
  49.7043896  42.4675608  57.0507002  68.8658714  34.0610552  43.6528397
  69.6581268  34.1113186  43.1180143  68.4734678  33.2192969  43.4211206
  66.2378597  45.9984064  49.8992014  66.0124016  45.7484913  49.0031290
  67.1576881  45.7506180  49.9927235  55.0968122  26.0086393  56.2978601
  55.1989651  25.1343465  56.6739035  55.9907579  26.3418889  56.2201548
  14.6762287  37.9959146  57.8845692  14.6642887  38.6002580  57.1423769
  14.1439163  38.4270898  58.5531235  59.6410894  43.1834412  41.2221861
  59.6961498  42.4759007  40.5798531  58.9913368  42.8809214  41.8566418
  13.8504803  63.1997570   9.1190072  13.7342846  62.2534260   9.0342303
  13.8830864  63.5188111   8.2171317  30.0914453  20.7948280  12.2922154
  30.9944652  20.9726453  12.0292254  29.6199154  20.6798816  11.4671822
  25.7354711  25.1801086   5.0172397  26.2121033  25.9828115   5.2287122
  25.2247785  24.9903942   5.8042832  51.0559750  23.6443186  30.2805877
  50.7290125  23.6629915  29.3811536  50.7027674  24.4390774  30.6803799
  53.6817694  27.8929925  57.4197626  54.2701864  28.5398531  57.0304489
  54.0673256  27.0481753  57.1876907  62.7068949  45.4587698  35.4569197
  63.3873749  45.8695459  35.9902525  62.8712940  44.5195198  35.5407143
  30.4708218   3.2266593   6.4646216  31.2028908   3.7474871   6.7948457
  30.6497692   2.3387242   6.7741080  47.8474735  22.4268365  19.4195386
  48.0624651  21.9602657  20.2272054  46.8954729  22.5232005  19.4447633
  53.3304024  43.5245991  52.8033781  53.6171865  43.0909157  51.9996929
  53.4679127  44.4567347  52.6347065  43.0356646  56.6557980  55.4759550
  42.2592354  56.9509697  55.0002813  43.6501646  57.3865891  55.4083729
   9.2634916  49.0654755  39.3642402   9.5141268  49.4501400  40.2041483
   9.8784685  48.3427858  39.2387462  29.7676824   7.5664831   5.4164525
  29.3887447   7.9633880   6.2007399  29.3598484   8.0365730   4.6891852
  66.2752413  10.9533334   8.0995675  65.8907389  10.2260089   8.5888453
  66.7616438  11.4526868   8.7555285   3.0490541  54.0755367  39.9953032
   2.9370403  54.8903561  40.4849529   2.8290749  53.3869076  40.6227016
  26.7332863  24.6052003   1.1906310  26.7473196  23.8016343   0.6707116
  26.7273020  24.3028045   2.0987912  24.6235012  33.9337039   5.2403756
  25.3926634  33.9224792   4.6707269  24.5144199  33.0228067   5.5134984
  16.9454204  68.4628233   4.0088387  17.1308243  67.9472765   3.2239362
  17.5450432  68.1167802   4.6698543  24.1432142  16.5831554  21.8754220
  24.5403147  15.7408273  21.6540027  23.2054138  16.3991022  21.9291353
  69.6005917  54.0933323  25.1815176  68.9792442  53.3709240  25.0904799
  69.8216105  54.1032267  26.1127996  55.1978445  35.2757120  40.2404451
  54.3329811  35.3311753  40.6468487  55.7845783  35.0358295  40.9576845
  41.1996387  27.2516275   1.6193505  40.6542944  26.8889642   2.3174210
  40.8554958  28.1339574   1.4804717  69.0602362  40.5247983   2.1670743
  69.1713154  39.9863076   2.9506036  68.9492380  41.4146736   2.5017854
  52.7336824  24.4179693  57.4273182  52.0786036  25.0790373  57.6511417
  53.1810368  24.2347447  58.2534764   4.9386143  42.3823190   2.1991034
   4.5370697  42.6844240   3.0137988   4.7822212  43.0928922   1.5771218
  39.7117638   0.3658772  20.8254071  38.9904903   0.3924895  20.1966878
  39.7442840  -0.5461549  21.1141416  45.4436182  31.0916448  23.3660623
  44.4874596  31.0584093  23.3362027  45.7099747  30.1857734  23.5231515
  67.1591377  69.2264748  47.2096491  67.7762413  69.8125887  47.6477003
  66.5990210  69.8087072  46.6963196  25.8331024   1.3790361  57.3864841
  25.8159697   2.3298685  57.2776318  24.9560701   1.1579887  57.6998329
  18.6265671   0.7844821  33.2401061  19.5334112   0.4843179  33.3014464
  18.2326757   0.2219907  32.5732589  72.6573277  39.9101043  37.7402663
  72.8695536  40.7789803  37.3993206  73.4770298  39.4202137  37.6744747
  10.9345293  45.0281429  59.0120220  10.3264379  45.5700159  58.5091972
  10.5701113  44.1447544  58.9566803  12.5857233  44.0382219  40.8635636
  12.5386833  43.4900546  40.0802823  13.4459852  44.4549013  40.8129903
  14.0311443  66.0496959   7.1478434  14.3146669  66.2007817   8.0495234
  14.4500887  66.7480477   6.6448375  34.6302891  51.1426353  48.2563496
  34.4620609  50.7505369  49.1131973  33.7649131  51.3949680  47.9343510
  44.1274548  52.8497505  51.1784744  43.7090397  52.3389530  51.8714714
  45.0611639  52.6610231  51.2722921  33.8331627  30.0160146  26.9735833
  34.1962551  30.6482196  26.3533326  33.6397289  30.5322147  27.7561112
   0.5617523  52.4479771  45.7269239   1.5042877  52.2856998  45.7659960
   0.2047014  51.9666195  46.4732742  53.3345652  46.5526867  48.6920929
  52.9986906  47.2205591  49.2898989  52.9330683  46.7622995  47.8488302
  21.2865877  43.4555435  31.1390734  21.3739920  43.1513357  32.0424294
  21.2663507  44.4099951  31.2086582  54.2922497  32.4266720  45.3523207
  53.6239243  32.3458099  44.6718502  54.0887976  31.7263222  45.9722805
   7.2983980  40.8442831  52.5975990   6.3986063  41.1397266  52.4586010
   7.4480677  40.1990175  51.9066095  53.3449971  19.8759786  51.5949726
  53.9825355  19.3435518  52.0706797  53.3044540  20.6966821  52.0859289
  62.1277475  50.1200104  28.7018275  62.3674107  49.6273041  29.4867039
  62.4160147  49.5677996  27.9750562  48.0787420  67.3246765  24.5610547
  48.1057596  66.4378023  24.2019486  48.9247417  67.4330235  24.9955368
  74.7451162  36.1730075  59.2400742  73.8391399  36.3228035  59.5102501
  74.6742344  35.7939386  58.3639956  48.8003038   8.1424880   0.2383395
  48.1807398   7.9785896  -0.4726581  49.3052839   7.3322797   0.3075190
  14.2387318  25.0038839  -0.0296573  15.0898765  24.5712734   0.0384160
  14.0080832  25.2221227   0.8733436  51.7098522  18.4867764  53.8490009
  51.7772532  19.0120196  53.0516243  52.5393963  18.0112588  53.8934135
   7.2746824   3.9054823   1.3034793   7.8665995   3.5143829   1.9460555
   7.8119158   4.0158344   0.5189820  42.3270893  21.6341448  11.0129321
  42.7211046  20.8265972  11.3428617  41.5359879  21.3460064  10.5575585
  52.2239113  40.5826044  35.5765271  53.1070185  40.5946016  35.2074647
  51.9293070  41.4917278  35.5223393  71.2584400  26.9990396  31.4106679
  71.9005871  27.7000737  31.2991953  70.4133272  27.4219036  31.2583256
  57.9766535   9.7930122   7.7335378  57.2763895  10.4167533   7.5416585
  58.5712122  10.2708459   8.3118220  48.8880110  42.4236917  38.6736965
  49.3931150  42.0229912  39.3811822  47.9744053  42.2829962  38.9222240
  25.3126108   4.0864936  45.7526875  25.4751837   4.5462982  44.9290514
  25.1915037   4.7842447  46.3966656  41.8426561  31.7752910  56.6795778
  42.1246195  31.0203648  56.1630392  41.6717196  32.4586105  56.0314369
  47.7838850  43.3608294  32.0430064  47.4920177  44.0723801  31.4731455
  47.0160913  42.7965117  32.1339297  60.8839417  44.4253683  24.2150807
  61.8095875  44.2812204  24.4116402  60.4836082  44.6050692  25.0657678
  56.8376017  44.3183279  44.0795088  57.2733784  44.0653515  44.8933458
  56.6526365  45.2513313  44.1868591  49.3480944  32.9485107   9.1436311
  49.0853189  33.8532234   8.9742967  50.1834368  32.8521324   8.6863061
  48.8640881  58.5663033  39.3872237  48.7814045  58.5999060  40.3402519
  47.9696131  58.4325218  39.0737748  20.1492512  10.9516279  51.2805223
  20.3105080  11.5677778  51.9950724  20.9856712  10.8966104  50.8183527
  60.5983782  25.7445526  61.8619585  61.4526939  25.3128505  61.8591118
  59.9720192  25.0370860  61.7090034   2.2695971  59.5100117  48.0677748
   2.6436567  59.9908733  48.8060713   1.3615561  59.8093939  48.0223179
  63.1818174  -0.2056265  17.7010175  64.0089582   0.2089858  17.4557134
  62.5626730   0.0788474  17.0287343  63.3096457  66.8727541  23.2441902
  63.0081463  67.7643681  23.4184146  62.7551508  66.3204336  23.7952900
  45.3874683  16.6059041  30.7079387  44.7579145  15.8900905  30.6213284
  46.2020683  16.1778617  30.9714532   7.4532412  38.5204101   2.7026339
   7.0396518  37.7512193   2.3108121   7.1434044  39.2549444   2.1728249
  18.3677410  36.4960552   2.5166484  18.0518984  36.6625047   1.6285249
  18.1297945  35.5850006   2.6886626  50.4555035  65.1692247  52.3445368
  51.2096071  65.5176115  51.8689489  49.9502087  65.9434366  52.5925303
  56.0977243   7.2213054   3.3625480  55.2035593   7.5609947   3.3987828
  56.5766119   7.7378440   4.0106889  69.5582449   5.0141899  30.7056189
  70.1103842   5.7894413  30.6038356  70.1760590   4.2845384  30.7519817
  50.7256699  48.2460451  27.4672103  51.6817331  48.2859945  27.4431229
  50.4589415  48.3392143  26.5526581  72.3071766  39.9852371  48.3731890
  71.9997454  40.6111288  47.7174664  71.7848444  40.1780844  49.1517830
  65.4467022  52.0808407   5.0921746  64.8449575  51.5645644   5.6284495
  65.6980478  52.8146097   5.6531068   0.8160459   4.1465322  55.3057909
  -0.0286234   3.7289421  55.1373529   0.6768572   4.6547786  56.1048794
  49.7876930  39.7329307  33.1478810  50.3779411  38.9992952  32.9757762
  49.5287800  39.6224999  34.0627599  46.7221903  19.0057016  31.4843102
  46.7787861  19.6777082  30.8050176  46.2604832  18.2795835  31.0650083
  58.3557463  48.7648582  22.2174215  58.4658766  48.4891939  21.3074160
  57.5017309  49.1968012  22.2351503  68.9954853  57.6075172  41.5443802
  68.6077499  58.4595251  41.3444424  69.8266602  57.8166962  41.9705486
  45.5271828  14.5196001  35.5807209  46.3205826  14.3958513  36.1017132
  45.6239998  15.3927366  35.2006078  29.4924080   1.6229526  61.7877197
  28.9919817   2.4015323  62.0318890  30.2784645   1.9668142  61.3633442
  53.4456491  59.0884638  53.0388451  52.5026083  58.9404440  52.9681158
  53.7812519  58.9198923  52.1583986  65.8909868   6.1212469   3.8535901
  66.2352919   5.5694414   3.1513091  65.7113909   5.5126214   4.5702144
  72.1529484  35.6454492  61.4051914  72.9162550  36.2225962  61.4275312
  72.2839165  35.0465488  62.1403074  58.3947218  43.7000242  46.5977196
  58.4729898  42.7966515  46.9043509  58.8124502  44.2224089  47.2824434
  17.2047377  19.3193686  28.6830640  16.7163038  18.7933433  28.0498481
  18.0298281  18.8484168  28.7999082  29.9742674  18.1210256   3.0467387
  30.5884479  18.5296226   2.4367686  30.3312897  17.2454572   3.1955691
   7.8946447  40.5165529  40.6651688   7.4388838  39.7196102  40.9360743
   7.2007132  41.0912228  40.3419876   4.0067291  57.5272655  50.0795698
   4.9171591  57.6710463  49.8213530   3.5935020  58.3858633  49.9885464
  63.4330750  54.8821163  15.0580311  63.1515169  54.4079590  15.8404195
  63.1785917  54.3152857  14.3299007   0.2667570  69.3885708  19.7502720
  -0.2109480  68.5999632  20.0074244   0.9656382  69.4676495  20.3995371
  41.0123062  36.2119699  20.9311390  40.7657099  35.5292106  21.5550494
  41.1708355  36.9852519  21.4725614  66.5723562  65.1470852  45.0624084
  65.6161833  65.1676798  45.1016092  66.7750025  64.3474102  44.5769310
  11.2203216   1.6468907  14.9643489  10.9499334   2.4352861  14.4936534
  11.6306137   1.0978794  14.2961570   4.7118235  37.5127602  53.0869102
   3.9233971  37.1083164  53.4489202   4.4663763  37.7600980  52.1953869
  61.0860252  44.8659372  45.6075907  60.2017593  44.5710135  45.3900290
  61.3154745  45.4738379  44.9047089   8.1495941  55.4220867   5.2669472
   7.9662257  55.0165367   4.4195181   8.2938355  56.3463306   5.0639623
  71.6977310  63.1967115  48.3009529  71.2780333  62.3523188  48.4655476
  72.4135065  63.2360935  48.9352608   6.5404558  43.8064814  59.9169445
   6.6372633  43.6655712  60.8587503   5.5993795  43.9246416  59.7879362
  16.0070013   5.5408693   6.3266488  16.3613676   4.8756194   5.7366486
  16.1319851   5.1753450   7.2024365  70.1415157  44.6887589  59.3709517
  69.3812132  44.4330883  59.8932600  70.6589556  45.2420473  59.9560642
  14.8315739  21.2177492  14.9296494  15.0518917  20.9001708  15.8053418
  13.9635204  21.6089321  15.0281068   0.3092623  33.6316848  42.8791571
  -0.5567980  34.0295649  42.9678106   0.6196928  33.5307050  43.7789726
  73.2067919  35.4851675  30.6165099  72.7764893  35.9690952  29.9116087
  74.0916920  35.8484721  30.6509852  65.7632399  51.9560909  55.9766102
  66.0784197  51.4344072  55.2385473  65.9525681  51.4202452  56.7468405
  49.9125099  33.3648968  42.1190548  49.7284842  32.4260116  42.1484089
  50.7516098  33.4587121  42.5699902  68.8177263  69.7064194   6.4360543
  68.3777391  68.8715848   6.2757512  69.4474756  69.7866925   5.7196732
  44.1388893  44.1355944  46.0341454  44.3116760  45.0675583  46.1676502
  43.7250376  44.0897942  45.1722479  19.5313476  31.0921407   2.4404546
  20.4089521  31.2599016   2.7838202  19.6487879  31.0539651   1.4912530
  57.1651649  71.1678028  54.7926378  57.2739220  70.2824116  55.1397514
  56.8559551  71.0373163  53.8962078  29.5691513   5.3118873  24.9041387
  30.5034088   5.4007078  24.7157117  29.1900801   6.1488843  24.6358701
  64.8851585  25.8470964  53.8462639  65.5564260  25.1647639  53.8390493
  64.3252850  25.6244349  54.5900345  49.3399668  46.6715670  38.4931731
  49.7979403  47.3299026  37.9705977  50.0108671  46.0209990  38.7002635
  61.0606289  55.8673286  39.5494223  60.8748960  56.3308525  38.7327933
  60.7197857  54.9843597  39.4065022  75.3462219  39.5079303  50.9521914
  75.1024103  39.9240470  51.7790127  74.6579504  38.8609362  50.7975674
  29.7899426  65.3520747  34.7059464  28.8339556  65.3043260  34.7123289
  29.9825180  66.2835523  34.5987248  28.3373701  68.4953174  24.4057580
  28.9617025  68.1078156  23.7923451  28.1900322  67.8129181  25.0606271
  64.0237653  54.3499848   9.6467896  63.1066858  54.2517611   9.3907567
  64.4919645  54.4672665   8.8201877  41.3344431  28.9788151  40.1170921
  41.4676237  29.3547535  40.9872437  40.9712696  29.6970248  39.5989108
  71.2142706  62.8663397  43.6003208  70.8247375  63.5664845  44.1240501
  71.6525888  62.3046112  44.2395163  63.6022711  61.7789364  16.9503701
  62.7044868  61.6106033  16.6642249  63.7995768  61.0626602  17.5539005
  72.9205656  51.1273575  31.5770793  73.5992956  50.6488276  32.0530653
  72.1340084  50.5912971  31.6780829   5.9309863  12.9312921  17.8514882
   6.0892390  12.0129848  18.0703374   6.4957498  13.0984569  17.0969459
  59.5374203  36.9306660  37.9437566  59.8786402  37.4974680  38.6355209
  58.6446095  36.7252088  38.2210684   7.7126276   5.9027807  61.6505051
   8.2354366   5.2089969  61.2485456   8.0658686   6.7126886  61.2824059
  43.1322395   1.3089458  45.0452852  42.1937000   1.3294403  45.2322388
  43.3367931   0.3789512  44.9478006  38.1429029  43.0719995  60.4953575
  38.9942932  43.4264755  60.7517004  37.8310943  42.6109838  61.2741184
  12.3370123  44.1054010  54.4362545  12.4846888  43.4521389  53.7523890
  11.4779997  43.8850355  54.7965002   0.7371235  64.5756149  48.9450264
  -0.1438904  64.5421219  48.5722971   0.6473398  64.1725159  49.8085546
  45.2555763   2.6028577  40.8109331  46.0010731   2.6640789  40.2136660
  45.5544197   3.0334035  41.6119099  35.5646253  46.5624237   1.5130477
  34.7033596  46.5395117   1.0959989  35.7080483  47.4868488   1.7157909
  20.3920889  53.4292603  58.4780407  21.2619615  53.5178900  58.0885553
  20.5100989  53.6936855  59.3903923  22.9401611   6.1493230  10.9575435
  23.8926863   6.2190271  10.8937713  22.7896570   5.3038717  11.3803836
  11.5469216  18.0018497  12.8185197  10.8437656  17.4621082  13.1797429
  11.9347619  17.4609542  12.1305962  53.1643343  44.0288210  27.0074391
  52.4504232  43.4137821  27.1756506  53.3380556  44.4324970  27.8577924
   4.8940420  59.0191221  44.7053146   5.3778696  59.8400736  44.6148825
   3.9875078  59.2900848  44.8502445  62.9056775   5.5997936  28.3525634
  63.8219463   5.3446237  28.2449841  62.7462661   5.5290452  29.2937398
  47.5197792  60.3988695  34.9304724  46.9607162  60.2354383  35.6900549
  46.9785547  60.9274435  34.3440270  62.8197157  53.8990876  21.9415303
  63.6927378  53.5719904  21.7245789  62.8785932  54.8452016  21.8087502
  41.5619373  67.5786161  31.9133520  40.6705809  67.8404713  31.6828132
  41.9211483  67.2138071  31.1045814  61.0631800  61.5371418  40.0588036
  61.3538694  60.6552362  40.2911234  60.2473021  61.4012623  39.5770264
  19.1459917  21.5931583   9.7969123  18.4105514  21.7126346   9.1960116
  18.8102983  21.0034728  10.4720517  75.2941608  44.9248838  57.5194073
  75.0054979  44.1947889  58.0670118  75.2080822  45.6946993  58.0817318
  47.5439083   1.3483135  38.5978723  47.9266369   0.7076017  39.1972351
  46.6310894   1.0751859  38.5062790  14.2391598   9.2064134  37.6540637
  14.2372953   9.5190469  36.7493582  14.0211117   9.9792806  38.1749940
   9.4864988  47.8205013  54.7191906   8.8097429  48.1555176  54.1309738
   9.9841833  47.2021914  54.1841888  48.1326246  26.0659528  51.8411493
  48.4980345  25.1901841  51.7157125  48.8623762  26.6582108  51.6596937
  10.4569971   7.4450532  41.2319946  10.9994041   6.6979782  40.9791946
   9.5763456   7.2119848  40.9381151  71.0514164  54.6045589  39.5011544
  71.1646795  54.7813654  40.4350376  71.1491632  53.6555386  39.4234800
  75.4882788  26.6510845  11.3958713  75.3425859  27.4651838  11.8777963
  75.2783274  26.8694139  10.4878589  56.8146181  48.9279747  33.6872458
  56.9093704  49.6722889  33.0928922  57.7025223  48.5835075  33.7831497
  28.7000297   1.8120098   0.0712796  29.2739557   1.7611671   0.8356448
  27.9107307   2.2476268   0.3929635  75.6598616  51.8372631  61.4718246
  76.1487341  52.3557472  60.8327579  74.8180485  51.6676235  61.0489702
  32.1220421  16.2770820  22.0392342  32.8749727  16.8083978  21.7803307
  31.3675474  16.8517232  21.9098111  69.6305668   1.0868923  42.2470522
  69.6705019   0.8412115  41.3227797  70.5348646   1.2998144  42.4775696
  13.3108484  47.1110221  19.1278096  14.0287792  46.5573808  19.4348832
  13.3194982  47.0084998  18.1761571  49.5243502  19.1338754  38.7366939
  49.5918894  18.4908628  39.4425297  48.5872793  19.1851532  38.5482645
  72.0184326  51.7367887  39.9907541  72.7132082  51.3806915  40.5445719
  71.2828541  51.1367702  40.1137877  65.6027365  33.6012793  17.7093875
  64.9760199  34.2391562  17.3679686  66.2865210  33.5559893  17.0410907
  18.8774036  23.8049293   2.0822020  18.8700842  22.9098821   2.4214192
  19.6300625  24.2160344   2.5073262  50.7176256  31.0265231  40.0160122
  50.1882935  30.4576039  39.4571161  50.8414125  30.5235600  40.8209610
  43.9279366  33.8561249  57.7131081  43.4657526  33.5808802  56.9213629
  43.2668591  33.8119340  58.4039402   0.8839560  62.1130705  36.8346643
   1.0670042  63.0169630  37.0910025  -0.0706673  62.0464659  36.8568492
  56.5993547  31.8988705  52.3045206  56.4821196  32.8255486  52.0953417
  56.2689543  31.4358830  51.5346479  46.6197609   5.3951478   9.0987035
  45.9124159   5.0468612   9.6414634  46.1759161   5.9330583   8.4430476
  72.5819492  11.7202961  29.3141508  73.5048532  11.5021563  29.4441247
  72.5942707  12.4656892  28.7137604  53.6290932  40.5901432  57.4359560
  53.5628796  40.2932119  58.3435249  53.1735659  41.4319372  57.4255228
  62.7393257   3.0914585  38.1190252  62.6122009   3.2407752  39.0559220
  62.4502384   2.1897975  37.9788017  63.0061150  36.3815784  57.1537018
  62.0571136  36.2638450  57.1957779  63.1608534  36.7746210  56.2947464
  20.7880938  40.3936362   3.9388867  20.7448399  40.1126271   3.0248900
  20.7335722  39.5812001   4.4420834  68.9318514  35.6010914  33.5051155
  68.1956768  35.2826476  34.0274858  69.1000509  34.8997808  32.8757477
  70.7258415  41.8860865  54.3863153  71.3051319  42.3201799  55.0125885
  69.8436069  42.1243191  54.6711683  61.5235090  37.3457265  51.2569857
  62.4415970  37.5774169  51.1167526  61.3583136  36.6355062  50.6368828
  16.1339306  24.2992235  31.9080182  15.7911610  23.4074521  31.9670125
  16.4891647  24.3611074  31.0213300   8.6148178  56.2487945  31.9558164
   9.2904055  55.7646736  31.4810105   7.8350508  56.1736616  31.4057752
  21.8012762  21.2027860  33.5400939  21.2814093  20.5251956  33.9723372
  21.1580038  21.8492818  33.2494617  32.5624346   7.7277923  27.3110505
  32.9701780   6.9102216  27.5966283  31.9690775   7.9616094  28.0248376
  68.9485121  56.7270899  38.1330085  68.8138628  57.6708031  38.2196426
  69.6282434  56.5221977  38.7750459  55.2217150  59.4523430  43.7110472
  55.9239388  59.9519014  43.2944489  54.4546032  60.0217056  43.6510611
  23.8383913  13.5636616  45.4365873  24.0857172  14.4769001  45.2914667
  24.6437216  13.0699444  45.2819204  69.1796446  38.5744739  56.9972754
  68.8711452  37.9015207  56.3904810  69.4932270  38.0854416  57.7580261
  32.2718691  24.4299674   6.9585534  31.4016365  24.1310478   7.2223206
  32.6344274  24.8361278   7.7458402  51.5819693  29.9761820  21.3824749
  51.1117125  30.6074715  21.9270539  52.1083736  29.4707870  22.0019150
  64.6349239  39.9898076  41.2000799  63.9182711  39.9832869  41.8345833
  64.8499346  39.0658879  41.0721064  66.6772890  64.5896673  53.6867189
  66.7542267  63.8118744  54.2393017  67.4621487  64.5729589  53.1390381
  12.0372497   6.9768850  33.3894253  11.8422996   7.8886262  33.1727409
  11.1787140   6.5643207  33.4839559  40.9313965  60.2167606  49.5306730
  41.6101456  60.5774212  50.1011562  40.1583719  60.7519722  49.7101641
  71.7421961  59.3131447  21.1696029  72.6099920  59.3417215  20.7666874
  71.1677933  58.9842463  20.4781389  60.3747654  64.8112583  53.4432173
  60.4545259  65.2587271  54.2856216  60.2204943  63.8948107  53.6724663
  54.4256519  41.3108945  10.1660844  55.0321840  40.8827758   9.5618745
  53.7069630  41.6124463   9.6104022  23.2726347  55.6032452  23.8179418
  23.2119142  55.3784677  24.7463914  24.1199934  56.0401234  23.7321969
  38.4513664  50.3415060  42.5447464  38.7911916  50.4750776  41.6599274
  37.5314498  50.6002474  42.4896049  38.9301561  14.5717979   0.2288600
  38.4995197  13.8447070   0.6784411  38.8012670  14.3880773  -0.7016639
  62.5906252  27.2471595   6.6669055  62.0247721  27.5352168   5.9506198
  62.7199625  28.0314470   7.2002002  68.4698868  43.4708548  61.2831831
  69.0096712  43.4197283  62.0720100  67.5892353  43.2419538  61.5803289
  42.0737410  34.3914533  55.6664324  41.7249632  34.5839882  56.5367889
  42.5894070  35.1650095  55.4385471  63.5406065  32.1906543  28.7265778
  63.6138010  31.3249803  29.1284299  63.2628012  32.7637219  29.4411755
  73.4519838  34.3708969   3.9127608  73.6187457  35.3011966   4.0642949
  73.9527487  34.1631914   3.1238862  73.3766890  49.9127197  53.1448030
  74.1149378  49.3135357  53.2552576  72.7405357  49.4165802  52.6296425
  62.7879059  63.9577445   4.6431037  62.8357756  63.2734236   5.3106709
  63.3105409  63.6198601   3.9158364  59.0038752  24.1325689   3.7197371
  59.3294405  24.2095161   2.8229018  58.6676954  25.0042320   3.9281197
  37.1171307  42.0889497   5.6573983  37.2405599  41.5253950   6.4212104
  37.9190420  42.6096177   5.6118174   9.4601643  26.1547700  52.7787399
  10.1686394  26.0127679  52.1509409   8.9848816  25.3240816  52.7954626
  28.5971224  12.3073904  52.4985647  28.0751287  12.5978033  51.7506266
  29.4147646  12.7996961  52.4256039  35.2676320  48.3921671  28.5237408
  34.3663931  48.2735109  28.8236070  35.4077387  49.3385506  28.5547709
   2.5125360  65.7291126  47.1688604   1.9668865  65.5601168  47.9369354
   1.9789934  65.4414368  46.4280462  60.4723692  46.4362335   2.1567275
  60.8176231  46.5012836   1.2663338  59.7775126  47.0935822   2.1928033
  46.7382406  12.5141597   1.8008681  47.3697828  11.7953325   1.8268414
  47.0756887  13.1052471   1.1278363  51.4406729  27.8713250  40.3527641
  51.4530134  28.5508919  41.0267591  52.1522903  27.2793412  40.5964565
  58.7227415  18.4032989   9.4512292  59.3546270  18.8293767   8.8720818
  59.0074800  18.6420036  10.3333732  57.7401352  71.2239027  38.4768891
  58.1023455  71.5382481  37.6485038  58.2272625  70.4209805  38.6619568
  10.5506182  52.5508881  28.7524939  11.3608217  52.2848415  29.1872644
  10.7596159  53.3948565  28.3521557  53.3206724  35.4893947  22.0431539
  54.0597605  35.8558536  22.5286313  52.5660156  35.6274629  22.6155682
  26.3097690  32.9778314   3.4061881  26.1148285  33.4669519   2.6068183
  27.1670650  32.5844837   3.2432385  52.3054981  58.1629276  26.9911146
  52.1845102  57.5292635  27.6982689  52.0221329  58.9969349  27.3657656
  35.1277172   0.8137743  39.6263027  35.1937305   1.7508832  39.4427323
  35.7383644   0.4058401  39.0123487  66.1099409  41.0366416   0.0187560
  66.4666628  40.6486297   0.8177777  65.3748392  41.5709091   0.3194543
  46.9980644  45.5571676  36.7065831  46.6003727  46.2815214  36.2234898
  47.9130339  45.5554796  36.4253922  27.5577688  49.4779253  60.9910727
  27.8667235  49.0129948  61.7686462  28.3094287  49.4793463  60.3984213
  43.0430937  53.4219599  47.5812960  42.7498770  53.1556129  46.7099047
  43.0732107  54.3778801  47.5420713  20.9617758  31.9315815  57.8332233
  20.8620214  32.6783299  57.2427607  20.5579329  32.2183013  58.6523294
  39.0740692   9.6045629  62.2409630  39.4551289   9.4131128  61.3840103
  38.1635296   9.8320238  62.0527840  70.9273624  31.5744996  43.4349871
  69.9953747  31.7713690  43.5292053  70.9577370  30.8561873  42.8030586
  68.2642281  67.4308022  16.6603299  67.9557907  66.6262444  17.0772048
  67.7562916  67.4912628  15.8512660  12.8606749  56.4801550  59.1402197
  13.4579515  55.7491922  59.2989206  13.3586168  57.2563553  59.3967485
  17.8494322   0.9025470  56.5314388  17.6595795   1.2128870  55.6460714
  18.1040489   1.6902963  57.0119047  66.1238527  52.2871494  59.6203184
  66.4509869  53.0548716  59.1514730  66.4610720  51.5415621  59.1237164
  19.8604273  39.5994258  10.0858136  19.5666384  39.9122262   9.2302009
  19.6639084  38.6626411  10.0787612  58.3432531  22.3116684  46.4450407
  59.2530441  22.4103475  46.1643744  57.8477573  22.2370076  45.6294775
  35.0330853  53.7579298  37.5803065  35.3358221  54.6655416  37.5515771
  34.0793991  53.8218164  37.5289726  68.1040907  41.3171387  36.5173578
  68.5384846  41.0812187  37.3370361  67.1908379  41.0620308  36.6482210
  25.3195238  59.9205637  25.1551199  24.6286440  59.2707586  25.0260019
  25.5200624  59.8744106  26.0899401  63.8607870   6.5375583  41.7144414
  64.1817890   6.7051761  42.6005002  64.6442209   6.5712039  41.1655065
  50.7093847  22.1230332  59.3098856  51.1648071  22.5103394  60.0574257
  49.7807587  22.2566000  59.4997376  66.7623472  54.0097094  57.6492357
  66.3683271  54.8461103  57.4014187  66.3580656  53.3711243  57.0618725
   9.5026743  21.5228311  37.5571227  10.1994860  21.9832365  37.0894575
   9.9613487  20.8792440  38.0971646  70.3853021   5.9350268   1.3666602
  69.8918901   5.1172702   1.4302751  70.0686298   6.4634482   2.0992776
  72.1441317  64.1581631  52.3303747  71.7538261  64.9293089  52.7417517
  71.8138313  63.4202814  52.8428745  23.2078718  37.0802951  20.3243466
  22.7026199  36.6085601  19.6622106  23.2788538  36.4654136  21.0544988
  43.2834743  39.2659593   6.7655202  43.6809038  40.0997758   6.5144607
  43.1735968  39.3290544   7.7143022  24.7863315  26.9149137   0.3824492
  24.8822283  26.9383216  -0.5696467  25.2848314  26.1443830   0.6545087
  72.7733469  36.0090804  12.4091399  73.0319309  36.8389487  12.8099942
  71.9040585  35.8304310  12.7678239  74.1284370  64.2444181  60.4070187
  74.1568851  63.4401846  60.9253168  74.2271137  63.9495516  59.5017338
  75.3443634  23.1496755   0.5562166  75.6842720  22.4814550   1.1513436
  75.5181276  22.8020708  -0.3185485  57.7330875  66.3371086  41.7172861
  57.8069639  66.5435886  42.6490259  56.8221045  66.5346003  41.4996958
  21.0798693  55.9698963  48.3301878  20.3747320  55.4678440  48.7387848
  20.8100843  56.0617685  47.4164009  72.8308010  27.4240327  24.3524718
  73.2302713  27.9132819  23.6332440  72.5806093  28.0943942  24.9882793
  51.8305611  37.5415731   2.8007956  52.6796507  37.4502349   3.2331582
  51.2537788  36.9443107   3.2770701  17.4532484  29.7795511  13.4835406
  17.9207491  29.8635459  14.3145724  18.1378626  29.8353362  12.8168937
  69.5158625  44.8797131  56.8091679  69.9723148  45.5762482  56.3372374
  69.8740530  44.9167347  57.6960468  47.3183346  32.9408836  13.8188720
  47.6762915  33.3368254  14.6134341  47.7431488  32.0847750  13.7655640
  55.3102160  55.5183601  54.2372036  55.1890898  56.4511347  54.4146585
  55.0018883  55.4035473  53.3383274  41.6188097  65.3945112  49.0668535
  41.7104769  66.3258076  49.2681360  41.5383673  65.3622866  48.1135845
  74.7996151   5.7376043  46.1048746  74.9629080   4.8850624  46.5082788
  75.1508247   5.6543008  45.2183390  39.3164265  14.3576948  56.4408588
  40.0056278  14.8483125  56.8886757  39.5343220  14.4323389  55.5117846
  36.3060390   4.7538749  18.4017134  37.2502434   4.6301118  18.3048761
  36.1744129   5.6945840  18.2835114  12.3956035  24.7572828  11.7736312
  12.8904652  25.3467727  11.2045594  11.8234180  25.3356004  12.2780057
   5.0875998  40.9167242  31.4207172   4.1913414  41.1695671  31.1993027
   5.0148439  40.5069304  32.2826958  41.3620483   3.0879537  42.7256966
  41.6759026   3.8629190  43.1916952  41.7492401   3.1599084  41.8532658
  27.0178007   6.4289213  16.2688752  26.4719032   5.9206319  15.6689855
  26.4925693   6.5037656  17.0655938  21.5246653  18.3769536  10.6827947
  20.6233333  18.0713630  10.7849952  21.9289278  18.2202125  11.5361663
  70.5883169  45.2707386  52.4602604  70.8656263  44.3716431  52.2843075
  71.0203838  45.4978609  53.2836437  48.1049919  47.1085930  27.8583646
  49.0033817  47.4060774  27.7147317  47.9472589  46.4759207  27.1575928
  54.5739603  39.8116112  60.2163601  54.6133566  40.1752377  61.1009216
  54.3343973  38.8938618  60.3451157  46.3325167  62.4369955  27.1043754
  46.7786455  63.2442570  27.3603582  46.4606905  62.3824596  26.1573648
  69.2081690  66.4882278  36.4778137  68.8633919  67.1041393  37.1243548
  68.4310627  66.1389685  36.0415244  21.8047869   6.9586460  37.0468259
  20.9761249   7.1109954  37.5010657  22.1290314   6.1345235  37.4100351
   9.5350325   8.1889431  43.7011385  10.0183403   7.7212326  43.0200434
   8.8951408   7.5527469  44.0205526  46.4351130  63.6557722   0.8366225
  47.1837425  63.2597113   0.3906156  46.7973948  64.0001249   1.6529579
  70.8749580  59.3540144  43.4309816  71.2985802  59.7835159  44.1741562
  70.0883865  59.8750973  43.2697010  71.0536432  31.3126183  60.3544664
  70.5605173  32.1280646  60.4444790  71.0297871  31.1205196  59.4170427
  56.0430597  17.5771070   4.9457427  56.9090914  17.3943401   5.3101798
  56.1559271  17.4807477   4.0001174  62.8426718  23.0354572  17.6397963
  63.5699533  22.4140954  17.6051160  62.0980142  22.5159145  17.9427691
  26.0995447  57.1700868   5.9304305  26.0311472  56.7157420   6.7701455
  25.2058947  57.4542078   5.7383510  48.1700395  33.4625364  16.4961310
  48.0400633  34.3811536  16.7316743  49.1079925  33.3146787  16.6170236
  73.2048941  49.3131685  61.4014339  73.4918070  48.5097504  60.9673452
  73.1228685  49.9518776  60.6932259  42.8414917  25.4302144  46.0448074
  43.2291079  26.1854243  45.6024933  43.5383844  25.1016188  46.6127872
  75.5059052  51.1868382  17.9461277  76.2846422  50.6576633  18.1186700
  75.4112244  51.7347860  18.7252426  67.9508305  52.9602432  47.2098541
  67.9299688  53.8415766  46.8369579  68.3179951  53.0794096  48.0857658
  58.0084108  29.1397453  32.6638242  58.6055159  28.7772680  33.3182832
  58.5117411  29.1313911  31.8496819  56.6518497  57.6185322  48.3189535
  57.1730900  58.3915854  48.1023121  56.9206715  56.9609308  47.6774549
  13.6525452   2.3607294  51.3530397  13.6121237   1.8683378  50.5331945
  14.5397150   2.2101633  51.6793680  11.8888617  57.1789837  44.1153860
  12.0059156  58.0960321  43.8672781  12.4714899  56.6960382  43.5292721
  56.1608934  60.9151268  59.9240971  55.2273798  60.8866405  60.1337814
  56.5149879  60.1080322  60.2975130  36.7251598  71.3122519  20.0937482
  35.9178173  71.8258723  20.0689050  36.9811260  71.2238296  19.1756555
  30.3771257  53.9912128  41.5561438  30.1102304  54.3600178  42.3981524
  29.5580626  53.7138557  41.1457253  40.4927038  14.3180395  12.9312631
  41.2061094  13.7492586  12.6418324  40.8949827  14.8955512  13.5800191
   5.0431871  39.2552733  43.2191753   5.4724836  40.0853300  43.4264088
   4.3140936  39.2018843  43.8370705  73.7693357  71.0296631  47.4388599
  74.5754004  71.4714003  47.1717262  73.0867195  71.6922903  47.3330450
  25.0102961  67.5164739  45.2293348  25.3476870  68.2589094  45.7305241
  25.7508957  67.2330324  44.6932316  70.9595585  51.9635391  51.2241793
  71.6199446  52.6563549  51.2354851  71.0380745  51.5719748  50.3542709
  40.7986450  29.9271750  44.8345470  41.2851429  29.9241042  45.6588888
  40.2936077  29.1142273  44.8514652  17.4433206  24.7033143  29.3388673
  17.9811882  23.9115644  29.3307706  18.0649017  25.4135061  29.4985410
  51.3979101  54.1525269  30.9056020  50.8312273  53.6676741  30.3055835
  52.0187712  53.4996462  31.2288904  69.1009390  22.4747316  57.4252701
  69.6914112  22.0668642  58.0586910  68.7651264  21.7441503  56.9059372
  70.0728703  64.0536356  55.7189846  70.3469181  64.3454790  56.5884447
  69.8703480  64.8618746  55.2478456  62.8673172  54.2701578  51.6365290
  62.3693085  54.9525738  52.0865583  62.3155403  53.4904766  51.6987801
  55.4236101  26.7738462   5.4030105  55.2753996  27.2454334   4.5833369
  54.6675419  26.9951177   5.9467240  74.1891766  48.9765739  44.2152452
  75.0280571  48.9118624  44.6716738  73.8724232  49.8563623  44.4198608
  44.2496025   3.3316556  30.4794240  44.0476238   3.0601732  31.3748193
  44.9357330   2.7278415  30.1950741  72.9799557  59.5863342  47.4579239
  73.6395597  60.2247763  47.7291250  72.3589277  59.5596552  48.1858253
  65.3468513  40.9171963  51.5021467  65.7513332  40.2757740  52.0862675
  65.9971476  41.6154528  51.4261055   3.5323452   6.6185213   3.7339278
   3.6337685   5.6668306   3.7188407   2.7863716   6.7890335   3.1588765
  10.5907499   0.3529588  39.6721554  11.3723051   0.7388774  40.0677109
  10.7332241   0.4367200  38.7293315  51.4778137  62.3275089  52.9205084
  50.8376169  61.8080902  52.4341059  51.8503857  62.9206228  52.2680998
  60.6891346  57.7664995  47.6496267  60.8144140  56.9811916  48.1823874
  61.5565395  57.9531527  47.2904634  69.4956468  68.1573034  23.5960408
  69.2342352  69.0779138  23.5763951  70.0293993  68.0766988  24.3865128
  64.6663952  54.2500639   6.9482881  63.7436342  54.0698719   6.7686349
  64.8056507  55.1378775   6.6187024  24.3865728  70.9490061  29.2187452
  24.0037966  71.1394262  30.0751638  24.6897650  71.7982769  28.8977289
  45.5048000  21.0930864  56.1760139  45.6276810  20.8315412  55.2634764
  45.4138290  20.2674142  56.6516447  72.2939730  61.1291456  45.2169132
  72.4629593  60.6991959  46.0552549  73.1016922  61.0070276  44.7179985
  72.9929840  10.0914709  39.3721366  72.5419914  10.1705686  40.2127218
  72.5225508  10.6889287  38.7907815  42.6155828  37.3535657   4.6388789
  42.6042627  37.8919053   5.4302665  41.7049526  37.3417449   4.3441983
  70.6377935  21.3477945  18.6406004  70.6764889  22.2986078  18.7439859
  70.5504274  21.0131812  19.5331419  36.4668297   8.8921380   6.0594817
  36.6619181   9.3965316   6.8492623  35.9451078   9.4854856   5.5191298
  71.1749077  61.6281557  26.9018555  71.8656588  61.4792347  27.5475478
  71.3481760  62.5068569  26.5640903   4.5939970  51.4870262  50.6467962
   5.5011797  51.7883778  50.5973339   4.3839884  51.5116930  51.5803480
  26.5831709  46.6468954  49.9094391  27.1450853  47.4212408  49.9389839
  25.9197283  46.8066454  50.5806732  69.4051886  48.3300972  26.6187429
  70.3556633  48.3831930  26.7188001  69.2312765  48.7306213  25.7669425
  66.9010805  21.1328674  43.2893964  66.9304441  21.5591026  44.1459580
  67.0955347  20.2136827  43.4724732  71.1968517  66.3099337  53.4760189
  70.5149794  66.7695284  53.9659691  71.7747450  67.0047522  53.1605864
  53.5239052  14.5386625   2.8609248  54.3452047  14.9128557   2.5420590
  53.5203813  14.7324777   3.7982913  29.5794975   7.1372549  16.6490483
  28.6404573   6.9530145  16.6710389  29.6515762   7.9556028  16.1577833
  38.4331392  44.6226049   9.6156093  39.2709993  44.5567918  10.0737449
  37.7753996  44.5141912  10.3025218   0.6605780  12.7945653  38.5989904
   0.0653183  12.6305238  37.8675628   1.1115992  11.9608823  38.7323546
  71.9588482  14.9804918  49.5720577  71.8632519  15.9184686  49.7372389
  72.4567472  14.6547739  50.3218842  40.7637417   4.2827884  31.7513180
  41.6137039   4.6106187  32.0451236  40.3173077   4.0196601  32.5561094
  66.2485218  65.2647209  27.4060488  66.9272041  64.9233532  26.8237329
  65.7569885  64.4906330  27.6806664  21.1426842  15.2523939   8.1023550
  21.9064104  15.5976335   8.5647058  20.4362785  15.2872316   8.7473422
  22.7432941  12.7287841  27.9411717  23.3655714  12.0772100  28.2643624
  21.9669508  12.2215677  27.7040120  39.5256245   5.7451288  57.1519423
  38.7847912   6.3144247  56.9438648  39.6643745   5.2320234  56.3558912
  42.6268053  27.2097278  27.4297810  42.7946186  27.3094940  28.3668613
  43.4428263  26.8551898  27.0767379  31.3409090  64.9554873  41.6052198
  32.2625494  64.7847605  41.4111519  31.1142778  65.7033205  41.0523891
  33.3223938   6.2688899  19.2986508  33.9264606   6.7805457  18.7605592
  33.8608669   5.9439493  20.0202390  17.1229887  50.5671692  39.7828698
  17.3220587  51.2988615  40.3670216  16.2774134  50.7932329  39.3953967
  11.0651731  51.5721226  59.8632574  10.7816553  51.1345291  60.6659794
  11.6155672  52.2944546  60.1658201  73.8697720  66.2457848  56.1678505
  74.0736532  66.2583113  55.2327013  73.1937170  66.9149590  56.2745810
   0.8127403  18.9869308  39.7222066   0.2698088  19.2515743  38.9796281
   0.2271032  19.0386951  40.4775763  55.8108854  59.8642540  10.8252406
  55.8609915  60.8035851  10.6480944  55.0610256  59.7709942  11.4128149
  71.4804327  17.7364961   9.1962957  70.8611118  17.8865949   8.4820545
  70.9786188  17.2497503   9.8501205  22.2148048  36.4112035  17.6662219
  22.9458963  36.9813768  17.4282372  21.6897213  36.3493387  16.8682909
   8.4838724  60.5986309  24.6650910   7.8979254  60.7867527  25.3982353
   8.3555651  59.6665573  24.4889998  65.9364939  61.9101429  58.9766884
  66.4732647  62.5676107  59.4192314  65.5821228  62.3650217  58.2126617
  73.8948250  60.1521540  42.2027922  73.0214310  60.1846170  41.8124580
  74.4552851  59.8077631  41.5074444  25.0963652  19.1723005  36.4907146
  25.8128559  19.0671102  35.8647752  24.6936857  20.0082342  36.2555695
  49.0186523  10.7414842  10.8073541  49.4165110  10.1093650  10.2087184
  48.4709381  10.2112365  11.3862153  52.6904701  34.1206193  40.9667512
  52.4333595  33.5291696  40.2594300  53.0472111  33.5445714  41.6428777
  71.7605234  45.5098462  61.5353362  71.2426067  45.0564551  62.2004913
  72.6693607  45.3547144  61.7925803   9.4615770  58.3413696  18.2564239
   9.1574026  59.1341161  18.6983136   8.8508392  58.2233691  17.5288896
  32.4588299  13.7028289  44.8154974  32.5236821  12.7869093  45.0859022
  31.5247154  13.8406205  44.6584177  17.8221548  62.1831598  57.0014715
  18.2231319  63.0459609  56.8964815  17.9008568  61.7758896  56.1388206
  47.0105029  26.4408606  54.4898061  47.7201201  26.2953686  55.1155106
  47.3134423  26.0243326  53.6829827  74.7117389  70.3333474  27.5273275
  73.8118566  70.6355569  27.6502538  75.1212586  71.0122789  26.9910645
  43.1236923  59.2740139  59.3556547  43.9816416  58.8550373  59.4235897
  43.3076990  60.2102955  59.4314909  48.5539150   0.7808254  43.6336946
  48.1583595   1.5138406  44.1053486  48.0165339   0.0251847  43.8713121
  38.9494777   4.3628925  17.3500991  38.9652419   4.5037541  16.4034522
  39.4142318   3.5357606  17.4769425  16.3931931  53.9710482  38.4133267
  17.2496450  53.8241049  38.8147354  16.3073004  54.9235805  38.3741426
  20.0006210  41.8243053  11.6347190  20.0775635  41.0862538  11.0300799
  20.8692419  41.9022771  12.0292445   5.5723370  61.5955885  45.5749559
   4.7370661  61.9884499  45.3215456   5.4006136  61.1973353  46.4282656
  22.4981964  69.1409389  14.6612835  22.2915590  69.4697117  15.5361784
  23.2466496  68.5593187  14.7945774   5.3053933  34.7144437  45.5820656
   6.1200184  34.3617082  45.9401083   5.5563927  35.0853848  44.7361183
  55.2202320   2.5548673  42.1850491  55.4105568   2.9844394  41.3510942
  55.3495407   1.6228518  42.0093822  60.1703024   4.8821893  38.0092144
  60.9904099   5.0693542  37.5524592  60.4330349   4.3663087  38.7714934
  70.2340448  37.7111038  34.6542311  69.7096181  37.0424636  34.2136312
  71.1225474  37.5735339  34.3257976  23.5040319  55.3771122  48.6291742
  23.4355248  54.6288117  48.0362272  22.6073540  55.7024714  48.7088156
  13.5972822  43.9504035  58.6909676  13.5524500  43.0971464  58.2594872
  12.7366531  44.0597828  59.0954208  71.9710267  66.7345735  10.7520413
  71.5315927  67.2381716  10.0668287  72.5257433  67.3730954  11.2001622
  55.7546104  64.8572602  22.2348714  56.2653024  65.5722519  21.8551183
  56.1102284  64.0668496  21.8286467   7.7446777   9.2600238  32.6277852
   7.9259050   9.0527022  33.5445213   7.1958005  10.0434136  32.6633716
  12.0231104  23.7428856  31.4585757  11.5330565  24.2369723  32.1158099
  12.3337126  22.9667544  31.9248152  58.4512902  56.6281160  35.8034110
  58.6743445  56.2777921  34.9410009  57.5285972  56.4027854  35.9221339
  54.5808521  64.5975544  41.8563843  54.9401653  65.1530930  41.1646461
  54.8358763  65.0328305  42.6698494  15.2753771  51.3673862  52.0519161
  15.1947773  50.6105217  52.6323414  15.9502209  51.1151203  51.4216900
  60.1783420  23.5428393  56.2335018  61.1227656  23.6043131  56.0902540
  60.0640417  22.7346813  56.7335496  54.0272892  52.3790570  28.5713148
  53.5271696  52.6236292  27.7926660  53.3759898  52.3395296  29.2716575
  61.3474989  56.8439047   1.2363072  61.7531300  55.9869044   1.3676568
  61.9909334  57.3381226   0.7283946  49.5075089  67.5829943  31.1343169
  48.5589302  67.7046554  31.0939527  49.7789019  67.5110047  30.2192235
  52.3974157  55.7967209  53.4910862  51.8069674  56.5458417  53.5712151
  52.2937823  55.5059135  52.5850377   1.5296938  18.0149341  21.0286975
   1.9741862  17.1697628  20.9627938   1.5671323  18.2332683  21.9599128
  47.9151282  39.3686398  16.3338697  47.3234097  38.6730965  16.6207802
  48.0965902  39.8714217  17.1279192  59.5466173  70.9370411  44.3190527
  59.3810463  71.0160786  43.3795977  60.4307432  71.2845438  44.4365025
  51.3607527  17.7272939  57.7327267  50.6303216  17.6161539  57.1241630
  51.2910939  16.9818997  58.3291886  30.5743265   1.5980594  24.6687007
  30.4564857   1.9816701  23.7996840  31.1740398   2.1958305  25.1150703
  23.0456675  58.1512447  19.7549748  22.3594225  57.7000233  20.2466083
  22.6343000  58.3755096  18.9202797  20.4645718  70.2424321  48.9578724
  19.8670376  70.7651708  48.4231472  20.9115494  70.8819696  49.5123386
  70.7597982  56.3497623   8.3399220  69.9878609  56.7705830   7.9614325
  70.5567467  55.4145595   8.3199807  68.7375795  48.9214512   2.9059907
  69.2659199  48.1548366   3.1282302  69.2219460  49.6608230   3.2733460
  14.2184485  37.5865825  23.5700727  13.5570491  37.0946797  24.0567088
  15.0517166  37.3081931  23.9500690  73.7620724  65.1097741  27.7506590
  73.9678348  65.8188697  28.3598185  74.5852030  64.6309438  27.6536512
  69.4009352  27.6205540  43.4777975  69.6672964  28.2061172  42.7689934
  68.4983301  27.3827982  43.2656384  55.6540966   6.3173288  41.0972691
  55.8703709   6.5578246  41.9981718  55.7992792   7.1185333  40.5940533
  46.3235903  24.0211082  28.1977558  47.1803093  24.3731380  27.9562187
  46.5068007  23.1317234  28.5005116  28.7074089   8.0365813  24.6236300
  28.0913639   8.7255526  24.8727059  29.5514369   8.3365047  24.9611115
  17.3929071  12.0987082  31.9873548  17.2620249  12.6467264  31.2135482
  18.2337475  11.6671491  31.8357778  24.5991171  58.2088955  12.6967621
  25.5063904  58.1238767  12.4037433  24.4254864  57.3990246  13.1765461
  31.2243032  17.4963427  26.9327950  30.5055237  16.8663085  26.8813896
  31.8974066  17.0503664  27.4468660  18.1811488   1.9512212   9.3568051
  18.0848885   2.8828752   9.5542550  19.0958881   1.7564547   9.5606422
  27.3267782  46.8693145  19.8758614  26.9446552  46.5398320  19.0624404
  27.8750217  47.6047166  19.6022797  58.2663345  28.6628461  35.7707071
  59.0345287  28.6688972  36.3417315  57.7967691  27.8636169  36.0093904
  46.8860758  61.8869468  41.1769915  46.6112936  62.2820266  42.0044231
  47.7510584  61.5210798  41.3618660  17.2361040  15.9845972  39.4465375
  17.0377874  16.0756266  38.5145426  16.7423773  16.6890073  39.8663878
  62.1775532   3.9920527   8.6502159  61.6310549   4.5906037   9.1594362
  62.2410822   3.2057697   9.1923922   2.6120090   5.9994298  36.5004683
   2.3782778   5.5304903  35.6994081   2.2232532   5.4799443  37.2042012
  34.4242466  53.1883927  57.1814919  33.9484299  53.6668404  57.8603983
  34.5700682  53.8346227  56.4905787  30.4986179  68.0888682  35.4877234
  30.2541912  68.9248636  35.0907326  29.9151886  68.0020376  36.2415814
  13.2264566   0.9962456  40.9791708  12.9716253   0.1585406  41.3658810
  14.0282869   1.2396017  41.4418697  17.7067268  67.5305691  36.5896106
  17.0995129  67.4271714  37.3223019  17.3989237  68.3129417  36.1320281
  39.8996687  11.3904929  39.8138881  40.6558704  11.3085437  39.2327929
  39.3111920  11.9920671  39.3577766  39.6958423   6.1903620  19.1416430
  40.2402115   5.5611646  19.6149325  39.4477010   5.7348961  18.3371496
  31.1279619  49.1471466  35.4641724  31.8040169  49.2354640  34.7923231
  31.2505568  49.9101003  36.0290670  63.2557201   9.9528438  38.2156181
  62.4560881   9.6344197  37.7967763  63.8508320   9.2033672  38.1966209
  19.0537333  17.2078598   0.3601696  18.1564796  16.8783164   0.3095000
  19.1505551  17.7593064  -0.4162093  14.5868838  40.9001541  37.5668311
  15.2348793  40.3464031  37.1312904  15.0956070  41.6272688  37.9256248
   4.4831598  45.6719502  27.6788807   5.2472580  45.1677354  27.3993254
   4.3944800  45.4752096  28.6114359  41.9112528  63.4318199  25.3108025
  41.9118441  64.0972724  25.9988451  42.3671330  62.6851883  25.6993175
  36.0661173   1.7621271   2.8942606  35.3701758   1.3800941   2.3595197
  36.5183425   2.3647770   2.3038909  32.1797360  70.5531339  14.5487368
  32.6230372  70.7999594  15.3603983  31.3438976  70.1846839  14.8348296
  18.5140455  65.3115269  35.5863357  18.2490528  66.1553206  35.9524274
  19.4507111  65.4084899  35.4146075  31.1241282  57.7585145  41.8568325
  31.6684235  57.0504232  41.5124750  31.7498434  58.4229203  42.1454096
  59.4710827  46.2832832  57.0173120  59.0192080  45.6787968  57.6060724
  60.0367212  46.7992640  57.5918102  36.1999071  61.6402801  29.3758154
  37.0613945  61.3324281  29.0942144  35.5983294  60.9448906  29.1097856
  40.2018726  59.3458959  17.3559415  40.8864391  59.8919281  17.7425277
  40.6535423  58.5423096  17.0981097  53.8775015   1.5825228  50.0319624
  53.2771063   1.4106086  50.7573605  53.9071798   0.7588252  49.5452642
  48.7384022  67.6000010  52.8988695  49.4679201  68.1847610  53.1040239
  47.9744089  68.0239030  53.2898283  49.0382587  45.9657105   2.6348563
  48.8270533  46.4091286   3.4564467  48.4990513  45.1748868   2.6440116
  60.4395640  58.4163769  52.2477818  59.8424256  59.0453001  52.6528931
  60.6925130  58.8251790  51.4200592  18.2790697  65.2564099  55.1405954
  17.3372734  65.0859132  55.1270103  18.5483683  65.0423410  56.0338402
  62.8136396  27.3404479  41.5396357  62.8151608  26.8646049  40.7090950
  62.3141146  28.1366444  41.3585949  31.8250073  70.7694033  39.0565705
  31.1247337  70.7868895  39.7089076  31.7275513  69.9214914  38.6232352
  17.5724686  47.0366939  52.3965883  18.3459986  47.3619088  51.9360209
  17.2958458  47.7692851  52.9470634  63.7338234  29.6522039  62.0204646
  64.1178752  29.2053383  61.2661126  62.9665829  29.1259616  62.2455041
  66.5972937  50.5908044  46.8542671  67.0194662  51.4250620  47.0592451
  67.0571363  49.9500307  47.3966551  21.9762659  15.9821200  26.9374418
  22.2251463  16.8746972  26.6974473  22.7906108  15.4824686  26.8789291
   3.6179102  56.7409404  29.4099998   2.7459109  56.5045472  29.7261739
   3.5928500  56.5493294  28.4725094  63.8004696  56.1633500  23.9134046
  64.0927565  55.2664348  24.0757104  64.2156159  56.6793116  24.6045419
  64.7010517   6.7491311  48.2775831  63.9292049   6.6244531  48.8297939
  65.3091526   7.2463042  48.8246298  49.8741102  16.2852299  23.6382341
  49.1749477  16.4699030  24.2653728  49.4841337  15.6673717  23.0198455
  60.5696201  13.6399102  40.8527088  59.9778128  13.4828174  41.5884495
  60.2741241  14.4709599  40.4808617  57.2451770  58.6001548  20.9850903
  56.8811261  59.1271457  21.6964169  57.5808370  57.8144630  21.4166661
  16.1591661  49.5045050  24.4021463  15.2388609  49.2431029  24.3715262
  16.1470402  50.3785738  24.7921276  68.5322105  32.4275600   7.4851819
  67.6545584  32.3289924   7.1160623  68.4943163  31.9620385   8.3206960
  13.6942446  10.9147680  22.1200824  13.3858788  10.0601149  22.4212623
  14.1016579  10.7372618  21.2722969  12.2299683  21.6361793   7.6723262
  13.0592834  21.8160936   8.1151553  11.7399084  22.4556741   7.7394315
  47.9475439  64.2476311  11.1816812  48.2267178  65.1188924  11.4631009
  48.1482161  63.6798652  11.9257271  74.0225506   1.4442027  28.7596345
  73.5315561   0.9085979  28.1365132  74.8007107   1.7214651  28.2760787
  11.7400492  64.8580714  28.0621743  11.0020793  65.2376225  28.5392237
  12.4843658  65.4152556  28.2897019  75.1574528  13.2757028   0.1685544
  75.3133594  13.9370688   0.8427354  75.7912170  13.4804734  -0.5189399
  42.6057577  13.7693584   4.4628021  41.8388367  13.9110672   3.9078417
  43.3487272  14.0168881   3.9123839  56.9657755   4.0261698  43.5768700
  56.1717939   3.6923805  43.1592512  56.6759729   4.8020908  44.0566540
  41.0588837   2.2814733  14.1760087  40.4353905   2.1227938  13.4672713
  40.6907749   1.8165778  14.9274075  64.2900062  71.5738946  49.4702101
  64.1550720  71.6657554  48.5270309  64.4871975  70.6455297  49.5946550
  35.0626922  19.5331156  16.9751608  35.7157350  19.4368935  16.2819719
  35.2937746  18.8614738  17.6168227  11.7192947  57.6995715  24.3993684
  11.7750036  56.7599353  24.5731851  11.8695890  57.7782091  23.4573193
  34.2146301  13.2284391   4.2417699  33.9770937  13.9143586   4.8657274
  33.8147521  13.5055852   3.4174410  42.7785921  10.6966817  14.9762058
  43.4461784  10.1201296  14.6045232  43.0466843  11.5762281  14.7102058
   6.0057878  18.1650817  19.0361822   5.1673746  17.7937841  18.7615180
   5.8602762  19.1111577  19.0361118  28.6214769  55.4762813  47.1423483
  27.8263319  55.1709744  47.5791168  29.1755474  55.8001479  47.8525257
  21.3804091  68.5406830   9.1380823  20.4596699  68.7947854   9.2005599
  21.6402424  68.3579405  10.0410342  32.0735145   8.2564169  20.7444644
  33.0205727   8.3930653  20.7191586  31.9270086   7.4911058  20.1885271
  28.4788418   7.0305508  48.4064341  28.0842185   7.2510499  49.2501640
  27.7988172   7.2326922  47.7638292  56.7513627  54.6761962  23.6486459
  57.5933892  54.3418535  23.9575744  56.1217207  53.9953908  23.8858891
  45.0724745   5.7030576  29.7546220  45.9951305   5.5066442  29.9169946
  44.6100950   4.9019992  30.0010824   2.7335560  19.2512437   0.5722257
   1.9728243  19.7042986   0.9358998   2.7419054  18.4031066   1.0158750
   8.4051931  65.0743338  24.9678874   9.2158783  64.8128983  25.4045486
   7.7528847  64.4460734  25.2777505  22.9373670  18.8942802  49.5388222
  22.9939699  18.0388308  49.1131067  23.6006308  19.4254553  49.0981817
  43.7707306  64.9547147  41.0678987  44.4948364  64.5670485  40.5763606
  43.3448292  64.2107081  41.4936880  72.4268866   7.8178442  37.7843428
  73.1295967   8.1880772  38.3185267  71.7946768   8.5306960  37.6927614
  39.3817711  16.1126900  29.2021871  39.2313886  17.0387256  29.0122557
  39.7929502  16.1091757  30.0665665  29.7426581  11.0317850  57.6112270
  28.8797212  11.4359331  57.5204563  29.8759294  10.9613836  58.5564852
  63.2308876  26.9494471   1.2600108  62.9399716  26.2682542   0.6537267
  64.1624343  27.0584049   1.0687419  46.3223886  12.7919996  11.8738019
  47.1789122  13.2025754  11.7553830  45.9531784  12.7494144  10.9916997
  76.1105680  25.9860253  26.8296742  75.5014133  25.7911205  26.1175108
  75.5723858  25.9543109  27.6206136   1.8069601  15.6249475  25.2278757
   1.6632843  16.4317286  24.7332096   2.6100588  15.7872367  25.7227707
  68.2367373  16.6475940  60.6090832  67.6182556  16.5745938  59.8821831
  68.4600401  17.5778329  60.6410599  73.4503794  17.7135706  19.6538401
  73.9857531  18.4849679  19.4679606  73.5417604  17.5802851  20.5972981
  25.5743694   3.7959528   9.5513791  26.0307050   4.0660158   8.7544757
  25.7282567   4.5105514  10.1693594  63.3070374  13.3000541  41.7947149
  62.4848700  13.5022402  41.3481808  63.9167690  13.0860031  41.0885715
  35.0741410   2.1502648  42.7990198  35.1445174   1.2726286  43.1745625
  35.9790826   2.4544376  42.7298021  74.5305169  49.7475751  33.4503889
  75.4492295  49.4796403  33.4706545  74.0679563  49.0525945  33.9186525
  67.0752514  63.9679947  36.6835999  66.5209818  63.6946257  35.9526515
  66.8342567  64.8813327  36.8384099  20.7276416  41.9609022  16.6733885
  20.2976179  42.7899408  16.4636147  20.9644103  42.0409775  17.5973809
   5.8648289  69.4684062  52.8231668   5.1729429  70.1001371  52.6271009
   6.6296351  70.0065292  53.0274439  50.2024555  26.2029338  12.8979659
  49.9456978  26.8632317  12.2542953  49.4654369  26.1632657  13.5074449
  24.6620870  13.3120704   9.2179215  24.5786977  12.5641954   9.8094976
  24.7528124  12.9211175   8.3489233  17.9373825  61.9766404  54.3711567
  18.5631979  61.6715714  53.7142515  17.1395243  62.1597143  53.8750362
  75.5118872  22.4637329  52.0900349  74.6432568  22.3844969  52.4842785
  76.1183287  22.3504567  52.8219054  44.3586588   6.0901982  19.9832451
  44.0577841   6.6551518  20.6949568  43.7159872   5.3815180  19.9519777
  35.8614326  37.6613069  17.4540520  36.1398005  37.1037316  18.1805873
  35.0914216  38.1221175  17.7871704  28.3490885  66.4675810  48.0997133
  28.6697042  67.3107322  48.4199238  29.0090693  66.1851724  47.4665451
  68.3275091  53.3119556  10.8059045  68.9321243  54.0524610  10.7577010
  68.4781372  52.8265652   9.9947711  67.4366129  71.0593405  25.1217508
  66.9982744  70.2254098  24.9524856  68.3146835  70.9466032  24.7577262
  54.1637897   3.0738437   9.3190843  54.2233086   2.1398382   9.5198900
  55.0525570   3.3210355   9.0637004  27.9153240  62.4208178  18.5267103
  28.7430370  62.3286559  18.0548751  27.2763050  61.9622489  17.9811811
  47.9116238  67.1597495  27.3687863  47.3956812  67.2733854  26.5705872
  47.6417769  67.8839540  27.9335356   8.6949885  56.9316491  39.1516161
   7.9887736  56.3086351  39.3229222   9.4169319  56.6334029  39.7048616
  28.4078360  14.3848765  47.6188993  28.8971710  13.5707283  47.5008106
  28.6437988  14.6807683  48.4981060  46.4779652  63.2378682  47.4436951
  47.0795858  62.8511389  48.0798769  45.6066597  63.0414727  47.7879095
  66.4488184  33.6829622  13.5404273  65.7421600  33.6572314  12.8952857
  67.0541632  34.3449030  13.2063266  45.3209401  63.6329498  44.9252701
  45.6927500  64.4507208  44.5947552  45.9664965  63.3139875  45.5559444
  19.6268928  14.3450880  14.8197544  20.3659391  14.0306735  15.3405094
  20.0010228  15.0244093  14.2587006  65.3269636  21.2306460  24.8032494
  64.7285044  21.7706880  24.2870732  64.7548639  20.7178005  25.3741380
  31.0262716  69.3898445  51.4245033  31.7891634  69.3091641  51.9969702
  31.1426962  70.2336209  50.9877872  64.7546517  21.4144358   7.2837706
  65.4020035  22.0712253   7.0272656  63.9517271  21.9142827   7.4310609
  23.3254682  44.1620805  22.4226876  23.8489115  43.4325608  22.7544137
  23.3950483  44.0932914  21.4705010  31.0590160  54.7464224  28.6421633
  31.2346876  54.8250457  29.5798159  30.8062733  55.6289359  28.3710122
  30.3785753   8.8485742  41.1122322  31.0830259   8.2152462  40.9748411
  29.9554944   8.9254940  40.2570629   9.5109332  65.6899621  51.0308170
   9.2465318  66.3502880  50.3902721   8.7232078  65.5321642  51.5512180
  37.8159690   7.1030515  39.8458982  38.6304021   6.7093849  39.5329165
  37.3998809   6.4134079  40.3630972   3.6968029  63.4793534  50.6450367
   4.0809501  63.7904914  51.4647055   3.9105905  64.1599324  50.0068045
  65.5324757  50.1203283  16.8588134  64.7274935  50.4966709  16.5030070
  66.0346376  49.8563548  16.0878535  35.0610483  65.8412077  32.6043916
  35.4186953  66.6205116  32.1789432  34.7612131  66.1511549  33.4589458
   3.7744617  20.4121327  48.9705658   3.6718416  21.2595749  49.4036293
   4.7002459  20.1963615  49.0827847  65.3219139   6.9277843  26.1165543
  65.6699240   6.1350902  26.5249082  64.9551689   7.4306353  26.8437882
   1.6294381   0.4569273  36.5653491   2.0247594  -0.4105718  36.4793372
   1.5754916   0.7855973  35.6679654  30.1142036  43.8541647   0.7953568
  29.2981970  43.8442143   1.2956162  30.7223236  43.3320513   1.3186332
  30.5573690  62.8248062  24.0036631  29.8169506  62.5868251  23.4456515
  31.1303652  62.0583906  23.9810729  40.2742565  56.2649818  43.3021736
  40.3178728  55.7247230  44.0911293  40.8134068  55.7992955  42.6628876
  49.6541643  40.6078434  53.1182146  50.1976824  41.3200378  53.4552622
  48.8649797  40.6321144  53.6593485  29.8046148  49.9743136  59.3366861
  29.9589003  49.6803554  58.4389019  30.5707205  49.6701392  59.8233032
   5.2424253  49.0435155  49.1165543   6.1596597  49.1414698  48.8609791
   4.9561251  49.9323782  49.3267632  34.6867954  47.7883240   8.6299678
  33.9331352  48.3473870   8.4410878  34.3060123  46.9349035   8.8371106
   8.7809670   8.5784737  60.5874726   8.3111394   9.1943327  61.1497996
   8.4801996   8.7848202  59.7024910  17.0369471  66.6980725  47.3772955
  16.4591826  66.0107358  47.7089357  16.7138708  66.8771171  46.4942360
  39.7482371  27.4394512  44.2339945  39.4402146  27.4170375  43.3279848
  39.9907947  26.5338278  44.4269800  69.0407038  20.3549552  55.8286142
  69.3949318  20.8496690  55.0896883  69.7480345  19.7612548  56.0804749
  30.1460505  10.0771499  18.1846201  29.6013713   9.4764215  18.6932278
  30.1814556   9.6871847  17.3111761   4.3730556  23.8892433   7.0807382
   4.1675102  23.3533641   7.8467818   5.1052057  23.4370419   6.6615745
  25.7793367  55.4944762  43.7092924  26.3735045  56.2399276  43.6226797
  24.9958456  55.8592256  44.1207933  75.5212938  64.5264920   3.8839932
  75.3404724  65.4521641   4.0472957  76.4756739  64.4743618   3.8323565
  64.7018969  62.2007188  25.4595967  65.0565850  62.9341611  24.9571153
  64.7181808  62.5024995  26.3678380  53.9009047   6.5000808  16.6259348
  54.1428041   5.6480765  16.9889855  54.5387459   6.6532159  15.9288394
  38.9068723   6.0618728  22.8582644  39.7106314   6.0426760  23.3777189
  38.9677310   5.2908850  22.2942543  11.7039167   4.5855006   3.3859559
  12.2672331   5.3570565   3.4460088  12.2515594   3.8643702   3.6962624
  12.0252371  11.9198346  54.6987295  12.7442121  12.1561182  55.2847958
  12.1753359  10.9965467  54.4956446   5.0211382  12.0626557  48.4548664
   4.9455786  11.1085474  48.4406948   5.4864264  12.2781014  47.6465845
  32.1737968  34.6107471   7.3809071  32.8962719  34.0608504   7.6840230
  32.0194351  34.3279984   6.4795466  13.8236106  63.2207098  37.1656203
  14.4606317  62.6620050  36.7203259  13.9076627  64.0709140  36.7339706
  28.1401134   3.2242543  25.9490228  27.2825456   3.5944101  25.7397461
  28.7496686   3.9537117  25.8369207   0.9000004  35.5024727   6.7504638
   1.5125478  36.2161120   6.5723163   0.6333626  35.6370982   7.6598656
  47.4105597  12.0986640  37.8424239  47.7138138  12.9343843  37.4876833
  47.3717880  12.2399247  38.7883496   5.4771185  22.7780175  33.5731506
   4.9327612  22.4917889  32.8396845   6.3669634  22.7899814  33.2206321
  17.5432945  24.7904122  56.7471365  18.4988285  24.8454678  56.7598085
  17.2530867  25.5451285  57.2594000  21.0677791   1.1557937   9.3093610
  20.9072614   2.0821613   9.1296148  21.2657237   0.7764682   8.4531122
  61.8319416  12.4477136  21.6227674  61.8001223  13.3853590  21.4329219
  62.1837616  12.0535398  20.8245945  42.3925007  55.5668398   1.3744412
  41.9917429  54.6977683   1.3559957  41.6719091  56.1670002   1.1826520
  59.1966820   5.2937001  42.3044777  59.4918299   4.3878645  42.2118425
  58.2708454   5.2213997  42.5364828  70.9142113  39.8082995  43.2878399
  71.1737728  38.9957333  43.7221098  70.2904606  39.5322847  42.6162863
   8.3618116  52.3601961  60.0657749   7.7907133  51.8958473  60.6777048
   9.1697741  51.8470383  60.0557756  25.7830036  66.8257805  36.0954833
  25.7086313  66.4699783  36.9809794  25.9177578  67.7645417  36.2250996
  43.3726097  62.1999767  54.5825815  43.4619064  61.6510715  55.3616619
  42.6003308  62.7382346  54.7560644  26.2011898  53.8319262  37.8873920
  26.1248673  54.7852655  37.8480029  25.7627571  53.5900506  38.7031770
   4.9644899  23.6937118  17.5197113   4.8358679  23.5796404  16.5780759
   5.9046030  23.8456035  17.6163673  42.9192066   6.8412256  34.1834116
  42.9891396   7.5691181  34.8010802  43.2168341   7.2051829  33.3496356
  15.3336048   5.6839800  56.6939783  15.3901649   6.2571263  57.4585247
  16.2373149   5.4152155  56.5287399  23.7724614   6.9837701  43.3652449
  24.4295645   6.2943029  43.4605551  23.6165023   7.0373100  42.4223566
  73.6297954  68.7743660  54.6448660  73.0599440  68.9159446  53.8889217
  73.9402569  69.6492987  54.8779726  27.1389008  16.5278208  41.8557787
  26.7038894  16.7969012  42.6648474  26.6831350  15.7280457  41.5933514
   0.6076229  55.0078698  52.5058222   0.8180798  55.7229980  51.9053793
  -0.3481495  55.0122579  52.5578690  40.6347894  30.3681400   2.7550145
  40.8069157  30.8179310   3.5822316  41.4396977  30.4804626   2.2493096
  73.1641590  49.6921715   0.5950805  73.2050096  50.6463047   0.6598350
  73.1316483  49.3916413   1.5032979  19.4405687  22.3107386  32.8621411
  19.2138636  22.1882796  33.7840104  19.5619655  23.2556105  32.7688193
   4.6725416  33.1098676  23.3420539   5.5629301  32.8919888  23.6176801
   4.7275496  34.0205574  23.0524826  17.0366943  66.9503792  33.3639026
  16.4450825  66.3046726  32.9775214  16.9451559  66.8241774  34.3083215
  11.2493337  65.1414033  40.1033735  11.2301434  64.7923949  39.2122769
  11.4619649  64.3862750  40.6518269  41.1189831  54.9844035  40.9298229
  41.4122808  54.4423970  40.1974010  41.1661423  55.8810719  40.5981731
  44.8357677   3.1897217  44.1065788  45.0345039   3.8486987  44.7717714
  44.1134834   2.6838273  44.4788837  60.6692469  34.3742007  19.0867444
  61.5044677  34.8237691  18.9581986  60.0075590  35.0372356  18.8898011
  56.2731838   1.1953247  45.2230740  57.0328999   1.1213604  44.6455002
  56.6465616   1.3367614  46.0930252  62.1121633  25.4694744   8.8785048
  62.6814568  25.8317443   9.5573970  62.3185384  25.9797975   8.0954238
   6.2803257  55.0144394  35.9937024   7.1524203  55.3832515  35.8534932
   6.3489497  54.1120358  35.6819463  46.8453884  23.2070184   6.9029206
  46.4412594  22.9068375   7.7170455  47.1342278  22.4043441   6.4687353
  24.8798716  44.6866431   6.9152661  25.4132759  44.5541325   7.6989480
  24.0550911  44.2410770   7.1087619  29.6714914  62.9500367  35.7864475
  30.3279341  62.3101004  35.5111313  30.0020445  63.7873539  35.4610777
  63.1551266  37.0670319  54.5850658  63.2428646  36.3871479  53.9170170
  62.4967337  37.6657200  54.2324781  31.2152613  64.3675151  12.8690124
  31.2825192  63.9148106  12.0283175  32.0161379  64.1274514  13.3350563
  51.4181805  16.6423297  29.8368788  52.0317841  15.9852242  29.5083451
  50.8660793  16.1657405  30.4567814  47.0404148  28.7110448  23.1519103
  47.3431683  28.9993215  22.2908211  47.8057337  28.8057971  23.7189555
  73.3549738  39.0639496  32.1940899  73.8392115  39.4246793  32.9368019
  73.9822340  39.0748930  31.4711356  58.5268211  46.7772675  33.8035202
  59.0766430  45.9938335  33.8159776  59.0550709  47.4475288  34.2370319
  70.7248783  32.4836397  27.2589684  70.0937462  32.6248956  26.5533090
  70.2331781  32.6650405  28.0599403  48.5348463   1.7008105  20.2632809
  49.2487717   1.7349508  20.8999729  48.5973883   2.5296792  19.7886276
  20.0700235  35.5493736  30.4090977  20.3096342  34.8899984  29.7579122
  20.6772375  36.2725306  30.2523375   1.4280796  46.3092041  44.1699791
   1.3031101  46.7199755  45.0254774   0.5523586  46.2883663  43.7840796
  71.0450066  61.1548325  37.8566766  71.2846673  60.6513878  37.0786405
  70.4937852  61.8628671  37.5233984  34.2793465   9.8594666  27.1662498
  34.2526317   9.8636103  26.2094307  33.6385202   9.1955835  27.4208736
  13.5861456  35.9955119   2.5794574  12.7187931  36.3820649   2.6999064
  13.7186729  35.4567508   3.3594628  18.4590876  41.8587461   3.9196034
  19.4029247  41.9230207   3.7737533  18.3316433  40.9812018   4.2800256
  60.3087187  29.8460507  39.9416947  59.7924852  29.4735980  40.6565475
  59.7510719  30.5327606  39.5760632   4.8355722  16.4169919  44.5397043
   4.6198606  16.9324064  43.7625027   4.5066881  16.9385564  45.2718544
  56.5291106  23.4316822  13.6645575  56.5096986  24.3548151  13.4122010
  57.1864664  23.0399593  13.0895205  51.0559689  56.7000898   4.8511716
  50.1460516  56.4563593   4.6812364  51.2796294  57.3011598   4.1405888
  63.7948275  14.9341035  17.0892775  64.6861982  15.2346170  16.9121253
  63.2351398  15.5620754  16.6325140  13.7750578  14.8490655  53.8835335
  13.2991362  15.6400585  53.6304379  13.3375502  14.1435266  53.4070492
  61.6193867   7.6756549   6.9003141  61.9938374   8.5277015   6.6766280
  62.3692322   7.1504134   7.1797603  28.5749208  51.1334154   6.6873046
  29.5003044  51.1194416   6.4429828  28.5791885  51.0983595   7.6438495
  29.0404140  66.4564642   0.4610749  28.9038622  65.6186303   0.9033652
  28.6404955  66.3403090  -0.4007844  10.3021574  22.1139693  26.1746550
   9.5128393  22.6409006  26.0499525  10.6225920  22.3639727  27.0412874
  28.2736610   7.3884035  10.2785560  29.2210459   7.2524286  10.2930232
  27.9675793   6.8631959   9.5391627  11.5860331  59.5014938   1.7909499
  11.5696537  60.2592715   2.3755332  12.4036562  59.5939120   1.3018819
  51.7317963   2.5336835  13.0514860  52.2699451   2.9279029  13.7379408
  51.5774584   3.2450944  12.4299502  32.5418842  54.2538317  46.8736696
  33.2496489  54.8982426  46.8795538  31.7861784  54.7248622  47.2247601
   5.2034854   6.2739540  28.0083104   5.8057760   6.3486457  28.7485143
   4.3370127   6.4166713  28.3892175  68.3803976  42.6573308  55.4308796
  68.4046495  43.5166868  55.8517790  68.6833799  42.0509799  56.1067295
  31.1084438  41.3608002  58.4144358  31.8039967  41.9813144  58.6321292
  30.8465839  41.5970486  57.5245775  28.2091284   7.6855773  21.7891979
  28.4775615   7.5495923  22.6978707  27.9501748   6.8163216  21.4833069
  54.1050339  28.7981677  42.0435238  53.6300945  29.1412354  41.2865734
  54.1957808  27.8621101  41.8652153  66.8982506  36.2844825  43.0558014
  67.7116394  35.8094692  42.8855276  66.3914967  36.1884308  42.2494507
  51.1518145  34.0736127  46.4158869  51.8597698  33.7837410  45.8405542
  51.2334108  35.0271487  46.4343548  49.4304132  13.8652563  14.5345163
  49.3944073  13.8398218  13.5783327  49.1149092  14.7396278  14.7629058
  61.3326645   8.2644409  27.5462914  61.6286087   8.2790679  26.6361070
  61.6105652   7.4094033  27.8747940  50.4964638  37.2630668  44.2266512
  49.6667767  37.6468229  43.9427805  51.0633993  37.3225760  43.4577084
   1.8309545  33.3277440  45.2124166   2.0620680  34.0511656  45.7950640
   2.3519754  32.5896692  45.5286646  66.8656731  20.1655936  46.4981079
  66.8222284  19.5091403  45.8028269  66.6262293  19.6888995  47.2928810
  72.7138472  40.3823996  58.0468273  72.5071907  39.5467162  58.4653425
  72.1702099  41.0217333  58.5071945  61.6508676  51.6774475  54.6804521
  62.4739386  51.4830768  54.2321155  61.3756372  52.5207817  54.3209157
  57.3025274  37.9024935  35.3600168  57.4250841  37.3588324  36.1382484
  56.7102671  38.5984254  35.6448627  29.4243647  55.0331366  44.4832007
  29.7703339  55.8705020  44.1744033  29.2035509  55.1891946  45.4014150
  62.9482412  10.3070247  45.1925850  62.6762342  10.0635314  46.0774326
  62.5762272   9.6263123  44.6318102  66.3752604   1.6481850  35.7782555
  66.3694811   2.0896859  34.9289751  66.8500280   2.2459701  36.3557315
  64.9091911  28.4280729  55.2437449  64.1966009  28.0884266  55.7851171
  64.9702978  27.8116751  54.5139837  10.9264815  70.1981034  33.8640618
  11.1792720  69.5157186  33.2422256  11.0667789  71.0178617  33.3902001
   9.3011808  33.1244802  38.9411330   9.9767923  32.6967716  38.4149694
   8.8068724  32.4024177  39.3290973  20.8981312  49.2275055  10.8622706
  20.5488384  50.0661024  11.1638987  21.5475405  48.9869436  11.5230489
   7.2465445  62.8215170  33.8302020   7.7160431  63.4560775  34.3716220
   7.7332998  62.8031373  33.0062083  46.1730528  24.7806144  23.6367989
  45.6944370  24.6355629  22.8206372  47.0718861  24.9574113  23.3591843
  51.6916895  35.7580876   8.4198946  51.4070225  36.6235113   8.7135541
  52.1971464  35.9290910   7.6252240  54.1138744  48.0411911  39.0948915
  54.0310907  48.8676548  39.5706463  53.7532473  48.2267761  38.2278633
  61.5291882  11.6511381  11.2816012  61.8619633  10.8106792  10.9667635
  61.7641449  11.6694140  12.2093379  63.4814978  47.3898649  14.2320788
  63.0870438  46.7103100  13.6854124  63.1852055  48.2125187  13.8426161
  67.3327398  46.3112211  34.6131349  66.6994619  45.8376551  34.0737629
  67.9602575  46.6705179  33.9859509  28.0387867  56.1556109  32.0541501
  28.6964071  55.8334108  31.4377475  27.2010649  55.9632107  31.6329145
   4.9878084  15.3932508   3.0477496   5.3716862  15.2601060   2.1810647
   5.7165014  15.6985816   3.5881301  49.5539474  40.3031301  46.1913919
  50.4944324  40.2602386  46.0185385  49.4283438  39.7595644  46.9692039
  14.1518604  47.1307799   1.3817235  15.0153696  46.7183324   1.3600036
  14.3038809  47.9834410   1.7892667  57.1747065  44.0633440  27.9321671
  56.4041662  43.7923002  28.4312010  57.4075270  44.9174738  28.2961535
   0.2225590  31.6060925  59.9962378  -0.4507303  32.2620249  59.8155117
   0.2877235  31.5865302  60.9510183  65.5143595  18.1837761   4.1435161
  65.4197407  18.0972922   5.0920933  65.1336718  17.3795938   3.7905329
  17.3715174  19.9292084  11.1371346  16.6712772  19.5099613  10.6370040
  16.9151318  20.4894086  11.7649241  36.8677891  64.5709368  35.2840042
  37.2967232  64.6724071  34.4343257  36.4971960  65.4337104  35.4697752
  16.3650740  67.8028404  39.0230751  15.5520046  67.3141890  38.8951397
  16.1270178  68.5116564  39.6206856  34.3282700  10.0048184  35.2507806
  33.3824539   9.8673767  35.1981020  34.6029758   9.4913012  36.0104322
  43.4925365  14.2649281  31.3303661  43.0924177  14.7848475  32.0273757
  42.9587746  13.4715569  31.2868404  46.7400551  45.1076174  20.8690143
  46.4982319  46.0284901  20.7702947  46.6196966  44.7334862  19.9962163
  52.6961136  20.3759837  31.5514755  51.9086695  20.5167627  31.0257912
  53.0069780  21.2574315  31.7579889  18.7188184   3.7650546  40.5424595
  19.2195308   4.5188725  40.2305651  19.2677474   3.3786219  41.2247944
  45.9085703  14.6210444  13.9873230  45.9157324  13.9677942  13.2877207
  46.7174673  15.1168263  13.8603711  67.2430229  29.6108389  52.6117945
  67.1230459  28.6706543  52.7455664  67.5073528  29.6905541  51.6952801
  56.9370127  21.7226052  52.3251820  57.6587105  22.2822046  52.0384216
  56.4680243  22.2493744  52.9723263  73.0517340  32.8355694  55.6490326
  73.6925220  32.3051953  55.1753998  72.4489784  33.1438637  54.9723721
  15.7103264  50.2583155  19.3672009  15.9453117  50.5812856  20.2370950
  14.7591841  50.1555296  19.3987485  43.0716753  29.7552729  36.7342329
  43.4807730  30.6077337  36.8831706  43.4814262  29.4297218  35.9327626
  61.0417175  30.5389667  23.9233518  60.7672644  31.4559436  23.9159083
  61.8803549  30.5362105  23.4619284  16.5595424  15.8328724   0.3412216
  16.4162910  16.5356600   0.9750994  15.7513666  15.3205061   0.3649668
  11.5217627  71.0047124  57.8187752  11.2640131  70.6898231  56.9523764
  11.5475858  71.9573864  57.7294588  70.5747103  10.9893966  21.0265752
  71.0178636  10.1717830  21.2531968  69.6883177  10.7220197  20.7835885
  63.9512920  35.6405950  36.5837622  64.8467684  35.7966590  36.8837714
  64.0218496  35.6001472  35.6300235  13.0778933  13.7692344  59.4946718
  13.2746553  14.0808678  60.3780746  12.1217108  13.7588966  59.4517708
  16.8647743  50.8471274  49.5210008  17.7581192  51.0364580  49.8079220
  16.9011046  50.9111142  48.5666327  41.4292049  12.1838784  44.8634577
  41.7525530  13.0409956  45.1410007  41.6256905  12.1453679  43.9274359
  48.3834385   4.1732192   7.1850701  48.1777166   4.4895244   8.0647632
  47.7382301   4.5989013   6.6205092  61.2171555  46.7659903  49.9394703
  61.5119171  47.6758623  49.9778891  60.6430674  46.7323112  49.1742802
  64.0766859   3.4848985  44.3699503  63.6681366   4.3416446  44.4936609
  64.5560169   3.5649577  43.5452890  64.9647331  27.9691052  59.6970987
  65.6696939  28.1760263  59.0835476  65.2640247  27.1798539  60.1484680
  53.0738974  25.0166845  24.9672198  52.5553083  25.6607151  24.4850135
  53.1118250  25.3597260  25.8600330  20.3298437  42.2803810  21.2218591
  19.5330965  41.9762209  20.7872220  20.8728277  42.6249280  20.5128499
   2.8300644  52.9032468  56.2826649   3.5978294  52.5714397  55.8171813
   3.0777145  53.7873065  56.5534786  72.1527672  55.5467224  58.4789562
  71.2266016  55.3423309  58.3498240  72.2537470  55.6108189  59.4286537
  55.4987669  29.1328239  12.1175551  55.4006815  29.4819498  13.0034018
  54.6424103  28.7580085  11.9116509  62.5187826  15.0549507  49.2821598
  63.4058857  15.2320409  48.9692450  62.5296450  14.1281116  49.5210838
  59.1107273  39.8606348   3.6845773  59.9311829  39.7788596   4.1707855
  59.3777370  40.1440239   2.8101468  63.2079887  32.8571033  31.4102364
  63.2302332  33.5567045  32.0631480  64.0088701  32.3570538  31.5676260
  74.2439699  10.2755952  50.0025558  73.9042664  11.1334050  49.7476101
  73.8827085  10.1248837  50.8760595  43.9086914   9.9825484  23.9034271
  44.7898912  10.2168643  23.6122012  43.4371853  10.8150113  23.9337444
   1.8298483  42.5878382  41.1027241   1.6017723  41.6583633  41.0856819
   1.4080143  42.9234982  41.8936825  50.7730376  29.5491030  10.1180716
  50.4431807  29.7661575   9.2461081  50.3417313  30.1749131  10.6999370
  11.5654516  27.9851604  33.8037610  11.4999723  27.9349327  34.7573972
  12.4206400  27.6054096  33.6020756  39.0403437   7.9523015   7.8592034
  39.9266790   8.3063627   7.7865287  38.4844231   8.6109901   7.4428912
  16.7296923  29.0474947  38.5097551  17.4355066  28.8300093  39.1186571
  17.1718109  29.1963776  37.6739359  33.8540577   2.8533054  29.1574784
  34.1004299   3.7658668  29.3083592  33.6705135   2.5072313  30.0308534
  60.0101792  51.0492619   1.5860339  60.7042396  50.7756146   2.1857234
  60.4334104  51.6770359   1.0003634  58.8688421  32.6034045  48.3775949
  57.9540348  32.4230456  48.1611824  59.2020941  33.0893540  47.6232576
  17.0671236  60.4617700  10.9343692  17.1560490  60.1837191  10.0227710
  17.9353773  60.3233131  11.3127871  29.8522282  33.8596964  55.0860929
  29.6466208  33.0176067  54.6800900  29.1240263  34.0204144  55.6861973
  51.9553137  32.9010391   8.1816429  52.5321436  32.3213243   8.6790693
  52.2371578  33.7835479   8.4224170  22.3018957  55.1796615  60.4286563
  21.6356445  55.2369606  61.1135328  23.1096054  54.9692952  60.8972538
  26.1566030  41.0930708   9.0488645  26.0362064  41.9935402   8.7473842
  25.3782236  40.6304702   8.7384530   5.0096846  16.0973859  34.6720386
   5.2497625  16.3400638  35.5662990   5.2892065  16.8414676  34.1387057
  60.4037380  30.2093315  47.2858620  60.8018780  29.3613815  47.4825859
  61.0895729  30.8473897  47.4827099  18.7812924  16.8413746   3.3155215
  18.8279247  15.8999193   3.1490299  19.1119576  17.2433329   2.5122023
  55.4775000  12.1266079  24.6549463  56.1330128  12.4697113  25.2622437
  55.1732683  11.3162696  25.0636363  23.2418251  10.6624317  44.0982819
  24.0967250  10.3616393  43.7902164  23.3597112  10.7965291  45.0386810
  24.0352821  21.4605618  35.0802732  23.2529140  21.5078974  34.5308256
  24.7258234  21.8560600  34.5483279  13.9882767  35.5550890  54.5016595
  13.8441812  36.4909622  54.3616219  13.4198772  35.3329499  55.2390977
  51.3286209  26.1419058  28.6086655  52.0453501  26.7715788  28.5309124
  51.6821098  25.3304529  28.2442188  54.0378857  28.6558366   9.5787096
  53.3195019  29.0560985  10.0685489  53.9024210  27.7138853   9.6816993
   4.2922258  22.5590873  39.6972179   3.4119081  22.6426840  40.0636578
   4.1604328  22.1262789  38.8536906  58.0049801  50.2322197  29.8160338
  57.4049807  49.4889212  29.7548747  57.8296614  50.6113052  30.6773067
  14.5466471  39.3429494  28.0412817  13.6451864  39.0249372  27.9915071
  14.4894457  40.2651405  27.7912426  64.2298365  46.8125439  32.5138140
  64.3269205  47.0575237  33.4340262  64.4862032  45.8908272  32.4830055
  61.2180554   3.0567638  17.2329032  60.2739465   3.0423872  17.3900044
  61.3472831   2.4601881  16.4955926  67.9902220  36.3381600   9.3543392
  68.9150763  36.1018300   9.2834705  67.5254726  35.6165481   8.9306450
   4.0854656  34.6144729  18.5553380   4.3091309  34.0661676  17.8032990
   4.8538649  34.5660071  19.1240617  56.6872597  62.5060940  15.2987158
  56.7924690  62.8240013  16.1954308  57.5816345  62.4192142  14.9689102
  68.9409304  10.9822953  53.9401484  68.2810974  10.7903278  53.2738161
  69.4631386  10.1821530  53.9976120  51.5760469  60.6577110  40.4540014
  52.2291899  59.9607563  40.5163431  52.0897102  61.4588118  40.3509712
  24.9832392  30.0040889  49.8238277  25.5723429  29.8325324  50.5585098
  25.2617788  30.8557916  49.4873047   4.9129057   0.3679064  21.8134093
   4.2370272  -0.3091932  21.7826128   4.9207258   0.6572004  22.7258134
  69.9760103  53.1658983  55.3021288  70.8441544  52.8211594  55.0930500
  70.1482201  53.9361191  55.8437347  54.8582554  18.0282736  25.9426022
  54.6013784  17.1911740  26.3292646  54.2039585  18.1888580  25.2626491
  74.0371275  53.5186815  48.8598537  73.9859152  52.5634193  48.8270426
  73.2861519  53.7806463  49.3924332  73.3982229  29.8783970  22.4577904
  74.2764425  30.2308702  22.3138213  73.0993414  30.3014398  23.2627344
  53.9416218  52.1425724   5.7229930  54.8846865  52.2733784   5.6242561
  53.5681534  53.0200148   5.6402636  27.0007157  34.3354630  49.6534252
  27.3736596  34.3126035  50.5346870  27.7014422  34.6896553  49.1059160
  38.4947228  13.3465958  38.4455037  39.0691447  13.8335526  37.8546190
  38.0272007  14.0225911  38.9361000  11.3187372  43.4447303   0.8737727
  11.9238674  43.6636558   1.5823813  11.8853819  43.2145640   0.1374503
   4.4100428  18.5319805  25.0314307   5.0718546  19.1541696  25.3332901
   4.8854685  17.9411817  24.4473433   1.3100422  58.1839510  42.9770899
   1.7085636  58.2741471  43.8426924   1.6871250  58.8987430  42.4641418
  24.3397867   5.5595342  48.7166262  24.4686806   4.6256820  48.8825655
  23.4615862   5.7431022  49.0502357  30.9474349   4.8529994  33.4630752
  31.3191986   5.4000580  34.1549945  30.0691938   5.2072030  33.3235598
  32.4641334  49.7664412  19.6358033  31.9470417  49.9613842  18.8542386
  33.3457863  50.0717362  19.4219800  29.5742106  24.6142554  27.5466871
  30.3847408  24.1099072  27.6167178  29.5665503  25.1651955  28.3293986
  44.7569180   4.9375036  57.9912281  45.2030373   5.7729518  57.8525400
  44.4366884   4.9836329  58.8920927  60.9161329  29.5323348  57.8959703
  60.7972336  30.2981925  58.4577131  60.5197954  28.8119602  58.3860826
  48.5149002  23.4132433  32.1293807  49.4122601  23.6879730  32.3178101
  48.5417604  22.4576592  32.1780252  47.8211224  59.8152431   8.1285687
  47.3176491  60.0471839   7.3482200  48.2934296  59.0202316   7.8813382
  70.2581549  24.0569258  33.0981755  69.9334812  23.8715029  33.9793324
  69.5845032  23.7057090  32.5158715  28.5825193  69.4735656  12.5090289
  27.7089918  69.4958372  12.1182752  28.7619365  70.3833155  12.7465081
  59.5930933  19.6128869   7.0310136  59.2154955  19.4221092   6.1723824
  59.6267485  20.5686641   7.0708581   4.3648195  39.5399737  33.7511086
   3.7181663  39.9557304  34.3213820   4.0591860  38.6374116  33.6605310
  26.0053468  50.4428768  10.7605410  25.8481550  50.0248766  11.6071784
  25.7175183  51.3475323  10.8829594  71.8632376  51.8789669  16.4776011
  71.0121881  51.6617927  16.0971042  72.4093925  52.1105346  15.7263871
  20.5176663  25.2669120  29.5606232  20.4518533  24.9722600  28.6522841
  21.1071491  26.0202646  29.5259333   1.5464556  66.0787543   8.8656588
   0.7155859  65.7483157   8.5240479   1.3455450  66.9640931   9.1690465
  62.3168755  25.6207776  38.7085223  61.3640261  25.6353307  38.7984824
  62.4676561  25.3653073  37.7984500  67.8014135   8.5033095  32.7067804
  67.0470905   8.4732145  33.2952714  67.8082323   7.6455116  32.2820830
   9.5952177  31.8782210  33.5761833   9.3996859  32.5983930  34.1756392
  10.5216169  31.9893169  33.3624506  75.4666662  26.6272783  55.9134150
  74.9507856  26.3237453  56.6603851  75.8093023  27.4776149  56.1886644
  34.6579099  25.0675511  20.3465581  34.1622210  25.8790135  20.2367830
  34.0440226  24.4672656  20.7696795  66.6851782   9.6908880  16.1226054
  67.5962232   9.9057985  16.3227292  66.1892485  10.0344396  16.8657418
  29.9925983  68.2477986  14.6934009  29.0855206  68.3858155  14.9661505
  29.9872673  68.4143587  13.7508190  29.1995120  15.9210169  28.1688309
  29.2103934  16.7224002  28.6921811  28.6449552  15.3186536  28.6646700
  60.2071428  11.5253031  56.8436813  60.6088066  10.8070087  56.3548565
  60.8930206  11.8204296  57.4426031  46.4568472  43.0550861  56.3350296
  46.8989754  43.0716991  55.4862213  45.5439281  43.2606316  56.1336327
  29.0761328  37.9560113  55.7051516  29.3673182  38.3465743  56.5291119
  29.4632387  38.5101700  55.0274420   8.9471376   3.9442059  20.3505969
   8.1651223   3.7379977  19.8385811   8.6109406   4.3611500  21.1439204
  18.9826059  21.8391585  45.3849459  19.6637773  21.3827276  44.8910809
  18.3992624  22.1957469  44.7150278  33.1152033  27.2306276   2.0511313
  32.1685766  27.1009517   2.1087237  33.2621025  27.5273204   1.1530085
  18.3295811  68.1850710   1.4202844  18.3053196  68.6298247   0.5730316
  17.6346386  67.5290319   1.3663986   7.4722589  55.2723452  43.2722139
   7.3726452  54.4663521  42.7655745   6.5849484  55.4842707  43.5620403
  56.8735409  56.7529631  51.0736942  56.7763901  57.1248722  50.1970673
  56.0081530  56.4007092  51.2816811  59.8638916  31.3702059  11.5690649
  60.4384232  30.6534338  11.8381059  59.0626717  31.2380552  12.0758390
  59.1808866   4.8899675  27.2713967  58.2594751   4.7107578  27.4588033
  59.6586393   4.4447446  27.9712315  37.2991585  20.8890653   7.2912236
  36.3774227  21.0939813   7.1342488  37.3522829  20.7313133   8.2338401
  10.9955168  51.7286539  41.6481686  10.1879263  51.2646532  41.8689108
  11.6617632  51.3292122  42.2074461   8.1249857  37.6258206  59.6021986
   7.7948046  37.6060843  60.5004311   7.3498011  37.7914596  59.0656519
  68.3076048  28.8254786  20.6649637  69.0909958  28.3055925  20.4853845
  68.5802650  29.7301722  20.5119300   8.7444639  60.3036976  48.1196308
   9.0278578  59.3894291  48.1252909   8.2721567  60.4131699  48.9449644
   0.2981520  59.4191885  32.2516894   0.8858633  58.8894939  32.7904415
  -0.3667164  59.7361088  32.8630328  10.6879663  54.1606045  20.4362440
  11.6438341  54.2107296  20.4416299  10.4955149  53.2384682  20.6061387
  16.0829115  69.9381304  17.7086961  15.9312963  69.5285797  18.5604644
  17.0354986  70.0017834  17.6397026  69.6208572  31.6374135  55.4901457
  68.7899494  31.2379408  55.2327633  69.3759251  32.3142314  56.1211395
  68.0425167  53.1807947  29.0148449  67.3818684  52.7239323  28.4942245
  68.7637615  53.3349419  28.4046984  24.7596180  55.3465530  13.2783910
  24.0612614  54.6925362  13.2503625  25.5626356  54.8457869  13.1347581
  60.6782484  35.7377148  49.4282007  60.3149796  36.3796544  48.8181353
  59.9808407  35.0915766  49.5393801  68.8433456  53.2312155  31.4841890
  68.3653450  53.0853081  30.6678200  69.6643829  53.6405659  31.2111211
  45.2575897  21.8839956   2.4612685  45.9439205  22.4081159   2.8741523
  45.6238150  21.0006595   2.4185391  13.3959341  62.1787596  39.7904348
  13.8652372  62.9495668  40.1095581  13.3953524  62.2759295  38.8381791
   6.4997911  52.3745298  35.4760170   5.9275579  52.0049572  34.8035645
   7.3856688  52.2197914  35.1481390   7.7989244  67.4940395  18.6050296
   8.0841589  66.5804482  18.6197376   7.5614595  67.6561451  17.6920331
  59.9780058   5.1618648   9.9446889  59.7170996   6.0291505   9.6349021
  59.9046396   5.2158046  10.8975478  60.0034725  60.5143413   9.2835446
  59.7713959  61.4398083   9.3602153  60.2290737  60.2493175  10.1752301
  16.0173178  17.1688294  36.9810104  16.7255640  17.5253761  36.4448309
  15.8223486  17.8618121  37.6118803  69.0878201  28.9378428  49.9512768
  69.8359823  29.3288112  50.4025316  69.2907047  29.0368462  49.0210819
   1.0575783   7.0510618  16.8769050   0.7502901   7.8008739  17.3864007
   1.8416988   6.7532674  17.3381066  32.2340023   2.4283020  42.2539186
  33.1864178   2.3523895  42.3119783  31.9167339   1.5287391  42.3336601
  58.7652969  53.4213305  44.6803904  58.4927511  54.2011261  44.1967964
  57.9455233  53.0170345  44.9645519  57.0564782   8.7037508  34.7592473
  56.3079178   8.1143896  34.8516512  56.6740143   9.5810739  34.7755218
  49.9115347  11.1668039   0.1150294  50.4697346  11.9111228   0.3400536
  49.4647669  10.9467149   0.9324571  60.0766134  37.7570128  34.2300081
  59.1425705  37.8058410  34.4334984  60.4201412  37.1018171  34.8374104
   6.7553759  26.7459893  27.2810173   7.3151350  27.3016238  26.7386389
   7.3312139  26.4352155  27.9796314  24.7066164  36.7819023  54.1425180
  24.6619177  37.6501894  54.5429134  25.3060675  36.8892598  53.4040356
  61.2944603   2.3811485  13.3369434  61.0000277   1.9469598  12.5363064
  60.4899263   2.5515002  13.8267756  72.1580553  61.0331631  55.9208393
  71.5097618  61.5803671  55.4775381  72.9296637  61.0704565  55.3556252
  18.9056826  63.8023663  51.8016577  19.8070097  63.6604023  51.5123844
  18.9354563  63.6743784  52.7497959  57.2820902  39.4098783  56.2481642
  58.1038094  38.9648914  56.0407925  57.2378302  39.3977952  57.2042608
  10.0181055  36.2713528  21.5535116  10.1838160  35.4531360  22.0217943
  10.6778288  36.8777657  21.8900418  43.2557224  41.9657493  11.9896241
  43.4327101  42.4526430  12.7945109  42.5363802  41.3773513  12.2188970
  41.1351788   7.8131381  27.8524995  41.0993301   7.9866210  28.7931633
  40.8793938   6.8945829  27.7684331   2.6803446  34.0845799  33.5259223
   2.7731037  34.6787190  34.2706513   3.5793543  33.8937926  33.2583117
  24.8458063  52.9262027  11.0532685  25.5056059  53.2503339  11.6663285
  24.4976484  53.7147542  10.6370946   6.5549480   2.6341430  42.0496321
   6.2251102   2.2701446  41.2280846   6.3696205   3.5711996  41.9879246
  11.6754580  49.9982023   7.4716485  12.3895121  49.4226933   7.7457917
  10.8977175  49.4405270   7.4903923  42.3427605   1.2288595   6.0511847
  42.0788931   0.5707503   5.4081460  41.5863155   1.8110729   6.1222573
  32.5762129   8.1798506  32.7347016  32.2276211   8.6421925  33.4969068
  33.4178782   7.8322667  33.0296874  37.5982809  45.8259821  55.5131435
  37.4556398  46.3174677  56.3220501  38.5366201  45.9103012  55.3439522
   1.1788750  35.1379251  11.7586780   1.6595697  34.3223214  11.8999481
   1.6043997  35.7701325  12.3378801  73.1185961  34.5700717  52.8649950
  73.9748096  34.7507143  53.2529354  72.6805019  35.4208922  52.8447485
  21.8360472  31.2155128  37.2454000  22.0159769  31.2795067  36.3074422
  21.7198706  30.2786541  37.4036193  48.9489985  34.8000503   1.2773208
  48.8020325  35.4395580   0.5804266  48.6642694  33.9668989   0.9017937
  72.0402050  38.9155626   6.8583202  71.7538071  38.1728578   6.3267219
  71.3581610  39.5756984   6.7347556  16.9503282  24.9131322   9.1138335
  17.0553659  25.6115413   8.4677525  16.9606565  24.1065765   8.5984822
  44.0462828  59.4510889  17.1714354  44.1811848  58.6548615  16.6575682
  43.9342451  60.1416636  16.5181446  70.8993446   4.1902677  41.1049128
  71.6695177   3.6235610  41.1485767  71.0375893   4.8360816  41.7977667
  53.6430740   6.3974124  29.9598956  53.6880350   5.6646127  30.5740738
  54.1580725   7.0894933  30.3746605  75.4627037  36.0829854  33.9664364
  75.5423498  36.0089231  33.0154347  75.4561424  35.1777482  34.2774582
  72.9910469  20.1383424  49.5146370  72.1467400  20.5861187  49.4610548
  73.6347532  20.8453894  49.5588875  74.5614624   7.0883238  40.3904390
  74.2937994   6.3737619  39.8125196  73.9210701   7.0737857  41.1017132
   1.5009117  68.8345051  37.5551319   2.1017885  68.3972359  36.9518280
   0.8939457  68.1468868  37.8289986  57.3340559  46.8469191  28.3389068
  57.2800350  47.3594713  27.5323057  56.6483212  47.2097158  28.8996029
  61.1734247  47.4747562  24.1568017  60.3443527  47.8034163  24.5044398
  60.9611940  46.6079283  23.8106894  40.0955963  49.7997379  16.1933541
  40.8739519  49.7213936  16.7449498  40.3577995  50.3966427  15.4925072
  42.4077702  58.7544441  27.5115037  42.8925323  57.9586363  27.2925758
  42.9033756  59.1466665  28.2303691  57.5528490   2.0141117  47.4779129
  57.5224483   2.9362384  47.2229815  58.4533560   1.8764249  47.7717876
  54.7852659  69.9880171   9.1266900  54.4777489  69.1407061   8.8046211
  55.6401920  69.8009348   9.5144230  28.1879377   9.3711752  44.2531061
  29.0379381   9.7978920  44.1452265  27.7388811   9.8959517  44.9158239
  15.0115538  24.8339844  42.8414869  14.3065214  24.7031498  42.2074223
  15.8037233  24.5613956  42.3784637  54.5627808  26.6192031  16.0314532
  54.0692924  27.4245620  16.1866828  53.9791941  26.0797811  15.4978963
  71.4968967  44.4109058  44.7779560  71.8016434  45.2912664  44.5581245
  70.5568695  44.5130491  44.9267769   5.0908005  12.0940725  38.9561105
   4.5775616  12.4768297  38.2445526   4.5166170  11.4280263  39.3341756
  26.7827261  64.3173661  40.5357933  27.4244774  63.8189258  41.0416985
  26.0695160  64.4844361  41.1519480   9.8219919   9.5383584  51.2383795
   9.7178793   8.9460599  50.4936838   9.3886232  10.3465402  50.9640360
  55.7079697  31.1648870  32.0646930  55.8595276  30.2429056  32.2725701
  56.2679672  31.6434216  32.6759553  56.6990042  22.7003694  61.3633299
  56.9364071  23.1713557  62.1621037  57.2481489  23.0903149  60.6831741
  49.0816950  30.3225112  16.4374896  48.7215780  30.4131151  15.5552550
  49.6913313  31.0554052  16.5237733  48.2382690  71.1783942   9.2992469
  48.9337646  71.6670426   8.8590785  47.5850117  71.0242709   8.6168071
  72.9859447  64.1228580  41.8745899  72.9994345  63.5972929  41.0747004
  72.4651766  63.6078072  42.4908352  16.9500517  10.9948230   1.7626401
  16.9152521  11.9481397   1.8414374  17.8846287  10.7916809   1.7235490
  47.1756411  47.2166634  48.7906456  46.6879272  47.3526096  49.6029758
  47.9358959  47.7930260  48.8684082  40.2077579  38.3607507  56.8298721
  40.4108858  37.5439811  57.2857857  40.9866476  38.5414076  56.3036346
  59.5005560  41.1108160  50.0578690  59.1316891  41.9023085  50.4499245
  60.2803564  41.4146852  49.5933247  37.4835730  51.2814379  26.8080568
  36.9610500  51.8022680  26.1981893  38.3585978  51.2651634  26.4203763
  53.6036158  55.8088541  37.4781346  53.1282854  55.3459263  36.7882156
  53.8582706  56.6399574  37.0773196   8.3288395  53.3908245  40.4008599
   7.6448166  53.6759874  39.7950288   9.1458713  53.6727032  39.9894734
  73.5842943  47.1525145  35.2296972  73.7894106  46.2419367  35.4418421
  72.8267813  47.0979166  34.6470952  14.8203135  41.1788273  43.9400959
  14.3650961  41.9856501  43.6991692  14.8085451  40.6498480  43.1424284
   6.9933462  51.6188478  17.4239147   6.0848379  51.7190027  17.7081788
   7.4019384  52.4603605  17.6267719   5.6888819  36.7617178  31.8745208
   6.6025686  36.8524528  32.1450329   5.7110834  36.8516994  30.9218192
  55.1590895  20.5717874   1.5146562  54.5553564  20.2933574   0.8260270
  56.0292791  20.4134488   1.1486884  43.7918568  28.6888981  38.9784765
  43.5143328  29.0351462  38.1303477  43.0030298  28.7203765  39.5197630
  20.5668329  11.6217161   4.3376800  20.0058483  10.8588100   4.4773503
  20.9231399  11.8188167   5.2039500  46.2868702   4.3704263  54.8030186
  45.7746708   3.5771409  54.9597979  46.3423454   4.4351856  53.8496208
  63.1277311  63.1883594  57.6873112  62.2322596  63.1337418  57.3535872
  63.1298578  62.6245674  58.4608507  65.0333261   9.7078693  29.8117352
  65.5200911  10.3491783  29.2940331  64.8619938   8.9891630  29.2031813
   6.8330013  23.4802469   9.9837323   5.9460604  23.3755514  10.3281279
   6.9559538  22.7272126   9.4057580  56.7031813  70.0261784  30.8538795
  57.4889708  70.2547932  31.3503695  56.8480635  69.1205740  30.5798006
  68.1456470  47.6989222  32.1660924  67.3325014  47.3957443  31.7622209
  67.8614712  48.3001375  32.8545833   9.1609252  62.5546398  22.1135664
   9.2361033  62.0745256  22.9382300   8.3167661  63.0019673  22.1729469
   6.5664875  40.5465275   0.6451913   6.7402183  41.0456529  -0.1528815
   6.2488615  41.1978086   1.2706347  16.6550589  40.5804300  11.5947723
  16.8758631  41.5113544  11.5654659  17.4539137  40.1544619  11.9055867
   0.6597853   9.9482620  52.0275450   0.0231409   9.9384975  51.3128281
   1.0915470   9.0955657  51.9753647  22.8919935  31.4344430  60.8529520
  22.1866846  31.3272595  61.4911461  23.5971594  31.8562818  61.3438845
  75.3929090  42.1486902  31.8125510  76.1933851  41.6823196  31.5717840
  75.0189686  41.6305208  32.5252223  16.0448408  40.0073242  33.8554406
  15.2479982  39.9816155  33.3257198  16.7214823  40.3205204  33.2551861
  25.8199644  68.9261341  47.4875927  25.0093889  69.2880249  47.1295071
  25.6630754  68.8741207  48.4304142  72.7969456  40.1696110  22.2204351
  72.6680231  40.2788591  21.2782693  73.2445192  40.9698343  22.4953127
  52.3888468   3.3036089  -0.0057153  51.7709183   3.7068940   0.6040021
  52.9911159   2.8127265   0.5533334  21.0710096  23.8436413  48.3695126
  20.1984835  24.1887188  48.5588503  21.4191198  24.4286776  47.6966238
  13.5282183  19.1201603  43.2820415  12.9769278  18.3490109  43.1492376
  12.9119635  19.8218524  43.4920216   7.5928068  69.7073746  47.7081680
   7.4251032  68.9500237  47.1473455   8.5441065  69.7215891  47.8133011
  73.1577372  24.7192645   1.7496987  72.4643396  24.0663696   1.8453618
  73.9384531  24.2095352   1.5331765  15.4915678  44.7732177   8.0689641
  14.9497806  43.9852687   8.1117555  15.7809555  44.8156985   7.1575471
  34.1647387  54.5601463  43.7234879  33.8365650  53.6815834  43.9149618
  33.4971929  55.1476431  44.0776968  18.7910425  50.4115173  22.9518529
  19.1089069  51.2657019  23.2443639  18.8431370  49.8571166  23.7304135
  55.7149744  42.7626371  56.1408520  55.4667759  43.5801983  55.7093191
  56.4671230  42.4463844  55.6403637  45.7853769  13.0538440   5.6231185
  46.4024424  13.6212802   6.0851594  45.4801058  13.5822559   4.8856755
   4.2031050   4.2045802  39.4671750   5.1262808   4.0467650  39.2695236
   3.7536001   3.4194973  39.1544127  37.8439546  64.7169781  21.1450028
  37.9938078  63.7837505  21.2962127  37.7638102  65.0918865  22.0220733
   0.5505430   7.3677532  52.9521847  -0.1571024   6.9742576  52.4416542
   0.1275122   7.6668493  53.7570620  55.0633860  53.2470655  36.0093331
  55.3137493  52.3620367  35.7442355  54.3935823  53.1156254  36.6803885
  62.0474005  46.5760136  20.0723600  62.0777035  47.0943975  19.2682505
  62.6922989  45.8822298  19.9345148  63.0579090  11.9349957  55.8450365
  62.7818060  11.4106083  56.5967131  62.5012159  12.7129543  55.8782768
  -0.2366352  48.3155298  53.0105448   0.6281137  48.6489630  53.2498312
  -0.0870132  47.8159189  52.2079039  50.0009012  41.7291784  31.0903835
  49.1284847  42.0906734  31.2467241  50.0936365  41.0360813  31.7440200
   9.8206890   2.4669210  55.1845560  10.6912792   2.2251526  54.8685662
   9.2180527   1.9812552  54.6213559  19.6856546  23.4856510  35.1857972
  20.4661322  23.9832258  34.9418664  18.9538527  24.0361977  34.9072194
   0.0905228  18.3716953  60.6558609   0.9890413  18.2228339  60.9503746
  -0.1252270  17.5933325  60.1422119  75.6360340  67.2298813  22.2957253
  74.9614906  67.8990507  22.4116135  76.3410139  67.4956703  22.8861475
  28.7340188   8.6328024  35.3060818  28.8101315   9.2685604  34.5945692
  27.9670238   8.1078631  35.0771999  36.8995929  67.9370213  28.6417580
  36.1669707  67.3958397  28.9360642  36.5736961  68.8349724  28.7026930
  19.3935823  48.2038736  56.1071634  18.6022806  47.7435637  56.3867998
  20.1063967  47.5960541  56.3038492  12.4736929  57.7180767  51.8930197
  12.7254534  57.1280146  51.1826134  12.2071409  58.5244513  51.4515018
  68.9737654  22.4578476  38.6689305  68.9317226  21.7582607  39.3208814
  69.1146469  23.2542348  39.1809392   3.8009930  44.2498684  40.0649261
   2.9650021  43.8676739  40.3319073   4.4404840  43.8731718  40.6693935
  40.3825796  69.5511294  54.2160177  40.9050453  70.0946104  53.6261940
  40.5244816  69.9329457  55.0822210  56.3122082  24.4417119  28.5253286
  56.9110394  23.8643265  28.9988923  56.0405636  23.9313507  27.7624583
  66.0345148  30.8299661   3.6602517  66.1000322  29.8909068   3.4867402
  66.4522432  31.2429023   2.9044600  51.1143923  35.3538918  49.2025852
  51.2285948  35.7991695  48.3629894  50.4704618  35.8858275  49.6701670
  69.9853945  71.0346985  24.0021706  70.9086847  71.2836313  24.0445065
  69.6797991  71.3891745  23.1671906  57.8894615  45.5163097  49.6782112
  57.4121475  46.0790014  50.2879524  58.1296444  46.0959435  48.9553261
   1.9056749  53.0786180  37.7058649   2.6537085  53.2641315  38.2735419
   1.1775494  52.9315042  38.3095407  10.6631874  20.6879449   0.7582494
  11.1298012  21.4566970   0.4303428  10.0511478  21.0374713   1.4059134
  59.2917061  28.3782315  42.4161053  58.3763552  28.1018424  42.3717642
  59.6584463  27.8763437  43.1440115  58.3778833  12.8634572  20.0571843
  59.0554594  12.2629571  19.7465058  58.1239008  13.3608508  19.2797967
  47.1121168  19.1868985  21.5156817  46.9767141  18.4765935  22.1428704
  48.0501270  19.1637254  21.3264060  73.9699221  42.9678154  52.4342346
  73.1259251  43.2555437  52.0862198  74.4100714  43.7769747  52.6945496
  44.9118710  43.8699436  37.6568985  45.5907393  44.5401525  37.5782061
  45.3765345  43.0425072  37.5317121  38.3090520  55.6484652  41.7408657
  38.7186408  56.0520649  42.5060940  39.0194726  55.1702929  41.3132143
  57.7512550  42.0525265  30.4183173  56.9877052  42.0990515  29.8429418
  57.7238894  41.1673307  30.7815123  42.4273146  60.2961131  10.9283996
  41.7470968  60.0604876  11.5592813  42.5344122  61.2414714  11.0335541
  68.7439728  47.2760153  43.7793922  68.5332632  48.1524038  43.4572458
  67.9735374  46.7501926  43.5645103  53.5895967  11.8457735  40.6780481
  53.4891558  12.1998525  41.5616608  54.5354462  11.7549062  40.5625200
  71.7116022  17.4720240  52.9707384  71.0246658  16.8066239  52.9308558
  72.3759413  17.0961118  53.5483027   6.4076090  25.7253432  50.5480957
   6.3905573  24.7683668  50.5363989   5.9349012  25.9635878  51.3456011
  73.1629896  30.1826262  16.6545784  74.0864277  30.4260850  16.7195618
  72.8607178  30.1452518  17.5620294  63.1509947  10.4186941   1.6309281
  63.3789514  11.2334705   2.0785924  63.7459921   9.7670532   2.0018311
  50.8610487  64.8532248  39.7047853  51.3170958  64.1390133  40.1499367
  50.3781700  64.4252205  38.9977694  60.5063534  38.9060521  40.0722599
  61.3257408  39.0474844  39.5980954  60.0142288  39.7175002  39.9473786
  58.4597778  49.7095013   5.3235960  59.0135098  49.1840792   5.9011286
  58.5923004  49.3304348   4.4547024  44.5796394  35.2166843   8.2249737
  43.9454412  34.5371461   7.9963845  44.5784140  35.8083272   7.4725175
  69.5037079  38.8869166  52.2444773  70.1021910  38.7534332  52.9794788
  68.6881113  39.1810560  52.6500845  21.6169655  66.9046911  16.5860482
  21.0076963  66.4447459  17.1635219  21.4395058  67.8324827  16.7407771
  55.9373331  43.8357925  32.1131635  55.3179836  43.1403112  32.3344016
  56.4652967  43.4695721  31.4036798   3.8101196  47.1604729  10.3743482
   3.7996912  48.0991840  10.1874137   4.6161890  46.8439817   9.9665260
  74.2913914  30.9340262  35.4217720  73.7507582  31.5871406  35.8660579
  74.3972969  30.2331090  36.0649896  17.2248316  23.8246632  41.3303661
  17.4206495  24.6592212  40.9044552  18.0117559  23.2966018  41.1957359
  39.0742420  22.4463439   4.9801608  40.0111412  22.6388002   5.0177022
  38.9116548  21.8970085   5.7469912  38.6476731  52.9887438  35.1870131
  38.5984492  53.8995647  35.4772210  39.4538808  52.9444075  34.6729183
  61.2530279  22.5386381  23.8677335  60.7366467  21.7340899  23.8198996
  60.6848907  23.2106280  23.4910583  68.1184244  34.2732692  61.4704084
  67.2546005  34.4601870  61.1028481  68.3239794  35.0422215  62.0021009
  62.4098873  16.0726142  57.6719522  61.8401480  16.5063524  57.0367336
  61.9476414  16.1580217  58.5057831  24.1321039  14.1155672   5.4742348
  23.3826399  14.7025251   5.3740919  24.7410631  14.5979393   6.0334402
  64.5019960  36.3646722  14.2928541  64.3129063  35.4538393  14.0673327
  64.3345737  36.8510103  13.4855878  55.9918070  30.1964831  35.4397321
  56.7599106  29.6451807  35.2903438  56.1563349  30.9826541  34.9190617
  49.6503878  32.3752594  33.0866098  49.0815353  32.6604247  33.8016748
  50.1026201  33.1716180  32.8081679  14.6605884  56.4260754   3.8856717
  13.8066732  56.8538364   3.9495107  14.8433601  56.3951191   2.9465934
  74.1073608  34.4793272  47.9305696  74.6867132  34.6237612  47.1824217
  73.8255072  35.3570604  48.1882000  61.5693474  60.1111650  43.7341499
  60.7954264  59.5495129  43.6914301  61.2316990  60.9637403  44.0086174
  25.1196373  58.2134732  30.5567741  24.9384964  57.4193736  31.0595918
  24.4196451  58.2490762  29.9048758  29.8581766  25.6479907  30.1470395
  28.9975380  25.8723712  30.5008527  30.4780125  26.0957456  30.7228394
  59.1606283  70.9349871  31.9544721  58.9633179  71.7631674  32.3919892
  60.0168467  71.0756540  31.5503263  17.7660322  12.4354291  29.0447068
  18.3637667  12.9998446  28.5544157  18.0400419  11.5457058  28.8221288
  17.8463184  42.9814568  13.3096238  18.6236202  42.6435145  12.8648444
  17.9684078  43.9308092  13.3171197  67.0741915  55.4687906   3.0467339
  67.6291822  55.9232355   3.6805268  67.2325586  54.5394826   3.2126733
  64.4457817  65.2927017  51.4394617  64.4652605  66.2115335  51.7070341
  64.8627663  64.8238420  52.1623230  65.7960320  58.7027454  33.0229044
  66.5842962  58.1646252  33.0956721  65.2207041  58.2072067  32.4400902
  40.8329224  51.5149331  14.0514632  40.3479933  52.3086572  13.8254710
  40.6317543  50.9018731  13.3444091  31.1212206  52.3456669  31.8222404
  30.1709604  52.3090601  31.7132187  31.4566565  51.6759682  31.2262344
  17.7048885  25.8489744  39.5428038  17.0946705  26.3305036  38.9842367
  18.3060419  25.4245798  38.9306450  14.9836504   0.8409826   8.5932976
  15.6472122   0.3438274   9.0715820  15.3060066   0.8656208   7.6923466
  13.4534407  68.2924795  55.6939077  13.3892679  67.3630905  55.4740191
  13.1059408  68.3526182  56.5837717  45.3339159   0.4010955  26.9667530
  44.8930585  -0.4483613  26.9494605  44.6461367   1.0231058  27.2040200
  23.6506105  68.4356379  60.3243544  23.7273003  69.0374207  61.0647638
  23.1024481  67.7222871  60.6512851  73.0710888  64.4640446   9.6121120
  72.8636742  65.3938627   9.7050917  73.1636190  64.3324757   8.6685228
  26.2832844   1.2670509  43.2666159  25.7133972   1.7834274  42.6966858
  26.0042154   0.3619997  43.1279230  19.6201467   2.9748315  29.3919611
  19.6609735   3.4972090  28.5909081  19.1776895   3.5406989  30.0246167
  70.7488262   2.4777786  60.7978916  70.5745184   2.0591012  61.6408348
  69.8813211   2.6719038  60.4429483  53.8178562  26.3233161   2.8806325
  53.0699228  26.2240196   3.4696790  53.5786461  27.0543743   2.3109265
  69.3173504  56.8472290  52.0191717  68.6387062  57.0094633  51.3639212
  68.8404846  56.7805672  52.8464460  64.4994068  52.1557236  28.9668751
  63.9693356  51.7807722  29.6702027  63.8680983  52.6040697  28.4041405
   1.4626026  23.1513453  22.0886040   1.7274857  23.9851189  21.7001605
   1.6926622  23.2344270  23.0140209   2.5648975  55.8589172  61.1918831
   2.5225115  55.8413410  60.2357817   2.3067331  56.7502213  61.4267302
   6.0593176  57.7364111  56.8416834   5.8398008  58.2120991  57.6427841
   6.9389963  58.0393505  56.6166639  26.2446833  46.5583515  55.7124805
  27.1423006  46.7212915  55.4227114  26.3293505  45.8845186  56.3870239
  14.4179069  10.4004232  34.9949241  14.7392523  11.2881128  34.8368716
  13.5968124  10.3522150  34.5053196  48.4607363  25.9281754  22.7462626
  48.1641912  26.8270302  22.8889155  48.5852623  25.8644795  21.7993379
  67.3037409   9.5896364  23.4770604  67.9554628   9.9570728  24.0741177
  66.6620897  10.2905631  23.3621236  61.1423111  66.0886431  35.4419565
  60.4933977  66.3436413  36.0977912  60.6305408  65.9242916  34.6499228
  74.1523813  25.3735662  15.1439448  73.8167642  25.1094461  14.2872973
  75.0950788  25.2163291  15.0907250  15.0542498  47.7629471  36.3229227
  14.4204950  47.0456028  36.3259363  15.3368521  47.8290367  35.4107833
   2.9899168  35.0926781  36.0127282   2.3877287  34.7360945  36.6657567
   3.8579321  34.8290133  36.3181186  48.1483196   1.9526935   3.5258170
  47.2951960   2.3521734   3.6956092  48.6228060   2.0407606   4.3524619
  28.9046335  43.6482525  10.8893740  29.6881914  43.1688595  10.6201994
  28.4096765  43.0213213  11.4168310  25.3237200  59.5089245  36.7817330
  26.2559938  59.6637678  36.6296840  25.1669645  59.8403645  37.6659322
   3.6370802  40.2283287  39.2957497   3.0215073  40.6619978  38.7047887
   3.2619476  39.3590212  39.4365168  40.5500339  29.4096017   7.4010201
  41.0786270  28.6773134   7.0838757  40.4746746  29.2601133   8.3434697
  18.8412344  15.3776876  44.6788168  18.4142506  15.8961717  45.3607893
  18.7477457  14.4716112  44.9729776  57.5063419  47.8102922  59.1932249
  57.7056074  48.4505272  58.5101223  58.2682419  47.8328276  59.7722149
  64.6205807  54.0812922  48.3331919  64.1181087  53.2845879  48.1628561
  65.0542688  53.9165211  49.1704512   3.9422417  60.2162361  20.5872083
   3.4687090  59.4253159  20.3294420   3.4766483  60.5325365  21.3614225
  20.6323743  59.6007299  38.5640645  20.9763241  60.4242420  38.9101243
  20.0956416  59.2482138  39.2739105  14.9587202  56.2731457  44.8893976
  14.6672964  56.4894342  44.0036678  15.1280832  55.3314352  44.8625565
  -0.0435578  58.4241148  29.6468925   0.0211657  58.8595708  30.4968452
   0.2911270  57.5412043  29.8040152  70.0681973  21.9925284  23.2028270
  70.8365583  22.0945215  23.7644744  70.3730631  21.4490294  22.4762607
  65.1260185   6.0189694  36.8921661  64.2678356   5.6227523  37.0430350
  65.1195002   6.8144292  37.4245524  11.8365968  53.9095732   3.4082031
  11.9660080  53.2925018   4.1284168  11.9284237  54.7723015   3.8125557
  64.6169519  11.4849472  22.9182601  64.4659328  11.3045096  23.8460898
  64.7794819  12.4275088  22.8809237  34.9376416   7.8667212  17.7724051
  35.1860952   8.7906945  17.8002572  35.5563164   7.4707371  17.1586692
   5.8183718  34.9476290  26.3994145   5.4229307  35.4419255  25.6814098
   6.2554407  34.2115116  25.9712362  45.0144005   8.4013820   1.6516171
  44.2268372   8.0420673   2.0601194  45.6789351   7.7236778   1.7754675
  56.1786747   8.1138623  38.3903551  56.6469812   8.8488096  38.7863040
  56.8663263   7.5729567  38.0020380   0.3762329   5.4795281  43.5956792
   0.7709682   4.6347920  43.8121001   0.9421146   5.8405176  42.9132537
  59.1228342  16.9925904  28.9399576  59.7682858  17.1084833  29.6372342
  59.4081020  17.5892150  28.2479358   1.5672076  60.4283329  16.9024730
   1.3079227  59.5118710  16.9978690   1.4592517  60.8001562  17.7778721
  71.7365360  16.8492866  29.7325158  72.2649336  16.7098343  28.9466500
  72.3444843  16.7075872  30.4581571  55.2332115  42.6769829  29.2201781
  54.5665121  43.2910013  28.9124131  54.7768593  41.8376350  29.2790937
  38.8595093  70.7669301  11.7709076  39.7888458  70.8309133  11.5507567
  38.5044134  71.6315508  11.5645838  20.8473360  27.1561798   1.3240310
  20.9338676  26.2232968   1.5201779  21.5891182  27.5645843   1.7703505
  33.6554313   5.4238063  11.2928164  33.0825543   4.8449478  10.7898581
  33.6285138   6.2563068  10.8211696  29.8492134  61.5476676  47.2766590
  30.4009569  62.2914203  47.0345020  29.1855705  61.9206586  47.8569078
  17.0928932   3.4092784  45.5348043  17.7451540   3.9120411  46.0226695
  16.4234663   3.1921672  46.1836211  38.6278033  28.7561202  20.5801249
  39.3895793  29.0812516  20.1003170  38.6085439  27.8178716  20.3915811
  26.4033497  52.6965304   6.9618696  26.7657030  53.5408076   6.6933042
  27.0170582  52.0504185   6.6123909  20.0323809  64.7890391  20.5711770
  19.4312990  64.8217722  21.3153934  19.8597181  63.9416190  20.1609349
  50.1663769  58.5160180  15.2214634  50.8071411  57.8233989  15.3824961
  50.2866924  58.7440046  14.2996299  56.4302492  20.6906486  56.9535732
  55.8416605  20.7034230  56.1988354  57.2942638  20.5157924  56.5805626
  21.2736393  40.3985241  61.0516709  21.5547825  41.2187790  60.6462417
  20.8966805  40.6629991  61.8908288  47.6939964  25.5807424   5.5132067
  47.8815556  26.2301707   6.1909205  47.5101662  24.7756767   5.9972608
   0.7776726  62.4169322   7.1241486   0.0714767  62.9683294   6.7872834
   0.7359398  62.5279745   8.0739689  67.3533249  20.8170009  22.7811813
  66.8275928  20.7832909  23.5803676  67.8823709  21.6090846  22.8757501
  60.0889050  14.5788940   0.0231572  60.8247530  13.9668902   0.0377103
  59.5026075  14.2649325   0.7115718  54.1345406  15.3391743  26.6745186
  54.8828983  14.9950039  26.1869359  53.4307241  15.3910708  26.0278463
  13.6428178  59.9646481  19.4634998  13.1279767  60.4448601  20.1120114
  13.0562246  59.8721703  18.7127757  62.9211403  17.8897166  59.9737287
  62.7940608  18.2037329  59.0784768  63.6982514  18.3553278  60.2828198
  28.7320030  59.4591876  48.5484266  28.1080664  59.1898390  47.8743505
  29.2111910  60.1878270  48.1538391  54.8547841  54.3828308  44.8308710
  55.4696108  55.0757146  44.5897655  55.4081489  53.6780846  45.1675514
  66.0669374  10.4473448   4.5831993  66.9951391  10.6302786   4.4375721
  65.7495308  11.2008309   5.0809395  60.6500948  62.5710168   3.3364064
  61.2602842  62.9857572   3.9462379  60.3165186  61.8100800   3.8117355
  27.4602795   7.6044148  51.0921335  27.0987844   8.4690922  50.8974886
  27.7768087   7.6743418  51.9927692  12.6280082  42.1698030   7.8015703
  12.0393289  41.5567263   7.3613137  13.5041488  41.9006856   7.5255561
  57.2371960  27.3933649  39.3270254  57.0238400  27.0605040  38.4552956
  56.9395208  28.3030295  39.3155313  54.4058598  54.2881092  15.4810953
  54.5344198  55.2362367  15.4535580  55.2772844  53.9332505  15.6569374
  10.9767128  29.5483994  60.5922661  10.5610252  30.0972527  59.9272866
  11.7188955  30.0676804  60.9016819  30.2163863   9.8425400  21.7146611
  30.8645797   9.2385513  21.3523436  29.5904326   9.2781591  22.1684074
  38.5767221  17.3979461  14.0337813  37.9005122  17.0477641  14.6137321
  38.2837510  17.1610713  13.1538439  68.1790829  11.0627997  56.6090536
  67.3450708  11.2835920  56.1944485  68.8231182  11.1342311  55.9045315
  59.4560003  27.4857473  26.4611077  60.0196218  26.7496300  26.2230086
  59.6785259  27.6725745  27.3731422   0.8604383   7.6352030  46.3877344
   1.1428976   7.7468789  47.2954702   0.2963877   6.8620574  46.4058065
  60.8254850  65.7380863   5.1049811  60.7982100  65.4819175   6.0268629
  61.5759123  65.2639928   4.7467536  23.8009596  18.8295364  24.0935683
  23.4035039  18.4661460  24.8849010  23.9721918  18.0676556  23.5399914
   8.2819319  27.7600837   6.8620002   8.2893133  27.0768118   7.5323111
   8.1712866  28.5749722   7.3518425   1.0309648  14.3432617  18.2705235
   0.7648754  15.2317846  18.0339766   1.9020224  14.2438173  17.8863358
  61.9854879  12.3767340  27.2198415  61.7228794  12.1445215  26.3291407
  62.9410362  12.3214531  27.2099233  30.7877720  17.7777210  54.0502761
  31.4165915  17.2171370  54.5047734  30.4411305  18.3516852  54.7333817
  33.4611177  30.4132867   7.8470117  32.5044489  30.4066110   7.8782892
  33.6949778  29.5575881   7.4874014  46.9420946  42.5506648  43.7439919
  47.0496643  41.6144880  43.5759544  46.5762461  42.8994211  42.9311228
  44.5313549  33.0071282   2.2573608  44.8504829  32.3157215   2.8373164
  44.3358755  33.7391472   2.8423107  38.5626411  12.6642227  24.5403433
  39.3214488  12.1719456  24.2271280  38.4025645  13.3168924  23.8587070
  69.4159460   7.5875652  36.7429042  68.7283278   7.1054524  36.2835765
  69.8693848   6.9226664  37.2611094  71.5076590  25.9188747  28.0904698
  72.1826601  26.5758228  28.2608247  71.9947290  25.1094007  27.9363656
  26.0140932  40.3264745  18.9562953  26.5465916  40.9385141  19.4643152
  25.5581368  39.8021444  19.6146333  69.4239689  53.6484325  49.4482259
  70.1080061  53.3970320  50.0688104  69.5525766  54.5879197  49.3176321
  46.4733219  39.8379540   0.9465758  45.7375002  40.1271963   1.4861465
  46.3941097  38.8842845   0.9248780   9.2122328  41.6824296  10.3825017
   8.7957632  41.3927826  11.1942216   8.5224783  41.6153016   9.7222205
  38.6844778   3.4272036  38.9605069  39.4768667   3.8992190  39.2165351
  38.9957762   2.5604808  38.6995101  13.8096296  29.2562130  27.6133557
  14.2861473  28.4262690  27.6321336  14.4450437  29.9041661  27.9177209
  66.8237734  26.6911054  42.6229858  66.5230227  25.9146643  43.0951262
  66.0386038  27.2292376  42.5222206  58.5717821   6.5889484  57.9311085
  58.5352945   7.5412947  58.0202055  58.9504623   6.4438391  57.0640612
   1.8180073  70.0666704  21.7496133   1.8942440  69.2471648  22.2383165
   2.6548851  70.5090190  21.8917131  13.7624003  24.5127129  53.8954482
  13.7189079  24.5070791  52.9392532  13.5917402  25.4229128  54.1376106
  13.9073420  15.4918087  26.5358615  13.1873083  16.0398495  26.8480110
  14.6981478  15.9599447  26.8036437  24.8879480  64.5514202  22.5084233
  25.2521372  63.6668110  22.4759007  24.5312071  64.6959400  21.6320181
  39.1477764  49.7136673  45.1667976  39.1435040  50.4779705  45.7430363
  38.9279783  50.0634726  44.3033409  18.9809275  29.7593379  16.1251867
  18.7902594  29.7668290  17.0631742  19.3571043  28.8940120  15.9641445
   8.7462950  19.1179216  10.3391969   8.3610678  18.9400041  11.1972022
   8.3284140  19.9300587  10.0527763  46.0153437  11.5924525  42.2386026
  46.5724182  12.3521423  42.0689869  45.4059029  11.5728271  41.5007496
  60.1277637  11.3523018  32.2730231  60.6402206  11.0020638  31.5443587
  60.5851793  12.1549475  32.5235486  62.3876095   5.1457500  36.2760806
  62.7102757   4.8080891  35.4405546  62.6604509   4.4921553  36.9199753
  14.3889093  35.5371118   9.4260365  15.2531862  35.8951759   9.6286154
  13.9581919  35.4550862  10.2769113   3.2211494  15.9192562  47.4019432
   2.9642439  15.9457707  48.3236408   2.4219370  15.6705189  46.9375944
  14.1490782  68.8266470  16.0640228  13.7558353  68.2088949  16.6804433
  14.7555149  69.3422272  16.5956676  18.9632118  51.7411181  34.2045355
  18.1829346  51.9120725  34.7319579  18.7092579  51.0207494  33.6276412
  26.8885493  49.3468571  17.1903181  27.3107243  48.6066246  16.7543650
  26.1491251  48.9591455  17.6584673  70.5374193  19.1572917  37.0553660
  70.3767776  19.2841208  37.9904294  69.6640396  19.0976310  36.6682291
  28.9061440  58.2012971  43.5705948  29.6134222  58.2660075  42.9288721
  29.2745817  58.5741302  44.3715239  70.2606773  32.7728748  20.6066442
  70.3028870  31.9240594  21.0470557  70.8570194  33.3313704  21.1053300
  71.6210747  32.6192403  15.4757988  72.2154760  32.0566607  15.9722090
  71.7131710  32.3245811  14.5697486  51.8423307  55.9209271  28.6051559
  50.9369648  55.6159957  28.6648488  52.1486605  55.9407385  29.5117998
  13.5630954  67.7503904  34.8394656  13.8051045  68.6446508  35.0802207
  12.6060474  67.7484550  34.8564291  31.3035345   5.2585274  17.7241564
  32.0013285   5.5805397  18.2947826  30.8921003   6.0506624  17.3784983
  65.4285431  12.4217319  12.9057479  65.3916073  13.0712032  12.2035694
  65.7757759  11.6346681  12.4859989  66.9318819  21.4463377  18.8932741
  66.5948153  21.8947339  18.1176722  66.2418604  21.5498090  19.5485580
  38.2202744  22.2901726  12.6055503  38.5098982  23.0631351  12.1209073
  38.9774704  22.0425606  13.1361842  41.7971647  51.2734397  41.5465069
  41.6729153  50.3739723  41.8494177  40.9875000  51.4834472  41.0811329
  16.9281042  53.6079331  17.3223102  17.1231449  54.5326313  17.1702456
  17.3595703  53.4055050  18.1524253  75.7703018  64.3982553  21.6312575
  75.6346893  65.2160788  22.1098089  75.3065157  63.7389612  22.1474624
  73.2141924  16.3670540  54.9247313  74.1626406  16.2495744  54.9783659
  72.8896809  16.0898018  55.7814980  45.5316448  48.9551210  31.7722154
  45.5155659  48.4656286  30.9497976  46.4257097  49.2915058  31.8332863
   3.3513069  36.8340993  33.2748699   4.1732979  36.7442417  32.7927017
   2.6829290  36.5095925  32.6713848  38.7421787  64.2509308  26.2405515
  39.0158833  63.4280332  26.6457176  39.5589006  64.7265806  26.0890365
  51.5046215  38.3961725  37.2227311  51.3743544  37.6555228  36.6305304
  51.5480804  39.1590381  36.6462064  31.7884041  18.4447908  45.7156972
  32.3867680  18.8894140  46.3161162  32.1742703  17.5776708  45.5914370
  45.4767025  52.3655625  58.1102324  44.9979198  51.5382119  58.0603409
  46.3344229  52.1251794  58.4606075   1.7229557  32.6266098   6.3838553
   1.4861155  33.5459304   6.5062714   1.2470388  32.3593259   5.5975384
  51.8413544  25.9314036   4.6172181  51.2075138  25.2614427   4.8734045
  51.8142509  26.5712714   5.3286010  49.4763041  35.3699255  33.4553075
  48.5774946  35.2737093  33.1404781  49.4899035  34.8990917  34.2885923
   8.0527163  10.7870185  43.0339384   7.2765493  10.8911943  43.5843372
   8.5548735  10.0907397  43.4573317  29.8262453   9.5792240  15.4006267
  30.0400972   9.2392302  14.5317733  29.4467306  10.4419315  15.2334940
  71.0410727  67.4056398  25.7454705  70.1717890  67.0212390  25.8586478
  71.4495886  67.3321944  26.6079998  69.5148993  15.8728051  52.9292631
  68.8817215  15.9440994  52.2149563  69.5187378  14.9423575  53.1539488
  37.2766007  68.2761278  24.5857286  38.0853928  68.6414661  24.2270994
  36.6678846  69.0146010  24.6044827  15.2186180  42.4481046  61.9111562
  15.4874493  41.6289883  61.4952120  14.4417358  42.7208942  61.4230221
  69.6015621  41.4115625  57.4111120  69.7584129  40.4772085  57.2746883
  70.2235914  41.6615980  58.0943338  53.1544590  30.1939416  54.1403866
  53.3318710  31.0760307  53.8137770  52.8479433  29.7114086  53.3726358
  40.3768231  47.6272916  55.6540892  40.3571583  48.5839653  55.6291513
  40.4383160  47.3649692  54.7355918   0.9091520  36.7096567  24.5502090
   1.0115004  36.5425491  23.6132836   1.4935446  37.4467921  24.7272682
  60.9032249  19.8160315  14.1737092  60.8246660  19.1831815  14.8875451
  61.0638285  20.6520295  14.6113694  64.6181107  17.0451152  30.8861613
  64.1241074  16.2262452  30.8456039  63.9953184  17.6835918  31.2335992
  13.4078085  33.8192446   4.6752473  13.8216507  34.3711598   5.3388425
  12.5150978  33.6887337   4.9950334  30.2603102   1.7918360  33.2082772
  30.4380274   2.6676646  32.8653860  30.4434633   1.8597712  34.1453338
  50.7105827  32.7308130  16.7223167  51.2405252  32.3390388  17.4165118
  51.2851763  33.3830786  16.3215351  44.3896532  23.7942600   4.7458193
  44.2194033  23.3268380   3.9280391  45.3441811  23.8372612   4.8028708
  68.2327127  16.6674697  15.1522207  69.0629435  17.1348047  15.0598001
  68.1500053  16.1637008  14.3425250  70.5085468  47.3872471  46.7718697
  70.2166843  48.2907295  46.6503668  71.0441303  47.2027445  46.0002851
  58.0394316  38.0075145  22.1095967  58.2429886  38.7140632  21.4967513
  58.7698030  37.3952746  22.0204377  43.7894047  71.0251988  27.2129440
  44.4830883  71.1209560  27.8655314  42.9957188  70.8769403  27.7270532
  70.2293348  37.2533631  44.2338800  70.3745604  36.6899109  44.9939203
  69.2771149  37.2976017  44.1469765  17.8369474  11.8333459  39.0791583
  17.8705549  12.4766922  39.7871184  17.3263884  11.1079252  39.4387722
  10.7812834  16.4302075  46.1763096  10.0771093  16.5166354  45.5337286
  10.9249067  15.4866242  46.2487888  19.5988035  26.4582968  44.3191910
  19.6890020  27.1954155  44.9231386  19.2632723  26.8492937  43.5124874
  53.7564230  27.7484369  38.5803747  52.8682470  27.5116563  38.3133364
  53.9427042  27.1774006  39.3256593  23.8330437  47.6463949  54.7659496
  23.4860684  47.5459122  55.6523720  24.7581173  47.4128592  54.8429427
  47.7690601   2.9650199  11.9946194  46.8803120   2.6446187  11.8406582
  47.6473379   3.8280940  12.3902452  25.7188177  10.3134906  43.1401396
  26.1842203   9.5121658  43.3799362  25.6353617  10.2661264  42.1877623
  50.9330511   7.8584158  50.0619555  50.4054689   8.6501569  49.9568987
  50.3821135   7.2702652  50.5784607  71.1853218  10.9348631  44.6777439
  70.7543087  10.1857662  44.2662621  72.1203375  10.7690251  44.5574093
  21.0865938  52.3988661  15.0380536  20.6967222  53.1571158  14.6029826
  20.6152784  52.3305961  15.8683749  36.7396725  54.5203241  12.1327507
  36.7035807  54.8577758  11.2377346  36.1953581  55.1238676  12.6384091
  46.9247246  30.0137019  18.1515181  47.5829840  30.0842476  17.4601817
  46.2024307  30.5656505  17.8517210  69.6107054  34.3073249  30.4611659
  69.3175697  34.9720597  29.8379254  70.1844597  34.7804689  31.0638022
  71.8092548   1.3320199  49.1102028  72.5295221   0.9271757  48.6269331
  72.2325098   1.7695800  49.8488665  59.4857788  34.7905183  14.0821600
  59.2893839  33.8662386  14.2350197  58.6326218  35.1929832  13.9197445
  62.8549671  24.7825933  31.7577147  62.7178478  24.8999095  30.8176780
  61.9800377  24.6161032  32.1084428  60.9668863  71.4299404  10.7198799
  60.7051409  71.2587275   9.8152214  61.3420332  70.6025292  11.0213530
  11.2241125  10.6233442  46.4626217  11.3847399  10.7823932  47.3927498
  12.0152426  10.9385622  46.0256147   6.6498136  53.9360476  27.8235531
   5.7647181  53.7931395  27.4882674   7.1767759  54.1075993  27.0431018
  45.6945265  62.6823255  22.1437550  45.1028955  63.3820363  21.8669701
  45.1918543  61.8781914  22.0136786  26.1976076  63.7389445  56.3399182
  26.5714003  64.4325542  55.7963941  25.3390242  63.5678291  55.9528933
  63.2835103  57.4842357  46.4327852  62.8229953  56.8168735  45.9240774
  63.4577347  58.1858134  45.8053557  13.1210066  33.3353883  53.0200056
  13.5284926  33.9500495  53.6302356  12.1848751  33.5269808  53.0764321
  66.3413620  21.2211657  33.6909366  66.7480564  21.4585662  32.8575850
  66.9421291  20.5842590  34.0777922  21.6627550   3.3955318  18.6810648
  22.3835993   2.7979666  18.4822583  21.0198736   3.2333744  17.9906666
  67.8991079  11.3220632   2.1865538  68.5006618  11.6772473   1.5321775
  67.8659964  10.3843093   1.9974652  50.1272583  36.4352942  30.1144385
  49.9136448  36.5077543  29.1841984  49.3262148  36.7017698  30.5656004
  39.8169554  55.2878603  28.2595825  38.8827265  55.0879880  28.3186746
  40.0684679  55.5233427  29.1526222  61.6554022  16.5107894  25.3961420
  61.1661625  16.1458361  24.6587920  62.4536896  16.8633735  25.0028849
  11.1817229  55.2100118  27.8790522  11.4679564  56.1061498  27.7023101
  11.6860450  54.6726235  27.2682309  13.1931257  26.5814257  24.7766900
  13.9368486  26.9511580  25.2525115  13.0784845  25.7085109  25.1523376
  63.1036329  33.1217051  54.2923260  63.4025145  32.2310185  54.1090822
  62.9246759  33.1255984  55.2326393  64.6102369  60.6331762  19.1222596
  64.7810591  59.9474987  19.7679377  65.3207338  61.2622925  19.2473125
  75.0684166  25.7454896  21.9761229  75.1292562  25.6432009  22.9258943
  74.3560553  25.1608205  21.7174029  75.6030798  44.9228334   5.6261414
  75.0757980  44.1414785   5.7925600  74.9872112  45.5517721   5.2501410
  10.7934368  68.8422774  36.4300203  11.1701692  69.4334156  37.0818329
  10.5541695  69.4125339  35.6994104  74.3948555  21.6192222  34.8778987
  73.8448763  21.9265223  35.5985379  73.8888979  21.8162704  34.0896010
  63.0588770  36.8309617  11.6659939  62.4227762  37.4502587  11.3081145
  63.5486794  36.5231562  10.9033787  47.8351498   9.5828891  42.6355553
  46.9964838  10.0440848  42.6484728  48.4613276  10.2145612  42.9892874
   6.2625360   2.1863194   7.4086696   5.5619574   1.5993300   7.1243119
   6.2105036   2.1760017   8.3643991  69.0399742  44.3081856  23.5052943
  68.1786394  44.6141624  23.2211924  68.8727856  43.4499788  23.8948560
  40.8066404  63.4478017  17.2570777  41.3928783  63.2285651  16.5328586
  41.2366856  63.0851515  18.0315316  30.9198689  12.6451612  40.5139112
  31.4780760  13.3236778  40.8937216  31.3050294  12.4711549  39.6550727
   8.3267355  36.1707544  46.7750788   8.8716269  36.5609169  46.0916328
   7.7166128  36.8660831  47.0210409  43.2862711  17.0163286  23.6726546
  43.0169153  17.5068355  22.8960705  43.0107069  17.5628161  24.4086218
  57.0591927  30.3164387  23.1471062  57.5823355  31.0329580  22.7877259
  57.6848936  29.6032453  23.2739258  52.3499584  17.4305236  60.9160185
  52.5330925  18.2393074  60.4379368  51.4874220  17.5728273  61.3058996
  74.0947664  69.3451167  23.0172539  74.1359747  68.6936726  23.7173653
  73.7253893  70.1229540  23.4353018  41.9850779   7.1773994  16.4965892
  42.0095253   6.2208205  16.5209138  42.9012537   7.4425387  16.5775681
  46.7015303  67.0366617  17.0661354  46.8113936  66.3283744  16.4317143
  47.5922335  67.2480100  17.3457944  58.9142048  45.9384128  10.7668515
  58.4385597  46.6824182  10.3974601  58.8914215  45.2738556  10.0783177
  36.7937696  44.4551714  20.2106023  36.4438427  43.7770875  20.7885146
  36.3981331  44.2713030  19.3586040  60.5080450  68.3397823  56.0968208
  59.5529879  68.3384859  56.0329103  60.6897867  68.0049928  56.9749546
  35.2480125  15.3899372  41.6919899  35.3296328  14.4362390  41.6867208
  35.5741763  15.6534863  42.5524521  58.6784792   0.9449954  37.1415639
  58.4511852   1.8464285  37.3695707  58.0023193   0.4137982  37.5621247
   2.1039009  19.5343769  28.7914824   2.8321838  19.0687835  29.2026448
   1.3482618  19.3319118  29.3430734  65.1989412   1.6767856  17.3447061
  66.0442162   1.8085074  16.9152927  64.5535851   1.9439830  16.6902184
   3.5932684  22.9178309  49.8257685   4.2971849  23.3767009  49.3673325
   3.2092285  23.5806942  50.3996658  47.4053192   5.2634865  27.0436049
  47.1188593   4.4253826  26.6806245  46.8823004   5.9169370  26.5791869
  44.5194054  12.0439923  46.7873907  44.0832281  11.8334961  47.6130295
  43.9677811  12.7178645  46.3900995  73.2944536   8.2063729  42.7184391
  73.3169317   9.1223514  42.4414730  73.6106968   8.2214582  43.6217594
  46.8558788  52.2256136  25.3337693  46.3065672  52.1256447  24.5562792
  46.8501616  53.1661034  25.5117583  23.5106838  62.5808223  52.4141932
  22.8263557  62.6447108  51.7479753  23.2293261  61.8604620  52.9782391
  20.2292931  31.9030827  15.4024764  19.8287117  31.1243107  15.7888432
  19.6783554  32.6277101  15.6984683  37.2443438  41.4324665  10.5327940
  37.5175428  41.3250494   9.6217191  36.6175699  40.7241440  10.6799984
  59.7589827  13.8132691  30.0938225  60.2522612  14.2664003  29.4100237
  60.1189041  12.9263437  30.1010036  21.2858761  25.7505814  58.6987645
  20.6572807  25.2876965  59.2526905  20.7754744  26.4493862  58.2896281
  18.5208845   6.9001073  28.7312651  17.6815748   6.7282677  29.1581821
  18.9210081   7.5911725  29.2590547  31.0189606  58.9546847  57.6585347
  30.3087689  58.9562988  57.0167656  31.7702747  59.3121242  57.1852557
  73.9969158   6.7115921  32.6128602  73.2355452   6.9175971  33.1551766
  73.7241220   6.9339013  31.7226934   6.7818689  52.4544907  47.0277643
   7.4200678  52.3115683  47.7266979   6.4193773  53.3218431  47.2081089
  66.4037466  56.8269730  20.4392409  66.8166161  55.9738255  20.5730772
  67.1287298  57.4120712  20.2194881   8.7481356  15.1292622  44.4793606
   9.1240549  14.4730449  43.8925934   8.3364344  15.7655752  43.8946915
  10.2458216  54.8394811  53.3596973  11.0310198  55.2659392  53.7029628
  10.4935051  53.9194083  53.2683168  27.0939100  23.7071529  60.9380642
  27.3921478  23.0750910  61.5921165  27.8951538  24.1339604  60.6346392
  12.8372240  19.2456841  23.6417341  12.8557253  19.7145569  22.8074384
  12.7634954  18.3233607  23.3965516  58.7447023  20.1159906  31.5522194
  58.5601282  21.0210800  31.3012743  57.9201126  19.6532536  31.4033437
  10.3725195  57.1011162  46.2195969  11.1488867  57.0613670  45.6611156
   9.6457148  57.2312784  45.6104660   6.6081095   8.8395649  12.5602663
   7.3377180   8.5340238  12.0212388   6.0308409   8.0796826  12.6349616
  65.9952259  13.7583029  30.7165289  65.9226465  12.8051507  30.7661557
  65.0893068  14.0669632  30.7001448  71.6938972  48.1179333  41.5485287
  70.8136940  48.1673527  41.1756516  71.8932962  49.0163708  41.8117523
  13.7440062  21.2144470  52.9708099  14.4857645  21.8047762  53.1032467
  13.5801554  21.2434387  52.0281839  26.7212654  44.5299559  52.4903438
  27.3695208  44.1775918  53.1001298  26.9474913  45.4564988  52.4092797
  74.0045595  33.1463265   6.5205276  74.1717863  33.3941460   5.6112140
  73.0576754  33.2406378   6.6242176  10.3609133  60.6884623  33.6859655
   9.4072866  60.7556057  33.7341285  10.5206251  59.8425150  33.2675123
  19.3682718  52.8977537  38.6269379  19.0674543  52.5470257  37.7886486
  19.5095491  52.1245527  39.1732240  51.3048458  49.7241497  30.2074718
  50.6143951  49.2764139  29.7185540  51.6519260  49.0558004  30.7982969
  55.0896406  36.9265532  30.5424905  54.9837732  37.0983839  29.6068096
  54.5769119  36.1337399  30.6999278  60.1375341  31.7411733  36.9451475
  60.2375603  31.9094706  36.0081840  59.4328785  32.3278260  37.2199798
  74.1233253  16.2473273  15.2134168  73.6376572  16.9196868  15.6912112
  73.5808802  16.0586882  14.4476509  27.9649496  24.8639035  39.0559006
  28.4848452  25.6673002  39.0337253  28.1588221  24.4766426  39.9095249
  71.4684237   1.6279927  57.7356968  71.8218744   1.0552803  57.0550309
  70.5214346   1.6078511  57.5977243   8.6253191  68.2021927  59.4984270
   8.0422951  68.1269168  58.7430141   8.1286741  68.7177658  60.1338486
  15.9650469  17.5435650  26.5501666  15.6588411  17.8784907  25.7073760
  16.8887091  17.3385322  26.4051199  43.2797003  30.3599834  26.1343694
  43.9189291  29.6491909  26.1833382  43.2584095  30.7243395  27.0192552
  47.9476690   5.2010649  39.8979998  48.4888697   5.7387376  40.4761362
  47.1153927   5.1129335  40.3625154  69.7927237  50.3180695  19.0217602
  70.5383682  49.7630692  19.2502725  70.0495672  51.1943769  19.3087268
  53.7228727  13.8390827  38.4054875  53.6373329  13.0492628  37.8715420
  53.3944941  13.5823858  39.2671752  60.8780611  60.9743866  12.1836114
  61.1357439  61.5401187  12.9114687  61.6317499  60.4000624  12.0481968
  23.6667395  35.5887842  22.5766444  23.0761576  35.4571939  23.3183479
  24.2347956  34.8183918  22.5831866  68.5716391  12.4536335  41.3322496
  67.9356861  13.1686687  41.3094187  69.0872812  12.6168370  42.1220016
  28.5532427   4.9674454   5.6295896  29.3466997   4.4330120   5.6618327
  28.8190699   5.7632953   5.1689464  68.0815649  48.5660791  18.0304492
  67.6060247  48.8885212  17.2648585  68.7749624  49.2108583  18.1707704
  62.0327520  33.0724216  57.0254087  61.1495876  32.8256011  57.2998762
  62.0358324  34.0289807  57.0602369  64.7547734  29.6210623  26.6869974
  63.8084269  29.5039010  26.7702699  65.1208568  28.7578940  26.8797588
  17.7252983   8.8216329  -0.2420215  18.5706638   8.5520006   0.1169845
  17.3471950   9.3852163   0.4329940   1.9916525  50.1732874  50.2804661
   1.2667018  50.6655359  50.6656551   2.7623454  50.7183075  50.4392672
  15.6998944   7.5978094  61.1723089  14.8926699   8.0256701  61.4578915
  16.3989675   8.1076026  61.5817499  63.5089588  35.3341627  52.4484158
  63.4307599  34.5956802  53.0523682  63.0717647  35.0379872  51.6500568
  65.0085306  19.1638601  48.2029438  64.6521652  18.7999856  49.0133953
  64.2583787  19.2079830  47.6100206  66.9343817   2.3388773  48.7940216
  66.2054962   2.8458568  48.4363508  67.4606204   2.1040320  48.0297232
  10.4869806  68.1307420  21.8890687  11.3381004  68.0170640  22.3120423
   9.9206280  67.4862560  22.3134633  23.6106896   5.6623322  55.5767012
  23.0851936   6.0512590  54.8775434  24.3673515   5.2864528  55.1268005
  58.4346848  25.9344602  17.0648118  58.0382853  26.7105222  16.6687985
  57.7007102  25.3367305  17.2070666  69.0124440  63.2219028  28.1302738
  69.6062142  62.5687218  27.7601099  69.4005722  63.4464741  28.9759421
  64.2098116   2.1385670   1.0496255  64.9942373   1.7809534   0.6336709
  63.7307786   1.3695836   1.3585349  52.0177829  61.0379752  22.8135510
  51.5052044  60.2356371  22.9122945  52.3997819  60.9719666  21.9383641
   6.6358828  51.4273271   4.2250749   6.2744927  52.0251068   3.5706349
   6.5746426  51.9095358   5.0496694  38.0383836  17.6933408   9.6825572
  38.0819189  17.1020532  10.4340335  38.1011211  17.1173501   8.9206334
   8.0483264  66.9055033  23.0657053   7.1961570  66.5236139  22.8554678
   8.3959508  66.3472366  23.7612128  37.4145912  31.9142652   2.9337331
  37.3996829  31.1505342   3.5105582  38.1978916  32.3976159   3.1964942
  75.3330730  20.1497817   9.9390241  74.4155954  19.9235130  10.0915690
  75.5999373  19.5895648   9.2102118  73.1734747  22.1572185  53.6219215
  72.6798645  22.4749088  54.3779993  72.5069657  21.8078685  53.0303574
  24.6699571  16.1997104  36.6872140  25.0330686  16.1682725  35.8021279
  25.0307630  17.0014167  37.0657941  12.5542068  20.5181813  50.5216646
  12.8464711  20.6187606  49.6157408  12.6215899  19.5787024  50.6921673
  12.1641123  71.1311420  16.3649913  12.3771286  70.7558974  15.5105611
  11.5295016  71.8212589  16.1720153  46.1431833  31.0497880   3.5696813
  46.6733240  31.7155147   4.0078517  45.8775317  30.4552246   4.2712184
  52.8187605   2.0190907   5.4875394  52.2889959   1.7019892   4.7560807
  52.2102364   2.0565510   6.2254592   4.9472585  59.3581295  58.8929844
   4.0523070  59.4651699  58.5707474   5.3093451  60.2442026  58.8931513
  19.2861253  70.7304343   6.8193646  19.2455613  71.4109596   7.4912806
  18.4159713  70.7354316   6.4205666  48.0344402  69.1891345  11.2872954
  47.9721081  69.8615130  10.6088754  47.2503960  68.6535129  11.1664172
  68.3691489  11.2516189  10.7664843  68.8017260  11.0746026  11.6018125
  68.5709201  12.1689344  10.5819341  23.3386207  26.4083171  60.9305763
  22.8061891  25.6873846  60.5944061  23.7720275  26.7672873  60.1562834
  61.5164113  59.0786743  40.6827497  61.8715131  58.5793352  41.4181376
  61.6279304  58.5029507  39.9262190  71.5722035   8.3630681   9.1653033
  70.6921004   8.6638618   8.9390870  71.4293980   7.6575971   9.7962972
  38.5149360  39.8759007  57.9327393  39.2614841  39.4800043  57.4831152
  37.8788805  39.1650486  58.0124474  37.7232037  64.9311742   6.2116377
  37.3298584  65.3110608   5.4260103  37.7093659  63.9871606   6.0539095
  62.2019755   3.7262002  51.7769718  62.0053112   4.3667070  52.4605703
  61.9868433   2.8810684  52.1715641  15.7641935  61.7942953  60.3524971
  15.3128886  61.1914110  59.7616673  16.6878629  61.7174387  60.1134157
  23.2723784  59.7306284   8.1344577  22.9945474  59.0278443   8.7219449
  23.1780973  59.3604382   7.2567912  55.5601697   5.8946920   9.8757192
  56.0485213   6.2185884  10.6325789  54.7982161   5.4547668  10.2527114
  57.5684487  65.0521501  32.2249242  57.2200477  64.1678866  32.1112271
  58.4690988  64.9185857  32.5202676   7.4013578  62.3734006  13.4361907
   6.7591190  62.2894510  14.1409703   6.8789565  62.5676378  12.6579877
  34.0171021  44.2872032  22.8010007  34.3137681  43.5699370  22.2408696
  34.7220343  44.4005236  23.4385415  24.5791934  68.9082631  21.5806027
  24.1537230  69.7523698  21.4299699  23.8960324  68.3615836  21.9687577
  18.7192475  59.7685083   2.4130746  17.8590607  60.1634988   2.2706242
  18.6006844  59.2058786   3.1783362  63.2927311  37.1086319  21.8575382
  63.9924527  36.7751201  22.4191332  63.4762145  36.7318638  20.9969497
  38.5018420  20.2457380  59.8027611  38.3130932  20.8225989  60.5429220
  39.0141559  20.7868361  59.2019463  48.1648779  27.4304652  58.5554647
  48.8325167  27.6873255  59.1914797  47.9229569  28.2473207  58.1190538
  31.0710680  62.6800188  18.4265443  31.8114328  62.4997314  19.0058442
  30.8931708  61.8429812  17.9976436  17.6089966  62.3964214  43.5128260
  17.5411797  62.4136496  42.5581884  17.2739553  61.5348673  43.7612343
  63.9209402  66.7851591  47.3287201  63.9125228  66.4266253  46.4412451
  64.6563482  66.3470650  47.7570629  52.5349724  62.0139440   8.1133004
  51.6297090  62.2987303   8.2383033  52.6085197  61.2141451   8.6340114
  52.1933114  57.3753175  13.1953116  51.8428647  56.7595276  13.8389131
  52.7059853  56.8311438  12.5975915  41.6528039  12.4171234  19.4160100
  42.1948700  12.8159595  20.0966950  42.2358524  12.3384834  18.6609574
  11.7297148  12.4174619  14.2107173  11.8475436  11.6373039  13.6687776
  10.9472703  12.8395725  13.8559838  55.3769612  21.9214129  49.1585588
  54.9263525  21.6083789  49.9429035  54.8280692  22.6362967  48.8362360
  55.5224061  36.7224360  53.8431931  54.7051358  36.8792391  54.3161774
  55.3199887  36.0006070  53.2480240  51.0944926   3.2213727  59.3690014
  51.3029205   2.8088800  60.2072334  50.4907619   3.9292804  59.5939779
  70.2797598  68.5772991  34.9110126  69.8274291  67.7592373  35.1169395
  70.1294106  69.1331577  35.6756353  69.6529377  47.6388502  50.9825087
  69.7083771  46.9245481  51.6172791  69.0686786  48.2775497  51.3910866
   8.3862436  57.8763676  54.5084000   8.4166133  56.9856310  54.1592550
   9.0940070  57.9055357  55.1521826  31.6795700  56.3078054  33.3049985
  30.8828580  56.6432222  33.7160703  32.3571109  56.4156064  33.9724942
  33.0867695   8.5381103  15.8148547  33.4025024   8.1086994  16.6099330
  33.8065516   8.4455610  15.1906892  14.2136478  15.1628256  48.8506222
  14.2725027  16.1152411  48.9259434  15.0049293  14.9108601  48.3745766
  74.4908421  19.4018257  46.9355345  73.7991951  18.7752378  46.7228270
  74.1388187  19.9076509  47.6679611  16.9682169  57.4801874  35.6454253
  17.0463872  57.3076773  34.7071505  17.7808595  57.9311228  35.8745623
  53.6857443   8.1339574   3.6880608  53.3559849   9.0049768   3.4671279
  53.7534400   8.1385589   4.6428557  33.5793393  62.0932301   4.3878957
  34.4153815  61.6670355   4.1991492  32.9543226  61.6637572   3.8038226
  15.5743992  65.1720238  48.9605093  15.9113038  65.4380369  49.8160601
  15.1513159  64.3286085  49.1213894  74.7174789  39.9302006  43.5774469
  75.2826526  40.1726389  44.3109560  74.0170278  40.5824804  43.5890055
  75.5156080  57.4372721  25.3902125  75.8956536  56.6180944  25.7076144
  75.0345534  57.7849340  26.1411786  71.0332787   9.3009321  26.3019085
  70.4657399   9.9293462  25.8555651  70.8988153   9.4761793  27.2332716
  61.3055670  34.2955108  12.1016475  61.2060368  35.1626463  11.7087050
  60.5481231  34.2062841  12.6800462   3.0828260   6.3317800   6.5295335
   3.1948065   6.3792301   5.5800887   3.7350916   5.6924653   6.8159839
   0.6132782  34.9340630  50.1552725   0.4831617  35.5531001  49.4368744
   0.6411168  34.0766931  49.7305679  46.9167920  11.9923330  25.8988686
  47.1902796  12.3376918  25.0490685  47.7363973  11.7947126  26.3521119
  24.2046785  28.8191652  35.2853656  23.6448383  28.7251377  36.0560584
  23.9562798  29.6641731  34.9105430  18.7947953  38.4065938  50.6851625
  18.4635723  38.5545349  51.5709591  19.4917703  37.7597594  50.7949877
  23.1599687  32.9225421  17.3002644  22.7377676  33.1697488  16.4775439
  23.3706926  31.9951129  17.1921225  23.2479120   7.5219814  61.5941429
  22.6276168   8.2419292  61.7087984  23.4949409   7.5635044  60.6702995
  24.8714423  39.0495086  61.3931274  24.2315245  38.3463264  61.2823582
  24.5280814  39.5740676  62.1164322  39.7850715  17.8990198  17.8366300
  40.3729795  17.8172756  17.0856877  40.0281834  18.7315441  18.2416364
  58.7667530   8.7602783  49.7005387  58.1559252   9.4895864  49.5945474
  58.2771890   7.9928661  49.4045087  15.4936731  43.8285303  49.0970278
  16.1714399  43.2883596  49.5033264  15.2650571  43.3615828  48.2933331
   5.4662561  28.2755280  44.7518921   6.1062860  28.8546252  45.1657057
   5.7557213  28.2100058  43.8418674  33.2240849   5.2949516  60.1023817
  33.4855025   6.1981765  60.2814817  32.3634946   5.2088777  60.5125141
  43.3715688  14.5619989  22.3367616  43.3158570  15.3760648  22.8371926
  43.0378943  13.8912654  22.9325982  41.5005939  41.5221095   4.3685361
  41.8334453  42.3197723   3.9572211  41.8501114  40.8115507   3.8307830
  27.7588677  50.8697939  53.1540155  26.8951035  51.2586975  53.0165529
  27.6857471  50.4143333  53.9927292  33.8285159   9.0318132   1.3366481
  34.4040810   8.2782436   1.4673587  33.2560586   9.0318752   2.1038028
   2.4489486  37.0237912  17.6289626   3.0253517  36.2933286  17.8534957
   2.8289449  37.7766755  18.0817290  27.8319108  43.8495215  19.2850610
  27.8056046  44.6220186  18.7204476  28.5342729  43.3106139  18.9210530
  18.2818496  41.9224501  27.7827978  18.9558232  41.6478348  28.4045506
  18.7694192  42.3178530  27.0601869  44.9067378  67.5753626   4.6302958
  44.4015681  68.1581029   5.1972600  44.9889278  68.0550965   3.8060780
  41.6210222  67.4739608  13.6440297  41.9797885  68.3549723  13.5375663
  41.1366832  67.5106391  14.4688340  59.3921983   5.2116243  12.7983892
  58.4786546   5.0995294  12.5355136  59.5094549   4.5988409  13.5243225
  74.9680309  49.6943665  58.5977316  75.1042363  49.5952320  57.6554728
  74.6166845  50.5791855  58.6971617  23.8769555  35.0585794  46.1522388
  23.0860138  35.3885317  45.7258844  24.1776824  35.7868910  46.6957045
  11.8682074  70.6484088  38.3374329  12.6833057  71.0951957  38.1088944
  12.0788729  70.1570925  39.1314431  17.0906996  10.9223152  24.0896150
  17.1385597  10.5634332  23.2035371  17.8100656  11.5523506  24.1320344
   5.1194441  43.4401226  46.3579321   4.5777583  44.1338491  45.9816980
   4.8715010  43.4172964  47.2821808  49.7467327   5.5668235  42.0682478
  49.5006990   5.4821938  42.9894066  50.6309414   5.2031291  42.0221138
  15.7265484  31.3602781  35.3824854  15.4019928  32.2235250  35.6388044
  16.2322557  31.0605311  36.1378932  62.9436588  21.1842108  52.7727175
  62.3459530  20.8590126  52.0994949  63.8161218  21.0571885  52.4000168
  45.3289652  10.0492597  59.4564056  44.5150042   9.8719692  58.9849520
  45.7430530   9.1913933  59.5503712  64.3590557  63.0148777   2.5065823
  64.4225966  62.0926341   2.7549048  64.6588647  63.0394491   1.5978785
  41.2051296   8.8750869  43.8837051  40.9134865   8.7829649  42.9766846
  42.0582056   9.3043381  43.8185692  52.2118723  43.8350012  13.2669040
  51.3987839  44.1229572  12.8519364  52.7721059  44.6110978  13.2602139
  34.4287145  27.9357662   7.4390288  35.0811231  27.3856684   7.0054503
  33.6841547  27.3527398   7.5871583  24.6177483  41.8510723  52.0972776
  25.3134894  41.2824297  51.7673922  24.7533250  42.6831245  51.6439199
  28.4679388  50.9068343   9.3997355  29.0919950  50.8066639  10.1185914
  27.6090961  50.8555743   9.8192521  58.4386413  11.1552835   2.9744216
  58.3307676  10.6104827   3.7540265  58.6632579  10.5368257   2.2792359
   1.9625321  22.2285509  53.6604548   2.9071730  22.2972178  53.5219955
   1.8211268  22.5950885  54.5333147  18.3259523  12.5413597  45.0187540
  18.6969936  11.9568515  45.6797409  18.5974348  12.1611571  44.1833019
  19.2809069  33.3584189  50.6955194  19.6180034  32.7194142  50.0676107
  19.7599268  33.1756258  51.5038252  54.6398540  23.2294965  34.8225804
  54.5391040  23.3467222  35.7672234  55.3689142  22.6156354  34.7338220
   6.1361753  64.0667519  46.8378278   6.1174321  63.1252893  46.6659852
   6.3019490  64.1353496  47.7780648  68.8321656  20.9177184  41.2022352
  68.5714531  21.0287452  42.1165323  68.7547785  19.9769223  41.0436630
  36.4700317  66.6721090  14.3911572  37.0996713  67.3369655  14.1123172
  36.5244901  66.6764983  15.3467961  13.2528162  27.8907466  41.0314083
  12.6446319  28.0191541  41.7593241  13.6770546  27.0533705  41.2186289
   9.9877428   5.5172182   5.9536096  10.5098509   5.9476495   6.6306373
  10.6062459   5.3545833   5.2414056  52.7305042  34.8537422  10.7165547
  53.3992350  35.4491924  11.0548850  52.2118341  35.3913061  10.1180240
  64.6933400  15.2268529   0.9357091  63.9835202  14.6062780   0.7705565
  65.4701160  14.6784807   1.0458823  64.9033916  45.4227066  47.6365805
  64.0544915  45.0380230  47.8548002  64.8087466  45.7128906  46.7293501
  28.9630931  53.5754320   8.8637181  29.8965430  53.6955818   8.6891719
  28.8237607  52.6319095   8.7825747  24.5777823  56.7936834  56.0083886
  24.0815292  57.6013335  55.8754750  25.3558378  57.0677909  56.4939042
  23.6701813  50.1584109   4.7557231  23.8745066  49.5009765   5.4207488
  23.5939374  50.9778663   5.2445098   7.6177907  44.1752529  45.3697205
   7.2568619  45.0267553  45.1229286   6.8651688  43.6812401  45.6949091
  67.3524916  71.0935577  13.8889666  66.7070353  71.3588365  14.5441361
  67.0330393  71.4734420  13.0705090  40.7094311   9.0677667  15.0139781
  41.1516791   8.2484460  15.2361556  41.3282256   9.7513080  15.2710648
  34.4728618  59.7038802  28.4568425  34.4039911  59.3500384  27.5701161
  33.6420989  60.1576408  28.5988446   9.2187774  55.5056190  36.7378592
   8.8925087  56.0112143  37.4822736   9.1068357  56.0871553  35.9858489
  56.0112338   6.3969255   6.9635983  55.3800758   5.7570148   6.6343757
  56.2029551   6.1072135   7.8555318  13.9103972  66.3721069  28.5211774
  14.2394483  67.1281084  29.0074082  14.6467101  66.1009773  27.9729386
  20.0007510  56.7945337  34.2959595  19.2329574  57.0928288  33.8083720
  19.8876560  57.1653891  35.1711226  60.2768219  39.4453382  52.1766710
  60.7113683  38.6813879  51.7974901  59.8800981  39.8912168  51.4283133
  19.7790741  10.7964874   1.5241881  20.5343675  11.0323310   2.0628329
  19.8243712   9.8430515   1.4525052  20.5838537  38.3733511  42.6905155
  20.7276583  37.4325824  42.7930069  20.1977038  38.6486030  43.5219955
  45.6761472  23.9164186  13.9094611  45.9911143  23.8655639  14.8119279
  46.1065047  23.1865716  13.4641000  22.2270918  30.7543898  53.0117273
  21.5901017  30.0775576  53.2405806  22.9029226  30.6850624  53.6860275
  70.7955265  56.9290686  31.3842249  71.1318466  56.1028624  31.0370898
  69.8570585  56.7774963  31.4961839  64.7481548  29.9930358   7.3051043
  63.9026569  30.3889108   7.5164052  64.6604906  29.0802122   7.5795194
  10.8923972  67.5668526  57.3183107  10.0867522  67.8719521  57.7355433
  11.5722096  67.7100563  57.9767799  12.1025025  50.1753458  15.7929536
  12.1049761  51.1261472  15.6824847  12.4531173  49.8375579  14.9688168
  23.5693932  42.9518366  54.4176817  23.4641075  43.7806273  53.9505053
  23.9447284  42.3569536  53.7684774  74.4216143  44.3647957  46.2119579
  74.5498915  44.0306187  47.0997143  73.4723686  44.4498158  46.1228800
  65.6135714  63.5228404  17.4722930  66.1913716  63.0928024  18.1027242
  65.0293719  62.8275474  17.1697780  31.2603783  67.9787835  19.5057221
  31.8155848  67.2321614  19.7305222  31.5746736  68.6882934  20.0661202
  75.5173838  67.9179343   5.6907912  75.3543007  68.3852872   6.5100690
  75.9810054  68.5507187   5.1422759  21.2732339  20.6232238  41.8994522
  21.1894679  19.7720373  41.4696932  20.8381462  21.2351441  41.3057470
  32.5221753  50.5785188   3.6409493  32.5970733  49.7634694   3.1446477
  33.4225130  50.8932969   3.7218162   2.9997870  35.5432487  47.0199156
   3.8339645  35.3770113  46.5808868   3.2453957  35.8947825  47.8756762
  22.2330689  13.4386504  38.9240670  22.0842767  12.9877734  39.7552109
  21.4083147  13.3417571  38.4480190  53.5346891  12.2097612  15.5849238
  52.6005310  12.0010019  15.5849191  53.6380511  12.8454519  14.8767968
  15.8646250  37.4764562  61.4150000  16.2846816  36.7520857  60.9512424
  15.9606659  38.2253385  60.8266258  75.3801418  62.5195169  31.7311168
  74.8675589  61.7712212  32.0369601  75.5019418  63.0611658  32.5108695
  74.9633645   5.2368904   9.4739219  75.6137060   4.9605108  10.1196023
  75.4536532   5.7816244   8.8581963  73.1202339  24.5008302   9.4720908
  72.2635817  24.5650888   9.0498944  73.5232305  25.3569723   9.3277236
  22.1346188  50.6930685  51.8800068  22.4311328  50.7852650  52.7854395
  22.7498078  51.2214899  51.3715315  75.2299629  60.8318901  44.5631123
  74.8491523  60.6976032  43.6952543  75.2368895  59.9604559  44.9590826
  14.4206703  53.6195803  42.4339914  13.8449323  54.2601204  42.0163012
  13.9382303  52.7944517  42.3825073  50.3411594  37.4733186   5.9139367
  49.9364520  37.0420528   5.1613065  51.2033971  37.0645118   5.9891530
  41.3005864  32.5270494  11.8675729  41.8380224  31.7614617  12.0707246
  40.4655599  32.1624845  11.5742227  23.9487570  46.9971665   3.3972331
  23.1367516  47.3022040   2.9924699  23.9502228  47.4010285   4.2650624
  42.7565645  22.0280052  21.7728063  42.9018759  22.4865318  22.6003667
  43.4700941  21.3918996  21.7229291  39.4001244  23.8618207  15.2294990
  39.3855285  24.7264886  15.6398221  39.1087936  23.2647491  15.9186049
  19.4024122  41.5816545  54.6577215  20.2377748  41.7110157  55.1067972
  18.7498188  41.9445324  55.2566147  56.9932639   5.2421609  35.6949568
  56.2349450   5.4881851  35.1651835  57.1630537   6.0097019  36.2411094
  17.8282808  11.4453817   7.1983357  17.0115780  10.9462572   7.1879836
  17.9201054  11.7730165   6.3036557  44.9874901   9.0576021  55.6486750
  45.1460051   9.9836103  55.8320093  44.4567680   9.0585844  54.8520803
  41.5204620  51.6463327  59.3063164  41.7559052  51.5469599  60.2287722
  41.2299633  52.5551701  59.2298317  35.6361675  14.3523160  52.0901442
  36.0634958  14.5708124  52.9183245  36.2810218  13.8237421  51.6200352
   2.4584221  45.9016347   5.0028916   1.7872094  45.2479959   5.1990291
   1.9858955  46.7339826   4.9908038  12.9507506  69.9005747  13.8617957
  13.5092974  70.1538324  13.1268668  13.5536087  69.5210552  14.5011365
   7.1905005  20.0658846  35.9625411   6.4797223  20.6611824  36.2005448
   7.9303336  20.3493667  36.4996791   5.7198870  24.0964723  61.8664885
   6.0784751  23.4459305  61.2627983   5.1487601  24.6388435  61.3225412
  25.9923497   5.5968515  43.5983801  26.6620939   6.1210433  44.0375805
  26.4858026   5.0033657  43.0322456   6.6265129  26.7936731  11.0062571
   6.1898302  26.2187505  10.3777667   6.8043803  27.5952268  10.5142137
  42.3570751  31.5438247  16.7949840  42.4770998  32.2185398  17.4632569
  42.5051903  31.9988037  15.9659549  40.5096208  26.1329341  21.2205335
  41.4365601  25.9574819  21.3824960  40.4916893  26.5495229  20.3589269
   8.1664729  52.1109009   7.0624095   7.2376221  51.8931389   7.1401781
   8.5525429  51.3574409   6.6157740  14.3141949  48.1521082  39.0264773
  14.6415257  47.6484013  38.2812476  13.9622915  48.9531040  38.6381483
  59.2178278  25.3568197   7.7332326  59.4621484  24.5368171   7.3041221
  60.0495260  25.7344318   8.0194493  41.4133215  26.3509345  49.5158291
  42.1023369  26.6532826  50.1074982  41.4785910  25.3962731  49.5401764
  74.0219175  23.7529508  37.9228449  73.4691679  23.5774271  37.1613383
  73.6687958  24.5615903  38.2938337  23.1128097  23.4634185  61.2449026
  22.4052978  23.0363321  60.7619381  23.9130783  23.0785036  60.8876371
   8.7296723  34.5535207  17.2456189   9.3396949  35.1626659  17.6616069
   7.9120754  35.0458789  17.1724673  15.6130683  39.2671418  50.8488941
  15.0148714  38.7001061  50.3622055  15.8831775  39.9310398  50.2144527
  47.8110840   1.1882735  26.5391847  48.2519086   0.3845978  26.2634774
  46.8965467   0.9314609  26.6570779  21.2941647  38.4809780  47.7925825
  21.7724633  37.7023268  47.5076914  21.8143630  38.8301730  48.5162497
  23.6365628  25.9346819  43.3097172  24.2331290  25.2076864  43.1313324
  23.8250971  26.1826658  44.2148066   3.9185941  45.1742792  44.3800449
   4.5007145  45.8771038  44.0912485   3.0413890  45.4795361  44.1486073
  67.1813709  38.1903243  60.1578379  66.6427130  38.0899978  60.9427071
  66.5501428  38.2939458  59.4457674  13.7775910  20.8863997  48.1361914
  12.9946995  20.8657861  47.5858402  14.4043100  20.3229499  47.6823425
  64.7170245   9.6121192  14.4056531  65.3411375   9.9502206  15.0478383
  65.2437376   9.0607191  13.8270684  67.9442322  67.3264584  12.7036496
  68.3309566  66.4526805  12.7601071  68.6743223  67.9227170  12.8700038
  43.1751859   4.1227666  53.7756157  43.4180939   3.7870924  54.6384859
  42.2705054   3.8352148  53.6527348   1.3650929  61.1486086   9.6951505
   0.5270421  61.4494451  10.0464316   1.5637600  60.3566440  10.1947041
  29.6566129  56.3800335  55.8333921  29.2478704  57.2187853  56.0470724
  29.2390180  56.1116934  55.0149536  27.0013046  24.0652108  51.6344309
  26.5637922  23.2476974  51.8721008  27.1311593  24.5183492  52.4675179
   5.6169385  57.9592991  61.4207649   5.1138043  58.5201359  60.8303785
   5.2931756  58.1795311  62.2942114  18.5148764  30.7846880  60.0746870
  17.5988805  30.5071020  60.0860691  19.0062189  29.9990845  60.3147745
  19.4691490   9.3060518   4.6720906  20.0026726   8.5727716   4.3656751
  18.7436794   8.8945842   5.1417943  51.5234804  25.8269286  21.5417266
  50.8941221  26.1003661  20.8743644  51.3503432  24.8937821  21.6661978
  12.0309687  57.6573372  27.1212149  12.1364248  57.7419329  26.1736083
  11.2791967  58.2122135  27.3290229  39.9492525  29.8404718  18.2070180
  40.4313170  30.0854421  17.4171897  39.1794573  30.4093624  18.2038995
  48.8681566  55.5535444  13.2824870  49.4306051  54.8744270  12.9100867
  49.3480908  55.8686146  14.0484019  28.0123174  58.2983025  16.3298293
  27.8888407  57.3662671  16.5095349  27.6059974  58.7416920  17.0745059
  56.8440484  55.5047059  31.3154145  56.3081466  55.9028268  32.0013734
  56.3804900  54.6991086  31.0865994  16.7929912  44.0162897  59.3264055
  17.1882272  43.2914972  59.8108673  16.1853886  44.4168663  59.9481726
  37.9596352   1.0103218  44.0452385  37.2933435   0.4225246  43.6891747
  37.6936674   1.1514369  44.9538517  52.7302885  54.9075270  23.2790780
  52.3389006  55.3614569  24.0253973  52.4460030  55.4112673  22.5164127
  15.0607395  42.4221945  54.9058628  14.2523253  42.9149055  55.0470495
  15.5073011  42.8915071  54.2011929  51.8056786  54.0153333   5.6715318
  51.4829432  54.1652390   6.5601273  51.3573324  54.6729275   5.1397534
  49.9737942   4.0386096  44.7580576  49.2453753   3.5576335  44.3652391
  49.6008360   4.4384376  45.5437231  38.7542938  14.5996309  20.3161927
  38.6623119  14.7824645  21.2512608  39.5108997  14.0160442  20.2595445
  28.3700507  17.6119749  57.2694588  28.8815382  18.2475416  56.7687988
  28.4565076  17.8980104  58.1788206  66.8495320  25.6234765   8.7639781
  66.5499758  24.7957158   9.1398831  67.8006338  25.5310130   8.7084075
  49.1623068  50.4141617  61.4839363  48.5791969  49.9893999  60.8548164
  49.9944639  50.5003786  61.0188437   6.6088468  20.4752541  40.5486631
   7.4016088  20.7849026  40.9867001   6.7449385  19.5334995  40.4447031
  16.0536646  17.3594976  19.3213769  15.7431196  17.9829765  18.6648198
  15.3049778  16.7841030  19.4782849  55.7574641  10.6336570  14.9754878
  54.8989062  10.9977603  15.1912185  56.0928874  10.3015495  15.8082124
  69.5774376  63.9806661   0.4325219  69.7641861  63.0703887   0.2028438
  68.7876808  64.1957148  -0.0637321  75.0123449  55.9358740  57.3646736
  74.8539174  54.9933529  57.3119020  74.1868344  56.2999773  57.6843500
  55.6639171  71.1145353  33.7468767  54.9621105  70.9520197  33.1165695
  55.9995675  71.9800997  33.5137033  41.4546347  48.9109468  59.4609976
  42.1297932  49.1358519  60.1011658  41.1620617  49.7541857  59.1151953
  51.3647377   5.7457248  28.6767006  50.7407820   6.4642135  28.5733271
  52.0497095   6.1028139  29.2419720  23.6148643  53.2412100  47.0360851
  23.3453417  53.3365679  46.1225748  23.0556679  52.5442553  47.3792839
  53.4743130  57.6663503  16.9169351  53.1033337  58.5280618  16.7270394
  54.3667519  57.7088150  16.5734549  18.4382927  64.2686510  45.4170084
  18.2680631  63.4635925  44.9279976  18.1186187  64.0845156  46.3002634
  35.1986145   5.4365898  21.2061234  35.6448101   5.5492330  22.0454331
  35.8062242   4.9170661  20.6796761  67.2057413  26.9223953  32.5451871
  67.1853935  27.8793216  32.5349542  66.4188956  26.6712547  33.0289575
  72.6776337  23.1110120  28.2530328  73.2912396  22.9010845  28.9570638
  72.5608801  22.2853971  27.7829667  71.5679323  62.6065453   5.4554482
  70.9036457  63.2952293   5.4812499  71.4124691  62.0939716   6.2487527
  53.4777825  32.5181556  24.1234513  53.3058934  31.6018653  24.3404790
  54.0407248  32.4796272  23.3502503  56.6978758  20.0286174  41.1184998
  56.4193641  20.2673984  42.0026036  56.1493598  19.2784953  40.8889790
  19.3311428  66.6424108  12.7016946  19.6913551  65.8951307  12.2241517
  18.3845734  66.5718580  12.5781747  14.5063518  41.4814496  -0.0636891
  14.6680998  41.8185640   0.8174582  13.9301776  40.7288385   0.0698348
   3.8185967  47.9800137  51.2570620   3.2014740  48.7116560  51.2666178
   4.4741309  48.2281073  50.6051779  41.1037838  12.4646703  59.0169477
  40.5192887  12.0751707  58.3666515  41.8034946  12.8649751  58.5008144
   9.9320161  19.3240301  39.0667367   9.2404031  18.7296907  39.3576956
  10.3449463  18.8697378  38.3323383  63.7013947  45.4945684  39.7463818
  63.8206529  45.1598478  38.8575860  64.4100045  45.0942064  40.2501794
  20.9183264  42.4928951  50.5697870  21.3850689  41.6937876  50.8143473
  21.6104627  43.1306219  50.3952026  58.2385986   8.7473369  14.1908236
  58.9144443   8.2019544  13.7883016  58.2314955   9.5470691  13.6648866
  16.2549865  27.6801443  58.0067873  15.7608438  28.4682131  58.2326269
  16.8341970  27.9559922  57.2963953  17.5173448   4.4024444  10.7580205
  17.2291969   4.0352106  11.5936919  18.0805086   5.1373744  11.0008260
  32.7588867  23.8321662   9.9306508  33.6870073  23.6097265  10.0037976
  32.6748728  24.6649671  10.3949996  69.0976190   7.6229072  22.9215070
  68.3616637   8.1934238  23.1431123  69.2953133   7.8308034  22.0083066
  69.2830967   2.7235866   8.4167310  68.4840523   3.0143690   7.9771777
  69.7576498   2.2291017   7.7485152  35.8116912   6.1164037  52.2700834
  35.2669030   6.3923398  53.0071688  35.5893599   6.7261020  51.5664721
  60.3185236   0.4201118  33.3909130  60.2556788   0.8201353  32.5235796
  59.4230997   0.1510993  33.5960507  65.6507325  54.9698734  46.1147928
  65.4768026  54.1634941  45.6292677  65.2667272  54.8171568  46.9781876
  30.5253290   1.6385937  36.1116715  30.6387328   1.1217142  36.9092961
  30.6507098   2.5447011  36.3935967  16.2942289  48.9905286   5.0442239
  16.8923973  49.5778203   5.5062982  16.1562132  49.4092203   4.1945859
   4.1176584  58.2959127  32.2838449   4.2463082  57.4493361  32.7116203
   4.1195318  58.9295387  33.0013037  36.8992543  52.9626274  58.8684464
  36.4433193  53.6647415  59.3325520  36.2793732  52.6772499  58.1972218
  -0.3264857  20.3231168  15.7833119   0.0118135  19.4309402  15.7071372
   0.4050731  20.8801866  15.5173655  42.6544993   4.0817881   7.3647519
  43.0663072   3.2232142   7.4622031  41.7958157   3.9836502   7.7761670
  68.5678541   5.3123689  11.8061133  68.1291794   6.1032701  11.4926406
  69.1211366   5.6148076  12.5262805  39.7743666  49.7490629   9.4072743
  38.9923572  49.8487815   8.8643619  40.1158726  48.8845226   9.1788503
  47.4131962   5.3642822  22.9807588  47.7682989   4.7078681  23.5801431
  48.1838207   5.8142257  22.6344701   4.3701338  27.2426677  29.6279641
   5.2284931  27.4025846  30.0202294   4.5647954  26.9395137  28.7411519
  12.5979566  26.3701988   8.1758805  13.4848880  26.3570905   8.5356160
  12.2885322  27.2621084   8.3339711  70.1707375  25.9341184  47.8591776
  70.7111656  25.3003828  47.3874426  70.3940832  25.8006612  48.7803411
  34.2151428  69.9272714  55.8309698  33.5551203  70.4782102  56.2517643
  34.3472052  69.2025397  56.4421606  27.2866082  50.1000834  34.4340301
  27.8255939  50.1593828  35.2228332  26.9445801  50.9855223  34.3105316
  43.5789633  55.8325100  58.4494162  42.8080750  55.5936670  58.9641142
  43.2467794  55.9453535  57.5588226  33.8430476  63.9439869  53.2921696
  34.2443323  64.3399477  52.5185919  32.9115582  64.1484594  53.2099915
   9.8682403  13.7218690  17.1533795  10.6486367  14.2413974  16.9602319
  10.1934456  12.9836536  17.6686593  17.7318704  42.3768091  49.9723196
  17.7998281  41.5268135  49.5374346  18.0104113  42.2082615  50.8724499
  43.5028391  21.2137533  17.4092742  44.0137552  21.2108350  16.5998383
  43.2028752  22.1182084  17.4999114  52.1916914  29.9460006  46.6317272
  51.5434408  30.0137687  45.9307194  53.0215073  29.8005033  46.1773396
   2.1710634  55.9239483  37.7887225   1.6705084  55.9677362  38.6034369
   1.9997883  55.0454903  37.4493027  44.3535017   8.7531225  35.5177832
  43.8081586   9.1037027  36.2220049  44.9293482   9.4788019  35.2769017
  55.3182089   0.5427114  52.6167250  54.4449436   0.9124557  52.7468491
  55.1907932  -0.4033001  52.6878452   0.7642804  67.3767281  34.6777105
   0.5966219  68.1772327  34.1804028   1.5863645  67.0406914  34.3206549
  51.9206144  16.3813901   7.7027818  51.8968411  15.4338670   7.8364726
  52.2239885  16.4885354   6.8012782   7.6182890  63.9131069  19.1795588
   8.4475702  64.2985010  18.8967180   7.4923021  63.1629181  18.5985458
  42.6212834  33.7220979  21.3397237  41.8090801  34.0198875  21.7494508
  43.0056428  33.1216836  21.9784757  36.6580211  44.2193199   1.4363357
  36.1972665  45.0426221   1.5979119  37.2357999  44.4092679   0.6971951
  21.7704700   5.4535079  23.0142995  21.5100025   6.3499713  22.8027554
  22.0396875   5.0781608  22.1759244  10.9595298  13.5123197  40.4344940
  10.5876791  12.7298872  40.0273657  10.5307757  14.2418806  39.9871135
  10.9276247  44.2631569  12.8704472  11.5257108  43.5846570  12.5571414
  11.4942228  45.0084498  13.0697890  68.5330302  57.2150135  28.2256126
  68.5975945  58.1690979  28.1833482  68.9849430  56.9092989  27.4391365
  71.8858099  37.2909331  55.6912327  71.2440118  37.5586843  56.3489819
  71.9280359  38.0291486  55.0833750  74.2390838  35.5872726  43.7802410
  74.7407769  35.9168148  44.5258522  73.4586209  35.1947165  44.1714048
  58.7258101  55.6789827  54.6693802  59.4959569  55.2406645  55.0312948
  57.9955685  55.1005077  54.8892593  17.3151088  44.6352148  53.7809610
  17.9632330  44.0563631  53.3795881  17.2546136  45.3791094  53.1816292
  12.2513735  59.7874975  50.1735067  12.2065628  59.3559933  49.3202639
  13.1237876  60.1806211  50.1975727  54.7296655  63.5716542   7.7507325
  54.1188037  62.8348764   7.7661582  54.1692054  64.3476018   7.7557488
  58.9438713  52.1388006  55.9207010  59.8886812  52.2572231  55.8230114
  58.5789108  52.4234438  55.0828409  71.4310550   8.8117576  18.4894677
  71.7751287   9.3827129  17.8025552  70.5547761   9.1530729  18.6679955
  64.8645221  11.6636920  25.9556790  65.0847124  11.4251638  26.8561574
  65.5792843  12.2366500  25.6780740  42.7457368   0.5214588  38.5961938
  43.1472694  -0.1189002  39.1835141  42.7654016   1.3425962  39.0876961
  46.9714068   2.3920155  22.5587960  47.6466741   2.1392060  21.9292375
  47.4581554   2.7486468  23.3018418   6.6011304  44.8337841  51.1267805
   7.2686690  45.3271151  50.6500769   7.0945996  44.1803265  51.6224766
  39.5596790  61.9952011  20.3346300  38.8091588  62.1688271  20.9027910
  40.3211451  62.0990372  20.9052587  16.9645441  53.6200619  27.7374196
  17.3834229  53.2294273  28.5043478  16.3094127  54.2163467  28.1000185
  74.2080845  64.9080944  17.3545730  74.5886566  65.5804014  16.7894185
  73.4192015  64.6250057  16.8922377  14.2909550  25.7127643   2.5328608
  15.2042507  25.9407497   2.3592158  14.3334388  25.0890994   3.2577487
  33.8537908  60.6322718  53.9160299  33.6739373  61.1954641  53.1632376
  34.5722008  60.0692511  53.6277199  52.7591278  23.4017444   3.1028815
  52.2890313  22.7386690   3.6084290  52.2373513  24.1973520   3.2077189
  71.2674406  35.0390315  42.1350431  71.0992897  35.8130884  42.6724386
  72.1090975  34.7080326  42.4485493  66.4570581  12.8727508  15.6926223
  66.6066955  12.7144933  14.7605296  65.7097267  12.3167301  15.9130164
  73.4576892  59.6951700  11.7342874  74.1574000  59.7751260  12.3825475
  73.4068464  60.5607248  11.3287469  28.5824608  23.3567691   9.7574254
  28.4489702  24.0766311  10.3740378  28.2887863  22.5783611  10.2307912
  42.5125217  54.2583990  53.8260937  42.8416824  54.6231222  53.0045938
  42.5318336  54.9932528  54.4391632  15.4782200  55.9244680  54.4848204
  15.2694046  55.0727177  54.1012192  16.3628554  55.8190918  54.8348904
  72.3970484   1.5410734  15.9302350  72.5069832   0.5923701  15.8661576
  72.9298829   1.8926502  15.2169963  31.7089367  68.6074066  46.5114927
  31.8932295  68.5953856  47.4507093  32.5688481  68.6925459  46.0997534
  13.1814073  18.7551046  19.4187661  13.3610796  17.9238677  19.8580666
  12.2948860  18.9859605  19.6962853  67.9538213   2.6782513  17.1866532
  68.7244092   3.0860663  16.7915460  67.8058087   3.1752587  17.9912110
  35.3388691  66.5063667  36.2426257  34.8009014  66.8820429  35.5457091
  34.7435975  66.4262772  36.9879222  36.9785403  12.5526309  17.1288272
  36.9050394  12.6948095  16.1850997  36.0875510  12.6690698  17.4586936
  41.1613821  45.9154304  31.5012284  41.4354336  46.8236228  31.3735028
  40.5188393  45.9565004  32.2095223  14.6339643  61.4721394  34.8217893
  15.2213848  62.2056293  34.6396899  14.5703006  61.0039043  33.9893651
  11.4722012  45.0533510  28.2022496  12.2565864  45.6018091  28.2147141
  11.1923717  45.0563550  27.2868653  11.3665485  63.8508081  58.8726950
  10.8501160  63.0770111  59.0980101  12.0031106  63.9291430  59.5832491
   2.4324762  16.7195550  40.4245043   2.0151579  17.5674955  40.2726316
   2.3188793  16.2457124  39.6006107  56.5993023  67.9048824  58.4746790
  56.0184526  68.6231184  58.7256479  56.0081339  67.1891165  58.2413769
  27.3316264  23.3425808  27.6096010  26.9033360  23.6569977  28.4058046
  28.0297494  23.9768696  27.4467111   3.6432337  29.7499776   9.4848653
   2.9025697  30.2408100   9.1288730   3.3105587  28.8589216   9.5924588
  26.4302588  10.9873605  40.4886198  25.7704878  11.0677516  39.7997999
  27.2667670  11.0470581  40.0271845  73.8145446  37.7111507  15.8080645
  73.7579798  38.2747484  16.5796824  74.7305082  37.4346471  15.7800599
   5.5921316  43.8932323  42.5942326   4.8969549  44.2072916  43.1724453
   6.2632191  44.5745945  42.6344919   1.6389297  13.2613683   9.3205853
   0.9136723  13.0546117   8.7311049   2.1069907  12.4328685   9.4242259
  26.8050432  64.9546909  46.5353251  27.2441030  65.5951881  47.0949888
  25.8939433  65.2467155  46.5062428  61.1911833  70.2573442  49.4196081
  61.5486991  70.2066183  50.3060865  61.9514310  70.4301214  48.8642693
  26.4575397  15.3861276  59.8372126  26.7968434  15.2542440  58.9519358
  27.2320926  15.3498785  60.3984499  15.7356179  33.9848232  24.4686294
  16.4937150  33.6025882  24.0265703  15.1798165  33.2353401  24.6821499
  17.7505279  39.9883270  48.5730791  18.2493806  39.4753838  49.2088938
  17.1464074  39.3591332  48.1788874  12.5079131  33.0739784  50.4253626
  12.6817131  33.2091045  51.3569021  13.3599508  33.1865788  50.0039530
  44.4650316  49.9856043  57.2387743  44.6514845  50.1794338  56.3201380
  44.7301579  49.0725422  57.3495007  44.5129215  60.8078894  49.9838944
  44.0546786  61.6283735  49.8021050  44.8809492  60.9279736  50.8593198
  35.7458280  10.4958654  29.3611451  36.6236102  10.8093191  29.1432591
  35.3263592  10.3497339  28.5132523  57.3458778  30.1777784  39.6877551
  56.7786705  30.1707403  38.9167428  56.9900000  30.8734647  40.2405643
  32.5905538  29.6707773  57.6581860  33.4432006  29.3744564  57.9766512
  32.6224780  29.5208645  56.7133379  73.5954808  32.3136306  51.1122342
  73.7918090  33.1277490  51.5758058  73.3706974  32.5917936  50.2243539
  25.9053158  28.9824605   2.7453633  26.1121344  29.5632005   2.0131131
  25.1330732  28.4969449   2.4552794  15.0427889  27.6738048   6.2819501
  15.9016441  27.3376537   6.5380832  15.0912212  28.6134839   6.4577027
  65.4061508  44.7507286  59.4021368  65.1377249  44.1500187  58.7069225
  65.4980421  44.1953516  60.1763105  13.8147568  25.6662631  32.3825856
  14.6951651  25.3261209  32.5420018  13.4001779  25.0065971  31.8265363
  14.6638584  53.4246349  53.8944340  14.4234669  53.1881952  54.7902822
  14.8814237  52.5912142  53.4769344  72.1043894  48.0917168  27.5094247
  72.5505847  48.5388088  28.2286239  72.2845835  47.1631432  27.6561093
  64.5224273  61.3680705   8.0981370  64.5248186  62.2690519   7.7749368
  63.6945378  61.0035428   7.7851697  43.4501934  40.2373743  52.0359039
  42.6226377  39.9644589  51.6397953  43.8398361  39.4253945  52.3600912
  15.6783938  38.1803870  48.0421019  15.5123889  37.2966599  48.3702803
  15.0975728  38.2682657  47.2863531  59.9976635  53.4068823  52.0511818
  59.8822737  54.1403294  51.4470482  59.2429209  53.4586096  52.6376295
   2.0463919  18.7364936   4.6047517   2.2771453  19.1627527   5.4301520
   1.2704395  19.2073608   4.3007537  66.7281341  42.9573989  26.8247624
  67.0467578  42.5438238  26.0224744  67.2784292  43.7336469  26.9289227
  22.2519373  33.7382675  14.6436950  21.4062141  33.3825183  14.3708869
  22.1437811  34.6873212  14.5817586  58.6902201   9.9698583  52.5063467
  58.3745634   9.3309823  51.8672562  58.1317222   9.8382322  53.2725000
  20.1719785  51.4987707  61.2030268  21.0563755  51.2694883  61.4885187
  20.0548244  51.0229492  60.3807735  22.9245424  57.9850149  38.4701848
  22.3313141  58.4732962  39.0410566  23.5600710  57.5898552  39.0669966
  30.0551105  63.4969091  51.5050507  30.2155948  64.4336605  51.6189671
  29.1036868  63.4244013  51.4291096  50.6006062  66.8759283   6.9681092
  50.8555018  67.7985605   6.9713279  49.7950851  66.8481811   7.4844380
  20.6171202   9.3017698  25.1651593  21.2425445  10.0137544  25.2998944
  20.6619548   9.1179538  24.2268392   6.8557452  27.5518060  15.9076520
   6.3581299  27.6103187  15.0920602   7.4234961  26.7905498  15.7877322
  37.1533346   4.1857568  48.8593054  37.6861810   4.9335042  48.5887909
  37.1295797   4.2416707  49.8145723  35.7093525  53.5858870  47.5251913
  35.3126931  54.3014097  48.0221033  35.2442002  52.8029394  47.8199100
  73.9507532  51.9777155  57.1555424  73.2897520  51.7306232  56.5088177
  74.7569036  52.0753908  56.6487789  55.3598010   8.0406467  58.3400965
  55.3716719   8.8092081  58.9105368  54.4310200   7.8814594  58.1720018
  27.7939177  49.3984127  55.2753115  28.1773210  48.5934448  55.6235266
  26.9012570  49.4074678  55.6207180  12.4054050  64.3160200  56.4076710
  11.9961619  64.1902685  57.2637892  12.5926685  63.4294605  56.0991716
  68.5034059   2.7817178  29.2242165  67.7094292   2.4351693  29.6313210
  68.5619580   3.6826587  29.5421906   9.4624518  45.7802034  11.1162826
   9.8716115  45.2024293  11.7604848   8.5358261  45.7882333  11.3561412
  15.4950916   2.4900714  47.6902723  15.0630533   3.2717220  48.0346537
  15.6139481   1.9258443  48.4543133  46.3275766  56.7202425  51.5357494
  45.7401562  57.1858692  52.1310282  46.7650080  57.4128199  51.0405445
  44.3261480  68.3638859  60.6843042  45.0416231  68.5615969  61.2886524
  44.4061470  67.4247313  60.5174828  61.0164558  43.7853837  37.6924439
  61.4406752  43.1832815  37.0811006  61.1703264  43.3991361  38.5546323
  13.3311425   5.2828090  38.7163850  14.1524254   5.6767718  38.4222337
  13.4218977   4.3537013  38.5048123  68.8666498   4.4612447  53.8485527
  68.1134426   4.4417469  54.4389200  68.5023891   4.2515747  52.9885626
  39.3224573  49.4541454  57.4545860  39.4103408  48.5349369  57.2024775
  39.6205163  49.9425220  56.6872025  23.8124918  67.1133352   8.3835908
  23.7776112  66.8054700   9.2892619  23.0795454  67.7245736   8.3099957
  31.5172266  22.0461345   4.2893382  31.8965076  21.3907457   3.7038108
  32.2468816  22.6279188   4.5023271  59.9374961  32.4881196   6.0780068
  60.6693362  32.2592616   5.5050631  59.5833348  31.6455293   6.3623353
  19.9746870  49.4322324   5.6513568  20.7174801  49.9368120   5.9828492
  19.2064260  49.8615289   6.0277959  48.8802004  36.9525957  50.3316402
  49.4231701  37.5657988  50.8270168  47.9817033  37.2306108  50.5095196
  19.8451281  67.5469112  52.8779602  19.3892741  67.9301405  52.1285868
  19.1805291  67.5023413  53.5653877  28.4291267  69.8709536  53.7398148
  29.0186620  69.3093872  54.2431259  28.3737111  69.4514942  52.8812027
  15.3240383  47.8417778  60.7334614  15.2737558  46.9458103  61.0665512
  14.9841964  47.7847385  59.8404408   2.5765430  21.4733163  43.3717299
   2.3815548  21.4031545  44.3062258   3.4365045  21.0642187  43.2751179
  38.1493592  67.0776749  50.4367971  38.7362003  67.1611404  51.1883831
  37.4520397  67.7112293  50.6058741  28.0014633  47.4317384   7.4720403
  27.0626949  47.6182866   7.4840995  28.3252357  47.8825307   6.6921731
  68.5249721  17.3255897  22.1904202  68.3448659  17.6353193  21.3028069
  69.3913459  17.6770807  22.3955651   3.9747809  16.3958812   7.1744843
   3.8310932  15.6024194   6.6587277   4.8194813  16.2540889   7.6018067
  26.6023261  16.2217752  34.5230031  26.9270230  15.3374902  34.6928334
  27.3928812  16.7515317  34.4200087  58.4081375   3.1609909  17.2346854
  58.1111037   3.5790006  16.4264357  57.7632248   2.4731533  17.3996067
  30.9447902   4.7475854  52.2361422  31.1179703   5.6680862  52.4334192
  31.6927647   4.4712965  51.7065859  48.5194372  59.4954420   2.0775004
  48.3252357  59.5742154   1.1435243  48.6846422  60.3935838   2.3643657
   7.3172766  60.4083300  53.9798355   7.5550807  59.4832516  54.0423346
   6.4761585  60.4705238  54.4324732  64.3848276  59.5430088  35.6872225
  64.4289684  58.9280701  34.9550104  65.2574015  59.9347973  35.7238960
  70.0949274  40.9980655  -0.3069333  70.7832288  41.6056991  -0.0362805
  69.5158492  40.9382749   0.4528876  33.5395217  51.6388083  43.3787775
  33.9711547  50.7885504  43.2952023  32.6864672  51.4375734  43.7635279
  22.9499744  21.9513822   0.1492616  23.4196113  21.1875272  -0.1857070
  22.0353578  21.6718412   0.1888152   6.2388324  35.4768873  21.0102960
   6.7495798  36.2700296  20.8481427   6.3776277  34.9390769  20.2307244
  11.9097589  50.7467199   4.3757220  12.1925711  51.2806344   5.1181432
  10.9536456  50.7790971   4.4078561  14.6758937  41.9751382   2.5891610
  15.1369594  42.8132034   2.6251717  15.1049827  41.4369274   3.2543250
  62.1325075   3.9732004  23.3067819  63.0243133   3.6254764  23.3081075
  62.0869266   4.5186115  24.0920754  62.6207649  39.1417385   1.6568824
  63.5531007  39.2951131   1.8100425  62.5527619  38.1967855   1.5202495
  20.5791973  24.6410251  42.3359033  20.1884579  25.1469303  43.0483743
  21.3570713  25.1399446  42.0864602  65.4110991  65.2142835   5.3082629
  66.0462533  65.2989698   4.5971795  64.5712470  65.0912214   4.8658439
  59.9508135  22.7037073   6.0442086  60.4192190  22.1264482   5.4412146
  59.4646220  23.3005739   5.4753467  16.4434540   5.5231801  43.6252403
  16.7406094   4.6819345  43.9719963  15.5593168   5.3500978  43.3018541
  23.5712408   5.1439309  31.1190434  24.3101715   4.7557617  30.6504937
  23.1162380   5.6660056  30.4582520  45.5665827  58.0718756  41.5986586
  46.1657047  58.2820845  42.3149681  45.6661701  57.1283054  41.4722013
  46.5393769   8.0709688  52.1581030  46.6495597   7.8737489  53.0882597
  45.6109774   7.9118339  51.9878578  27.4396200   9.7096578  37.3943472
  28.1781893   9.2362157  37.0114660  27.7628017  10.6029359  37.5119710
  55.7011878  15.6376592  37.7790618  55.4842221  15.8731595  36.8770123
  55.1496708  14.8783819  37.9676414  55.1982852  23.6702991   1.8221208
  55.2706703  24.6247411   1.8274852  54.4650718  23.4824062   2.4080630
  10.5432856  68.4331608  29.0477467  10.2994692  67.5207663  29.2036843
  11.0341716  68.4128571  28.2262540  66.3901102   2.6998496   7.8278418
  65.4421638   2.6099515   7.7301284  66.4989351   3.3066392   8.5600968
  75.4363774  32.8096080  28.8951131  75.5850433  31.9210887  28.5715981
  74.7426080  32.7139736  29.5476170  33.4596181  56.8697596  35.4902935
  33.1521678  56.1260557  36.0085678  33.9560366  57.4045420  36.1098146
   1.7555630  10.6435338  42.0847273   1.1278974  10.1119939  42.5743628
   2.0062696  11.3389532  42.6928043   8.6429285  50.7000280  27.6009389
   8.9116334  51.5763402  27.8768178   9.3527149  50.1285386  27.8939076
  61.8412863  54.2141652  27.9728528  60.9508490  54.2286897  28.3237668
  61.7376958  53.9166284  27.0689889  48.6078656  28.2714725  11.5467616
  47.9700886  27.9063392  10.9334489  49.2181099  28.7605405  10.9948131
   9.6512221  43.1110216  16.0291501   8.7596368  43.4512639  15.9546920
  10.0920319  43.7216115  16.6199895  31.4857363  44.7254014  22.2124215
  31.7110227  45.6238675  21.9711038  32.2984671  44.3604684  22.5624581
  25.6766056  34.5882297   7.7198335  26.4838766  35.1023460   7.7046557
  25.5798267  34.2677951   6.8230649  61.8068683   0.5702392  56.9091415
  61.1563503  -0.1133688  56.7487097  61.2915217   1.3378469  57.1569777
  30.2358936  29.3120981  17.7171775  30.7143330  28.4831262  17.7055331
  30.6723665  29.8498464  17.0564624  49.8296964   1.5920583  41.0287428
  50.4960286   2.2626487  41.1788750  49.1791570   1.7430631  41.7144728
  57.9938698  41.2571096  18.7333536  58.5853863  40.5047035  18.7184632
  58.0972767  41.6257477  19.6106493   0.9474038  30.9309078  13.7382670
   1.5528511  30.9460283  14.4795104   0.3041123  31.6102338  13.9405604
  26.9319916  53.1561518  56.9243193  27.6941442  53.6522865  56.6256428
  27.2952008  52.3334312  57.2521019  52.3697901  52.9955673  53.9245653
  51.7946577  52.8443241  53.1745100  52.4573946  53.9476156  53.9710712
  39.5528030  67.2846317  52.9721594  40.0443411  66.5150690  53.2592154
  39.9736071  68.0184269  53.4201574   6.6179704   0.9758711  19.2344209
   5.8768248   0.6867814  19.7667333   7.3879455   0.6404376  19.6936055
   7.4975275  26.8648696   4.4869300   7.5294899  26.9926858   5.4350205
   6.5652107  26.7779899   4.2882605  49.7317766  70.6388021  16.1838313
  50.1533817  70.9104371  16.9991227  50.1905655  71.1294389  15.5019113
  20.3989529  48.2006956  48.8122006  20.0549482  48.1639600  49.7046967
  21.3457941  48.1065584  48.9164086  61.0298168  21.0887409   4.0263482
  61.5431045  20.9328723   3.2335874  60.2598899  20.5287385   3.9271422
  14.7037934  17.0052314   9.0675994  14.9131464  17.3949600   8.2187720
  15.5539106  16.7700601   9.4393845   1.5602266   0.4157583  52.7216625
   2.1890032  -0.3030833  52.6573181   1.5173971   0.7764951  51.8360758
  47.5880181   4.2294685  29.5115161  47.4040687   3.2901184  29.5151472
  47.4380671   4.4993917  28.6054873  73.9920759  53.0705452  42.6329374
  74.7854376  53.6032963  42.6875877  74.3110180  52.1686506  42.5998020
   4.7146748   4.4943023  11.8983527   4.2248534   3.7771225  12.3007937
   5.4321574   4.0633202  11.4339086  26.7741798  43.1768251   3.3877774
  26.6994261  43.9475799   3.9504310  26.2187647  43.3757615   2.6340075
  57.2295796  21.7690698  39.0461373  57.0524680  21.3028280  39.8631334
  56.3633120  21.9859067  38.7014747  22.5081371  35.1941991   4.7876712
  22.0238232  35.3064227   5.6056472  23.2726787  34.6724868   5.0316401
  51.0606156  37.9446960   9.7645970  50.8293292  38.2762885  10.6322261
  50.4075769  38.3286930   9.1795178  21.2379467   1.4794437  47.5983381
  21.1666738   1.8884651  48.4608078  21.3213503   2.2144453  46.9908428
   7.6178526  13.3919835   9.1803571   7.0130371  12.6546502   9.0980788
   7.6112412  13.6041904  10.1137134   2.8963374  37.5464845   6.8278285
   3.2033013  37.8982091   5.9921857   3.6935877  37.4224782   7.3428460
   3.0145453   5.0907207  44.4658395   3.0706428   5.2697444  43.5272046
   2.7010631   5.9105564  44.8477193  17.9213928  13.4147001  -0.1317052
  18.6242699  13.5546422   0.5028125  17.2451805  14.0448499   0.1170607
  72.9058718  37.4308849  22.8891679  72.1534752  37.1459985  22.3705502
  72.9776477  38.3687854  22.7118989  28.4425402  48.8378716  49.6798801
  27.5609994  49.2087364  49.7196150  28.9522171  49.3653011  50.2949286
  22.8045105  33.6512924   2.3515721  22.4686264  32.8560186   2.7650424
  22.8501581  34.2901349   3.0629273  15.7388376  50.8828855   3.2588406
  14.8833918  50.9273458   2.8316756  15.8949398  51.7725873   3.5755416
   8.0885171  24.4280553  31.4168282   7.8924679  23.5250926  31.6667481
   8.3981108  24.8382450  32.2243710   1.8774365  41.5311122  26.9660684
   1.8377828  42.4852825  27.0310422   1.0964703  41.2923837  26.4667340
  27.2900367  66.6478109   9.4754285  27.2951937  66.6360760   8.5183144
  28.1993937  66.8227291   9.7177166  64.6503341  20.0917188  29.7345138
  64.2763745  20.9687082  29.8198843  64.1885745  19.5695440  30.3905153
  64.1704093  18.4160638  27.3288461  64.5304452  18.4804082  28.2134171
  63.7419843  19.2594648  27.1826955  37.9726290  15.0618911   3.3422442
  37.7627205  14.2804218   2.8308936  37.2206472  15.6403566   3.2152387
  56.6677952  39.3759394  28.4372878  55.8912277  38.8181233  28.4821701
  57.0124865  39.3789196  29.3302655   5.6132602  63.7551332   9.2324277
   5.7457661  63.8710618   8.2915564   4.9133395  64.3696142   9.4532367
   6.7629837  44.2941785   5.4759522   6.7176722  43.3781171   5.7498332
   6.0285520  44.7145296   5.9233304  19.3127750  55.7726694   6.6995450
  20.1875423  56.0022951   7.0130416  18.7178062  56.2371850   7.2881623
  41.9966793  55.7833004   6.7822927  41.2475586  55.2699852   7.0848876
  42.2902632  55.3341961   5.9896123  23.0273199  65.2613115  60.6950569
  23.9422297  65.3355503  60.9664631  23.0617023  65.2460623  59.7385979
  45.3668927  16.6260171   1.9431754  45.0985437  16.4835716   1.0354730
  45.3900414  17.5780797   2.0394917  14.3283796  50.1737309  54.6921825
  14.3383896  50.8959866  55.3202581  13.4050357  49.9319887  54.6198702
  72.9427849  42.8969774  13.2026903  73.5953794  42.6843223  12.5355093
  72.9387842  42.1370086  13.7846319  68.3503329  23.7417341  22.0286961
  68.9577245  23.3848882  22.6767465  67.5620126  23.9516855  22.5294038
  15.7716680  59.3621588  18.1067300  15.5693722  59.7099924  17.2382152
  14.9480319  59.4299650  18.5896981   7.2449929  33.3059335  37.3159099
   7.8354019  33.1187677  38.0457163   6.5887064  33.8973355  37.6843739
  24.2521453  42.2890472  58.3625269  24.0662003  41.3563585  58.2541132
  25.0098085  42.4491978  57.7999163  53.4935867  66.8113216  29.0846082
  54.1101801  67.0567926  28.3948346  53.4373891  67.5869163  29.6427556
   6.7787408  19.5188022  30.6674691   7.0715546  20.2577377  30.1341172
   5.8581923  19.4033122  30.4319211  14.4973385  26.0157243  59.6863842
  13.6631739  26.4287321  59.4631720  15.1199781  26.3773004  59.0556574
  17.5775421  64.9028206  38.3918548  18.4995139  64.8571205  38.6450553
  17.5852120  64.8010683  37.4401093  25.6393694  18.2708717  29.7778054
  25.4351734  17.3631311  29.5529862  25.8486961  18.2451034  30.7114812
  50.0370216  60.6463623  55.6575871  49.6835613  60.0834990  56.3464069
  50.7614708  61.1111879  56.0763264  37.4858308  59.1400099  61.5567541
  36.8204665  59.4877100  62.1505737  38.1969118  59.7797680  61.5928268
  71.4147686   6.1583162  14.5521565  71.4756893   6.6076208  15.3951569
  71.9807624   6.6646076  13.9694472  23.3097792  59.9599552  14.2319691
  23.8892698  59.2300558  14.0136325  23.7935090  60.7396507  13.9593697
  43.2978106  44.4005299  43.5236073  43.7426043  43.6741590  43.0868244
  42.9928064  44.9592495  42.8087378   8.7676054  42.9546642  51.5938139
   9.1222763  42.7214003  50.7358932   8.5430253  42.1157360  51.9963026
  59.6915262  15.9339071   8.6946746  59.0992265  15.3417278   9.1580697
  59.2917262  16.7980218   8.7931796  10.5659579  14.3901945  36.4926167
  10.0453590  14.8647952  37.1406671  10.5352448  14.9412847  35.7105752
  18.0438351  64.7257448   7.4628516  18.9079641  64.8217225   7.0624801
  17.7594589  63.8471246   7.2110578  20.7290338  56.7126298   4.1574403
  19.9709820  56.3218046   4.5920058  21.1689733  55.9753442   3.7342330
  23.6646055  62.0519472  39.0941831  24.3509840  61.4180494  38.8861295
  23.3242582  62.3247362  38.2421323  54.0720298  16.1343313  17.9081317
  54.4089561  16.0272384  18.7976476  53.2703083  15.6116605  17.8911420
  68.0855227  61.7373657  56.0398436  68.7724972  62.2643328  55.6316710
  67.2778130  62.0263624  55.6152058   8.8479208   6.1925483  23.7911244
   8.5509371   5.4040647  23.3368894   8.1908225   6.3387895  24.4716092
  52.2868049   3.2329408  23.0416274  51.6288578   3.5648147  23.6525273
  52.9730856   2.8709117  23.6021519  47.3981392   9.1496316  29.8991537
  47.4312484   8.8803808  28.9811993  47.7069509   8.3845512  30.3844547
  52.1395969  63.3689165  33.6513352  52.6363850  63.4359646  32.8358984
  51.3066483  63.8002014  33.4604907  22.7288008  44.4058657  50.8192730
  22.1382022  45.0909233  50.5060291  22.9523945  44.6717978  51.7111874
  30.6946765  30.0058484   7.6737472  30.5031227  30.1800514   6.7522307
  30.1006197  30.5818773   8.1549140  60.4650533  13.4136907  61.4995241
  61.0631716  14.1163389  61.2450314  60.9539234  12.9057924  62.1470404
  70.3510522  30.8302904  22.3675366  71.0537313  30.1832557  22.4293061
  69.7662424  30.6189895  23.0952569  24.1598581  51.7781186   8.2796784
  24.8704218  52.1877885   7.7862187  24.3841099  51.9344926   9.1970082
  61.1261212  44.4828645  59.3531132  60.1840484  44.3503515  59.4588184
  61.4666354  43.6159746  59.1322470  14.5915626  38.7362171  11.9112369
  15.1613211  38.1041789  11.4729043  15.1181148  39.5334745  11.9691201
  28.4226345  26.5226102   6.4610167  28.6283850  26.1088395   5.6227466
  27.7442573  27.1644855   6.2511702  21.2764114  70.7273873  22.2977849
  20.5781590  70.7703074  21.6444608  21.4029958  71.6353687  22.5730630
  74.2667364  33.2294917  12.9105349  73.9683579  32.4885488  12.3830815
  73.9937734  34.0016008  12.4149772  70.2589285  21.5457384  15.7712150
  71.1542618  21.3783876  15.4769325  70.2933418  21.4300100  16.7207706
  59.8177545   5.9733510   5.7042142  60.6178616   6.4764905   5.8555814
  59.1284614   6.6340900   5.6368657  60.9106909   1.8279235   6.0564252
  60.4354654   1.1549250   5.5691167  60.2608810   2.1922175   6.6574832
  23.2142853  34.4865585   9.2952939  23.8194155  34.2393613   8.5960456
  23.2737945  33.7705541   9.9277755  23.3108114  16.9020439   9.1871186
  23.8780855  16.5610433   9.8785993  22.7243542  17.5104499   9.6367141
  61.9067526  64.2649361  46.7011452  62.1827794  65.0610455  47.1552944
  62.6959849  63.7246122  46.6638136   6.9906353  48.6448940   6.8688794
   7.3996484  48.1690058   6.1460610   6.0893833  48.7896725   6.5807553
  16.8870699  38.5343552  41.5239620  17.6704037  38.5244298  40.9739399
  17.0717013  37.8984928  42.2152090  16.6969877  46.4109215   4.8491927
  17.5320225  46.2164446   4.4236012  16.6968405  47.3625025   4.9527570
  59.1010081  64.7364863   2.8409453  58.8198792  65.0782975   3.6896869
  59.7670996  64.0831026   3.0545922  41.2533808  12.2397423  49.1362667
  41.0136223  11.6004336  48.4654236  41.3127971  13.0707049  48.6648798
  65.6609095  50.4191240  44.2298985  66.0737050  50.3213247  45.0879574
  64.8801947  49.8671754  44.2753887  54.7842872  62.7095994   4.5356866
  54.5923268  63.4333738   3.9394208  55.6060564  62.9590496   4.9584170
   3.4751505  47.8230095  59.6059370   2.7051440  48.2212925  60.0117588
   4.2147097  48.1661701  60.1074553  11.7260932  16.3485905   7.6175328
  10.8231413  16.5432784   7.8685447  12.0813965  17.1896097   7.3299952
  12.5214899  56.4155865  54.2205381  13.4067619  56.0670900  54.1153097
  12.3694289  56.9271135  53.4258986  68.2079851  56.9381770  11.2070104
  68.9376413  56.3196906  11.1708232  68.6192095  57.7834186  11.3878270
  48.6343169  11.5068591  55.9201717  48.8533306  11.5167141  54.9884176
  49.2034435  12.1721864  56.3070393  48.7306913  71.8458920  47.0988083
  49.1876078  71.2946622  47.7341080  48.3115776  71.2262008  46.5016842
  49.7355306  38.4673464   1.1682864  50.3134644  37.9098226   1.6892405
  49.6714794  38.0224798   0.3231688  40.7361746  20.8919764  50.0873184
  41.2902975  20.5677128  50.7972717  40.1188421  20.1796389  49.9208736
  68.2996351  14.0658116  58.3756876  67.9685658  13.2600927  57.9788971
  68.2014805  14.7277451  57.6912594  53.7025738  15.3606772  42.6856565
  53.6082435  15.8467889  41.8664932  54.3772960  15.8363688  43.1701136
  29.6943164  19.6685374  44.1397285  30.2806711  18.9124310  44.1128826
  29.7191572  19.9586356  45.0515747  30.2188271  34.8983794  17.1148654
  30.9301543  35.1763252  16.5378066  29.8817700  34.0984824  16.7113944
  17.4836987  51.1504575   6.2558480  17.7038067  51.9347271   5.7531520
  17.7415251  51.3610193   7.1533032  52.8367388  57.6117333   1.1646434
  51.9539606  57.5280079   1.5250941  53.2596051  58.2692608   1.7169782
   3.5395862  43.8651180  59.8012049   3.3662654  44.5243156  60.4732547
   3.2896091  43.0359500  60.2089103  61.3056719  49.9461874  20.2626153
  62.2171342  50.2306744  20.1952763  61.3494956  49.1094657  20.7254430
  50.4287922  47.4750086  12.7546760  51.2941920  47.8536710  12.9093667
  49.9077665  48.2007166  12.4110051  56.9747913  32.2174001  41.9517899
  57.0644450  33.1702948  41.9655037  57.8043664  31.8937039  42.3028708
  53.4716415   1.6236091  33.2214546  52.8311205   1.4670487  33.9153242
  53.0791759   1.2330566  32.4406385  21.2645483  16.2732828  37.0439506
  21.7739511  15.5374479  36.7044115  20.3524685  16.0100758  36.9212008
  19.4592703  69.0291040  26.8658972  18.5423029  68.7608885  26.8070698
  19.7159040  68.8100355  27.7616549  35.4542375  17.1158862  55.2241898
  36.2888861  16.7973948  54.8804522  35.3739452  18.0031419  54.8741055
  25.0210094  14.4457197  53.1774235  24.3888402  14.0601957  52.5708246
  25.4174805  15.1646340  52.6852798  13.4882903   3.1718054  34.9127865
  12.8793085   3.6911708  35.4377937  14.3379986   3.3006752  35.3342342
  14.5233297  32.3783708  40.4533815  15.4766440  32.4636698  40.4655170
  14.2169273  33.1763291  40.0225544  47.8168154  31.4589357  57.1218014
  47.4421501  31.8316698  57.9198790  47.2764301  31.8129730  56.4154959
   6.8906844  65.8945616  30.2720809   6.3225782  66.4420559  29.7301030
   7.2899473  66.5043371  30.8925605  68.1272232   8.3854970   1.8130847
  67.3070919   8.0329713   1.4676352  68.0004560   8.4011516   2.7617236
  40.2828788  66.7721065   9.6464272  41.2160849  66.6136512   9.5041247
  39.8441350  66.0828933   9.1477080  17.6439726  59.3229771  43.1228447
  16.8255162  59.1572380  42.6549864  17.5500929  58.8445568  43.9465761
  64.3777214   2.5007558  20.2044316  64.0033399   2.1085120  19.4156190
  63.8270329   3.2645059  20.3766557  65.8685743  58.3055481   7.9207154
  65.5982601  59.1626581   7.5912877  65.4582989  57.6794013   7.3241874
  29.7148323  31.1603880  60.3616619  29.7336006  30.4781938  59.6904755
  30.5605674  31.6010022  60.2790499  72.6932088  17.8600180  45.9451914
  72.9730147  17.0432150  45.5319452  72.1061841  18.2631969  45.3055954
  56.3971043   7.2845548  55.7379103  56.1177170   6.4000666  55.5015707
  56.2042809   7.3548454  56.6728449  71.2156784  41.8421170  29.6763249
  71.1762583  42.7984145  29.6631452  70.9543240  41.6038641  30.5657979
  10.7591605  30.6599426  42.0736074  10.8692515  30.6309700  43.0240107
  11.2069690  31.4621472  41.8049622   4.0988040   6.6933739  25.4860497
   4.4889411   6.5723461  26.3517165   4.8382980   6.6406798  24.8805714
  50.8936272   6.4435697   7.2130223  50.8777535   5.7052017   7.8219529
  50.8709324   6.0392690   6.3456937  14.8828912  26.7622471  38.5886812
  14.1037583  26.4266729  39.0320492  14.9850690  27.6525688  38.9250135
  13.6051118  29.0065553  22.7199861  13.9423286  29.8928913  22.8500768
  14.2393469  28.4417763  23.1615754  33.8188481  59.2439922   2.1218129
  34.3629676  59.1671952   1.3380595  32.9240334  59.3039426   1.7872306
  50.9458685   9.8897225  37.8285885  51.4490581   9.5303148  38.5592461
  50.8154535   9.1468501  37.2392130   8.8753480  22.6712751  41.2096596
   9.3088305  23.3410239  40.6807327   9.5007598  21.9472289  41.2388420
  39.4150471  25.2279544   0.6436892  39.3741678  26.0426164   0.1428052
  38.7063300  25.3038001   1.2825986  20.1777291  19.1197515  56.2354469
  19.3983173  18.5944581  56.0542917  20.6881785  19.0776777  55.4268026
  20.2120686  44.2843676  44.7938776  20.5559468  43.3978081  44.9033642
  19.2684984  44.1933727  44.9266529   5.9702301   2.8879741  30.3625822
   5.2472138   3.4937125  30.1996088   5.8428895   2.1858463  29.7245908
  41.0133016  34.7409742   1.1580535  40.7747864  35.4904850   1.7035600
  41.4374589  35.1276146   0.3920051  15.3641391   0.5677055  35.5084801
  14.8819411  -0.0544483  36.0531282  15.6280816   1.2610903  36.1132812
  72.0145109   0.9848338  33.9100266  72.2463664   1.8997690  34.0693021
  72.5345144   0.4919808  34.5447898   9.4140345  45.2591562  53.0578995
   9.2859185  44.6546268  52.3268986   9.6656930  44.6980619  53.7914371
  21.3806844  16.7162740  57.6001024  21.4638066  16.7523432  56.6472006
  22.2609186  16.5023434  57.9093790  70.0322813  34.4820404  23.1840110
  70.6002986  34.8122072  23.8801265  69.3861520  33.9413619  23.6383414
  18.4252810   6.6221958  35.5558014  18.7555909   6.6112232  34.6574664
  17.9429269   7.4461925  35.6235862   8.1488311  63.3382988  31.0149622
   7.4771285  64.0136385  30.9202719   8.9565557  63.8251495  31.1786366
  73.5084485  22.1612787  32.1905851  74.0946077  21.8214417  31.5144491
  73.2511610  23.0263853  31.8717933  65.2004623  43.4671879  40.9379816
  66.1560148  43.4894037  40.9895325  64.9995506  42.5987577  40.5891228
  69.6977842  25.2828765  39.1694903  69.8198563  25.3049898  38.2203650
  69.4395036  26.1756372  39.3986225   2.4972415  14.2291212  28.1630778
   3.2949400  14.7489357  28.2615709   2.5206026  13.9240837  27.2560835
  32.0894145  46.8098923   3.1569024  32.4967020  45.9450301   3.2054873
  31.1935645  46.6368386   2.8675290  65.1791357   4.0623927   5.4970904
  65.5870246   3.2062340   5.3672858  64.2388295   3.8835884   5.4878827
  17.6981383  49.8795494  17.2707244  17.7614039  48.9336273  17.4028607
  17.1245807  50.1819214  17.9748794  28.9328861  43.6552000  55.1642704
  28.3737230  44.4130659  55.3351688  29.6389246  43.9972782  54.6158838
  20.2598023  56.6689873  45.4566765  19.4150889  56.7860079  45.8914185
  20.0990605  55.9921646  44.7991800  49.2484971  65.8490606  60.9690571
  48.7851355  66.6755789  60.8334303  49.4464003  65.5376907  60.0858164
  74.6518887  47.5738605  30.9321833  74.3864835  46.8082579  30.4226327
  74.4809783  48.3173474  30.3540421  71.5598005  28.3535337  59.2303944
  71.1807579  28.3705568  60.1091862  70.8636946  28.6845374  58.6628532
  50.2949524  42.9506302  41.9760656  49.8243141  43.7839937  41.9605780
  51.1637449  43.1597996  41.6330194  71.3196227   5.8768427  43.1908560
  71.8677580   6.6288352  42.9666090  70.5752105   6.2543213  43.6594629
  33.6920512  65.6398918  48.9161015  34.3355728  65.4338761  48.2381105
  32.8525496  65.3808715  48.5361290  24.5715332  12.0357072  20.4746485
  25.0904942  11.2499189  20.6462526  25.2153087  12.6974332  20.2218580
   3.8018143  35.1303647   1.0041448   3.2106244  35.8707832   0.8681079
   3.5114562  34.4727641   0.3720971   8.5641950   2.4532361  38.6720181
   8.1818038   1.5757935  38.6618757   9.2074639   2.4423748  37.9632735
  46.2470746  44.7248459  30.0522423  46.6766548  45.5189228  29.7342253
  45.3296566  44.9756861  30.1602173  27.6350093  37.5074124  51.4011669
  28.3030176  38.1437850  51.1461687  26.8101335  37.9894304  51.3422632
  57.0706368  49.0141257  37.0808220  57.3169667  48.0935749  36.9905925
  56.6881151  49.0750154  37.9561520  51.0487192  66.6923263  55.4419518
  51.5686326  67.4400505  55.7366228  50.9694872  66.8136807  54.4957876
  28.3636521   0.6903530  10.8853837  28.2215403   1.3145781  11.5969869
  28.5302447  -0.1423978  11.3269778  21.2587523   1.0720453  30.3846145
  20.6300068   1.7314757  30.0912523  21.1559916   0.3504005  29.7642088
   6.5629529  56.5743002  12.2961493   7.2228872  56.0264858  12.7211400
   6.1712861  57.0757469  13.0112573  18.9414847   4.8860899  47.4178648
  19.3066895   4.2992845  48.0800724  18.1909442   5.2954793  47.8483534
   6.6392511   1.8494256  46.7408466   6.5976238   2.7823827  46.9508266
   5.7709432   1.5145539  46.9647551  28.2477093   0.3322623  31.7010665
  28.9349270   0.7408680  32.2273779  28.6246276  -0.5017829  31.4208293
   9.5762514  12.5003028  12.5342341   8.8233446  11.9190240  12.4270793
   9.3755840  13.2563329  11.9825288  75.1193193  35.0195527  17.7777123
  75.1740372  34.5405030  16.9508219  75.9340336  34.8060584  18.2325673
  12.0906031  42.4033117  52.3475361  11.2458253  42.5458527  51.9206142
  12.6842308  42.1727419  51.6329241  65.6139528  66.0955748   8.5995408
  66.0645782  66.5264853   9.3258210  64.8425638  66.6393503   8.4398623
   1.0290216  41.2842489  22.5226041   1.8012403  41.5299440  23.0320664
   1.2576054  40.4402709  22.1331426  19.3290091   9.3587577  56.8554020
  18.8650858   9.9368978  56.2497902  19.5794177   8.6044192  56.3220119
  50.1825112   2.0267368  27.8689595  49.3200852   1.8458319  27.4951573
  50.7906106   1.8998027  27.1407243   2.4875510  34.7155380  41.6300917
   1.7525940  34.2622900  42.0431757   2.1131906  35.1109052  40.8428383
  60.5826616  20.8350706  58.1519651  61.1879444  20.3805947  57.5660324
  59.8346090  20.2429581  58.2297516  23.3044267  53.5561228  39.0717793
  23.8530517  52.8780460  39.4660473  23.6430764  54.3765783  39.4301152
  20.4283595  10.2670717  59.0754700  20.5370569  11.2179792  59.0893221
  19.9785852  10.0894177  58.2494116   6.8764305  18.0894804  26.8075490
   6.7963439  19.0280271  26.6374063   7.6489174  17.8209579  26.3101649
  25.3587719  66.7604550   0.7357903  24.5837745  66.9174537   1.2752028
  26.0587126  66.5899047   1.3660499  42.7639007  45.9975072   9.5370217
  43.0462956  46.1795529   8.6407300  43.1693208  45.1569202   9.7498151
  61.0713447  45.6290444  41.1289310  60.7953108  44.7152051  41.1991787
  62.0223523  45.5850204  41.0295486  16.1020684   4.8052850  36.2902927
  15.5098200   5.2801239  35.7071972  16.8561888   5.3862125  36.3905859
  20.7502567  54.2231318  30.0568410  20.9946826  53.5067245  30.6427117
  21.4454412  54.2424652  29.3991395  18.6186481   3.4641048  57.1513033
  17.9801142   3.6138442  57.8484964  19.4167042   3.8920510  57.4614668
  53.3366901  68.4977006  19.9977720  53.6252177  69.2157581  19.4344091
  53.8759244  67.7529602  19.7316527   1.4538049  22.5412679  14.5094415
   1.7823647  23.2602859  15.0491591   0.8925890  22.9658914  13.8606234
  56.3513851  18.1586242  10.8562887  57.1014369  18.4673953  10.3480411
  56.7143261  17.4892509  11.4363265  10.6490051  69.8602089   0.1724597
  10.1014447  69.1365227   0.4769059  11.4098656  69.4349202  -0.2230815
  32.9664844  32.1535822  10.0137397  33.3171224  31.8854445   9.1643973
  32.0181679  32.1750003   9.8854085  17.8021765  23.9552617  46.4089012
  17.3204672  24.0170741  45.5840588  18.2894731  23.1342077  46.3407326
  30.4348063  16.1390245  46.9434071  29.7068429  15.6105542  47.2705507
  31.1927366  15.8396459  47.4455500  53.4384119  46.5164908  20.2130052
  53.7445628  45.8014103  19.6551915  53.4967052  46.1680755  21.1026402
  23.8934565  31.7839122  55.2304745  23.7327075  32.5937033  54.7460890
  24.8439384  31.7549348  55.3399086  17.9007244  56.8252930   2.4502726
  17.0410132  56.6972646   2.0493527  18.3957850  56.0418686   2.2107049
  33.9369464   7.8739625  60.6681442  33.6850524   8.7861413  60.8120584
  34.7123671   7.7503902  61.2155819   4.8925120  24.7461987  27.1974754
   5.5882162  25.4035997  27.1903110   4.4803631  24.8242450  26.3370848
  39.1445160   0.2903639  24.5499659  39.6843743   1.0670681  24.4032764
  39.2227936  -0.2123431  23.7391710  61.9096672  62.7563294   0.7118865
  61.4595735  62.3985800   1.4771720  62.1657717  63.6399993   0.9760257
   7.3686242  36.1195827  40.3407669   7.6034606  35.8126736  41.2164879
   6.7216378  36.8082190  40.4938126   6.5877283  16.4340603  49.0052795
   6.3922101  16.3985050  48.0689335   7.5252426  16.6225827  49.0472031
  65.7701456  45.2200391   4.9100038  65.9518682  45.8937522   4.2547818
  65.5667030  44.4370386   4.3983861  11.8309557  10.9439707  27.3434424
  12.0546031  11.8583775  27.1700168  12.5912678  10.4493093  27.0377183
  35.6042790  33.1834581  11.4252349  34.9574178  32.6523113  11.8896552
  35.9528148  33.7743200  12.0927974  48.7285695  68.2985815  37.8544927
  49.5926852  67.9914799  38.1287622  48.9095676  69.0494361  37.2890806
   1.4454353  67.7796137  58.5481405   1.9048298  67.0946588  58.0623198
   0.9026969  67.3041811  59.1771317   7.4256956  58.7830266  16.1063453
   7.9758894  59.3387708  15.5543776   7.1296942  59.3615588  16.8091365
  42.2001154  44.2110690  59.0893316  42.6680279  44.5125874  59.8680353
  42.4767590  44.8107751  58.3964729  33.6829936  24.3974420   1.8482324
  33.3641350  25.2906867   1.9773694  34.1232913  24.1792008   2.6696559
  17.4631530  42.3616561   1.3370343  17.2140347  41.4419105   1.2462636
  17.6951175  42.4569216   2.2608062  33.3533632  42.6024100  19.7141381
  32.8267228  43.4008958  19.7502252  32.7112936  41.8929126  19.6898290
  40.4856848  62.4236640   0.3021403  40.8935832  61.6694673   0.7276269
  40.1296901  62.0742234  -0.5148009  18.4147620   7.9104501  19.2278361
  18.4177983   7.4605256  20.0726962  17.4904466   7.9538327  18.9829028
  38.7669420  37.9555901   0.6319161  38.7872147  38.8567704   0.3098985
  39.0604078  37.4289274  -0.1115445  14.2779231  30.1921320  38.7120867
  14.5238602  30.8563852  39.3559170  15.0569177  29.6427107  38.6252809
  60.2319312  21.0079765  51.2667847  59.9505699  21.8779349  51.5500498
  60.5972719  21.1470985  50.3930569  15.6007624  38.3635426  53.5946989
  14.8091733  38.3871365  54.1323423  15.3041923  38.6167121  52.7205229
  29.8855961  71.6128725  41.1525011  29.5857704  70.9416574  41.7655325
  29.1791571  71.6836454  40.5105019  74.8809645  23.0643988  45.4758167
  75.1628734  23.4356880  46.3118172  75.3956961  23.5339570  44.8194647
  20.8585429  19.1153991  35.2758408  21.1600351  19.0362871  36.1808681
  20.9467649  18.2328165  34.9159813  75.4414367   9.1755891  11.3741275
  75.8651828   9.9468065  11.7508241  74.8898386   9.5236040  10.6735154
   7.2021794  27.7227187  48.7410402   6.5884411  28.3713365  49.0857887
   7.0196074  26.9291115  49.2441130  10.0561523  30.9130692  58.3759546
   9.4071829  31.6147423  58.4281588  10.4919291  31.0519433  57.5350952
  38.1641793  50.7436037  59.7988892  38.5360265  50.4542971  58.9656639
  37.6399636  51.5120602  59.5732784  10.1369822  56.7863560  58.8442516
  11.0740829  56.7091274  59.0234423  10.0862682  57.3523045  58.0739498
  28.5216260  38.0396724  15.5320525  29.3169904  38.2129431  15.0284624
  28.1414056  37.2639298  15.1198804  12.5922524  32.8981941  33.8510152
  12.9034948  33.4041753  34.6015759  13.2456314  33.0545753  33.1691953
  20.0714421  32.9559612  11.8749940  19.6482861  33.1952620  11.0504305
  19.9840546  32.0038962  11.9215763  62.1507965  15.0591207  12.6925393
  62.0934354  14.7731853  11.7808505  62.4089645  15.9793020  12.6391622
  35.2150440  17.3578107  49.0118170  34.8034620  18.1454682  48.6562490
  34.5852184  17.0266438  49.6520376  59.3375902  28.9320875  16.1721869
  58.8567262  29.4797683  16.7927094  58.7211495  28.7850118  15.4548284
  57.7906382  58.5346302   9.3460961  57.3124897  58.9763912  10.0478431
  58.3909857  59.1999229   9.0096446   5.6487995  28.7644005  41.8644285
   5.3584999  28.8193083  40.9539652   6.5123171  28.3542299  41.8161678
  71.0301420  48.3630991  34.1206217  70.4712898  47.6835442  34.4976044
  71.6368708  47.8869963  33.5536695  33.9262390  42.4564075  54.5837641
  34.3386364  42.8926468  55.3293228  33.9217997  43.1177282  53.8917637
  20.3670239  57.6294661  56.5375423  19.4870710  57.6505709  56.9136667
  20.9372258  57.9301643  57.2451305  39.4087970  69.6101793  23.3069535
  39.1114091  70.2473840  22.6575204  40.3508687  69.5351466  23.1549569
  50.0088644   0.8300718  47.6803207  50.8622694   1.2536447  47.5880384
  49.5973063   1.2789160  48.4188271  73.5851168   5.4876876  11.9876166
  73.9225053   5.5492044  11.0939618  74.1752337   6.0359741  12.5046941
  42.8996539   5.5017614  38.8076186  43.5347652   5.7064372  38.1213450
  42.8011918   6.3199353  39.2945766  67.4505447  13.3996511   5.6961461
  67.7299618  14.0700317   5.0726481  68.1578587  13.3616424   6.3399573
  42.4494844  13.1096053   1.1311408  42.2059738  13.1317306   2.0565864
  42.1831982  12.2394824   0.8341475   0.0553828  31.8418622  40.9298182
   0.2688727  32.5284219  41.5617085   0.3444762  31.0316634  41.3496208
  25.5741882  71.3413143  54.7097492  24.8002267  70.9646606  55.1284885
  26.0483170  70.5869150  54.3600082  72.2627686  28.2925630   1.3072272
  73.0403136  28.4979701   0.7881280  72.1524905  27.3467803   1.2094470
  21.0674452  23.7669349  10.4817553  20.6707786  22.9324508  10.2316972
  20.3236650  24.3352771  10.6817885  22.7611285  65.1552805  10.4771872
  22.6851987  65.9143528  11.0553523  23.1323936  64.4685277  11.0310527
  60.6279886  57.5044775  37.4473763  60.2088475  58.3637476  37.4003911
  60.0429571  56.9255781  36.9586611  26.3362598  44.6245241  57.7900505
  26.6815734  43.7317991  57.7953291  26.6456938  45.0058842  58.6116695
  48.4553411  25.6738782  27.4180051  49.3257553  25.6507516  27.8155919
  48.2196099  26.6015745  27.4114247  32.8228509   0.3595439  34.8596263
  32.8401148  -0.2252253  35.6172395  32.0712423   0.9313909  35.0155282
  73.7116383  17.1382976  22.6931401  73.7820124  16.1903787  22.5803109
  74.4668173  17.3719716  23.2328912  15.9132195  15.6836545  60.9999275
  15.6427932  15.8014095  60.0893021  15.3329682  15.0004053  61.3356543
  22.1553421  30.0453544  50.3727579  22.1214223  30.4499650  51.2395763
  23.0866528  30.0292468  50.1522350   2.5896787   2.5218749   8.7948867
   2.7742766   3.4520626   8.6648818   3.4192346   2.1532059   9.0984507
  37.6250720  27.9980889  13.9511271  37.9061317  28.0881574  14.8616906
  37.0933985  28.7768247  13.7864324  38.5773039  57.9049110  54.5204687
  37.8995132  57.3784733  54.0965652  38.1838489  58.1802368  55.3484917
  33.0435115  63.9069470   9.7549315  32.1830898  63.9803275  10.1678725
  32.9294508  64.3040952   8.8915082  75.9488433  64.1686392  42.1864986
  76.1832466  63.7425566  43.0109644  74.9916670  64.1747952  42.1837425
   8.6905741  35.1367057  14.3834659   9.5484268  35.2720294  13.9809628
   8.8500428  35.2262411  15.3230306  61.1623169  58.8734814  34.8804879
  61.8300832  58.3266338  34.4666314  60.3329564  58.5362454  34.5418644
   7.5338829  14.1548920  46.9651556   8.2298374  14.3607819  46.3410664
   6.8473935  13.7515056  46.4338923  69.2696202  55.7278442  44.2244196
  70.0107867  56.0656166  44.7272253  69.5898706  55.6878281  43.3232689
   7.0757817  28.9806581   1.0479041   7.8950094  28.6447311   1.4115640
   7.2667002  29.8929954   0.8301516   4.3131119  40.5792379  49.7289515
   4.6054029  41.4661551  49.9391413   3.3901110  40.6800699  49.4962835
  43.0195963  66.5735754   6.4692803  42.9358923  67.5028881   6.2557383
  42.4526715  66.1307177   5.8378526  71.3696135  68.8523757  29.3672776
  71.8153966  69.4314948  28.7491107  72.0127309  68.7006997  30.0598288
  18.2651603  27.6657534  32.0964527  19.1047037  28.1125784  32.2048259
  18.0941439  27.7022386  31.1553597  46.9959784  25.1202965  33.9215350
  47.4269533  25.9346581  34.1809726  47.6312614  24.6832418  33.3544111
   4.9793443  17.1522546  51.2140369   5.4644823  16.8025661  50.4666471
   4.1873878  17.5289631  50.8304644  19.2081522  11.4962427  42.4282694
  20.1110005  11.4051572  42.1236372  18.8009905  12.0892850  41.7968035
  16.7217134  24.0377450   0.3000947  17.1354460  23.8429761  -0.5408124
  17.4526047  24.1265321   0.9117671  72.9587808  36.7221761  48.9470768
  72.2514927  36.2451148  49.3811131  72.5148803  37.4117279  48.4534168
  42.1100771  55.0918790  18.8239308  41.6278636  55.9047445  18.9754315
  42.7437734  55.3129646  18.1414433  70.4690599  56.0673046  48.8893890
  71.2257639  56.3700867  48.3874369  69.7304201  56.5574360  48.5282564
  41.8156147   7.9386806  50.9245396  41.4766407   8.4676409  50.2023697
  41.8304873   8.5358810  51.6724443  45.4179072  44.5153522  50.9101343
  45.8851910  44.1958284  50.1382637  46.1053038  44.8575401  51.4816427
  10.7784033  19.9540031  53.3912849  10.2501774  19.2959189  52.9394722
  11.6193295  19.9411941  52.9342175  44.4111919  22.1760535  26.2441874
  45.2479601  22.4416089  26.6256690  44.2039013  21.3468552  26.6751122
   7.1542972   0.2805641  58.4928036   7.9479712   0.6059821  58.0680513
   6.4911145   0.2927217  57.8026772  16.7229927  68.3167114  49.8699808
  16.6196716  67.6766726  49.1657734  15.9084881  68.2570841  50.3692341
   3.7172723  29.8064947  26.4988470   3.9150938  30.6742716  26.1466241
   4.3992341  29.6521783  27.1525645   3.8421193  10.7110620  60.7216501
   4.2607775  10.7341886  61.5821314   3.0205598  10.2420342  60.8675480
   0.9872510  27.2552967  38.7399244   1.4050873  27.0859718  39.5843029
   0.8908337  26.3898253  38.3425665  57.0403420  69.7234138  10.5225488
  57.2534549  70.5863198  10.8778068  57.8823053  69.3658551  10.2406236
  39.0505814  35.5430392   7.3001786  38.6390066  35.2590956   6.4839574
  39.5940184  36.2893714   7.0474025  28.7594485  41.7235565  59.9477434
  28.6030674  40.8774614  60.3671455  29.5214605  41.5760088  59.3875694
  46.7958176  43.2032564  15.9816857  46.6235864  42.6696541  15.2059003
  47.6539266  43.5943827  15.8176728  25.5512083  64.9147066  61.3726950
  25.7775200  65.4126223  60.5871391  25.9479130  64.0547349  61.2337399
   0.7767461  36.2286377  21.6937613   1.1869500  35.7535076  20.9711146
  -0.0752601  35.8067441  21.8047667  24.5091367  49.7342253  37.2728610
  24.2985988  48.9209557  36.8140602  23.7050843  49.9605799  37.7402949
  48.2628659  62.6497235  44.4993782  48.2160137  61.8102731  44.9569368
  48.9601400  62.5322547  43.8542128  12.4932206  38.4226632  60.4276228
  12.7210867  38.5808706  61.3437414  12.4136496  37.4710727  60.3614950
  25.0000882  21.3488531  23.8117838  24.4924355  20.6166315  24.1616011
  25.6818366  21.5018630  24.4660306  32.3067045  56.8768740  44.4885397
  32.2559953  57.3262310  45.3321838  31.9520235  57.5060177  43.8603592
  42.7709961  37.8791857  55.6346989  43.0275130  37.8551459  56.5565729
  43.5818315  38.0757570  55.1655149  20.2281570  13.3748507  52.5769329
  19.8261011  13.7190318  51.7793608  19.6467257  13.6615300  53.2811975
  15.7256162  60.6819057  57.4066210  15.1845157  61.3437557  56.9760370
  16.6054118  61.0589361  57.4129820  73.5902347  35.4153466  56.9045544
  73.4312288  34.7083235  56.2792015  72.9174069  36.0665727  56.7059660
  20.2065134  36.0880542  50.9941912  20.9879708  35.9834051  50.4514170
  19.6312737  35.3713202  50.7265711  27.6940489  28.0750513  33.0728269
  27.5911403  27.4608135  32.3459482  28.6404324  28.1929898  33.1545830
  14.4783187  29.6768689  57.9629898  14.8201740  29.6178746  57.0708656
  14.7606730  30.5379725  58.2712269  13.3742726  15.1198661  40.3575659
  12.6836658  14.4603217  40.2920389  13.7182176  15.1957560  39.4675255
  64.6588779  62.9959681  42.7241945  63.9035345  62.8764244  42.1485233
  64.9981142  63.8618597  42.4975157   0.4136050  48.9791688  41.6216850
   0.4820955  49.7120842  42.2335482   1.1748469  48.4325632  41.8165302
   6.9868791   2.2165428  51.6830969   7.4565482   1.3961217  51.8332672
   6.8362552   2.5702164  52.5597143  46.5803539  67.5940212  13.9635154
  46.6653835  67.8074130  13.0342885  45.7442367  67.1324858  14.0277406
  61.5165472  27.6124525  50.8450699  61.8145859  27.1755123  50.0472689
  61.9443071  28.4684801  50.8234072   4.6634244  20.0663352   3.8254758
   4.0745305  19.4114614   3.4505387   4.5373987  19.9883247   4.7711345
   8.0537570   9.3234193  53.7031651   8.5167688   9.8961306  54.3145990
   8.4251487   9.5367664  52.8471375   0.5703051  45.7353640  21.3771009
   0.4948864  45.9306955  22.3111176   1.3343278  45.1622915  21.3131833
  39.2630231  30.9054178  14.9684354  39.6902406  31.5290662  15.5556174
  38.4476423  31.3368585  14.7130080  15.3085232  35.1997185  45.4992723
  14.4357562  35.5373216  45.7006073  15.9066188  35.8712959  45.8271408
  66.4530622  42.5182130   4.2703315  67.2109758  42.8778848   3.8094254
  65.7365334  42.5814291   3.6388083  70.3118897  64.7501912  50.2791595
  70.8911264  64.7881492  51.0402584  70.8009089  64.2431899  49.6310520
  36.3973272  56.7120632  52.9276419  36.1699760  56.1260875  52.2057199
  35.5656469  57.1110567  53.1832695  62.6974737  65.3490647   0.9750529
  62.8619563  65.8384856   0.1690503  62.1639811  65.9382686   1.5084001
  47.5986552  60.9618855  54.5433617  47.0750666  61.1334276  55.3260899
  48.4824848  61.2430382  54.7800636  74.9595226   7.1627373  14.8973858
  74.3216021   7.8625995  15.0369620  75.4320565   7.1003217  15.7274747
  72.0600805  47.0085382  44.4414139  72.8514895  47.5314426  44.5697641
  71.6273251  47.4100256  43.6879110   5.3800130  26.0695219  59.5979548
   4.8215488  26.6985679  59.1411734   5.4968661  25.3545284  58.9723682
  11.0445988  40.3605795  56.7341518  10.6899714  39.9104643  57.5008774
  10.4319787  40.1514673  56.0290289  63.7841487  37.5854206  38.5960102
  63.7262464  36.9674444  37.8673244  63.1153071  38.2432508  38.4058928
  56.9112968  17.0361459  33.0008245  57.3598051  17.0636427  33.8459969
  56.7456055  17.9544711  32.7876163  19.8710191  52.3843384  17.7043116
  19.6642411  53.0462170  18.3641553  19.5058632  51.5726805  18.0565953
  69.7934896   4.6316218  47.6173115  70.5337256   5.0332135  47.1623325
  69.8793334   3.6958861  47.4349356  36.4612734  55.6219467   9.6894093
  35.9448325  56.4277944   9.6780034  36.0758960  55.0807222   9.0003558
  50.9894955   7.1152870  45.9016132  50.4709637   7.9104797  46.0241938
  51.4778530   7.0193855  46.7192554  73.2127759  18.6811805  58.1516409
  73.8546562  19.3764412  58.0073023  72.9202399  18.8088560  59.0540600
  20.4751110  67.3289299  43.3543062  20.9465885  66.5369701  43.6126471
  19.8113966  67.4450636  44.0341806  75.7718718  31.8447464   4.3040009
  74.9140417  32.0459538   3.9300033  76.2235605  31.3543739   3.6171647
   5.7262015  61.7202076  15.7035132   5.3922677  61.2885150  16.4898749
   5.0993239  62.4228152  15.5314752  49.9568345   9.3163133  21.2195035
  49.5728539  10.1283002  20.8886453  50.8414878   9.5624328  21.4897653
  50.9060359  43.8743734  33.0039692  50.7649183  43.7803602  32.0619082
  51.2316632  43.0189085  33.2839274  13.6072731  54.0394545  48.0018759
  13.2404292  53.5422611  47.2708130  14.5022726  53.7115097  48.0894041
  70.2379572  37.3438341  11.3498374  70.3685295  36.7462324  10.6135913
  71.0615694  37.8272092  11.4149495  62.1910489  55.4693174  60.5926609
  62.4772072  55.0744438  59.7690010  62.7020061  55.0182772  61.2647581
  54.7474086  71.8142780   6.9478532  54.8973047  71.2745723   7.7240535
  54.9799621  71.2467488   6.2129661  21.6817880  34.2484903  38.3908725
  22.4461126  34.6459913  38.8080454  21.3273549  33.6567450  39.0545321
   5.2946066  52.5315690   6.3174935   4.4696258  53.0100847   6.2358733
   5.2064895  52.0397973   7.1339675  62.7774740  37.0757636  46.5177536
  62.1372188  37.6226219  46.9730043  62.9254163  37.5232872  45.6846476
  26.8695068  16.8051696  25.8368063  27.4542427  16.7893970  26.5944791
  26.1819720  17.4260342  26.0777545   5.9484195  30.1501394   4.1090270
   5.3333568  30.7609439   3.7030097   6.5439080  29.9039293   3.4012099
  45.4315173  53.5930201  33.3027001  45.7965505  53.2488569  32.4875089
  45.5989253  54.5345625  33.2613870  62.1216725  19.2743612  20.2828809
  62.8253030  19.3861366  19.6436330  62.2719609  19.9655366  20.9278031
  20.3645992  62.4243689  42.2417545  20.2024531  63.2890320  41.8645191
  19.5285344  62.1739340  42.6348305  51.6393201  67.2406720  50.6598663
  50.7982087  66.9533800  50.3045845  52.2117065  67.3080056  49.8956203
  32.9246741   0.7454101  59.2460585  33.0332201   1.4568750  58.6149740
  32.1616625   0.2605478  58.9314842  36.4583349  66.5565356  10.7453891
  35.6892955  67.0259746  10.4222175  37.2025358  67.0478639  10.3975507
  40.3615033  47.0191642   8.1384583  40.7607436  46.9565913   7.2707435
  40.8579945  46.4017710   8.6756297  15.0855040   0.8542014   5.7183047
  14.9333881  -0.0870514   5.8027764  16.0333799   0.9526492   5.8081599
  17.9702067  29.0768147  18.6453772  17.5490022  29.6323156  19.3013012
  18.4446013  28.4207892  19.1560745  55.3960239  62.5255569  10.2026101
  55.3262889  62.9165682   9.3317052  54.5384418  62.6738533  10.6011029
  60.7518435  64.4658566  50.7090569  61.4610314  63.8247871  50.6609297
  60.5144727  64.4913006  51.6360092  62.8030001   1.3877368  10.0488015
  63.4449541   1.7921043  10.6324216  63.3227598   1.0449577   9.3217631
  15.4693818  45.4033419  18.8814660  14.9998950  44.9332603  18.1923791
  16.3449382  45.0165173  18.8815232   3.2716953  42.0198854  24.4452973
   4.1575491  41.9281110  24.0944787   3.3693897  41.8678125  25.3852769
  68.2335578  -0.0997662  17.6324244  68.6701821  -0.3365635  16.8141814
  68.1925129   0.8563757  17.6140042   2.7388573  27.2758508   8.7610143
   1.9352853  27.3747706   8.2504082   3.4250239  27.1495628   8.1056833
  17.7909124  28.9569497  36.0864115  18.1006253  29.7431111  35.6366825
  18.3135378  28.2465720  35.7143068  27.6850462  66.8051958  40.7449722
  27.8176951  67.1622324  39.8668146  27.6129723  65.8601713  40.6109333
  32.1591687  25.8061481  60.6545591  32.7574277  26.1399651  59.9860668
  32.5158548  26.1336279  61.4802504  74.3047676  44.5773077  34.8533916
  74.7700314  43.9224625  35.3739095  73.8915730  44.0753937  34.1508365
  53.8009416   0.4965711  19.9652501  53.3226414   0.3540683  20.7820435
  53.6977967  -0.3227639  19.4812222   5.8675498  62.0228577  42.1104860
   6.7509311  62.0829439  41.7468119   5.2896440  62.1551371  41.3589811
  49.9287891  29.0365863  38.2442379  50.5856967  28.4228849  38.5729837
  49.2353606  28.4789515  37.8914905  19.1355836  20.2875352  13.7196231
  18.7150264  21.1245728  13.9164174  18.5675108  19.8822606  13.0644310
  53.1237065  59.4925341   8.8099976  53.3902847  59.3279203   9.7144719
  53.1573331  58.6329707   8.3901711  21.2130475  37.8138566  36.5294409
  21.6954398  37.7821517  37.3555923  20.4581118  37.2426176  36.6708207
  12.8814042   7.9858923  21.8277740  12.6765347   7.3199719  21.1714125
  12.0476687   8.1537032  22.2670412  37.2483683  11.4661801  53.0589485
  37.3029685  11.9218504  53.8989592  38.0763745  11.6675568  52.6229668
  29.9180460  27.5055575  60.9917974  30.5946159  26.8621087  60.7809496
  29.9102497  28.0995989  60.2412748   1.6166654  31.5426636   8.9433217
   1.6627450  31.7611170   8.0125231   0.6873728  31.6158295   9.1607934
  39.0954685  55.3319693  52.8708696  39.6407866  55.6717539  52.1613598
  38.3315778  55.9086466  52.8830528  12.5253796   9.6885324  13.2316657
  13.0440806   9.7644449  14.0325519  13.1595038   9.8030687  12.5238534
  70.4824460  45.9915876  35.2645254  69.8293811  45.7115078  35.9058475
  71.2589067  45.4710484  35.4703903  28.4202003  13.7212169  20.4316425
  28.8274932  13.3750689  19.6375871  29.1543961  14.0312445  20.9618044
  33.9889186   4.8205034  43.6353827  34.3709850   4.0308229  43.2524109
  33.2769924   4.4982950  44.1881704  52.0357523  67.8862070  44.9585438
  52.9804172  68.0330660  44.9108744  51.8116983  67.4926119  44.1152668
  10.8975387  37.5962305  54.5014000  10.4048944  37.5768900  53.6809349
  10.2265239  37.6377034  55.1827574  51.1763330   4.9468017  33.2511826
  50.5546087   4.7479463  32.5510808  50.7813482   4.5686508  34.0368195
   4.4364894  13.1239382  36.3057975   4.9481333  13.4330050  35.5581812
   3.6303604  13.6390654  36.2737183  46.0102272  28.7935305  55.4706001
  45.5566311  28.5153890  56.2662840  46.5111160  28.0243421  55.1991320
  67.0805836   3.8563010  19.8867416  66.2203389   3.4392926  19.8386300
  67.3151380   3.8152513  20.8138514  28.4656596  55.6177902  58.5488605
  29.3253994  55.9630203  58.3082342  28.5357809  54.6749306  58.3994341
   5.2269124  32.5722957  10.5631801   4.8480224  31.7881990  10.1658603
   6.1026262  32.3017049  10.8391114   7.4652946  36.8104768  53.5044622
   7.6734108  35.9934187  53.9576006   6.7350382  37.1802568  54.0006685
   0.0917129  56.8156719  14.2475748   0.2952207  57.7402115  14.1060007
   0.9409519  56.3754320  14.2127395  23.7803149  13.4948075  60.0670147
  24.5434642  13.6721373  59.5171165  24.1230464  13.4984326  60.9607410
  26.2182283   4.0865996  56.3610268  25.9661913   4.8132932  56.9307852
  26.5966296   4.5075610  55.5891228  26.2521052  31.3184547  59.5737076
  26.3705611  30.4605508  59.9813843  25.3150511  31.3662982  59.3843079
  71.5975550  31.3555217  57.5671387  71.8956342  31.9135904  56.8488455
  70.7307112  31.0555816  57.2935486   5.4116583  18.8912964  11.3732958
   5.9092599  19.0084314  12.1825576   5.5489284  17.9735672  11.1384296
  13.5149705  15.2478099  44.0074062  14.3180919  14.7316730  44.0769053
  12.8374684  14.6890652  44.3882322  12.6091397  49.6568251  30.2278924
  12.0135868  49.3137550  29.5616698  12.0330822  49.9774837  30.9218431
  49.9287878   2.7856040   5.6139632  50.0620163   2.0116353   6.1611863
  49.4286895   3.3863545   6.1664411   2.1790655  31.4563441  30.6720138
   2.3826911  32.3330498  30.3461957   1.7995410  31.6048670  31.5381169
  60.7026803  38.3118742   6.3154241  60.9009563  39.0124020   6.9368573
  60.0293838  37.7890011   6.7507478  68.9288950  26.3594580  58.9568329
  68.9284951  26.6292548  58.0384445  69.5759618  25.6553793  58.9993477
  43.0440354  57.9568776  23.7771531  42.5659894  58.3815440  23.0648538
  42.4214541  57.9351434  24.5038911  66.5051638   1.6815663   4.7259923
  66.5240597   1.4901948   5.6636783  66.7215358   0.8485246   4.3071195
  54.1746541  51.3037420   9.6990319  54.0264877  50.4479146  10.1013108
  53.6353182  51.2933183   8.9083119  58.3439553  43.8552284   8.7970048
  57.8606391  44.0510368   7.9943252  58.1522584  42.9341507   8.9733565
  31.8248623  33.8778214  13.0907794  32.4947047  33.2344394  12.8592559
  30.9978139  33.4586383  12.8530665  61.1539280  35.7829428  36.1394739
  62.0648611  35.7095480  36.4241576  60.6901693  36.1214352  36.9053602
  61.3269400  14.2608190  10.2871056  61.3843833  13.3747220  10.6445380
  60.5985259  14.2223096   9.6672936  16.8196476  22.1207070  52.6809454
  16.8469143  21.1648631  52.7239752  16.6358209  22.3957515  53.5791636
  62.2971927  23.5939145   3.7182399  62.0404743  22.7744174   4.1410275
  61.4739548  24.0648723   3.5889693  24.0488982  16.2111163  45.4713106
  23.9777350  16.4739990  44.5536709  24.7405052  16.7689443  45.8273172
   8.4463733  24.3815279  25.7911611   8.9318794  25.1958585  25.9230018
   7.5302339  24.6245694  25.9247684  69.6563804  62.1301079  58.8842154
  69.0558088  62.0448685  58.1437588  69.1460371  62.5828362  59.5556450
   0.4296416  55.6699610  40.0554132  -0.1970448  55.2867031  39.4417262
   0.8573328  54.9166727  40.4626799  17.6262760  62.4553108  40.7250977
  17.0508850  63.1742764  40.4638624  17.7898216  61.9728613  39.9147105
  52.8391826  65.1785382  11.2200900  52.2976481  64.9174985  11.9649573
  53.6215651  65.5626925  11.6157361  46.0382211  36.8017908   1.2889262
  46.1183917  36.2959457   2.0975800  46.8057906  36.5532566   0.7738515
  10.4186117  59.5149383   5.5176755  10.5940163  60.3029665   6.0319444
  10.7624256  59.7155723   4.6471759  26.9062477  62.3083385  11.9544908
  26.6632215  62.5733146  11.0673829  27.5128944  62.9874095  12.2495719
   8.1112707  67.4261936  27.1348166   7.4562252  67.0337515  26.5576363
   8.5959018  68.0297079  26.5716696  17.5837529  26.2483788  20.6607795
  18.3531642  26.7689252  20.4299808  17.1039510  26.1523843  19.8380971
  38.1439734  25.3229356  26.2297416  38.8294697  25.9851861  26.3177967
  37.5353718  25.6918311  25.5896211  -0.0863732  60.6992531  13.2695568
   0.8404499  60.7548714  13.5022318  -0.5206009  61.3063908  13.8687754
  33.5339737  67.7737570  34.2843175  33.1359267  67.5924492  35.1357412
  33.3677816  68.7046099  34.1355753  72.0047187  10.5831027  16.6168185
  72.9019903  10.6842113  16.2991496  71.9302772  11.2171150  17.3300620
  58.5250104  53.0142450  12.7565324  58.6011529  53.8993025  12.4000120
  57.5900602  52.8153419  12.7061403  21.9724655  36.6498804  44.9753857
  22.3777151  37.5159764  44.9320078  21.0316157  36.8258357  44.9839926
  24.8263550   8.4321237  31.1245608  23.9430451   8.7909424  31.0394478
  24.9427199   7.8939271  30.3415942  42.3023593  67.4185809  24.3534680
  42.8858351  67.6303681  25.0821229  42.1336650  68.2599553  23.9293595
   5.0806957  50.9672260   8.5949641   4.2698491  50.7159138   9.0372354
   5.7202506  51.0588884   9.3012208  25.6965446  19.2306697  41.7832232
  25.1101375  18.9541245  41.0790396  26.3388348  18.5242331  41.8513584
  24.1943383  26.0172820  30.5822182  24.4926929  26.6561365  29.9348521
  23.8854074  25.2755475  30.0620031   7.3737490  53.2400009   0.3766938
   8.2917797  53.3854410   0.1479884   6.8821966  53.7307879  -0.2818898
  52.5340091  13.1874919  19.5488664  52.6188553  13.9351869  20.1404591
  53.3004986  12.6456285  19.7362538  49.9986029  55.7341146  45.6723213
  50.7025385  55.8144760  45.0287008  49.2096758  55.9975147  45.1985550
  51.8197920   5.5179572  18.3058091  52.4985154   5.9952140  17.8285333
  52.2595336   5.2012849  19.0948506  68.3737205  55.9974027  17.1293946
  68.5187613  56.5919328  17.8654166  67.5003718  56.2221361  16.8084784
  53.7751389  48.1734467  52.9665041  53.1109715  47.5128126  52.7698421
  53.9136744  48.1001043  53.9107800   4.5972157  39.0042543  47.2086477
   3.7980837  39.2011762  46.7199326   4.4073284  39.2884183  48.1027508
   5.2170824  27.2044444   7.0780726   5.4621314  28.0458713   6.6931220
   4.7725080  26.7377115   6.3704415  27.8687644  62.2887135  29.8187733
  27.2643042  62.3563528  30.5578828  27.3045135  62.3041344  29.0457201
  27.8470492  41.8495178  48.7185812  26.9470239  41.5610361  48.5670376
  27.7700901  42.7845001  48.9086151   1.8691467   1.7761135   6.2651463
   1.5331220   2.0478082   7.1192571   2.6291751   1.2311411   6.4690991
  44.6471416  65.0867804  24.7148248  43.7259364  65.0334319  24.4603368
  45.1245391  65.0980290  23.8852521  48.2791507  36.1449819  17.3960086
  47.6909339  36.1333849  18.1510564  49.1528546  36.2429216  17.7745315
  47.6114523   1.0864011  54.3844986  46.7611181   1.2825624  53.9911985
  47.4000895   0.6041185  55.1838493  47.5289332   0.3547279  50.2392721
  48.2123196   1.0164634  50.1328802  47.8120577  -0.1629265  50.9929991
  42.4024343  46.6836929  57.8921652  41.5859938  46.6474915  57.3938227
  42.3453760  47.5015068  58.3862877  24.4201303  47.6855087  52.0337343
  24.1516256  48.2748318  52.7385950  24.4294024  46.8177128  52.4375582
  61.7916250  51.6271925  60.3285074  62.5890613  51.7168951  59.8067045
  61.0830677  51.6266489  59.6849442  71.6998085  29.3524694  37.0457196
  71.2985650  28.7239385  37.6458740  72.6141977  29.0759087  36.9854093
  45.5274868  42.4600983  60.6810474  45.6304359  41.8424463  59.9570751
  45.5591297  43.3223391  60.2665997  15.5917667  29.3881536  17.1579619
  16.4564537  29.2477489  17.5437566  15.0244020  29.5791364  17.9048558
   6.1015748  13.9317155  30.7210561   5.3448557  13.7488771  31.2779923
   5.9758257  13.3719993  29.9548074  40.5827522  67.8329039  38.4544206
  41.2261772  68.5402536  38.4979749  40.8852482  67.1939039  39.0997148
  61.2249504  20.8206582  30.4997178  60.4574816  20.5127788  30.9818383
  60.8726107  21.4345384  29.8553296  31.5055059   3.5329914  15.2527257
  31.8004822   4.1806269  15.8928700  31.6635059   2.6889682  15.6756802
  20.4123235  64.4888878  60.3828430  21.2609553  64.8227310  60.6737137
  19.7860897  64.8447990  61.0132313  55.2372610   8.8730184  30.2585912
  54.9663913   9.0857450  31.1516786  56.0208928   9.4031469  30.1132798
   5.5909943  30.2788616  20.4976102   5.1035236  30.7656408  19.8330422
   5.0642251  30.3651166  21.2921544  26.8642569  28.1674051  43.9823914
  26.5145469  28.4537697  44.8261547  27.1529865  27.2677565  44.1356802
  37.9838860  59.5989140   1.4365455  37.2584378  59.1117963   1.0458108
  37.7948641  59.5983776   2.3748990  33.0767965  50.7628679  57.1495485
  33.4142971  51.6576576  57.1905184  33.4169602  50.3421879  57.9391956
  48.7166643  68.0193949  59.7053623  48.3895016  68.5730028  58.9963388
  49.5110035  68.4604549  60.0065660  29.0905333  45.5474138  58.9123821
  29.6031785  44.9730778  59.4812107  28.3142996  45.7649136  59.4285107
  58.9366627  63.1558132  29.6500254  58.6958075  63.2991409  28.7347770
  59.3870211  63.9601040  29.9079514   9.9017834  20.6540370  18.2136556
  10.1515864  20.2333236  19.0363618   9.9499797  21.5917135  18.3998605
  35.9161806  32.6022267  54.8755884  36.0136604  31.9962931  55.6101465
  35.6346464  32.0505595  54.1457748  12.7579092  35.2547956  11.8235417
  13.5539650  35.0742078  12.3234530  12.0886539  34.7060275  12.2324201
  73.0296444  56.1139989   5.7946177  73.6077165  56.5134454   6.4446279
  72.6291059  56.8562532   5.3419944  14.7380948  37.4012518  39.6288705
  14.1464329  37.2343421  38.8951755  15.5484438  37.7038884  39.2190218
  72.9662314  51.4278269  44.9828672  72.0893928  51.3783884  44.6021557
  73.2235348  52.3432922  44.8735666  11.5792560  10.2125383   1.1467095
  10.8458351  10.2131391   0.5316277  11.3028168   9.6232057   1.8484946
  65.7292568  16.8316976  55.6369686  66.0357153  16.2153760  54.9717903
  65.0809371  17.3705904  55.1836348  44.8459578  10.6344259  27.8632569
  45.5348873   9.9748999  27.9447174  45.1238775  11.1816192  27.1287012
  15.2235770  32.6682115  49.5435429  15.3727818  32.7415800  48.6008930
  15.7305658  33.3860564  49.9228716   7.3899328   4.0383474  58.4087658
   6.7814362   3.3064977  58.5105610   7.6812422   3.9828102  57.4986649
  26.3282347  30.4702044  33.2242632  26.6170621  29.6137953  33.5394979
  26.6345501  30.5076885  32.3181748  46.7078495  15.6925797  51.9634962
  47.4744225  16.0053825  51.4831209  46.5749264  16.3435721  52.6525307
  41.9405746  67.9394484  49.1465521  42.0749044  68.0943108  48.2115650
  41.6399479  68.7816048  49.4880533  26.8419385  46.1740065  60.3661919
  26.8196392  46.8034315  61.0869980  26.2962747  46.5691280  59.6862221
  62.1597635  64.4257077  10.2956029  61.9721162  63.4963902  10.4274817
  61.9671285  64.8312673  11.1409732   5.0360321  10.2459407  32.1554204
   5.4475330  10.5135942  31.3336774   4.4950460  10.9943653  32.4072762
  18.2384872  35.9871936  54.8607922  18.3059657  36.8609953  54.4758892
  19.1451383  35.6922531  54.9457979  13.5881257  51.5614700  23.1046438
  13.4635746  50.8766651  22.4475598  13.2939136  51.1635780  23.9240026
  66.8467999  19.3702281  57.0826912  67.6367950  19.6639192  56.6289473
  66.3912344  18.8245952  56.4416170  16.2060535  50.6817818  44.2007160
  15.4807603  50.1838827  44.5779181  16.9889903  50.3082848  44.6053648
  27.7610826  33.5665298  59.2852688  28.7086535  33.4456372  59.3463278
  27.3962593  32.7045345  59.4855165  56.9919073   6.3801805  45.0381422
  57.6685464   7.0467750  44.9196386  56.2755024   6.8410627  45.4747009
  63.3673787  45.7157898  11.8661439  64.1046941  46.2678432  11.6056895
  62.6283073  46.0468388  11.3558364  73.6242390  45.8303738  49.2584610
  72.8113651  45.3966045  49.5178938  74.2286921  45.1127911  49.0688801
  58.7347937  70.9540796  48.5111237  59.5507240  70.6014919  48.8663340
  59.0151596  71.6073513  47.8701401  35.3521847  28.9344335  17.0898505
  35.2944898  27.9852653  16.9803496  34.6361791  29.1505790  17.6872178
  11.4811063  49.8506260  55.1995659  11.2910795  48.9809608  54.8477125
  11.0621071  49.8576164  56.0601568  56.2176221  14.8927331   2.1511146
  56.3973968  15.8205772   2.3028203  57.0693301  14.4656301   2.2428056
  27.8809916  70.7197365  22.4873181  28.5017403  70.2658471  23.0573007
  27.1603825  70.9670266  23.0667993  66.4066171  15.9763885   7.7193948
  65.9746479  15.3572297   8.3078500  65.8723580  15.9646392   6.9252559
  72.3583220  25.8103395  39.2057343  71.4048265  25.7857299  39.1252824
  72.5154685  26.1053872  40.1026650   5.7952076  40.8072138  28.2599735
   5.1495725  41.2347126  28.8226748   6.5393662  40.6353331  28.8369656
  66.5084862  26.3034654  14.5184251  65.8819508  26.0559678  15.1984473
  66.1225258  27.0768619  14.1071721   6.0558158  52.7556419  20.2646542
   5.8172381  52.5691414  21.1726904   6.6261387  52.0293140  20.0128412
  15.2325547  59.1226959  41.8945885  15.5724931  59.8398590  41.3594723
  14.3299329  59.3755198  42.0884562  65.2927946  39.2606187   7.6255914
  65.7121252  40.0585342   7.9476615  64.7148966  38.9891458   8.3387347
  68.7218714  32.3376060  37.2257638  67.8164673  32.6268506  37.1125698
  69.1986847  32.7573133  36.5097165  41.7489862  65.9117889  46.3654327
  41.6478157  65.5656147  45.4787731  42.4036884  66.6046715  46.2787771
  34.0147090  50.2902365  54.5275688  33.7828064  50.4698563  55.4387140
  34.9314284  50.0171137  54.5631123  34.7369266  49.0805626  43.2768202
  35.1323891  49.4029760  42.4669504  34.0018320  48.5408068  42.9860735
   8.5495842  60.3726482  36.9664431   9.1050875  59.7677088  36.4748168
   7.8979993  59.8115492  37.3869586  68.2698661  50.3591204  36.1121535
  68.0738056  49.4834757  36.4453793  67.9597986  50.3457832  35.2066636
  67.3664933  63.0177689  31.2060213  66.6078842  62.4806356  31.4345622
  67.7443343  62.5851631  30.4403090  48.1029522   9.1202871  38.5909438
  48.7396800   9.0581647  39.3029451  48.1419265  10.0357000  38.3139610
  21.0157752  16.2559068  33.6246586  20.2688098  15.6677186  33.5137057
  21.4778328  15.9144711  34.3902683  34.8192382   7.0248646  33.5953188
  35.6347585   7.3917127  33.2538795  35.0993943   6.3968182  34.2611289
  62.9152858  67.3947152  18.5425683  63.5461795  67.8282651  17.9679080
  63.3930289  66.6472181  18.9020654  49.5531237  41.6865238   9.4331857
  48.9649426  41.0388389   9.8214885  49.8192226  41.2989625   8.5993882
  14.7304523  33.6119914  36.6682601  14.8562479  33.4406710  37.6015639
  14.5012152  34.5402789  36.6239142  15.9853280  68.0753756  57.4323893
  15.3712380  68.0692959  56.6981649  15.5305064  67.6019192  58.1289625
  17.0866632  36.2600748  13.5268947  18.0348998  36.1331576  13.5580417
  16.9123709  36.9272179  14.1907998  68.1698750  22.8623414  10.2934047
  67.2728108  22.7835822   9.9688979  68.1025468  23.4547592  11.0422297
  18.2469702  52.0002651  46.4215612  19.1555524  52.2813845  46.3134670
  18.2954347  51.0453510  46.4664507  32.1797800  57.4401045  47.3504686
  32.8326273  58.1313276  47.4610567  31.8621516  57.2666550  48.2366180
  74.5199044  42.6952171  58.9631653  73.7831658  42.1433687  58.7006474
  75.1935400  42.0767879  59.2459869  25.0834489  33.9504194  58.0071306
  25.8070040  33.9322925  58.6335278  24.7712016  33.0461264  57.9756403
  49.5320177  29.2533326  56.3320971  48.6430025  29.5877719  56.4505577
  49.8862314  29.7666144  55.6059361  10.6845379  48.8482475  45.7693768
  10.4355764  49.7724295  45.7575703  11.1195767  48.7281561  46.6135073
  14.5571100  65.5570396   4.1311475  14.4372045  65.1839885   5.0044700
  14.0709173  64.9707159   3.5514279   8.4133565  50.7878971  41.3868189
   8.3210444  51.6857481  41.0681057   7.5645465  50.3824329  41.2097549
  19.2221951  61.3673735  27.8384590  18.4727955  61.9519520  27.9520249
  18.9248121  60.5264759  28.1858635   4.0299581  31.6328884   2.7603312
   3.9541649  32.4780536   3.2032605   3.1511759  31.4597631   2.4226924
  42.0082712  60.2853870  19.0756381  42.6860571  59.7592592  18.6513424
  42.3786688  61.1671734  19.1142428  45.9648943  49.5743608  34.3842053
  46.6888952  50.1916504  34.4891238  45.6970215  49.6724415  33.4705019
   6.2271190  49.5302820  28.5659933   5.6584907  49.6988201  27.8146672
   7.1030623  49.7672272  28.2613444  43.1269550  51.6741085  53.3622456
  43.1741142  52.3295307  54.0582514  42.2089767  51.4031839  53.3501768
  18.5478317  69.0044650  19.0182801  19.1583883  68.3541879  19.3655415
  18.4336674  68.7594708  18.1000396  59.5601702  55.9117556  50.7056570
  58.6355448  56.0985279  50.5431175  59.9108362  56.7288017  51.0601997
  55.9773981  54.4191965   7.5017329  56.1053740  53.9143320   8.3048316
  56.0361111  55.3327950   7.7812358  25.3561664  64.6639824  38.1167936
  25.7941818  64.4273329  38.9343333  25.6893396  64.0357828  37.4760175
   5.1148653  32.2391868  48.3915567   5.8892584  31.7084956  48.5783911
   4.8992395  32.6511145  49.2282438  19.6961629  67.1286249  47.2381735
  18.7454534  67.0498323  47.3167610  19.9510396  66.3993168  46.6730404
  48.8063132  49.5638248  11.6841193  49.6735966  49.9433991  11.5427800
  48.2311666  50.3192421  11.8056889  20.4626346  53.0212593  45.6963110
  21.2321806  52.4692678  45.5572605  20.2720690  53.3883762  44.8330975
  22.8414941  39.4502950  49.6525621  22.8760147  39.7363687  50.5653620
  23.7383342  39.1831565  49.4512033  20.3065227  19.1364408   1.8542548
  20.9557127  18.6212564   2.3331805  19.8556112  18.4987712   1.3008233
  59.9783611  38.0888391  59.6950960  59.1104269  37.8821182  60.0417852
  59.8053074  38.6135006  58.9134216  63.0083441   9.8357273  31.5322705
  63.7984287   9.5855737  31.0532876  62.7498208  10.6730438  31.1471673
  35.9283876  43.5971594  56.2994146  36.3367939  44.4517660  56.1612797
  36.3801980  43.2362747  57.0622110  31.7486118   0.2701426   8.8658734
  32.0472073   0.1317668   9.7647210  30.8749412   0.6498385   8.9595004
  36.4575696  69.1934347  59.9610424  37.0998454  69.1071987  59.2565727
  36.1219978  70.0853872  59.8713446  47.1249676  45.3881788  25.8131433
  47.2698069  45.6886005  24.9159241  46.2003994  45.1415110  25.8368206
  11.2264799   9.9780393  39.8084470  10.8596062  10.4080940  39.0359994
  10.5806350   9.3107438  40.0404759  72.1482566  62.9052353  34.5726609
  72.8151488  62.7086163  35.2305603  71.4131141  63.2572079  35.0745702
  49.8300409  50.4046726  52.3409414  49.5441628  51.2738371  52.6221132
  49.0185642  49.9405527  52.1352053  22.3942493   6.4402652   5.8651467
  22.3936533   6.6113353   4.9233600  22.4320196   7.3085380   6.2662764
   3.7149166  13.7313915  14.9389859   3.5708426  13.6800695  15.8838864
   3.6710690  14.6667552  14.7404786  40.1868439  15.0429893  54.0135002
  40.8600521  14.6287096  53.4736872  40.2218533  15.9684598  53.7716150
  10.0150226  17.3852849   3.0773040  10.7823204  17.6494193   3.5849639
   9.9441646  16.4419866   3.2235928  15.5783199  52.7731538   1.0657187
  15.9353613  52.7746225   1.9538327  16.0302614  52.0523382   0.6270762
  57.6275301  50.4955196  43.2234764  57.9732227  51.1965275  42.6709175
  56.6803360  50.5302715  43.0898905   8.5505533  18.3504617  47.9161835
   9.3403167  18.7026405  47.5057220   8.0521238  17.9726779  47.1915579
  39.0726829  68.4225941  31.2464952  39.1556978  69.3714952  31.3410234
  38.4428215  68.3069658  30.5350637  37.1062613  31.0446405  60.4628706
  37.5621080  30.8235884  59.6507311  36.3676548  31.5855384  60.1833630
  12.1720206  55.7683906  34.1280576  11.6279411  54.9812611  34.1028615
  12.8711128  55.5566236  34.7466489  23.5948515  65.2613354  20.2806282
  22.7938962  65.0467539  19.8024452  24.0973592  65.8053923  19.6742284
  41.7904973   3.6135379  28.8816142  41.2647509   3.9061204  29.6260738
  42.6759421   3.5241882  29.2340875  71.6514503  60.1477083  17.0405694
  72.4675667  60.6322941  16.9166060  71.0208904  60.8093246  17.3249741
   2.8950333  28.5183072   3.3419200   2.7933763  29.4465042   3.5525199
   2.0576166  28.2681728   2.9515334   6.5508425  24.7973752  47.7447891
   7.2427100  25.1771259  47.2031784   6.2526673  25.5216503  48.2950115
  51.9863033  59.4705534  59.5628405  52.7470827  59.0125370  59.2055368
  51.5915966  58.8430738  60.1684093  62.6792967  24.8016206  28.9936829
  63.4972608  24.9372999  28.5153937  62.1318256  24.2956964  28.3932304
  59.4973075   2.1284095  51.2200403  60.0195848   1.3419000  51.3776922
  58.7440955   2.0366994  51.8035603  18.7492907  30.7413427  42.7349806
  18.0628263  30.3053895  43.2399035  19.3065226  30.0283662  42.4229193
  35.5032730  58.9133978  59.7798634  35.2867246  59.6797991  60.3108692
  36.3786197  58.6591625  60.0720263  10.6814945  69.9007416  55.5036926
  10.7874930  68.9639664  55.6693506   9.9031138  70.1458693  56.0039663
   8.3257054  43.4318376   0.9678145   9.2510318  43.2168842   0.8503695
   7.8968524  43.0780149   0.1886340  59.9484288  68.6329874   4.1804667
  59.5550239  69.3075594   3.6269208  59.6758282  68.8630399   5.0687238
  29.6703839  52.3365927  55.3868723  29.0451908  51.9505310  54.7734261
  30.0527048  53.0720282  54.9081278  63.5544788  18.5042707  50.5533361
  62.7594602  18.2535593  50.0828886  63.4978878  18.0356256  51.3860416
   7.4663984  11.2068788  11.3571978   6.6822683  11.0039941  11.8673050
   7.8312742  10.3519861  11.1286199  66.4473867  36.2974811  37.3674607
  67.3323059  35.9381509  37.3039746  66.4706278  36.8553782  38.1449199
  69.5142578  37.1918607   2.5795670  69.8169791  37.6134372   1.7752906
  69.1768192  37.9104925   3.1142970   3.7487566  10.8537332  57.4735212
   4.2684471  10.0720350  57.2861481   3.0582964  10.5470983  58.0612898
  28.8793825  11.1962009   3.6580153  28.4046959  11.4657617   4.4442960
  28.2201790  11.2089515   2.9640981  54.3322468  51.4086771  55.2350378
  53.6637163  51.7758083  54.6566677  54.4751406  50.5221558  54.9035263
  37.0086479  53.0603552  50.9609842  36.3531327  52.6636648  51.5347147
  37.7005601  52.4020481  50.8967590  28.1539798  44.3063211  49.9385357
  27.6652050  44.1258192  50.7415009  27.8140092  45.1481724  49.6353197
   5.2032721  30.5129433  39.0109277   5.1192832  31.2046194  38.3546042
   4.3238357  30.4229975  39.3779898  36.4074540  47.4804640  26.0491014
  37.3494053  47.5592566  26.1999416  36.0075378  47.8148365  26.8519068
  68.9840292  17.3635269   7.4754878  69.2079042  17.8950763   6.7115708
  68.0287849  17.4023939   7.5226994  69.9371122  20.7518602   9.3289395
  69.5515298  21.5436864   9.7038575  69.8082458  20.8464265   8.3851787
  51.5829229  44.9341106  38.8405371  51.2975025  44.0487337  38.6149693
  52.2818422  44.8044205  39.4815707  29.5429539  17.3980689  20.4853841
  28.6521505  17.6796508  20.2770158  29.6210932  17.5302291  21.4301892
  69.6323395  63.0062914  36.0276842  69.3861294  62.4444246  35.2928925
  68.8141441  63.4266758  36.2923908  58.0032539  61.1964893  48.5900640
  58.1537962  61.1614704  47.6454258  58.5445929  61.9258833  48.8919973
  37.4319077  66.2311697  47.7560472  36.7753267  66.9092751  47.5969696
  37.8483033  66.4891720  48.5784101  11.1799299  20.7844488  41.1404705
  11.8596374  21.3431779  40.7635832  11.0750925  20.0744382  40.5071211
  51.6900085  44.3229700  18.6131116  50.7841705  44.0137172  18.6195680
  52.1307730  43.7870384  19.2724629  53.1891680  47.7119684  58.0250549
  54.0083122  47.7784872  58.5157776  53.3347845  46.9909763  57.4125195
  32.3261857  56.6788340  49.9668598  32.3757839  57.3831320  50.6131840
  32.5127769  55.8830500  50.4649973  14.1919898   0.9231043  33.2069226
  14.6858143   0.6455422  33.9785024  14.1161751   1.8727518  33.2999345
  28.3224356  68.6936268   2.1808644  28.6533510  67.8831371   1.7937823
  29.0661013  69.2954286   2.1488162  24.7119832  53.7426996  55.3017664
  24.9233627  54.6092701  55.6490564  25.4017115  53.1732559  55.6427097
  69.5863676  53.9862490  58.6204147  68.6876535  53.8897610  58.3053970
  69.9241686  53.0914497  58.6585474  42.1782446  48.4490204  37.0147729
  41.9230127  47.5293589  37.0876837  42.5076532  48.6758327  37.8844166
  65.6695271  64.5296860  24.1692853  65.6483269  65.1161861  23.4131122
  66.5681410  64.5893764  24.4935727  42.0547819  47.0655346  44.7198915
  41.8105936  46.1417150  44.6636200  42.9764509  47.0543528  44.9780321
  46.7077934   8.5616151  20.0606251  47.5120508   8.0853263  20.2668953
  46.0482490   7.8780643  19.9423730  27.2267699  65.7850552  20.4000521
  27.2839093  66.1425114  21.2861633  28.1260037  65.5396938  20.1823187
  62.2845602  51.2482500  33.9453697  62.3683262  50.8527088  33.0777502
  62.3425341  50.5099344  34.5518017  53.8661345  29.3366123  16.2654277
  52.9339114  29.4123674  16.0618230  53.9091088  29.4029165  17.2193595
  59.7540903  55.5542231  61.7120314  60.6120539  55.5082226  61.2901068
  59.2034435  56.0226059  61.0846281  61.8650996  11.6592447  24.3564391
  61.9336473  11.8718378  23.4256649  62.1324074  10.7418577  24.4128990
  16.2059425  11.6152072   9.5502158  17.0314049  11.8388152   9.1202804
  15.5849718  12.2704816   9.2320224  44.3141865   7.8612447   5.3371783
  44.9958443   8.2338834   4.7779723  43.8177894   8.6188102   5.6468841
  52.9736789  22.4314428  23.4016057  53.0671965  21.9459987  24.2212602
  53.0961280  23.3475662  23.6505052  51.8687236   2.5888053  56.7647123
  51.6185653   2.2982065  57.6417589  51.1601078   3.1729356  56.4947367
  72.3130285   1.6201250  42.7537918  72.9621183   1.0582487  42.3304605
  72.8226053   2.3469011  43.1120586  57.4651718  60.8283329  53.5652971
  56.6667032  60.9895086  53.0625963  57.5546980  59.8753643  53.5736179
  71.3171362  17.7277208  22.1200581  71.0622476  16.8810869  21.7533608
  72.2741960  17.7127672  22.1145554  58.2686472  66.2809753  45.3329134
  59.1164589  65.9247398  45.5985069  58.1198454  67.0148945  45.9291077
  62.1123409  53.8078308  34.1126752  62.1269321  52.8512287  34.1432500
  61.7628145  54.0144587  33.2458615  20.9407306  57.0138836  11.8988872
  21.2832093  56.1493254  11.6719961  19.9915385  56.9257927  11.8122506
   4.9883317  12.8444600   3.8697167   4.7431134  13.7364984   3.6240312
   4.3474435  12.5945974   4.5353480  46.4116573  69.2785215  24.9558401
  47.1500778  68.6853504  24.8175812  46.7348385  69.9198437  25.5886793
  11.3475155  32.3080755  26.9031831  11.6343902  32.5034070  27.7952500
  10.4709243  32.6881004  26.8448659  44.5927477  57.6444530  45.6217575
  43.9755774  57.2719908  46.2515211  44.0464735  58.1557369  45.0247574
  19.3992412  71.0007763  59.4141769  20.0704956  70.3778124  59.1356659
  18.6680198  70.8485174  58.8155413  27.4985956  55.2255559   4.7046586
  27.0211338  55.9068799   5.1779958  28.3739399  55.5912042   4.5769568
  69.2605924   2.5173974   4.6412965  68.3886229   2.1948195   4.8689910
  69.7989689   2.3123932   5.4057284  69.2418873  68.4693250   3.3596536
  69.8854410  68.5550674   2.6562949  69.1441309  67.5248989   3.4810325
   3.1243574   4.3066017  33.7327313   2.1794617   4.4440929  33.6656356
   3.4632980   4.5477859  32.8706551  29.1916393  32.8421092  15.9167930
  28.3661579  32.5670648  16.3157435  29.6839832  32.0295024  15.8006211
  73.1385290  68.7199673  12.3491784  73.7389910  69.0817460  13.0009433
  72.6269495  69.4721254  12.0512267  66.4710283  34.0693641  52.2290039
  66.0303593  34.8976731  52.4186039  66.5520191  33.6406493  53.0809879
   1.5903627   5.0836746  28.5626292   1.7056047   4.4049970  27.8975368
   0.7209360   4.9170438  28.9267206  65.3563320   2.7712623  52.0350170
  65.2181184   3.7177602  51.9993544  64.5780932   2.3997442  51.6196203
  46.7226385  58.1755948  10.0405045  46.3867115  57.6742673   9.2974969
  47.1787189  58.9171148   9.6425363  52.0408726  55.3313303  43.3701038
  52.8724241  54.8699999  43.4793282  52.1757126  55.8901262  42.6047277
   6.7239010   8.1597654  50.9338808   6.0678875   8.8009874  50.6605530
   6.2135517   7.4275581  51.2797785  23.8652098  19.2423955  57.7202559
  24.1427004  18.3533994  57.4990797  24.6492397  19.7766153  57.5932169
  40.6142235  60.6694460  42.5528860  40.3284550  61.2937641  41.8859529
  41.3595390  60.2189875  42.1556139  26.5572071  61.5887451  51.4349794
  25.7811642  61.0481644  51.5824986  26.2101102  62.4637079  51.2612200
  13.2215071  68.2498169  50.9099436  13.1026185  67.5300312  50.2902699
  12.4195886  68.2508326  51.4325905  20.2267218  46.1508942  53.5180044
  19.4991577  45.5546522  53.3408737  19.9876952  46.5835667  54.3376970
  42.6177454  50.2116394  17.1626306  42.9311609  50.1109266  16.2638199
  43.0699492  50.9899521  17.4881697  37.5361907   0.9116785  32.4067187
  37.4173486   1.6948787  32.9440308  38.4716296   0.8998910  32.2041178
  40.8842707  57.3387623  39.6432638  40.0048590  57.7067518  39.7295523
  41.2224722  57.7145720  38.8304782  25.2653599  61.8374348  22.2535872
  24.4089007  61.4541435  22.4427819  25.3941727  61.6855955  21.3173270
  49.4168377  53.2482672  56.2485027  49.2197418  54.1848755  56.2605524
  48.5593081  52.8232145  56.2343168   6.3176394  47.8760386  46.4196587
   6.8945038  47.3822689  45.8368635   6.8814880  48.1416178  47.1461391
  61.9955969  52.7743912  48.5562611  61.6754150  52.6505756  47.6627398
  61.7077208  53.6558151  48.7938643  51.1564314   8.9223615  53.2480907
  51.0156357   9.8436109  53.0296659  52.1082985   8.8226644  53.2636547
  54.3581613  12.3578096   0.7333537  53.5700183  12.8573156   0.5199071
  54.6072387  12.6644063   1.6052409  44.5364189  30.6806040  44.1617393
  43.8308573  31.3017130  43.9810801  45.1963902  30.8669662  43.4939528
   8.4297621  14.0951196  54.8790598   7.6932203  14.0448705  54.2697906
   9.1989576  14.1913454  54.3175364  54.3640070  29.1622281   4.3370267
  53.4536760  29.0761209   4.0539809  54.4774659  30.0991083   4.4970866
  62.8802656  36.5183854  31.3540193  63.2638811  36.9247461  30.5768891
  62.3169207  35.8257890  31.0087892   5.5229448  19.0900827   0.9592553
   4.6053981  19.0664935   0.6876250   5.5506181  19.7495103   1.6525241
  64.7290908   8.4610677   3.1037827  65.4555236   8.9312196   3.5130330
  65.0330316   7.5553394   3.0445929  13.3642542  55.3817415  50.4139042
  13.6263192  55.3908539  49.4933224  12.8985536  54.5525026  50.5221605
  17.6448797  33.9247346  21.0054608  17.5908398  34.8784376  21.0668107
  18.1121420  33.6598516  21.7977544  41.5260910  17.7807355   2.3827287
  40.9325146  17.8370548   1.6339131  41.0972189  17.1708274   2.9829856
  11.2330388  18.9188791   6.8936082  11.4235710  19.7213340   7.3793956
  10.3118037  19.0011621   6.6470643   8.2188081  35.0898433   2.2711059
   8.9130234  35.7029748   2.5127097   8.4412908  34.2818094   2.7335092
  41.2423611  58.0732203  54.0650082  40.2982330  57.9882431  54.1977882
  41.3628769  57.9591465  53.1223011  24.2855453  44.0866899  61.7829561
  24.9634480  43.7203217  61.2151098  24.7316098  44.7767067  62.2740126
  47.9228317  15.0770132  39.6530700  48.3846819  14.8074857  38.8591695
  48.3426558  14.5796529  40.3549337  71.3921321  22.9742447  55.4282824
  71.9048131  23.7145535  55.7528297  70.6949986  22.8638855  56.0748581
  33.3670401  37.5196100   4.3172475  33.3697580  37.0448327   3.4860965
  33.6521219  36.8733096   4.9631997  37.0641136  57.4542761  46.9544554
  37.3617220  58.1283236  46.3434553  36.9943166  56.6620779  46.4217424
  35.7249784  64.0806326  29.4364282  36.0129666  63.1715521  29.3535443
  34.8286813  64.0187725  29.7666665  29.5504402  24.1430021   7.1984073
  29.2722916  23.8679099   8.0720111  28.8975023  24.7902084   6.9318887
  59.3801271  53.6673626   4.0762063  59.0073955  54.0128204   4.8873540
  59.0335381  54.2387864   3.3909436  45.8643268  56.7522359   7.7948447
  46.5510296  56.3161588   7.2903462  45.4191183  57.3124242   7.1590682
   8.4661912  65.8250070   7.6101180   7.5524687  65.5653215   7.7280398
   8.8298701  65.8302713   8.4955235  21.6698718  42.1367073  56.1866713
  22.3446584  42.5445414  55.6439304  22.1105051  41.3933182  56.5983105
  48.9456295   1.7164231   0.8719846  49.8722242   1.9521976   0.9174272
  48.6151575   1.8722988   1.7567035  71.6444778  68.4740925  56.6662979
  71.3124752  69.3246317  56.9536877  71.8295145  68.5916090  55.7345343
   6.9955325  67.7942991  57.5827503   6.3858569  67.8642321  56.8481541
   7.6149094  67.1149540  57.3161173  28.3174871  25.2155185  11.6124698
  27.4014496  25.1339269  11.8778916  28.8049339  25.2321029  12.4360915
  20.1226305  37.5930715   4.2780372  19.8907827  37.1991992   5.1190730
  19.5721172  37.1381927   3.6406585  19.8059868  43.1464696  26.0139295
  19.4676374  43.2871795  25.1296445  19.7995161  44.0160156  26.4140340
  22.0967304  33.1063596  46.9085550  21.7563736  32.7459566  46.0897160
  23.0270683  33.2527009  46.7374277  64.2911040  10.6553308  50.8685637
  63.7956702  10.0169221  50.3555202  63.6569631  11.0023347  51.4960051
  21.9552874  -0.1915478   1.5927859  21.4027046   0.1828742   0.9067174
  22.7894663   0.2699900   1.5069600  27.2876692  54.9596596  41.1682463
  26.3715315  55.1985121  41.0272694  27.7749538  55.7642746  40.9910917
  65.5535841  69.5840549  54.3212223  64.8851490  69.8459005  54.9543619
  65.8403206  68.7206936  54.6189070  41.6343045  23.3640806  49.1520262
  40.8617889  23.8087503  48.8031483  41.3311743  22.4783079  49.3514013
  65.6923508  14.6078468  10.7423278  65.0325917  15.3012109  10.7283851
  65.2867876  13.8817621  10.2684565  41.5911136   8.6873977   7.8085347
  41.7196546   7.8400676   8.2348414  42.3243223   9.2222564   8.1127711
  70.4404449  54.5626736  61.1506605  70.0121403  55.4186630  61.1421537
  70.2351522  54.1836309  60.2960157  74.9931681   3.1064311  47.1358776
  74.5494568   2.3227874  46.8114471  75.9238445   2.9278318  47.0010757
  33.5346961  57.7012205  53.1117964  33.2970333  57.4909496  54.0148640
  32.8684068  58.3272791  52.8283501  63.7092422   1.0978794   7.1752520
  62.9676973   1.6576958   6.9451495  63.3754550   0.2060891   7.0776387
  46.9227552  64.3797541  51.5705776  45.9957552  64.3159008  51.8004227
  47.3488522  64.6774912  52.3743391  63.9352428  20.3114820   3.4709330
  63.4569215  20.2318597   4.2962190  64.5607292  19.5870662   3.4857675
  56.4251601  21.2210886  34.5062900  56.3154995  20.7543222  33.6778378
  56.6602575  20.5395261  35.1359153  75.2304316  70.4386854  42.9924583
  74.6801519  70.1641226  43.7259722  74.9376678  69.8988628  42.2582150
  21.4410841  13.8492338  35.4755545  22.3186743  13.8032285  35.8549666
  20.9664308  13.1237165  35.8812046  51.9395053  18.9616243  41.8408489
  51.4258706  18.7661115  42.6245499  51.4118921  18.6222879  41.1178637
  55.6449484   0.0434161   4.6800013  56.2387155  -0.2963638   5.3494950
  55.9222387   0.9505940   4.5520469  50.7835579  55.5584383  48.7537146
  51.1999464  55.1065207  48.0198050  50.5809593  56.4302206  48.4143353
  15.0530361  39.3339229  21.4600011  15.7051920  39.1141439  20.7946988
  14.6468042  38.4963966  21.6830655  48.8365555  52.8217793  53.5042953
  49.0201330  52.9271984  54.4377947  48.6865997  53.7125397  53.1875992
  52.7325165  25.2235357  33.8558555  53.2646644  24.5559923  34.2888069
  52.0931971  25.4866830  34.5178628   8.4902667   8.6500860  26.6750737
   9.1354488   8.0679250  27.0763989   8.0174707   9.0302968  27.4154397
   8.0010699  22.6353717  14.4931241   8.3080648  22.8331352  13.6083194
   7.2667431  22.0352483  14.3633099  45.7260036  69.8872662  43.2030869
  44.8044062  70.1446390  43.2286835  45.7065725  68.9414263  43.0573225
  54.6856308  35.9429288  34.5123911  54.3518734  35.9297347  35.4094219
  54.5698214  36.8492436  34.2270565  22.7606034  56.1501408  44.4485855
  21.8892026  56.1581326  44.8446035  22.9236102  55.2287245  44.2469549
  62.8849459  67.2489691  60.3541279  62.8883934  66.7521572  61.1722994
  63.3983755  68.0332184  60.5479717  18.4500860  24.8051143  11.4663573
  17.9224466  24.8407817  10.6685086  18.2285046  25.6090951  11.9361897
  24.2104637  16.3402025  60.9528637  24.3485128  16.5199892  61.8828392
  25.0371801  15.9588377  60.6573439  11.2977266  61.0671616  60.5936623
  10.7661510  60.4423141  60.1004839  11.7359316  60.5363035  61.2587929
  31.8968700  25.5113817   4.5018311  32.1028971  25.2492023   5.3990718
  32.7480816  25.6956172   4.1046830  10.9370971  61.3537550  25.5195045
  10.0731480  61.2654161  25.1169872  10.9742570  60.6473398  26.1643529
  53.7120867  69.1315222  56.3025618  54.2781162  69.8285151  56.6342878
  53.3566952  68.7170219  57.0887661  28.6226618   4.6430437  51.0562134
  29.4177305   4.6680156  51.5886402  28.3587706   5.5597059  50.9766912
  21.6689777  51.5145397   6.8498534  21.5146565  52.2530699   6.2607950
  22.3526645  51.8217993   7.4451649  35.6659555  55.6344223  34.2910624
  35.0575924  56.1585379  34.8120499  36.5316200  55.8703375  34.6245241
  68.5621249  21.7202878  13.3416387  69.0255534  21.7155433  14.1791602
  68.1283211  22.5730539  13.3127662  10.9760784  24.0166259   8.1275054
  10.1571440  24.4815612   8.2990142  11.6114186  24.7093416   7.9466077
   0.0621414  36.4050746  31.1314654   0.5713177  35.8554244  30.5357671
   0.0662994  37.2701216  30.7217026  31.9574690  65.3133774  44.1771460
  31.6992092  65.1474571  43.2705021  32.9144430  65.3025007  44.1594076
   9.1278189  46.6087914  57.2405863   8.5130084  46.0728788  56.7395544
   9.4802594  47.2289801  56.6023254  23.4254003  64.5090437  27.8664684
  23.6241460  65.2164602  27.2530389  24.0987754  64.5822668  28.5428095
  14.4029545  34.5283151  -0.1767282  14.4902443  34.9280382   0.6886264
  14.8788284  33.7006879  -0.1073674  21.3044047  61.4432669  22.7731824
  20.7927895  62.2291088  22.9653645  21.7501521  61.6430426  21.9499993
  24.6335626  50.0979376  41.8362808  24.6266460  49.7728157  42.7365446
  23.7166119  50.0669384  41.5633821   2.1532744  63.5303164  27.5503016
   1.3721117  63.4343767  28.0951071   2.5662482  62.6669979  27.5695992
   7.4027919  19.8951078   3.5159894   6.4729093  20.1214481   3.4981795
   7.4780034  19.1448141   2.9263850  72.2796583  51.2339258  55.2662945
  71.7762566  50.4585123  55.5144024  72.7522564  50.9701633  54.4767952
  23.0181861  62.5347519  41.7604828  23.1217551  62.4681187  40.8112383
  22.0713925  62.5726938  41.8960381  50.1859999  70.2763176  22.5667906
  49.7605085  70.2649498  23.4241486  50.5172062  71.1697483  22.4756026
  73.1752359  17.1265832  37.5635576  73.1724131  17.9551641  38.0428028
  74.0598213  17.0609991  37.2037768  29.1253686  56.6911077  29.5261025
  29.5574832  57.2296190  30.1890612  28.7287974  57.3225307  28.9258766
  36.8926786  36.3713384  10.9864922  37.6179241  36.9744945  10.8238574
  36.1694549  36.9349504  11.2613030   6.4691246  57.3892307  46.6016150
   5.9379184  58.0659628  46.1819887   7.2668052  57.3494482  46.0740232
   5.7395994  13.2249395  53.4275293   5.3604090  14.0967981  53.5384798
   5.7423889  12.8510610  54.3086863  73.9363884   3.8909126   1.7558309
  74.1679548   3.9615631   2.6819058  73.1681537   3.3200312   1.7439195
  66.6052675  57.1777344  44.9097586  66.4325285  56.3872528  45.4211617
  67.3669100  56.9550228  44.3744802  38.4495091  57.2329235  14.5977318
  39.2334867  57.3498344  14.0611291  38.0364823  58.0963469  14.6096599
   5.9065401  23.6521188  57.9746628   6.3182365  23.7715951  57.1188259
   4.9705088  23.5916368  57.7838278   0.3426252  52.2739315  55.7498026
   1.2207615  52.6547861  55.7421350   0.0133225  52.4133635  54.8619127
   5.8880817   8.4310857  40.3272772   5.3147184   8.4756462  39.5620942
   5.4897081   9.0285436  40.9601927  62.6609516  18.7778044  31.4003706
  62.1322870  18.1862545  31.9359183  62.0420551  19.4401288  31.0929227
  70.3115856   8.5788290  54.5365429  70.8372700   7.8995506  54.1140890
  70.3111469   8.3395902  55.4633617  55.1547896  65.6612309  16.3329431
  54.3619739  66.1871489  16.2276574  55.5679833  65.6753620  15.4696341
  69.6689034  65.3337145  43.9526749  69.3777657  64.4875431  43.6128807
  69.3051910  65.3746271  44.8371363  65.5730295  37.3327732  57.8511858
  65.9231043  37.8440094  57.1215868  64.7184753  37.0305204  57.5435925
  17.0834196  49.1714239  58.2612848  17.1370053  48.2157707  58.2517338
  16.1564553  49.3607950  58.1160021  62.6373589   2.9855863  61.3010311
  62.7504408   2.7390186  60.3830767  61.6891348   3.0429260  61.4185715
  19.7653282  48.9683676  34.6021771  19.9409163  49.1388750  33.6767960
  20.1512527  48.1075954  34.7645521  27.4346352  67.7969694  59.0511560
  26.6744685  68.3687735  58.9443064  27.9407597  68.2006264  59.7562313
  57.6982450  68.8109207  47.2586155  57.8013468  69.7543621  47.3832178
  57.3453283  68.4965515  48.0909920  24.4959688  58.3477592  41.0994673
  25.0002909  58.5424709  41.8893909  23.6003733  58.2204485  41.4124012
  70.4431057  51.0056353  28.3675194  70.0383806  50.4595566  29.0414810
  69.8423147  50.9533310  27.6241851   4.4224214  37.1878839  15.4137536
   4.9669241  37.9396177  15.1799985   3.6185240  37.5734830  15.7620212
  75.8005714  61.6123676  58.6362219  75.4550743  62.4371529  58.2947636
  75.0335884  61.1567688  58.9832020  70.3873217  14.5428316  28.9830756
  70.8912813  15.3261510  29.2036915  70.9783709  14.0234033  28.4380126
  14.6413492  16.2554717   5.9566708  14.0475701  16.4139629   5.2228185
  15.1225256  17.0768190   6.0571309  72.5661587  23.9383436  46.8723699
  73.4239053  23.7336231  46.5000840  72.1699475  24.5415664  46.2435838
  62.6931344  48.1108117  26.6220971  62.3666607  48.0386663  25.7251855
  62.0698654  47.6066327  27.1451302  45.4140615  65.8473015  27.3181534
  45.0665998  65.2773857  26.6320777  45.2027464  66.7331553  27.0234680
  48.6194849  55.3077269  51.9786453  47.6997232  55.5335617  51.8398428
  48.9067888  54.9471092  51.1398125  10.1376079  26.5414453  14.5753690
   9.9356483  27.4549508  14.7777339   9.6976565  26.3780189  13.7411233
  46.7384170  10.4273439   5.5060264  47.5677942  10.4555631   5.0289889
  46.5909456  11.3314367   5.7837077  45.7657682  37.2520105  26.9123077
  45.0934517  37.8305475  26.5524197  45.2748239  36.5360300  27.3155141
  60.4874241   5.7318679  45.1501083  61.3788068   5.9990541  44.9258757
  59.9398815   6.1351959  44.4764996  32.3374575  65.0995454   7.3336097
  33.1632822  65.2943238   6.8905421  31.8482363  64.5680865   6.7055627
  60.7345247  41.2404490  26.0720015  60.1077080  41.5503836  25.4183388
  60.5347919  40.3097820  26.1729884  60.1807415  16.0681192  20.7216883
  60.6357085  16.2627450  21.5410542  59.9696075  15.1363412  20.7804441
  26.0004734  47.9885126   1.3598033  26.7488884  48.4139848   1.7782374
  25.5366491  47.5588060   2.0784446  44.0479040  65.1732492  51.0018921
  43.8699245  65.6432343  51.8165541  43.3349609  65.4295397  50.4168606
  31.0791885  16.1969034  35.3802824  30.4856789  15.4626981  35.5381751
  30.5072510  16.9635526  35.3433251  27.0045769   4.2694942  23.0327034
  27.9611790   4.2975131  23.0516553  26.7456734   4.3035594  23.9535952
  38.4630680  58.3038807  50.7981730  37.8408194  57.6171446  50.5585146
  39.3224764  57.9188490  50.6267166  48.9849293   4.4628612  55.8986235
  49.4849622   5.2789823  55.9106398  48.1788313   4.6827165  55.4316092
  73.6996519   5.6362668  35.9938002  73.1418812   6.4006893  36.1379528
  74.5878136   5.9535924  36.1572194  44.6844101  64.6950483  55.2861691
  45.4356337  64.2146492  55.6341743  44.2037535  64.0472937  54.7707891
  54.8308551   8.9573137  13.1364226  54.3198335   8.2779495  13.5763609
  55.1380360   9.5226518  13.8451302   4.4342445  51.3273645  18.1591721
   3.8489388  51.4895368  18.8990041   4.1250514  50.5021119  17.7855702
   4.6763765  16.3947145  53.9388895   4.6620094  16.5522138  52.9948473
   5.2743446  17.0580713  54.2833138   2.7257454  66.1061319  27.4204083
   2.6386272  65.1530703  27.4026318   2.5541317  66.3453802  28.3311959
  25.8956421  55.9559074  59.5255792  25.4501331  55.1919952  59.1592697
  26.7905605  55.6568829  59.6866324   9.6809971  36.2339822  26.7115831
   9.2560541  35.3773729  26.7549181   9.4463598  36.6597311  27.5361538
  23.7278605  45.0275087  57.2772503  23.4605241  44.1094017  57.3201752
  24.6841860  44.9974537  57.2494555  63.9952862   8.0630104  28.0711579
  63.8195121   7.2212020  28.4915042  63.1429374   8.4974329  28.0393243
   6.4254820  36.5303461  28.6054587   5.5095732  36.7197267  28.8091159
   6.3856518  35.9087602  27.8786349  44.1964530  29.1484300  10.9514713
  44.2425489  30.0416414  11.2924719  43.3634245  28.8095895  11.2793171
  59.1824125  19.2460943  12.1098109  59.7845720  19.3461728  12.8471156
  58.5389303  18.6048532  12.4114343  42.5918054  24.7681180  16.1998034
  42.7804017  25.2789823  15.4126000  43.2359981  25.0690404  16.8406570
  36.8764603   3.4952013  54.6626520  37.6330101   4.0438596  54.8696041
  36.9530117   3.3259717  53.7236452  51.2271093  42.2619796   4.1852542
  51.4480804  43.0170322   3.6400052  50.5670713  41.7869163   3.6803790
  40.4499077  20.3593755   8.6225434  39.5076441  20.4996705   8.7157556
  40.5990862  19.4862008   8.9852353  28.5990166  30.6150270  10.1115437
  28.4770082  29.8248744   9.5852347  28.1791424  30.4130626  10.9476920
  52.4400187  70.5739260  48.5778475  51.6487789  70.0400305  48.6494493
  52.4647617  71.0759211  49.3924761  44.6871101  17.4345914  48.7583923
  44.5878326  18.2189695  48.2188320  43.7970936  17.2238771  49.0407324
  10.2176355  51.1490083  20.5907365   9.9116300  51.6012788  19.8045751
  10.5680393  50.3186727  20.2682706  57.8617334  58.0806351   3.4862387
  58.1889915  57.3477030   2.9647529  57.1765661  57.6977015   4.0340894
   4.9598848  53.4136621  61.3607454   5.5302250  52.6450864  61.3451958
   5.3583109  54.0202466  60.7366180  61.1938143  66.8196917  58.4387445
  61.8415689  66.8445158  59.1430378  60.3517580  66.9121027  58.8844252
  22.1626687  48.8485432  59.4133472  21.4087439  49.1950941  58.9361382
  21.7823792  48.3982754  60.1675844  66.8617975  18.5502759  44.4645309
  66.1265194  18.0293886  44.1416216  67.5229609  17.9038087  44.7118568
  48.8932461  52.4014116   5.1121255  48.4208246  53.2141614   4.9318906
  48.2537212  51.7098546   4.9418851  32.3074554  18.9214445  24.8752995
  31.8807815  18.2779622  25.4410859  33.1928800  19.0023685  25.2298470
  44.2893028  42.7667856  41.7749357  43.7396479  43.0991936  41.0652828
  44.6832466  41.9700289  41.4196682  33.3690177   3.0131595  20.4814073
  34.0293060   3.2936065  21.1151238  32.7761947   2.4547927  20.9844132
  41.6232252  70.2362299  28.6985087  40.9116364  69.9695015  28.1165075
  41.1847353  70.5017090  29.5068884  13.7673866   4.7319356  43.8948631
  13.1006729   4.9447671  43.2418489  13.5223543   3.8630096  44.2129183
  33.7134718  23.0583898  28.8234258  33.6203765  22.4797670  28.0666184
  34.2608952  22.5662652  29.4352818  56.7374598  31.0726301  57.9466867
  56.1772882  30.9912340  57.1747971  57.0135748  30.1762811  58.1378460
  61.8382502  56.2790346  53.0980921  61.3151693  57.0125628  52.7747440
  62.6174879  56.6880989  53.4745121  56.4887619  62.0204735  56.0255384
  57.1334505  62.1649981  56.7181540  56.9298172  61.4401865  55.4050827
  21.9143688   6.0139171  53.2908344  21.9489777   5.1622716  52.8552532
  20.9973680   6.2801115  53.2238483  22.8488314   0.2751056  54.5080233
  23.7240230   0.6251804  54.6745062  22.3086798   0.6363670  55.2108479
  -0.0954712  10.9927980  56.5024757   0.6658327  11.0211889  55.9229565
  -0.1706398  11.8842069  56.8430042   4.6635305   4.5077077  17.3110843
   4.0416443   4.4570199  18.0369782   4.6926367   5.4373971  17.0851064
  14.8272716   7.8177206  40.0701809  14.5026552   8.3948366  39.3789577
  14.3316042   8.0734054  40.8481073  19.7386086  52.9629421  22.6928258
  19.4722569  53.8721895  22.5565982  20.6761694  53.0133438  22.8790259
  34.3910992  37.6194040  61.3603973  34.5254433  37.1378557  62.1766615
  34.0365898  36.9689790  60.7541704  13.2735800  29.7770381   4.3760224
  12.7217268  29.2463470   3.8015099  14.0654229  29.2533183   4.4982310
  73.8301289  14.0975992  47.8618193  74.3781960  13.6498777  48.5063314
  73.1226503  14.4852582  48.3770132  63.2053935  16.2754385   9.0908563
  63.0469501  16.4568750   8.1644607  62.5150954  15.6591836   9.3357044
  18.5733520   1.0876361  44.5063400  18.0154478   1.7851488  44.8505163
  19.0512382   1.4970819  43.7850857  39.7000873   5.6622449  50.3150034
  40.0401175   6.0260145  51.1324930  40.3530657   5.9005300  49.6569252
  59.5314371  10.1130430  28.7014723  60.1717936  10.8132783  28.5755682
  59.8858296   9.3729345  28.2086444  55.4257690   1.0519163  27.9905295
  55.2659976   0.1931755  27.5990343  56.3028371   1.2919847  27.6916122
  43.7132215  57.1541834  37.2784901  43.9429092  57.2421694  36.3534307
  42.9964399  57.7753353  37.4074292  28.3441221   0.9367410  46.5920401
  29.1983234   0.6358854  46.9019651  28.5460150   1.6580144  45.9960222
  74.1458116   6.3518302  19.6145364  73.8204180   7.2497908  19.5512029
  73.3719669   5.8313052  19.8300763  21.2536311  62.3662949  55.7412386
  21.0630345  61.8948174  56.5521717  20.6818891  63.1334352  55.7701683
  10.4240143  28.6122076  39.9687243  10.2232897  29.2644540  40.6399250
  11.3784372  28.6276857  39.8975325  21.8806195  70.0632191  17.1475685
  22.5020647  70.5082035  17.7237844  21.0540509  70.5264235  17.2834337
   1.2238239  53.3264184   2.7410098   1.1354278  52.9921365   3.6335727
   1.7453169  52.6639963   2.2877141  47.1133947  63.4596872  35.6767583
  47.3673916  64.3419552  35.4059815  46.6553640  63.0987358  34.9177098
  64.5431840  20.3290979  42.1882343  65.2666246  20.7809202  42.6226616
  64.3605267  20.8597318  41.4128017  39.7123444  10.6299821  30.3749728
  39.3469631  10.3138486  29.5486665  39.0585339  11.2457983  30.7059312
  32.4876690  62.5774956  49.1995859  32.7586985  62.4928427  48.2854700
  31.8514633  63.2926607  49.1955280  29.0636991  29.7808385  24.6066590
  29.9928736  29.6785522  24.8125764  28.6495947  28.9999271  24.9739953
  50.0909615  57.0291233  37.5358891  49.6379232  57.7233362  38.0144858
  50.7486677  56.7041874  38.1507659   0.3354620  30.9201599  22.7094384
   0.6261586  30.0284887  22.5179883   0.9105014  31.2129426  23.4164353
  22.8780055  53.7143946  57.3222876  23.5209465  53.7092638  56.6131830
  23.3951402  53.8659620  58.1133842  40.6679129  19.8908496  15.8134814
  40.6963371  20.4073263  15.0080748  41.5342449  19.4877696  15.8702298
  58.7446642  69.0073967  20.9137821  59.6513081  68.7012482  20.9360433
  58.8145494  69.9618626  20.8951688  11.7377293  11.2494318  49.1117001
  12.1803724  12.0417253  49.4159698  11.6177904  10.7234231  49.9023724
  59.2824017  40.9269372  59.8477793  59.3464362  40.5164949  60.7101440
  58.4165060  40.6754343  59.5265245  24.7874856  64.6686125  25.1546407
  24.2564654  65.4120779  25.4401326  24.7880149  64.7274923  24.1992545
  57.7027416  42.9747725  61.6797924  58.0937481  43.8273525  61.8707323
  58.1483173  42.6793385  60.8858061  16.2133573  33.0134464   9.6953841
  15.5561136  33.7040639   9.7808429  16.1805128  32.5468755  10.5305262
  51.4879274  48.4392071  17.1954596  51.1329842  48.0311966  17.9852545
  52.4211121  48.5460949  17.3797810  70.2191245  23.7252832  20.0307485
  69.3856620  23.8314653  20.4893323  70.8831738  23.8512540  20.7085343
  23.6080574  48.9349580   0.1277705  24.4992279  48.7904764   0.4458543
  23.0567240  48.8273740   0.9028073  30.2687335  42.7864504  18.5764265
  29.8403645  42.6158714  17.7375960  30.8060026  43.5625505  18.4175444
  15.3447115  17.1419851  55.9085464  14.4502508  17.1989671  55.5725050
  15.5379116  18.0240575  56.2261152  62.6959931  29.9350969  17.4612427
  63.5400259  30.3863470  17.4758613  62.6017534  29.6325723  16.5580118
  20.0376379  21.5538255  49.1413593  20.4891216  22.3940507  49.0612173
  20.3763067  21.0297624  48.4154844  48.1800865  49.0405870  32.0369740
  48.8649534  48.3758569  32.1099111  48.5478805  49.8117662  32.4685403
  23.1514429  64.0183473  32.7109261  22.5028967  63.4049631  33.0564519
  23.4364962  64.5206857  33.4742280  44.2770599  41.4906145   5.7494183
  43.5109066  41.9373918   6.1094638  44.8888420  42.1960998   5.5390807
  40.1640320  62.3613405   4.2478409  40.0879908  62.6373863   3.3344692
  39.2652345  62.1702099   4.5159110  61.3230764  14.0249483  55.7923555
  60.4306280  13.7204401  55.9567928  61.5449511  14.5447484  56.5648937
  39.6407532  48.5278726  20.6980821  40.2826618  49.2332006  20.6161900
  38.8257145  48.9717889  20.9323617  67.9273390  35.1958347  12.0337745
  67.9068445  36.1025024  11.7275592  68.7229513  35.1396966  12.5630113
  55.3511822  30.4400770  38.0777717  55.3199326  30.4502527  37.1211362
  54.7802102  29.7138254  38.3283472   1.7264521  35.1087610  60.3119373
   1.1074697  35.7281629  59.9253750   1.2393724  34.6974889  61.0259724
  75.0367701  30.9221498  53.2205629  74.5986711  30.0723306  53.2663918
  74.8483240  31.2414876  52.3380995  68.6798071  39.1365743   4.3881055
  67.7483891  39.2035270   4.5983668  69.1251348  39.2915655   5.2211066
  58.4509861   6.8248073  37.3448873  58.8769733   6.0191909  37.6377177
  59.1499817   7.4787418  37.3441744  29.3968498   5.7491867  39.6591926
  28.6944067   6.3867227  39.5313096  29.2544138   5.4098884  40.5428314
  21.8935369   2.5283289   4.5768233  21.2858652   3.2371736   4.7877999
  21.3637422   1.7332745   4.6354552  37.3552965  13.0933833   1.7612143
  36.6414856  13.1923557   1.1311980  37.3803734  12.1551824   1.9493075
  50.3506731  32.9400707   3.6486026  50.2908491  32.7542758   2.7115174
  51.2301277  33.2992769   3.7658950  42.1566032  33.4624410  14.5868226
  41.6856169  33.1466413  13.8156768  43.0811666  33.3561063  14.3629809
  51.6532062  67.0530439  14.0641757  52.2607588  66.8784356  14.7829410
  51.3771271  66.1857343  13.7678834  42.1712469  49.3556047   1.8649169
  41.6526531  49.2931867   1.0627957  41.6994070  48.8143754   2.4979087
  73.7148201  55.4011861  14.1455436  74.6149456  55.7264654  14.1595829
  73.2401049  56.0333292  13.6058438  55.4899191  27.8790927   0.7522365
  54.6227287  27.9158903   0.3486892  55.3261923  27.5729776   1.6442700
  45.6007576  63.4586048  38.1110477  45.2889395  64.3600273  38.0308390
  46.3411760  63.4066153  37.5066376  68.1729090  11.4536897  59.4781828
  68.3355391  11.2866346  58.5498095  67.7686560  10.6476728  59.7993565
  55.0057303   7.3717300  46.4560986  54.4567835   7.4352542  45.6745243
  54.5207989   7.8496877  47.1288776  62.0355737  17.2515146  42.5870752
  61.7978250  16.4453069  43.0450487  61.9309103  17.0398180  41.6594648
  21.9631540   9.5840684  32.5798702  21.8902456   8.7241117  32.9938722
  22.4976456  10.0971261  33.1859422  51.0036241  42.9981271  53.9076710
  50.8383309  43.8796178  54.2421675  51.9301974  43.0029241  53.6675262
  48.2843494  71.3463116  36.3519645  49.0055656  71.2113714  35.7372522
  48.6996555  71.7163706  37.1309471  66.6760159  69.9889755  43.5265303
  66.3564825  70.1415873  44.4158220  67.6219940  69.8827171  43.6268663
  54.6075678  65.1661825  37.2400761  54.2618418  65.9699059  36.8518305
  54.4490623  64.4930506  36.5782571  61.8958246  41.0004274  42.4074364
  61.1819732  40.5493680  42.8582144  62.1129691  41.7366163  42.9793692
  21.7468667  35.6141973  48.5479355  21.8861008  34.8542142  47.9828978
  20.8944583  35.9582090  48.2809353  72.9058802  67.1331772   4.3419381
  72.7470123  66.7020663   3.5022136  73.6732399  67.6839789   4.1869994
   2.2098171   1.2943212  33.6631036   2.3801529   2.1922151  33.9477181
   2.8585398   1.1330930  32.9779816  20.7788967  30.3618217  26.3228246
  20.8549475  29.4101787  26.2533971  20.1922678  30.6080270  25.6076451
  50.3039551  59.7176170   6.5223438  50.1928902  58.8406324   6.1551958
  50.4272032  60.2827263   5.7596558   2.2208548  48.6476612  48.0015516
   2.0483828  49.0664721  48.8448095   3.1004143  48.9410782  47.7638435
  10.2247822  12.5840894  43.0668783  10.2247583  12.9251710  42.1725082
   9.4441854  12.0320074  43.1126928  22.2861074  50.2824235  23.6396237
  23.2284616  50.1551080  23.5301419  22.1566557  51.2238431  23.5246964
  56.9113064  48.4320736  26.0258937  57.7969074  48.5558033  25.6843781
  56.4140844  49.1711903  25.6756020  34.8381710  70.7300234  48.5746908
  35.0820971  71.4123631  47.9492760  35.2640128  70.9904146  49.3914461
  15.7618153  67.7083874  52.5448799  14.8077488  67.7855253  52.5510693
  15.9307241  66.8579245  52.1394014  32.4649226   2.5350324  38.5719633
  32.2734999   2.5772706  39.5088744  31.6202491   2.6863615  38.1478643
  48.8575315  55.6678152  17.7127564  48.5417366  56.5335321  17.9716671
  49.8054028  55.7110500  17.8388393   8.4488213   4.2988054  15.9294331
   7.7091610   4.5029346  15.3571856   8.0457460   3.9925615  16.7418218
  31.4924574  69.0436172  59.3843794  30.8329916  68.3791828  59.5840359
  31.9958162  69.1322613  60.1937008  19.0606117  60.4761171  33.4729910
  19.8376012  59.9170876  33.4713101  19.0248764  60.8338833  34.3600965
  68.7604094  50.0433445  42.9599953  68.1217718  50.4875565  42.4022818
  69.5891953  50.4843473  42.7732849  15.3695606  68.2681585   6.1076423
  16.0822653  68.3508897   6.7412396  15.8098387  68.1481004   5.2662297
  10.3746855  17.3415891  60.7666922   9.8273479  17.9691259  61.2387609
  10.9941875  17.8838674  60.2784491  51.0411810  21.1408544  15.7841702
  50.8019804  22.0161462  16.0889455  51.5333961  20.7601810  16.5115233
  39.6142673  61.6542578  27.6225042  40.4882574  61.6914701  28.0110836
  39.0951419  61.1493683  28.2484651  32.8383182  50.7336641  28.0361195
  33.0676245  51.5767980  28.4269734  33.1141971  50.8101488  27.1227284
  58.3930981  17.2248880  35.1330853  58.1334793  18.1276552  35.3170371
  58.9920341  16.9982091  35.8445096  27.5080959  13.9383928  39.1547179
  28.1933185  14.5873205  38.9947629  27.0570783  14.2543260  39.9376607
   2.7427553  20.0939155  14.1400453   2.3529362  20.9616065  14.0333482
   3.1407832  20.1155258  15.0102969  16.8698454  70.9468317  49.6803236
  15.9581137  71.0812092  49.9390411  16.9593096  69.9969816  49.6028185
  50.6016086  18.7159467   8.3721944  50.2816080  18.9766670   7.5085660
  51.0765480  17.8998304   8.2153054  49.7735846  52.0646707   1.8122816
  49.6792447  52.9689352   2.1116704  49.8242294  51.5497915   2.6176158
   2.2352791  59.6714449  40.9807348   1.8801832  60.4967833  41.3108206
   2.0569754  59.6929741  40.0405359  29.1490650  50.8321905  42.0386934
  28.5479665  51.0695219  42.7447987  28.9112639  51.4133501  41.3162422
   9.3870270   5.5538074  33.5588264   9.0159618   5.3314249  32.7049589
   8.6262094   5.7338611  34.1110611   4.1358456  60.2101612  53.0802965
   4.5604882  59.3572855  52.9880428   4.6000400  60.6318712  53.8034248
  15.9579479  11.3055936  46.8228912  16.4170467  10.9087793  46.0826254
  16.6156685  11.8592683  47.2437048  11.8029797  17.4011385  27.7712655
  11.3906860  18.0682099  27.2223902  12.1594501  17.8887606  28.5138178
  39.5096051  32.6946696   6.8317386  38.9239931  33.4428322   6.7153665
  39.2397057  32.3064294   7.6639958  32.7211690  20.4816747  59.8194408
  32.7797627  21.3707542  60.1692104  32.5018263  20.6017613  58.8954830
  16.6105580  25.4294133  15.5953097  15.9294963  26.0779953  15.7734299
  16.3216507  24.9925971  14.7940886  32.3556870  42.2249218   6.8726655
  33.1675708  42.1644064   6.3692637  32.1797817  43.1639787   6.9315024
  21.3643063  29.2668017   9.0963119  21.5442598  28.5945376   9.7535062
  20.4092062  29.2985114   9.0414250  34.1530955  67.0531180  22.0842218
  33.7141407  66.4345964  22.6681590  34.1914130  67.8685184  22.5841069
  57.2586286  33.4641152  -0.1587848  56.4386880  33.9577326  -0.1423339
  57.1001040  32.7171045   0.4183408  49.0448295  58.0801745  25.9459567
  49.0576286  58.5372540  26.7868757  48.7167854  57.2053035  26.1538506
  26.1834264   8.2023513  34.2121768  25.8319736   8.6905837  34.9567175
  25.5307031   7.5233722  34.0413833  56.8446564   0.0877619   7.1396705
  56.7921888  -0.6262445   7.7750226  56.9602727   0.8744955   7.6725074
  17.3666728  21.6455555  48.9171505  17.1740818  20.7123923  48.8257790
  18.2507741  21.6729498  49.2829990  11.2992799  18.1104481   0.6818325
  10.9994519  19.0018880   0.5038743  10.8343756  17.8560257   1.4789304
  64.8708832  12.5077319   5.9219939  65.7389069  12.8793013   6.0791665
  64.5051885  12.3750794   6.7965811  40.4381371  19.0691078  12.7770591
  40.5304956  19.9950361  13.0014646  39.7914529  18.7353182  13.3988404
  67.6996851   2.4046244  44.1652346  68.4172571   2.0218107  43.6604786
  67.5835389   1.8093628  44.9057770  13.8628089  17.2322989  35.0336170
  14.4729662  17.6040125  34.3966150  14.1850722  17.5389743  35.8811617
  18.3434236  33.3341193  25.7393765  18.4321225  32.3940969  25.5821395
  18.3413541  33.7240386  24.8651981  40.3735018   7.3686099  33.5304999
  41.1926603   7.2377050  34.0080690  40.3370428   8.3118105  33.3715177
  70.1188100  70.3257547  36.9538927  70.5913199  70.6467215  37.7219725
  69.7979057  71.1174129  36.5220022   9.1132379   5.5088061   9.5429146
  10.0213552   5.7909310   9.4335532   9.0218741   5.3547615  10.4832101
  40.3010475  37.8811587   6.8611117  40.1038050  38.6374244   6.3084908
  41.2531435  37.8974710   6.9584723  14.3677235  35.0987983  26.4174128
  13.5647559  35.4362011  26.0203791  14.7632730  34.5570922  25.7345295
  70.0988699  59.0388998  11.4935350  70.7316578  58.9121827  12.2004688
  70.4468310  59.7745904  10.9896374  27.7407635  61.4273187  24.0680718
  27.4222601  61.9697859  23.3466029  26.9596088  60.9813102  24.3953443
  26.6142654  15.2720189   8.3049101  25.9600043  14.6304917   8.5817021
  27.0851684  15.4955220   9.1077363  26.4609551  12.5051999  58.0595875
  26.1758780  11.5938830  57.9927778  27.0327616  12.6333833  57.3027277
  63.6580479  41.8120166   5.9935542  63.3749616  41.1640879   5.3483554
  62.8494703  42.2423169   6.2715407   5.1276815  33.7205887  32.7396989
   4.9097592  33.9436507  31.8347216   5.9660727  33.2628083  32.6783085
  14.2094768  63.6282232  42.1659422  14.6094168  63.7202033  43.0307055
  14.8335970  64.0400752  41.5683746   6.2762803  17.8125799  61.2431002
   6.9453657  17.7055705  60.5670071   5.6037933  17.1695161  61.0184622
  35.3709316   5.2538782  30.8632684  34.4826031   5.2859372  31.2183404
  35.8367968   5.9543973  31.3198590   2.7548236  18.0684948  55.6526566
   1.8295214  17.9832995  55.4228973   3.1786898  17.3285663  55.2178288
  45.8327842  62.2627952  33.2971454  46.2711344  62.7936836  32.6321363
  45.7586802  61.3949307  32.9002166  23.4922838  11.2919915  34.1617274
  23.9138079  10.9484386  34.9494600  23.6831093  12.2298431  34.1775990
  70.3396463  28.3062196  18.8202393  71.2323028  28.1951714  19.1474462
  70.2506667  27.6419044  18.1368661  73.1644908  52.1638250  37.7402163
  72.7667505  52.1567392  38.6108398  73.2215390  51.2402153  37.4954295
  50.2061331  47.3029252   8.0357905  50.2026402  46.5315315   8.6025067
  50.1504814  46.9484362   7.1483918  26.9876051  12.1867645  49.8868752
  26.4497256  11.4616632  50.2049112  26.3643837  12.8958344  49.7286177
   0.2085627  68.1237539  26.7969108   0.0898064  67.5780051  27.5742698
  -0.2868568  68.9206927  26.9857979  22.0994043  28.3389139  17.9679227
  22.9573321  28.1289029  17.5990248  21.4752269  27.9136920  17.3798573
  75.2870215  60.5940374  22.9579830  75.8313811  60.6637426  23.7422323
  74.4451631  60.2705916  23.2787466   4.1607583  13.4199905  20.4401851
   4.7975466  12.9830551  19.8746598   3.3270168  13.3258975  19.9794745
  70.3383101  51.0347637  11.4359128  69.5648516  50.9418019  10.8797181
  70.1619065  51.8139227  11.9631910  27.7397442  18.6078322  51.8509531
  27.7381659  17.9921722  52.5838852  27.0755243  19.2571390  52.0821333
  69.3155301  69.7958281  43.7871408  69.6498144  69.4287785  44.6055269
  69.3325830  70.7429224  43.9248133  38.1781316  21.7665648  21.8889332
  37.4613404  22.1745658  22.3747087  38.8291025  22.4618196  21.7935896
  12.9885400  65.5184521  12.2085273  12.8140533  66.4317682  11.9812834
  12.1295965  65.0968309  12.1823967  63.7262095  67.1763896  34.5319533
  62.9330969  66.7417391  34.8454547  64.4430173  66.6870519  34.9356461
  -0.0112917  13.4509480  57.8574133   0.8339217  13.5487449  58.2959127
  -0.6570485  13.5524774  58.5566425  61.9032717   1.6785824  53.5971785
  61.9201088   0.7268289  53.4966135  61.1797380   1.8427604  54.2019701
  17.9672718  25.9906626  26.6313457  17.5603783  25.7552576  27.4651623
  18.3621109  25.1764750  26.3192058  32.9484034   6.9824260  51.0502195
  32.3409390   7.4352062  50.4652357  33.5834932   6.5708923  50.4641056
  69.0558302  40.2184054  33.8805123  68.8983929  40.3986758  34.8073121
  69.6780693  39.4910439  33.8803311  47.3202649  45.5866464  52.8162527
  47.3274580  44.7177776  53.2178068  47.0045806  46.1677273  53.5082912
  27.7569580  11.4430833  21.8456125  27.7475381  12.2568595  21.3417172
  28.6114264  11.0548115  21.6575718   8.8895703  65.2084136  57.8443233
   9.7880388  65.2502942  58.1717862   8.9676179  65.3871750  56.9072084
  70.5015780  42.1153783  32.3520760  70.0757290  42.9667770  32.4521069
  69.9496389  41.5116346  32.8491549  53.2433128  10.4783881  28.4164643
  53.8025236  10.0248241  29.0471745  53.1151152  11.3491166  28.7928009
  14.5026100  45.6591972  40.1744509  14.2057002  46.5157875  39.8673177
  15.3871143  45.5708273  39.8193789  68.2560552  60.3288456  42.1876287
  67.3060191  60.2120694  42.1928120  68.3905733  61.1791357  41.7691278
  66.5947711   4.3392622   9.7902209  66.2133664   5.1054561  10.2188337
  67.4778581   4.2760870  10.1540864  25.1261353   0.6847352  39.8032022
  24.6190524   1.0020106  40.5504894  24.4679165   0.3724533  39.1823483
  14.9667227   8.2616562  44.3615437  14.2118001   8.2530510  43.7731123
  15.2074146   7.3400235  44.4558382  19.1775501  64.7627898  48.8766813
  19.3384493  65.4094394  48.1895256  19.5550955  65.1523461  49.6653128
  73.1937063  69.9118698  44.7454214  72.5356496  69.2249053  44.8515892
  73.3940590  70.1917148  45.6386089   2.4205768  25.9903455  31.4519119
   3.2474720  25.8008647  31.8952751   2.6250464  26.7178273  30.8643794
  61.1058379  44.5796024  55.2537332  60.6880952  45.2679902  55.7712696
  60.3874374  43.9985191  55.0037841  31.8980670  26.4270306  31.7133737
  31.6331792  26.8156767  32.5470543  32.4919605  27.0706582  31.3270259
   7.6393396   2.1947865  25.6141663   7.5819623   1.2650745  25.3937674
   7.9183662   2.2071204  26.5297103  68.6142970  49.5640954  24.0386987
  68.1252945  48.7475141  23.9371800  68.5716188  49.9776038  23.1764793
   0.0058222  25.4826856  19.1022015   0.0484739  24.6750140  18.5902655
   0.1833141  25.2060819  20.0012112  18.5853720  -0.1885754  27.2125077
  17.9100621  -0.4077157  26.5705061  18.8679159   0.6935895  26.9712901
  45.3159637  68.5434496  33.4902263  46.2442422  68.7079396  33.6559772
  45.2535165  67.5925126  33.4004974  56.0966796  57.9938122  39.6475101
  56.1995453  58.5059114  38.8453841  56.9874567  57.8925451  39.9829102
  16.3685358  56.0464366  19.5415878  16.3871611  56.3807925  18.6448753
  16.1136473  56.8005618  20.0731516  73.0213356  22.0068598  24.3019915
  73.1586337  21.0613656  24.2435193  73.4338793  22.2581363  25.1283693
  17.8238404  13.9519048  21.3983178  17.4508274  13.7628138  20.5373096
  18.7196732  14.2345595  21.2144136  14.5089126   6.2092263  33.9976859
  13.5874784   6.3519824  33.7813282  14.9645245   6.9564325  33.6099577
  49.7190022  38.4673786  48.0693054  50.1814890  37.7901697  47.5756168
  49.1519022  37.9818821  48.6684084  73.3829232   4.7270456  57.4287033
  72.9617053   4.4899592  58.2548952  73.3580898   3.9241496  56.9081497
  59.8372161  71.0950979   1.0014888  59.5670735  71.0154208   1.9163104
  59.0973579  70.7492122   0.5022832  17.5307631  51.9899702  36.5821624
  17.3201334  51.0686588  36.7340064  17.0130515  52.4643803  37.2326517
  47.0457172   9.9403530  47.9091549  47.0027542  10.0720870  46.9620371
  46.9162846   8.9991915  48.0261803  24.6120882  10.7601643  10.4449034
  23.6600018  10.6962848  10.3695297  24.8998046   9.8627967  10.6127775
  74.3757099  27.9939985  41.8007755  73.5774694  27.4992824  41.9859791
  74.0758671  28.7552166  41.3039112   5.7899583  70.6190006  58.0374813
   5.1355756  70.7141239  58.7295580   5.3152288  70.2107768  57.3134518
  30.3630567  20.9804201  24.5193911  31.1202979  20.4315472  24.3155384
  29.7116351  20.7447243  23.8588381  45.0590944  14.2035866   3.1972504
  45.0795031  15.0633109   2.7769074  45.5848074  13.6446571   2.6250154
   9.9812210  18.4968007  42.7126026  10.2982342  19.3712568  42.9385757
  10.6446290  18.1479669  42.1172571  71.9670188  56.8951511  52.1669626
  72.2951511  56.1513090  52.6721954  71.0233066  56.8958187  52.3270798
  53.1908873  71.2316506  28.2861567  52.8535778  70.7749448  29.0567899
  53.3239431  70.5405838  27.6373458  23.3089566  29.0206146  56.1499834
  23.5337877  29.9097419  55.8758783  23.8022089  28.4548974  55.5559349
  21.3558269   2.0050518  56.5889883  21.5417528   2.9000261  56.8730354
  20.4085064   1.9133185  56.6909790  14.7339940  26.9983792  51.0508871
  14.5532262  26.0586691  51.0732317  14.7649837  27.2142243  50.1188564
  22.5413036  21.0193181  30.8733797  22.4775434  20.9759974  31.8274713
  23.1753922  21.7168331  30.7071328  37.1703863   6.8968552  56.7851877
  36.5080667   7.5226176  56.4919567  36.7281938   6.3769388  57.4562931
  20.8378148  14.5518887  47.3174000  20.5425096  15.2607465  46.7459583
  20.9689426  13.8085616  46.7287540  65.4678310  69.3375698  40.9644079
  66.0571075  69.5730708  40.2478027  65.9049213  69.6638674  41.7509890
   8.7150496  16.8585515  31.5447092   9.3173105  16.5099049  30.8874726
   7.9343569  17.1037316  31.0480809  10.0208831   0.4577903  29.1060090
   9.4757760   1.2445680  29.1144586  10.7174599   0.6557345  28.4800458
  22.6231813   0.0900285  58.0501747  21.8166137  -0.4004903  58.2085133
  22.3852491   0.7330300  57.3822165   5.7134628  28.3868432  24.7444820
   5.7433343  28.0394459  25.6359148   6.5733451  28.1804991  24.3780708
  52.1316959  42.4117219  44.0918342  51.2143017  42.1389848  44.0764729
  52.2319580  42.8680127  44.9272851  74.3166721  47.0553883   4.7246736
  74.9657381  47.6880201   5.0324428  74.5708430  46.8722447   3.8201922
   6.8003858  64.4400253  49.5449066   6.3340152  65.2722933  49.6227551
   7.2089899  64.3134304  50.4012060  71.4484108  56.4207908  45.9003210
  71.8805516  55.5668410  45.8842945  71.8261278  56.8943163  45.1591492
   6.5527743  30.0246716  59.1805315   6.9315165  30.6955266  59.7486305
   7.2060233  29.3251514  59.1675091  66.9725634  30.5360537  55.0368635
  67.1719051  30.4867160  54.1019515  66.3745905  29.8051411  55.1931576
  64.2135703  24.8875340   5.3272696  63.6326515  24.5269331   4.6573945
  63.6516511  25.4615864   5.8477899  21.5352941  51.7188501  48.2723522
  20.6533217  51.6593647  48.6395311  22.1053052  51.8237114  49.0341425
  51.3158237  44.5443120   2.5515004  50.5281937  45.0881603   2.5614329
  51.8523323  44.9125787   1.8495246  49.9657440  65.0619622  57.5166798
  50.6591392  65.4419704  56.9772100  49.1556022  65.4155745  57.1494484
  61.7534530  53.3967968  25.4384633  60.8378851  53.2075712  25.2331181
  62.2495520  52.9577276  24.7475644  30.3394485  17.2695482  51.4842224
  30.6479931  17.3598707  52.3858166  29.5292521  17.7785003  51.4562178
  53.9285838  47.6791653   3.6950751  54.8602592  47.7751764   3.8925477
  53.8373720  46.7712757   3.4058543  49.2051792  15.6873131  48.7864685
  49.2216158  16.6136253  48.5458279  49.7037077  15.2514184  48.0953121
  25.7410264   4.1001493  25.3389740  25.0143933   3.5381198  25.6079745
  25.7039738   4.8438492  25.9404469  15.1535856  70.3084334  12.0545026
  16.0338526  70.6252440  12.2569724  15.2905720  69.6202024  11.4035006
  23.3412695  31.3630176  34.6740675  22.6633167  31.9976473  34.4419885
  24.1647077  31.8318868  34.5386267  23.6154199  13.7663031  42.6070070
  23.6131263  13.3174193  43.4524250  23.3517575  13.0943704  41.9783401
  56.5303648  13.8940704  17.7938175  56.0466027  14.2626309  17.0546496
  55.9405470  13.2361805  18.1619596  23.4567094  21.4431643  55.6477451
  22.8358078  20.7897663  55.3255844  23.1339240  21.6708875  56.5196276
  38.9636754  50.3763696   0.2008077  38.8929486  51.3127896   0.0154754
  38.5993957  50.2781352   1.0805150  75.9205395   8.4675556  33.2237387
  75.1609534   7.9395348  32.9778624  75.7139145   8.7905914  34.1007710
   7.5876940  62.8666558  37.9139423   7.4306024  63.0589303  36.9895053
   7.8603161  61.9491639  37.9247856  60.5745077  17.9139388  15.9493244
  60.4330897  16.9941807  15.7250941  60.5068541  17.9409206  16.9037485
  60.6205570  25.1191398  19.6467420  60.6999003  26.0660395  19.5313474
  59.7956144  25.0036153  20.1182862   8.4853554   4.8615941  47.3857880
   7.5453746   4.9413562  47.5479746   8.8393259   4.5034522  48.1998348
  65.8610607  52.5822040  31.9713330  65.4750574  52.8293415  32.8116655
  66.2500251  53.3913048  31.6392279  20.2881932   2.5875506  42.4172688
  20.6815028   1.7168252  42.4753666  20.8002877   3.1226268  43.0236340
  20.0776982  18.4331346  41.0652542  19.2738795  18.3368230  41.5759659
  20.4251671  17.5439560  40.9955549   2.7056110  10.4626131  38.9219451
   1.8608725  10.0925052  39.1782045   2.7693117  10.2866924  37.9832101
  23.0709208  70.9527102  40.5052423  23.2435573  70.2889490  41.1729622
  23.7664760  71.5993385  40.6248569  11.5350115  25.1331258  42.7061796
  11.8257487  26.0241318  42.9006243  11.3399220  24.7525930  43.5625505
  13.8213134  35.8351398  41.9040060  14.0529692  36.6237545  41.4134407
  13.2614303  36.1502695  42.6135540  57.8582614  26.5254808  -0.1503543
  57.0013325  26.8417621   0.1357766  58.4843885  27.1077133   0.2799960
  74.9035410  11.4415979  32.5776625  75.5643052  10.9335804  32.1069813
  74.0941595  10.9427249  32.4669433   0.1293671  21.0125896   4.0469428
   0.7696354  21.5859970   4.4682427  -0.6557930  21.0914012   4.5887395
  35.7610714  53.4710821   2.0352097  35.8183050  54.3842503   2.3164149
  34.8393946  53.3476826   1.8082353   3.1668389  56.3833006  41.8126535
   2.4291862  56.8438264  42.2126722   3.7691820  56.2198921  42.5383997
  39.3401802  60.9513148  54.4069386  40.0061644  60.7186218  55.0538921
  38.7686003  60.1846417  54.3652105  54.1117334   8.8178915  61.6813850
  53.6670399   9.3621993  61.0316086  54.3739080   9.4308436  62.3682547
  69.1293138  18.5967112  50.9029675  69.5976847  18.0399954  50.2809286
  68.6703718  17.9823446  51.4758158  68.7304550  59.5096874  59.1272306
  69.3642038  60.2230072  59.0512562  68.0668193  59.8422670  59.7315598
  36.0140491  25.3766537  28.2013130  35.7533669  24.5914698  27.7198958
  36.8928361  25.5751443  27.8779459  60.4071922  68.7031566  25.5670023
  61.3500345  68.8677730  25.5805063  60.2050692  68.3956435  26.4506388
  70.1241207  28.8885474  47.2990084  69.9329156  28.0553102  47.7295780
  71.0219377  28.7933636  46.9810534  12.2381651  12.5328648  35.7382584
  11.6498172  13.1771493  36.1319304  13.0248606  13.0309820  35.5164003
   7.9201711  45.4781564  25.7363343   7.2463739  44.8994454  26.0931540
   8.0685318  45.1538809  24.8480415  37.2133542  53.1383499  39.7557425
  37.4983657  53.8226863  39.1501975  36.4631868  53.5195168  40.2120256
  67.4652159  44.1529751  19.3831372  67.0204264  43.7573147  20.1326990
  67.0029914  43.8062906  18.6199927   2.5803590  24.6903968  34.6424150
   1.6815735  24.4002700  34.7981191   3.0816808  24.3164372  35.3670263
  65.5646372  32.8105283  50.0117970  65.7397211  33.2069707  50.8652687
  64.7349131  32.3477101  50.1283693  59.5119202  47.4239859  19.8350449
  59.4559872  47.3364159  18.8834973  60.2435815  46.8596515  20.0849076
  27.9920530   5.2435684  20.5826116  27.7206945   4.7323358  21.3450027
  28.4956717   4.6288922  20.0489712  61.1574221  22.3666596  15.3664088
  61.6403389  22.8501511  16.0366750  60.4532290  22.9595423  15.1040530
  62.4528658  32.4168962   4.8003121  62.1023738  32.5488483   3.9194175
  63.3656775  32.6985251   4.7395678  13.9592242  20.8556581  35.5621982
  13.8588738  20.1706862  36.2232375  14.9021137  21.0163069  35.5249810
  35.8340907  16.2252855  44.3160009  36.2933040  15.8356321  45.0599909
  35.8294535  17.1641445  44.5024252  75.0990724  10.6375194  16.8631478
  74.9394964  11.3978553  17.4223061  75.5825876  10.0276685  17.4203940
  10.5792630  68.5735830  40.9293175   9.6995557  68.9418962  40.8475018
  10.4528297  67.6290774  40.8390093  32.0124316   6.6466850  35.2978921
  32.3641062   7.5366747  35.3196955  32.7798200   6.0889858  35.1701570
  52.3366045  66.2928989  42.6229048  52.8671431  66.9015648  42.1088171
  52.4996128  65.4378470  42.2247267  13.6107648  58.1482991  37.7298856
  12.9185641  57.4872871  37.7175474  13.6387671  58.4825429  36.8333769
   3.4496576  18.5339832  33.1855845   3.3003020  18.4507632  34.1273928
   4.4019365  18.5723472  33.0965662  12.3184478  42.0403385  61.1226177
  12.6027942  41.6251802  61.9368839  11.9578362  41.3231039  60.6013060
  67.2291196  70.3166543  17.5787067  67.4900270  69.4029807  17.4631238
  67.8079773  70.8067429  16.9947815   1.0814751  60.1396271  25.1521540
   0.5361116  59.3533238  25.1289010   0.9694183  60.4826959  26.0387087
  19.4099354   4.3530679   2.0907708  18.8805555   4.4700122   1.3019010
  19.3378424   3.4199214   2.2914382  63.5640335   1.6584897  58.8257790
  64.3772221   1.2422108  59.1115475  63.1307650   0.9945988  58.2893467
  57.7111143  71.4593788  27.8844905  58.4303636  71.1205079  28.4174800
  58.0531002  71.4556379  26.9904757  20.9105712  29.8756054   6.3315173
  20.0275361  30.2287444   6.4400216  21.1156469  29.4790390   7.1782227
  69.0856302   9.6383536  43.3047771  68.1879056   9.9192965  43.4819555
  68.9960182   8.7446433  42.9738951   0.9348571   8.5606730  43.8704062
   0.8771893   8.3493018  44.8021936   0.2928236   7.9855496  43.4541607
  69.5132417  18.8423264   5.2789927  68.9231408  19.1997015   4.6154451
  70.2088165  19.4951963   5.3575420   4.7221220  63.8934221  33.8658929
   4.3574322  63.0577036  34.1571116   5.6540216  63.7163915  33.7376261
  70.1111907  38.3305192  37.3904514  70.1006836  38.2430983  36.4373112
  70.9429851  38.7636781  37.5820851  32.7374768  13.7613165   1.8660538
  33.2933211  13.7999630   1.0877382  32.2887421  12.9185355   1.7982981
  18.6629379  62.3138519  36.0092926  18.1516254  63.0250671  35.6233358
  19.5717133  62.5334480  35.8040142   8.7388981  62.5130214   2.7065286
   7.9807222  62.8271487   3.1991988   8.3654893  62.1162137   1.9195461
  45.1064253   2.8303376  33.0590534  45.9589434   3.2484955  32.9382563
  45.3138018   1.9190802  33.2660246  49.6957850  15.1871014  60.4860878
  49.8312783  15.3727770  61.4152813  49.4400454  16.0286725  60.1084805
  13.9185405   9.1590148  27.1052599  14.8068893   8.9602971  26.8093204
  13.4069955   8.3872008  26.8626571  21.5049028  38.8410234  23.0318832
  22.1255374  39.4890976  22.6986456  20.7073760  39.3407536  23.2063842
  12.0142198  36.7767024  38.0872917  11.1485004  36.5308094  37.7612591
  11.8355739  37.3600674  38.8248587  61.7154229  12.7578998  50.7534218
  61.0260320  12.4277925  51.3296175  61.5331423  12.3529732  49.9054575
  54.9721152  54.5630976  51.4361763  55.0473089  53.6089655  51.4506340
  54.0688396  54.7280975  51.1658049  53.5237551  22.3671842  19.9314666
  53.2468653  23.0122137  19.2806959  54.4699335  22.4920106  20.0049043
   0.5800498  59.3668731  35.2636051   0.2043593  58.5063382  35.4495287
  -0.1323783  59.9819585  35.4378128  51.8255234  13.8482308  58.9465570
  52.4131489  14.4236290  59.4362974  51.1460972  13.6075807  59.5763922
  74.2257813  48.1694031  47.6857090  73.9423171  47.3184156  48.0199242
  74.1509986  48.7585497  48.4364080  26.2105298  21.5804291  46.2699175
  27.1194434  21.5071869  46.5610218  26.2177634  21.2419200  45.3746033
  17.3500633  58.1062841  14.0087831  17.7425838  58.9116812  14.3456662
  16.4671528  58.3631563  13.7428570   5.6834614  46.5982723  19.6387661
   6.0950470  45.7954025  19.3190265   5.1510388  46.3148737  20.3820324
  53.1819940  38.2919908  52.3123980  53.7392879  37.7074528  52.8261805
  53.1965065  39.1199827  52.7924538  46.8090283  67.0108899  39.2738839
  46.5644109  67.7545008  39.8247357  47.6050722  67.2965249  38.8255998
  41.8730211   6.3886952   9.1216058  41.9311857   5.9986621   9.9937999
  42.1563625   5.6927508   8.5286379  73.5051811  61.3581475  -0.0791547
  72.5859607  61.4553174  -0.3277950  73.5105599  61.4792397   0.8703398
   0.7456449   9.9185961  48.1855726   1.2030189  10.4954386  47.5737762
   0.0514221  10.4639637  48.5555172  63.5066986  35.5032039  16.8513620
  63.5410547  36.3139844  16.3437343  63.1564188  34.8536253  16.2417853
  36.4630687  49.3745562   1.8643351  36.4896333  49.3859097   0.9075709
  37.3773610  49.2710050   2.1281119  66.5056444  47.2315955  58.8765616
  66.3809944  47.5195610  59.7808681  66.2647463  46.3052404  58.8848219
   1.3597774  24.0606523  44.2416573   1.8439817  23.2468843  44.1018105
   1.6456223  24.6345997  43.5309458  63.3279253   3.9386788  55.7370720
  62.5911916   3.6501351  56.2757728  62.9652119   4.6334807  55.1875959
  25.7965636  26.8053699  26.5153718  26.4900780  27.1337724  27.0875788
  26.2211633  26.6923070  25.6649828  11.4794004   7.7817684  59.2864943
  10.9032714   8.0445272  60.0043106  10.8872604   7.4373806  58.6179161
  57.7193214  37.1898804  60.9521117  57.8264714  37.6900543  61.7611710
  57.7444340  36.2746281  61.2312430   8.9380687  25.9929705  12.3759866
   8.0998999  26.3026667  12.0327771   8.9914948  25.0809026  12.0904934
   0.1469829  14.0512085  40.8578396   0.2249773  13.5367823  40.0544024
   0.9639594  13.8858116  41.3283968  24.8946977  24.5333314  34.5192719
  24.6440530  23.9757085  35.2557969  25.2716947  25.3131485  34.9266934
  67.9624391  47.8247961  37.1044564  67.8675795  48.0236324  38.0359602
  67.8655446  46.8739899  37.0514250  32.4423218   9.9100184  56.7598867
  31.6222668  10.4019678  56.8014479  33.0353642  10.4744589  56.2639666
  23.7844300  26.4289904  46.1419821  23.8577747  27.3728991  46.0009623
  24.4117761  26.2416792  46.8402576  69.6407181  42.0404959  43.2803059
  69.9280369  41.1712837  43.5598564  68.6870801  42.0141745  43.3584929
   1.9146884  62.3781850  55.6782055   2.1651638  62.9764124  56.3822079
   2.4063933  61.5769561  55.8584547  22.3327661  32.4655676  25.6583619
  21.7424893  31.7342067  25.8397865  23.0136371  32.0908928  25.0995517
  17.3349631  19.1725314  35.6121135  18.2111859  19.0288270  35.2546024
  17.4401867  19.9079943  36.2156487   2.1874614  25.5865645  21.0916996
   2.7161044  25.9693289  21.7918849   2.5307405  25.9805441  20.2897215
  21.1758232  16.1484230  43.2192564  20.8385348  15.3600121  43.6445522
  20.4089403  16.7120016  43.1167650  65.2273285  39.1652208   2.3430654
  65.7893669  38.3925303   2.4004718  65.2930510  39.5738548   3.2061549
  75.4454536  31.5137362  47.2610807  76.0220347  32.1369123  47.7031660
  74.6726733  32.0274425  47.0262432  29.0925837  39.5372844  49.5330667
  29.3404865  38.9510965  48.8181114  28.6697245  40.2784777  49.0994120
  74.6459067  67.8881498  38.5695171  75.1778043  68.1876858  39.3068075
  73.7955368  67.6800807  38.9565754  22.2901767  48.1151792  13.0918141
  23.1912565  47.9711207  12.8027936  21.8097493  47.3537692  12.7667352
   8.6924255  67.6147117  34.5526314   8.4500421  68.5083868  34.7951722
   9.6331680  67.5671317  34.7228408  11.7747664  29.0288758  54.5390797
  12.5059581  29.2673254  53.9692259  11.0771382  28.7688804  53.9374542
  10.5076873  34.6438050  49.7138262  10.0782895  34.9807477  50.5001593
  11.2530935  34.1423488  50.0441933  51.4380026  26.6753125  36.9590974
  51.3658619  25.7702756  36.6558886  50.5333614  26.9842052  37.0084524
  59.3158979  64.8429229  18.8771105  59.2673272  65.7914438  18.7580252
  59.7102708  64.7299936  19.7419512  21.4670134   6.2096620  47.5090837
  21.8121886   6.6084725  46.7103148  20.5730009   5.9538680  47.2820568
   7.4125862  42.5382280  30.9529543   8.0435288  42.5628901  31.6723537
   6.6488624  42.0924711  31.3193679  69.7905242  23.8747644  26.7301083
  69.8703158  24.5268440  27.4262810  70.3580713  24.1998696  26.0312319
  73.7070859  68.6461043  59.6168852  72.9169787  69.1720267  59.7408533
  74.0820134  68.9667948  58.7966299  71.9541404  63.8597250  12.0393157
  72.3764488  64.3484497  11.3328910  72.6792222  63.5410118  12.5768185
  50.3376424  60.1004085  37.7280923  49.8392069  59.5947131  38.3700105
  51.2534940  59.9194464  37.9395219  11.2608027  28.0507112  23.6682963
  11.9200444  28.5481620  23.1843758  11.7585373  27.3682737  24.1185951
  42.7846146   9.7529411  57.9233503  42.7355814  10.1451397  57.0515633
  42.6907539   8.8129842  57.7687359  29.2753267  21.1547995  41.9194603
  29.9807930  21.0291195  41.2848282  29.5266318  20.6128716  42.6673841
  53.2227039   8.9670432  39.6422648  54.1249132   8.9635795  39.9620104
  52.8531075   9.7841132  39.9769711  23.2823944  13.2392299  51.5770245
  22.4388170  13.6119103  51.8333817  23.1425738  12.9210770  50.6851387
   7.9641116  14.0341536  57.5124360   8.0316103  13.7791124  56.5923117
   7.9062737  13.2049957  57.9871852  74.5697891  44.3465825  19.5753022
  74.9784672  44.5887467  20.4063054  75.2978575  44.0558567  19.0260907
  71.9326246  66.0532006  35.8657050  72.2155488  66.9656520  35.9258413
  71.1499203  66.0084411  36.4148879  35.3262138   1.4298010  60.6129694
  34.5277095   0.9795642  60.3374529  35.8994150   0.7303802  60.9267902
  20.2187634  12.3609436  37.6222777  19.3152237  12.5152493  37.3465300
  20.2352762  11.4405155  37.8845215  40.4366255  14.9505377  33.8748336
  40.2683592  14.0145743  33.9838815  40.4961538  15.2888751  34.7682643
  73.7255586  63.6432727  50.2596235  74.6452082  63.7026908  50.5183649
  73.2433093  63.9993652  51.0058546  24.0599251  20.4936838  18.2699859
  24.9224472  20.9087586  18.2696152  23.5258746  21.0505962  17.7035320
  14.4670201  64.7138929  59.9509379  14.6575357  63.8469600  59.5926576
  15.3238107  65.1327014  60.0330391  18.8460970  31.4290285  34.2642593
  18.1536996  31.3597894  33.6069727  18.7877011  32.3309159  34.5795679
  12.8940058  20.5600739   3.6297038  13.1272781  20.6708670   2.7079982
  12.7633345  21.4516640   3.9525399  46.3769010  66.8143570   1.0223478
  46.9575215  66.6769942   1.7708421  45.6791509  67.3757332   1.3603324
  41.3280319   5.3874946   1.3610717  42.0935129   5.1684595   0.8297606
  41.2704824   4.6787477   2.0018454  27.8687286  21.4353228  37.1257448
  28.7666893  21.1041188  37.1115971  27.6248789  21.4268661  38.0513239
  37.2385240  26.3373470  19.3291676  36.5940666  25.6300402  19.3541253
  37.4882412  26.4014244  18.4073389  19.5705164  63.4686019  23.4573889
  19.1216505  62.8146889  23.9932537  18.8683165  64.0248754  23.1201792
  51.3889551  15.2486813  36.4553761  51.1560488  14.5678735  35.8241177
  52.2877169  15.4878688  36.2289977  63.5971963  17.1298933  37.5388885
  63.7832522  17.3994088  38.4383202  63.0030096  17.8021979  37.2054505
  54.7979499  58.0492735  55.3340081  54.6583940  58.3912229  54.4509301
  54.5202995  58.7595248  55.9125284  25.9364700  23.5358858  29.7989106
  25.0204968  23.5579038  29.5218945  25.9219337  23.8579679  30.7001781
  56.3175821  42.2190905  58.7366199  55.9718466  42.1834135  57.8447485
  55.6745768  41.7428875  59.2619848  70.5350727  17.6424503  43.8978338
  70.4742277  18.5973895  43.8729143  69.9016041  17.3794317  44.5654964
   5.5715036   5.1731801  42.6167202   5.4252100   5.4185528  43.5302973
   4.7432661   5.3716618  42.1798372  44.9371194  49.3678602   5.2941914
  44.6438574  49.6545657   4.4293042  44.5267319  49.9827417   5.9022494
  25.0749302  38.3554077  11.8606496  24.3194532  38.8823867  12.1209884
  24.8884940  37.4824119  12.2061265  39.3150377  20.0470567  20.1466966
  39.7954941  19.4476116  20.7177114  39.0234327  20.7494569  20.7279301
  44.3825967  59.9394723  34.4755793  44.1457511  60.8601197  34.3635702
  44.7519357  59.8927530  35.3574181  17.0132136   1.9977060   1.3676335
  17.3599279   1.7499037   0.5105366  17.4781263   1.4341725   1.9861141
  20.6234336  11.8663847  12.7758110  21.1806512  12.3340595  13.3979189
  20.4588985  11.0198009  13.1910884  29.8096132  12.2159708  27.5236988
  29.9754071  13.1519818  27.6360726  29.1241670  12.1724916  26.8569851
  48.5349417   4.8610118  46.9047022  48.9506054   4.9627820  47.7609158
  48.3869791   5.7570434  46.6022730  27.4157524  26.2825322  30.9908128
  27.0193219  25.6117487  31.5468025  26.6757822  26.6842556  30.5355191
  21.9957137   4.6871433  40.5282021  21.2801528   5.3183740  40.4523468
  22.2719955   4.5286691  39.6255469  28.0459976  20.4915357  10.3142273
  27.6475430  19.6653235  10.5877912  28.6109972  20.2531815   9.5792472
  34.0131998   4.8326313  38.9762807  34.6636033   4.8368403  38.2740068
  33.4435940   4.0913188  38.7707615  21.9081688  15.5060959   5.6340820
  21.5551019  15.4837310   6.5235066  21.3351178  16.1118472   5.1640725
  15.6440901   8.3550144  19.2381879  15.0395798   8.6365486  18.5515042
  15.1475977   7.7132726  19.7460290  21.6112971  -0.1552989  11.7833829
  20.8832121   0.2954058  12.2111547  21.6241860   0.2002559  10.8947623
  46.5042377   3.4629303  16.0471344  47.1448159   2.7715194  15.8802736
  46.9855714   4.2766231  15.8972883  72.3689511  24.5372248  31.2032413
  72.0073229  25.4070306  31.0332608  71.6759166  24.0782738  31.6778994
   2.9563796  26.4701846  13.2543631   2.6244294  27.3541042  13.0971118
   2.5545132  26.2071994  14.0823575  34.7540319  49.4946416  21.0672593
  34.9408091  48.5580309  21.0031843  33.8336361  49.5381387  21.3265061
  25.5168104   3.6764175  29.8406744  26.3655424   3.9158362  30.2129197
  25.3995538   2.7578390  30.0829482  52.0943403  18.2393253  33.2232380
  52.3492336  18.5081351  34.1058493  52.2521591  19.0130591  32.6822591
   9.6471083  20.8146071  34.3816113   9.2510933  20.8730698  33.5121346
   9.5555460  21.6949105  34.7461820  28.9538717  25.0779986  22.8205252
  29.0154409  24.3295217  23.4140086  28.6608124  24.7020268  21.9904685
   2.9898131  41.9415712  57.6006460   2.1904239  41.6145420  58.0132675
   3.3782136  42.5206375  58.2564354  29.3919945  15.5674911  24.5964670
  28.5125589  15.6039524  24.9726248  29.7519207  14.7373998  24.9089336
  63.1807375  63.0645277  21.2913632  62.2795451  62.7478179  21.2298799
  63.3647085  63.4326949  20.4271650  16.3886297  22.0381784  35.6707287
  15.9168398  22.0414424  36.5035772  17.3081076  22.1414995  35.9159136
  37.5677633   7.0203954  32.9058647  37.9788756   6.8382508  32.0608544
  38.2686400   6.8939787  33.5454130   5.1515734  20.5793428  43.1008911
   5.0256968  19.6660328  42.8434992   5.7033569  20.9486318  42.4114037
  26.6726613  57.5005388  50.3818989  27.4592948  57.0847559  50.0289583
  26.4838076  58.2130194  49.7712183  53.5664440  46.6530263  62.0956921
  53.3129073  46.2632584  61.2590128  54.1242171  47.3930537  61.8559417
  42.5290508  18.0562225  61.1896546  42.2276027  18.3498827  60.3299306
  43.0116934  17.2490660  61.0113873  37.4018740  62.3513802   5.1188298
  37.0208644  61.8211326   5.8187552  37.2767233  61.8283996   4.3269559
  46.9828463   8.0055308  12.3153472  46.7489624   8.7179446  12.9103231
  46.1526680   7.5671965  12.1285331  31.5732002  21.2815666  39.4304705
  31.7613482  20.4027534  39.1010427  32.3437142  21.7968869  39.1917515
  16.2001979  20.0463963  46.2070322  17.0321250  20.4593921  46.4384699
  16.4450800  19.1797614  45.8826733  40.2572191  51.5995904  37.3635364
  40.8368481  51.2404259  36.6917801  40.1061285  52.5045308  37.0906138
  52.8932476  11.5862179  36.8468571  52.3539877  10.9489238  37.3151374
  52.2708082  12.2424865  36.5336251  11.7279649  28.1697202  43.1361675
  11.9852984  28.6871481  43.8992405  11.0074747  28.6631131  42.7441359
  31.5077829   9.8710328  35.3401613  31.3388729  10.5530453  34.6901155
  30.6867480   9.3817931  35.3928852   8.6971033  64.9039902  15.6322050
   9.1418160  65.7456919  15.7322097   7.8930724  65.1129188  15.1566899
   7.2929513   7.5695002  37.8432655   6.3811111   7.2807127  37.8060985
   7.2674930   8.4811604  37.5526452  51.4474630   7.9188937  32.9942369
  50.6568146   8.3623075  33.3016300  51.2901688   6.9930369  33.1793857
  13.3649683  11.8433225  42.5878048  13.0916631  10.9309924  42.4919319
  12.5548089  12.3176980  42.7744627  30.8640146   4.8483151  42.5456476
  31.2623024   4.9366388  43.4115553  31.2897944   4.0810099  42.1633053
  59.7971904  34.6411305   0.4824038  60.5519473  34.4270812  -0.0660113
  59.0729749  34.1488474   0.0958796  70.9212112  16.6936493  59.7592020
  70.2980328  16.7512357  60.4834700  70.8646679  15.7841122  59.4663239
  12.4283004  17.9128420  16.8498600  12.8231466  18.4176302  17.5608575
  11.6362989  18.3995664  16.6216815  19.5402646  38.4081745  40.0118923
  20.2952838  38.3268952  39.4291663  19.9140251  38.3851385  40.8928013
  10.6153345  14.2833841  25.1492023   9.8691702  13.8285434  25.5398297
  11.3356054  13.6556256  25.2071834  40.4311752  23.4516406  21.9266033
  41.1640406  23.0171013  21.4903450  40.4909849  24.3641233  21.6437054
   1.4934433  56.8625232  50.7840729   1.1561168  56.4011582  50.0162268
   2.4302662  56.9591483  50.6130314  72.6972577  19.5994973  10.8966672
  72.1680194  20.3959131  10.8535433  72.1769053  18.9409280  10.4365015
   2.2394169  55.2724346  19.1908300   3.0450237  54.9727770  18.7696040
   1.5490687  54.7433504  18.7911761  72.7880144  29.2668200  30.7778072
  73.7381011  29.2185712  30.8838224  72.5888214  30.2018261  30.8259559
  21.0713887  28.5552192  54.1094017  21.1985183  27.6064992  54.1099548
  20.3171015  28.6961293  54.6816158  20.0670671  16.0576856  39.7355771
  20.5841041  15.3800404  39.3000293  19.1686130  15.7287371  39.7071910
  49.5306206   8.4260577  40.7442379  49.5702982   7.5642252  41.1588478
  49.1107607   8.9866298  41.3966990   8.4223223  17.5034571   7.1041453
   8.4863657  17.0760083   7.9582047   8.4640247  16.7850149   6.4730084
  53.6083198  49.1217279  36.6172528  53.8437820  50.0088120  36.3454533
  53.9302850  48.5614586  35.9110880  63.1071603  25.6253791  43.5347939
  63.1575477  24.9970436  42.8144550  63.0210626  26.4762425  43.1048489
  23.7817788  39.8979926   8.1413108  23.6040473  38.9635801   8.2486367
  22.9165983  40.3074837   8.1375974  31.6031456  12.4224150   9.5204449
  31.0144448  12.5644088   8.7791622  31.8826294  13.3014679   9.7761506
  12.9073894   0.8350692   2.1395238  13.2734883   1.2338391   2.9289448
  12.6202154   1.5771279   1.6074410  41.6579021  64.7223999  28.6750674
  42.1547139  65.1387688  29.3793726  41.7315001  65.3295293  27.9387188
  30.3604126  56.2951851  38.9589882  29.9552059  55.4595232  39.1907382
  29.8436427  56.6150236  38.2194710   3.3386587   3.5772825   4.8792621
   3.9135336   3.7524438   5.6242915   2.6800536   2.9730130   5.2217980
  70.8951212  45.8870601  49.0735988  70.5809094  46.6184759  49.6051387
  70.8051134  46.1912548  48.1704954  28.7512398  59.0606403  56.0192728
  28.3846855  59.7187996  55.4287672  28.1685042  59.0690374  56.7786026
   0.0467700  16.7387271  52.3243189   0.7989885  16.1901319  52.1019602
   0.0178835  17.3980427  51.6309929  50.2744627  11.3852298  45.9321785
  50.3867912  11.5204751  44.9912643  49.8952913  12.2052550  46.2484360
  75.2183128  49.2724537  55.9256212  75.0160528  50.1722312  55.6692497
  76.0517622  49.0823078  55.4949961   5.7162839  30.2472591  56.2003803
   6.3389730  29.9709153  56.8727827   5.3689384  31.0788751  56.5228653
  20.4891575  53.5245856  25.6369781  19.7790516  54.1587528  25.5378914
  20.0457800  52.6920553  25.7998872  34.9800616   6.5668718   2.1548775
  34.7574734   6.4810840   3.0818763  35.9028875   6.8210737   2.1526735
  22.7805985  56.8016585  33.7430310  22.9814518  57.6562329  34.1245961
  21.8302906  56.7205473  33.8240862   0.3065482  28.9622951  57.0263624
  -0.5313663  29.2543483  57.3852968   0.8953570  29.7054982  57.1574593
  18.5467887  27.1674466  59.9858046  18.3465791  27.4005556  59.0792656
  19.4297826  27.5072312  60.1310635  23.7126915  70.0204634  46.2278072
  23.7680493  70.9283208  46.5260712  22.7929012  69.7844433  46.3482718
  31.7369228   3.9544908  45.1530313  31.3017308   3.1107036  45.0311041
  31.5770071   4.1761104  46.0703897  68.1745564  28.2508111  -0.1012448
  68.6512147  28.3469272   0.7232495  67.4771844  27.6257396   0.0967332
  33.3601427   8.5232794  48.3460045  32.5314736   8.7293965  48.7785053
  33.1662488   7.7533585  47.8113461  59.2438555   7.9275995  43.3194160
  60.1395798   8.2300556  43.1696558  58.7874889   8.1149822  42.4991417
  13.1052506  66.6286548  22.5731015  13.7532342  66.0561987  22.1624374
  12.4221933  66.0338475  22.8827286  34.7592020  34.3560266   9.0108597
  35.1543999  33.9596677   9.7873586  34.1190434  34.9770284   9.3584037
  18.5159206   6.0834849  15.0974715  19.4414639   6.0941178  15.3413773
  18.3318675   6.9799292  14.8168576  33.3628511  40.9536743  11.7389655
  33.9407444  40.4578543  12.3189950  32.7847600  40.2939796  11.3557565
  70.3474915  11.2181878  60.8871222  69.5924687  11.3321102  60.3098965
  70.7931054  12.0651329  60.8685827  57.0565177  46.2717231  37.6433754
  57.7424121  45.7527669  37.2232985  56.9724113  45.8937462  38.5187554
   3.1384147  40.1085051  14.5952630   2.2346724  39.8777469  14.3802452
   3.3874548  40.7482298  13.9282072   2.6467732  17.8662062  49.9590302
   1.8063670  17.9428458  50.4107809   2.7257538  18.6795020  49.4604874
  29.7676516  25.2618694  13.8236833  29.8817277  25.9095454  14.5191932
  30.5225706  24.6800447  13.9120436  21.9913281  65.1406523  43.6986256
  22.7435053  64.6712842  44.0593958  22.1066416  65.0847723  42.7500391
  36.6990685  11.0358119  20.5849600  36.6322851  10.7565856  21.4980888
  37.6310205  10.9619105  20.3794503  67.3742115  10.3533117  35.9575677
  67.9851782   9.7271768  36.3460279  67.0490944  10.8627454  36.6998649
  66.6809511  29.5696115  22.7866936  67.1270084  28.8268209  22.3798418
  67.1052885  29.6661067  23.6392522  50.2993071  13.5672704  34.3892550
  50.5579698  12.8362123  33.8281131  49.9174487  14.2070333  33.7883186
  63.9739895  70.5199862  36.7276978  63.5549688  70.1758528  35.9388852
  63.5033321  70.1038742  37.4498916  35.5110693  54.7103643  41.4351463
  35.0102282  54.7971487  42.2462320  36.3735890  55.0673723  41.6468906
  29.5115637  42.1887088  16.0408040  29.2096685  41.8338943  15.2046224
  30.2471470  42.7555824  15.8088609   3.8396322  20.6998483  56.6011763
   3.5518324  20.0046674  56.0094643   4.7819101  20.7698480  56.4480686
  48.4756231  53.0673742  16.3455749  48.6671495  53.7765980  16.9592166
  48.9656353  52.3183250  16.6847503  38.6328458  15.4348222   7.7566189
  39.3899703  15.1908819   7.2241873  37.8833794  15.3263704   7.1711534
  26.6508269  71.5582705   3.4598389  26.8750095  70.7837963   3.9757544
  26.4290380  71.2138081   2.5947452  64.7131227  15.5872560  27.9091474
  64.8505186  16.2654233  27.2477456  65.5139707  15.0635171  27.8851243
  25.7735920  57.3345995  24.0403128  25.6237698  57.7077436  24.9089599
  26.7043591  57.4828815  23.8732243  70.3983927  29.7764063  27.7956939
  70.5543709  30.6966496  27.5834370  71.0740519  29.5610404  28.4386039
  59.0970528   4.2535535   3.5595053  59.4717514   4.8802320   4.1784662
  59.6498215   4.3257514   2.7813879   2.1774530  12.8426754  25.4071784
   1.8897581  13.7382400  25.2299047   3.0650282  12.8013396  25.0511861
  32.2503972  35.2028251  15.4140031  32.7836037  34.5401192  15.8530307
  32.0873857  34.8406529  14.5430899   3.0606710   5.4728118  41.5219784
   3.2151854   4.8893682  40.7790422   3.1389296   6.3534919  41.1552286
  54.3019962  35.1811409  60.3331661  54.3586445  36.0344219  60.7632017
  55.1841211  35.0234890  59.9966621  71.6901302  34.0282869  32.6289415
  72.3995066  34.6310639  32.4060631  71.4804506  34.2317486  33.5404611
  18.9805757   3.8963548  50.4693174  18.4545433   4.6152774  50.1190710
  19.2738306   4.2089931  51.3251734  28.0375760   3.6225931  45.9439945
  28.1263244   4.5492069  45.7209635  27.1132418   3.4268037  45.7906818
  65.2201855   3.8318960  47.1034002  65.0669825   3.5996477  46.1875296
  64.3443548   3.9599554  47.4677515  22.6898945  10.7830683  46.7987374
  21.7703093  10.9765831  46.6166751  22.9863203  11.5153996  47.3391513
  63.9351940  34.8054743  47.5597763  63.7500286  34.7222090  48.4951973
  63.4529018  35.5866075  47.2887516  48.1730938  30.8933973  28.9503884
  47.8716993  30.9822464  28.0462313  48.4770727  31.7692065  29.1886854
   6.7172289  39.9232531  37.2490811   6.1553049  39.2719007  36.8293047
   7.3754072  39.4073105  37.7147388   0.8464014   4.7739212  39.0678549
   1.0065519   5.5718652  39.5717072  -0.1037205   4.7489444  38.9543891
  49.5117426  66.1750841  49.3482685  48.5721254  65.9925365  49.3535137
  49.8663092  65.5867767  48.6816311  68.3331978  15.9551565  38.5185194
  69.1527616  16.4374296  38.6278939  68.2641279  15.8111993  37.5747323
  69.3720007  49.8741913  45.7063150  68.7733936  50.1931572  46.3817120
  68.8638783  49.9171114  44.8962545  34.9483692   0.7922403  50.8005762
  35.8411419   0.9973232  51.0783100  34.9812710   0.8258430  49.8445320
  23.6666309  28.6780206  27.1878099  22.9956686  28.0349008  26.9588041
  24.4791090  28.1733648  27.2256780   6.3645982  25.4963661   0.5071946
   5.8920430  25.3099752  -0.3040914   5.9520863  26.2901712   0.8476849
  55.8720398  50.3660345  14.3093753  56.7522717  50.4640436  14.6724415
  55.2879858  50.5271482  15.0504243  16.8226004  37.3873067  45.1768780
  16.7668867  38.2818723  45.5128527  17.7557135  37.1765685  45.2103424
  68.8438082  28.4589839  37.1282291  69.3758774  29.2546821  37.1287155
  68.1024027  28.6662745  37.6970720   1.6459513  25.3976345  15.7027352
   2.3652601  25.1917434  16.2997568   1.3175678  26.2439680  16.0062432
  53.4038544  29.6739841  25.1470685  52.5082827  29.7159934  25.4823470
  53.3884954  28.9580011  24.5119596  16.1609518  16.0250131  53.2569551
  16.0474932  16.5748350  54.0322304  15.4368317  15.4003660  53.2982635
  46.8555737  29.6174097  50.6909704  46.8640661  30.1872587  51.4600134
  46.4267302  28.8160992  50.9913492  55.7147980  44.2384148  35.9013224
  55.4227972  45.0163031  36.3765645  56.6354036  44.4102144  35.7033443
  68.1389426  28.2703233  27.3256226  68.2211100  27.3166585  27.3269292
  68.9878642  28.5842920  27.6370545  64.7910309  41.3515806  57.5383663
  64.2743158  41.3083506  58.3429575  64.2518282  41.8624210  56.9345951
  75.3120995  43.0165815  38.9244676  75.2049112  43.9257288  38.6448336
  74.9084949  42.9835939  39.7917891  28.3841885  23.0511252  44.0484182
  28.7634552  22.4413315  43.4155337  28.6405027  22.7009979  44.9016170
  42.0068741  69.9933386  33.2526851  42.6953268  69.7713661  33.8795757
  41.9356012  69.2209959  32.6917648  71.2405539  30.5690908  51.0506439
  70.5721569  31.0686612  50.5817080  72.0505619  31.0581851  50.9060431
  54.9062204  25.4430485  52.1296024  54.4433308  26.0731387  51.5773773
  55.8163023  25.7395220  52.1201801  72.2949432   7.1202541   6.7173263
  71.9182013   7.8257633   6.1914416  72.1614169   7.3992181   7.6231833
  55.6412697  68.9860964  38.2072425  56.0096693  68.5256195  37.4532700
  56.3990545  69.3747616  38.6442041  61.2424850  47.3083878  11.5822792
  60.3656149  46.9455957  11.4569581  61.0921955  48.1667995  11.9782305
  27.0803511   2.4372045  51.0176039  27.4902307   3.2989398  50.9424829
  27.8152716   1.8259708  51.0677481  55.2760839  64.4329691  55.5511856
  54.3854094  64.2033863  55.2861834  55.6884670  63.5940504  55.7570791
  26.4463401  40.1640987  25.5776620  26.5408087  39.9188995  24.6572351
  25.7750821  40.8464766  25.5760622  63.0866693   9.9781108   5.9530087
  64.0091299  10.2334667   5.9631988  62.8776335   9.8724533   5.0249072
  56.3349724  54.5035315  48.8274574  56.0704184  54.4758511  49.7469568
  55.6285858  54.9780464  48.3891773  35.6513988  21.1743299   3.7960795
  36.0206425  21.0756914   4.6736681  34.7283184  20.9420625   3.8971180
  66.8674517  41.2543631  43.3988714  66.3655138  40.6142569  42.8943443
  66.8729019  40.9056520  44.2902756   3.4467232   7.9279224   0.4719221
   3.5251867   7.3520986  -0.2886699   4.2520248   7.7806369   0.9679310
  52.3761892  59.4148159  34.9869537  51.5911150  59.9514341  34.8777246
  52.2437954  58.6735916  34.3959427  61.2891483  52.7289534  45.8824348
  60.5513668  52.9822540  45.3276825  61.9090557  52.3147249  45.2821350
  72.9546833  16.4914417  27.2072887  72.6526785  17.3062730  26.8059468
  73.9087296  16.5684426  27.2169423  33.5552227  37.0372240   9.9697357
  32.8500664  37.6788370   9.8841923  34.0972340  37.1719495   9.1923672
  53.9507257  13.3953611  22.8492975  54.2395269  12.8252450  22.1367049
  54.4730341  13.1202833  23.6027932  22.9623817  11.8990732  17.6895686
  22.5877451  11.0729337  17.3840066  23.8909696  11.7071081  17.8203698
  -0.1335478  29.1741157  31.2530446   0.6648731  29.0720248  30.7350302
   0.1674223  29.5288420  32.0895958  50.8828163  66.8569994  28.5655093
  50.7286596  66.5541601  27.6706600  51.8266058  66.7596579  28.6920643
   2.7411509  64.0129805   3.1962526   2.8433561  63.8257599   4.1293842
   2.4845123  63.1753349   2.8106105  10.7897043  69.0298939   3.7432700
  10.1577139  68.3212090   3.8640031  11.5709257  68.7366056   4.2122227
  67.9201126  57.0566845  32.1277976  67.5871277  56.4963484  31.4268160
  67.7823067  56.5480566  32.9268861  26.5605377  39.8972440  13.5477134
  26.1067938  39.3101812  12.9429742  26.2910007  39.6006561  14.4169780
  39.7069383  64.9235868  36.9627094  40.2069283  65.6148100  36.5285969
  38.8150454  65.2676582  37.0114326   6.3053667  65.6133374  -0.1282815
   5.7822430  65.9996613   0.5740901   6.4016497  64.6945676   0.1223679
   3.8627195  62.8027296  40.1034594   3.6913300  63.7443876  40.1150990
   3.0223703  62.4035311  40.3286076  41.7840910  50.3771591  20.7630634
  42.3396063  50.9779263  20.2663612  41.1719561  50.9467697  21.2289619
  66.8202888   4.9485485  43.2309294  67.0177471   4.0254871  43.0721807
  67.5274050   5.2501003  43.8012648  48.5357904  41.9545460  58.9999866
  47.7409410  41.5268707  58.6813354  48.6111784  41.6715193  59.9112749
  53.7439060  64.4862890  45.6715631  54.6530485  64.1940594  45.7370901
  53.7724972  65.4130554  45.9092999  68.8420116  23.8590757   3.4597677
  68.4389126  23.4141771   4.2052919  68.1023418  24.1772214   2.9421711
  11.1380243  64.1930485  37.5038600  12.0196962  63.9121819  37.2589087
  10.6646776  63.3779669  37.6706553  44.5894920  10.8997385   2.4344516
  44.8314106  10.0295679   2.1174107  45.3705704  11.4334814   2.2886582
  54.0901804  60.1356411  57.0497608  54.9040747  60.6254482  56.9318771
  53.4079409  60.8066654  57.0723581  41.6358376  19.6862662  52.2648239
  41.1541462  19.5877969  53.0861092  42.1514559  18.8831234  52.1917963
   9.3981194  44.9723721  39.9609590  10.3424251  45.0737667  40.0802803
   9.2080230  44.0939903  40.2904177  20.3391277  20.5447999  16.5740895
  19.5038855  20.9250490  16.3020444  20.8008730  20.3695051  15.7541502
  65.9377432  43.7328815  56.7497015  66.4917898  42.9563904  56.8292427
  65.1667547  43.4289455  56.2707138  59.7675573   7.3663465  40.5358362
  60.3312313   6.8221036  39.9860144  59.6707689   6.8677131  41.3471508
  47.8884220  50.2340078   3.9553869  47.1651363  49.6530628   4.1911519
  47.8191376  50.3293991   3.0054754  58.5365879  15.6850759  43.7640142
  58.3760511  15.9540693  44.6685028  59.4741785  15.4947416  43.7335634
  72.0567715  64.0153059  25.5573865  72.5438845  64.5007667  26.2231847
  72.5764429  64.1154822  24.7598096  69.2456924  18.6088506  30.2940679
  68.5837042  17.9235879  30.2023506  70.0775539  18.1600038  30.1431656
  31.1891794  53.4153700  21.3742471  31.0921621  53.9166832  22.1838808
  30.9432554  54.0287828  20.6818008  59.1824602  17.5158000   2.2821637
  59.6935629  17.4373365   3.0876704  59.5896410  16.8943382   1.6786548
  58.1715584  44.7310734  39.4892383  58.6564398  44.5718527  40.2990294
  58.2128763  43.8990498  39.0177941  39.6550274  26.9194245  39.0728593
  39.4479203  26.7300296  39.9879909  40.3708982  27.5534105  39.1155577
  52.0835924  60.0190306  29.1922402  52.1546602  59.5046234  29.9963331
  51.6733170  60.8387661  29.4678020  42.8609537  30.7753539   0.8613797
  43.2053780  31.5917516   1.2234565  42.5545477  31.0120464  -0.0140218
  68.9469719  65.4082394  60.1693869  69.4715691  64.9712372  60.8402538
  69.3984175  66.2380886  60.0151873  66.8285798  35.4879642   4.4851418
  66.8989765  36.1936736   5.1279899  66.6587352  35.9352422   3.6560889
  40.8864689  68.1280279  18.8533044  40.7010984  69.0548515  19.0045285
  40.2789545  67.6650333  19.4301856  40.4628897  56.5880394  16.8431628
  40.9442234  55.7679892  16.7333019  40.0707293  56.7523146  15.9855771
  14.0021599  11.2078444  59.9781532  13.5377062  12.0116106  59.7447447
  14.9188650  11.3931290  59.7742926  37.9577373  16.1397672  11.8022986
  38.8110184  15.7595611  12.0110675  37.4353622  15.4000879  11.4920827
  56.1969614  61.1731672  35.2780032  55.3986120  61.2751484  34.7598624
  56.8605042  61.6658163  34.7950482  46.1260462  52.4597979  20.3141618
  46.2124157  52.6866150  21.2400818  46.2745190  53.2841015  19.8507881
  60.8287191  31.8156838  49.9605703  60.3975487  31.6633654  50.8014774
  60.1132345  31.8379378  49.3251085  36.4522146  34.1609216  20.0971909
  36.4112495  35.0724244  20.3865262  36.4527248  33.6520744  20.9079286
  45.3380251  47.8654957  50.9792900  44.7940874  47.4416590  51.6431665
  44.9013948  47.6686478  50.1505327  57.6753473  59.5966244  23.9736557
  57.9538059  60.5124044  23.9799738  56.7544603  59.6280813  23.7144065
  68.0659437  70.8324623  52.4830675  68.1714058  69.9335957  52.1713877
  67.5295401  70.7511377  53.2716656  45.0282431  58.6483240  55.5015135
  44.9271488  59.5762444  55.7135820  45.9067965  58.5825014  55.1272774
  42.8348827  54.2034626  33.0154014  42.4467945  54.4860411  33.8435102
  43.7204075  53.9247608  33.2486510  46.2507820  41.4520216  37.6501536
  45.9389210  41.1708546  36.7899680  46.9896603  40.8732176  37.8379917
  26.2287342  12.6047365   4.9528748  25.4695093  13.1676618   5.1042849
  26.0320007  12.1528379   4.1323191  48.4290695  50.3458309  36.3864183
  48.0302906  51.2135172  36.3206244  47.8120852  49.8380089  36.9133711
  73.7004196   2.0153944  51.4031744  74.2350113   2.6772443  50.9645414
  74.2537415   1.2345592  51.4220190  69.5394766  25.7999460  18.2060802
  69.8217260  25.5901758  17.3158193  70.0078976  25.1749078  18.7593842
  37.9934406  40.9225178   8.0057061  37.7808309  40.0078106   8.1910247
  38.8493323  40.8876753   7.5785440  28.6718475   3.5579387  15.2356052
  29.5996105   3.3711950  15.3792036  28.6447536   4.4922058  15.0290978
  55.5580532  11.9508115  58.4984732  56.4937818  11.7869321  58.3810711
  55.5190122  12.7439825  59.0328884  45.8766508  55.3087521  46.1224174
  45.0269365  54.9891663  46.4258623  45.7006931  56.1956215  45.8082008
  40.9263634  40.2299667  11.5777322  41.0056852  39.7659755  12.4111911
  40.2598690  39.7417808  11.0943147  13.5494148  12.0029870  38.4495568
  13.4161674  12.4951498  37.6394629  12.6925337  12.0073072  38.8761306
  20.7347584  66.2772179   6.1066997  21.2895632  65.5987453   6.4915371
  21.2452674  67.0821810   6.1941469  35.2561259  39.2396736   3.7841827
  34.7387266  38.5688305   4.2297152  35.1160169  39.0707111   2.8524888
  15.9673094  31.5525127  11.9920369  16.4273142  30.9361291  12.5618621
  15.0412392  31.4217163  12.1958085  52.6780605  43.7493324  35.9543872
  53.0943918  44.3312454  36.5902162  51.7728949  44.0567207  35.9051824
  46.2210285   7.0406572  57.7355051  47.1107876   7.1798173  58.0598402
  46.0184895   7.8360454  57.2429943  63.1121588  63.3101702  33.2055306
  63.9945173  63.2228804  33.5661650  62.8682995  62.4202204  32.9510570
  65.4057455  40.1193047  36.2332201  65.8438540  39.4613624  35.6934023
  65.0184870  40.7269049  35.6030726  70.1164209  41.8779779  12.6644393
  70.9761452  42.2423196  12.4538203  69.8528241  42.3330713  13.4642144
  34.0738511  51.1822176  17.3621857  34.4266820  52.0716429  17.3878515
  34.8470211  50.6184483  17.3375869  53.2350111  45.9324455  40.9620523
  53.4818888  46.7397356  40.5108643  54.0280485  45.6658411  41.4270782
  16.7900217  29.4578758  55.5854372  16.3195646  28.8180319  55.0511149
  17.1634615  30.0706259  54.9519435  61.8055033  29.0652347   1.9879266
  61.7782377  29.0378595   2.9443427  62.3070406  28.2884670   1.7402812
  50.0838671  45.4499260  55.0171725  49.8312588  44.7799889  55.6524632
  49.5951215  46.2287441  55.2832607  22.6196694  60.8807325  36.7587948
  21.9739652  60.2617455  37.0996046  23.3799720  60.3400803  36.5446377
  70.1792240  50.8601522   3.9707324  70.3335381  51.5035820   3.2790560
  71.0255241  50.7722521   4.4092306  41.9616270   4.4696847  16.8843627
  41.6309857   4.3097965  17.7682996  42.7860248   3.9848081  16.8456650
  73.4449863  29.1762543  26.4202642  73.2987261  28.4583497  27.0362639
  74.0048885  29.7897601  26.8960285   6.8583739  61.1581612  26.9227529
   6.6339403  60.3036880  27.2911811   6.5456098  61.7884398  27.5717258
  47.4733305  38.7624788  19.5470989  46.9459343  38.0090141  19.2818141
  48.0319405  38.4286022  20.2490354  24.4926369  10.5251638  29.1145921
  24.8895752  11.3151590  29.4814444  24.7101175   9.8348085  29.7409701
  64.0952396  21.4953065  39.9036598  63.2751322  21.0053039  39.9632025
  63.8290358  22.4137974  39.9453664  58.4198713  33.5535789  10.5440140
  59.0151119  32.9390740  10.9733224  57.5474119  33.1945992  10.7058239
  68.7282133  58.2622147  19.0981340  68.3438730  58.9755297  18.5885334
  69.6714497  58.4199238  19.0573823  64.3796110  55.5579662  35.1066256
  64.0607500  55.6104040  36.0076308  63.7382746  55.0075388  34.6572423
  52.6296473  42.5296116  30.2130771  51.7028189  42.2920656  30.2411079
  52.6341629  43.4846640  30.2770209  68.3066047  31.2877432  43.7459044
  67.7841020  30.8688990  43.0619506  68.1022275  30.7936255  44.5398263
   4.3641246   8.2140223  60.0596202   4.5768202   7.9393545  60.9515555
   4.5144570   9.1593424  60.0578427   9.2721903   2.7056161  50.0161982
   8.5180246   2.5329153  50.5797911   9.2251217   2.0302812  49.3394852
  74.0902281  47.2335529  40.8926773  74.6535873  47.9994774  41.0031986
  73.2025528  47.5907946  40.8673573  32.1833050  11.0266916  45.2114487
  31.7442715  10.7302896  44.4141865  31.8628609  10.4375974  45.8944702
  53.3484745  70.5851173  15.7894349  53.2651138  70.7084703  14.8438835
  53.4929276  71.4663410  16.1341238  12.4919569  17.4446718  54.6840000
  11.9576752  17.1777383  55.4320145  12.1686994  18.3167879  54.4578314
  13.1329012  42.3440790  27.5801516  12.7098322  43.1125546  27.9631519
  14.0531301  42.5939751  27.4966550   3.4714376   4.1912786  54.1778040
   3.1824886   3.2925407  54.3359566   2.9600632   4.7187559  54.7913980
  66.3531828  40.0115681  25.2474666  66.3184500  39.0617013  25.3605223
  65.4358435  40.2843380  25.2295542   1.2264918   7.9155851   2.1534129
   1.9903420   8.2100320   1.6573592   0.6079959   7.6176906   1.4863606
  11.2453949  25.0357954  29.0187931  11.4285957  24.8884431  29.9466705
  11.1267006  25.9827844  28.9455390  29.7501862  29.2649309  58.4081125
  30.7058918  29.2823640  58.4586477  29.5496094  28.4514562  57.9452229
  73.2729483  51.7202616  21.1464357  72.8374720  50.8720446  21.2307954
  72.9169846  52.0930862  20.3398871  47.9703379  61.0055876  31.5981817
  48.8978195  60.7696724  31.6168666  47.9659462  61.9459820  31.4196563
  45.9826422  67.7571726  10.4537213  45.5856085  67.5134516   9.6175420
  45.2956629  67.5970650  11.1007559  52.5421000  71.4002275  13.3252966
  51.7217827  71.8366146  13.5552597  52.3048067  70.8023691  12.6164293
  42.0290602   6.9555060  57.1148238  41.1372459   6.6778198  56.9055710
  42.3184908   6.3424126  57.7905304  57.2370434  33.3683872  45.8213806
  57.8393459  32.6260185  45.7728720  56.3786697  32.9937029  45.6238031
  45.1204062  51.5255547  42.2882366  44.6468639  50.8051920  42.7042484
  44.6360064  52.3103142  42.5446320  48.2983589  36.0385895  38.1681895
  49.0996695  36.1267114  37.6520801  47.6728630  35.6280589  37.5711560
  29.7403193  50.5282402  51.3212824  30.5164170  50.5150890  51.8814039
  29.0618253  50.9331274  51.8616009  30.0322056  65.3621197  24.8552060
  30.2386665  64.4321728  24.7613430  29.1920567  65.4671907  24.4087267
  65.2587414  36.8646407  32.7070642  64.7349072  37.5851083  32.3567033
  66.0744429  36.8964362  32.2072101  34.7387385  57.4807501  57.7683592
  33.7920260  57.4971962  57.6280117  34.8819709  58.0745554  58.5053158
  51.0455787   2.8599159   2.4998695  50.5394995   3.4607641   3.0467623
  51.1615645   2.0809070   3.0438611  74.0215313   5.1106111  22.6914215
  73.5516750   4.8408929  21.9022965  73.3318865   5.3056423  23.3259153
  36.0549784  58.0556870   6.5297121  36.4833379  57.2043705   6.4402759
  36.0550451  58.2260704   7.4716258  53.8770914  55.9837151  47.4766111
  53.1599283  56.6100359  47.5747252  53.4833241  55.2376366  47.0243406
  66.3999187  26.4678804  47.8683138  66.9626820  26.8656675  47.2040129
  65.5217134  26.7869607  47.6605177  32.6749075  16.7266050  55.6159637
  33.6111963  16.7099110  55.4176871  32.6229847  17.1005646  56.4955596
   8.7533581  29.0247957  27.4481988   9.5824205  29.4885198  27.3305368
   8.4697735  29.2614690  28.3312607  53.4969997  55.3336668  32.5756907
  53.8379240  56.1293650  32.1672034  52.9917669  54.9068022  31.8837643
  68.4316265   8.7184946  57.8520155  68.2579720   7.8905288  57.4041939
  68.2137501   9.3904535  57.2060871  44.1937136  14.7695136   8.7518474
  44.0160822  15.6587625   8.4453889  43.8812183  14.2054820   8.0444261
  44.2991375  42.3908306  19.3290635  44.0928244  42.8550887  20.1403161
  45.1705002  42.7053142  19.0880891  20.7871675  60.7420731  61.3286400
  21.7182970  60.7328558  61.1069584  20.7400751  60.3127956  62.1828842
  35.9307909  63.8548565   1.8587208  35.6611967  63.0846167   2.3590016
  36.8536520  63.6991119   1.6579801  60.8997583  22.7015209  45.5327988
  61.5764999  22.8146219  46.2002277  61.3826895  22.6536727  44.7077370
  11.8016313  56.8732667   5.1680442  11.3729285  56.9456983   4.3152829
  11.5309237  57.6608682   5.6398841  38.5357141  64.3598938  58.0315828
  37.8812027  65.0481176  58.1507397  38.0689812  63.6626768  57.5708485
   7.5062561  65.2838182  11.8657231   8.0925095  66.0040045  11.6336119
   7.3921680  64.7955656  11.0503566  46.7102242  49.3111944  38.2343793
  46.9232321  49.9280167  38.9346552  46.8493223  48.4483337  38.6247110
   1.0171127  57.6414871  54.1344738   0.3076839  57.5151825  53.5044050
   0.5724716  57.8047991  54.9662495  16.3925087  13.6286870  37.7530622
  15.8266699  14.1713373  38.3022404  16.8473398  13.0557291  38.3703756
  72.4589693  14.8341314  33.4194922  72.3987829  15.5439130  34.0588784
  71.5524828  14.5604841  33.2793784  56.0545599  15.7458154  40.4414272
  55.7096993  16.5307371  40.8671188  55.8157980  15.8484594  39.5201826
  36.7515039  26.8484378  24.4130206  36.3316226  27.6658154  24.1450143
  37.4012446  26.6781187  23.7310672  21.9710171  11.6111604  41.6999626
  22.4979412  11.4343683  42.4792767  22.0568716  10.8198778  41.1682320
  65.2260876  62.9544687  34.8269725  65.5376863  62.1459246  34.4202852
  64.5365715  62.6704407  35.4270816  15.0924265  30.7047883  44.9098158
  14.8149931  30.6549875  43.9950562  14.8472607  29.8572103  45.2809381
  38.8343716  67.6018810  26.6433501  38.2354665  67.5945950  27.3900032
  38.2701969  67.7542830  25.8852530  12.6060926  21.1678926  57.5579262
  11.7800819  20.7730714  57.8373098  12.4150812  21.5385000  56.6963053
  57.3514187  10.1958982  20.9308958  57.1781527  10.8755723  20.2795482
  58.2779705  10.3015748  21.1466813  62.7151049  25.6438604  56.0867164
  62.0176447  26.1140648  55.6298814  62.9319799  26.2028853  56.8328313
  31.4906931  60.0968504  28.3844399  31.2436724  60.7724190  27.7529168
  30.8425093  60.1748466  29.0844417  16.5312242  66.9945002  15.0675356
  15.8718061  67.6826239  15.1563609  16.3319540  66.5786552  14.2287278
  12.2579491  22.3945180  55.1148224  12.7099239  22.0370428  54.3505192
  12.7348434  23.1985036  55.3207684  55.7885969  23.3491150  57.2729943
  56.0880888  22.4553314  57.1066154  54.8382986  23.2714478  57.3575262
   7.7666616  71.0619259  27.6284313   8.2400846  70.4058599  27.1168852
   8.2760572  71.8648100  27.5183344  68.2547855  61.0417700  45.5616856
  67.4335384  60.7843924  45.9806585  68.7938213  60.2511311  45.5853748
  21.0414040  23.1318990  23.8335204  20.5718719  23.9338819  23.6041880
  21.9466602  23.4136812  23.9652061  65.4097139   8.8245050  59.1655445
  65.4075682   9.7815267  59.1839504  65.9929811   8.5724870  59.8814487
  49.7511482  41.6057348   1.6724496  49.1687584  42.2606039   1.2874807
  49.5742607  40.8065891   1.1761609  40.7401478  15.7516996  31.4565706
  41.4456284  16.0555021  32.0277357  40.1571476  15.2613012  32.0361066
   9.2215156  16.4900184   9.4222947   8.8411306  15.9220720  10.0923510
   9.0830754  17.3773122   9.7536250  42.8990721  47.8358198  12.2692700
  42.9577993  47.1920324  11.5633460  41.9915031  47.7810121  12.5685140
  23.5471165  33.7879125  50.8337784  23.6381542  34.7241632  50.6566238
  24.0593492  33.3630506  50.1457834  40.0709080  44.3242956  13.9701434
  39.3800758  43.8846565  13.4744616  40.3163122  45.0729967  13.4265872
  28.6170685   0.6464616  26.3765645  28.3260548   1.5464822  26.5232062
  29.4166290   0.7347909  25.8577871  70.5018341   2.8209058  38.6009789
  70.2759516   2.0008222  39.0399241  69.8649609   2.8954975  37.8903031
  19.3731605   1.3729373  50.2966547  19.8635828   1.1468212  51.0869646
  19.2983972   2.3267642  50.3258610  48.1478024  61.4149094  25.0256896
  48.2686424  60.4882336  25.2328277  48.9011478  61.8498325  25.4251146
  10.5563081  67.0343700  61.0639866  11.2420595  66.8325916  60.4273806
   9.9265779  67.5661102  60.5772383   6.7887365   8.1422273  46.2224388
   7.1799290   7.3473875  45.8599043   7.5225222   8.7499944  46.3141155
  70.5653667  48.5050964   6.6562629  71.0490131  49.1994381   6.2088132
  70.3670931  47.8697205   5.9683573   3.5435247  61.5141201  28.5407805
   4.0509319  62.2975492  28.7529230   4.0233469  60.7980204  28.9569569
  56.6553116  46.7798233  56.8789434  56.4776897  46.9746113  57.7991295
  57.5601816  46.4677811  56.8705177  51.2808502  26.9814936  56.9810114
  52.0778025  27.4801890  57.1610353  50.6253899  27.6459328  56.7685799
  68.7633812   6.0273162  26.0951900  68.1210100   6.4628259  25.5349016
  68.5273039   5.1005737  26.0546756  75.5178987   3.5159246  12.8302634
  76.1729490   3.5946599  12.1367657  74.9144661   4.2421953  12.6733291
  75.4035484   1.2471143  14.1115618  74.9458229   0.5389921  13.6584806
  75.2944576   2.0071165  13.5399604  37.8217483  61.5139675  24.8123765
  38.6226988  61.7315912  24.3355656  38.1131959  61.3548183  25.7101321
  69.6284592   4.9767963  18.7267172  68.8418257   4.5119993  19.0120232
  70.1341640   4.3202011  18.2477868   6.2715494  10.5256502  36.7665410
   6.7380201  11.2611333  37.1636510   5.4245340  10.8899442  36.5094614
  27.5938581  35.7720447  14.3795129  28.3010649  35.1370550  14.4929954
  26.8171858  35.3291870  14.7214003  75.2967787  67.2079849   2.8954270
  75.3422785  67.1353006   1.9420756  76.1632252  67.5226641   3.1532663
  10.6827021  27.7992296  29.5357418  10.4528952  28.1318307  30.4033804
   9.9625730  28.0822921  28.9722562  28.3129072  52.5832653  40.1377630
  27.6554251  53.1984758  40.4625225  27.9461813  52.2512817  39.3182898
   9.5191013  24.8410741  56.5741491   9.3093311  25.7495347  56.3575172
  10.4214632  24.8728410  56.8918896  28.7101482  39.9961830   9.5083018
  29.0100836  40.6034923   8.8319560  27.8650307  40.3478170   9.7882291
  25.1219034  59.8744202  45.4700470  24.1647100  59.8730183  45.4670525
  25.3587389  60.6647301  45.9553766  49.3706799  64.9487162  46.3792324
  50.1092052  64.6908092  45.8276081  48.7487984  64.2253208  46.3004780
  14.3039143  14.0592233   8.1918770  13.9434301  14.9444334   8.1401491
  14.5287859  13.8389818   7.2879088  13.0905449   8.2780687  42.0653915
  12.8866350   7.3433248  42.0954657  12.2962725   8.6854784  41.7198706
  63.3624220  50.7627821  31.5014720  64.2732906  50.7902050  31.7943764
  63.2764482  49.9149847  31.0654879  54.2436409  45.2152681  15.7073212
  54.8164034  45.0511551  14.9581587  54.7995567  45.0634813  16.4716148
  48.7050009  68.4132147  17.7057517  48.9968443  69.0535593  17.0568919
  48.8371658  68.8483953  18.5479987   5.4631960  36.1345521   6.3715839
   6.2052595  36.5818540   6.7783993   5.1098740  36.7722742   5.7513380
  30.3362632  62.2479534  26.8721890  30.3198433  62.4687147  25.9409380
  29.6612954  62.8035641  27.2619891  38.2615471  65.6739378  23.7528491
  38.1534147  65.2493572  24.6038890  37.7071166  66.4526987  23.8015366
  19.0378344  14.3789331  33.1982708  18.3232986  14.2064516  32.5851464
  18.6896479  15.0455038  33.7904549  53.3890890  39.9056268  17.9032155
  54.0972637  40.5411172  18.0074902  52.7755140  40.3273368  17.3016234
  71.0186434  55.0719070  16.8055189  70.1192045  55.2085161  16.5078962
  71.2514544  54.2045975  16.4741504  34.5838976  59.4752741  25.7043099
  34.6399260  58.6623764  25.2020240  35.2418470  60.0470304  25.3087997
   1.8644249  22.2147504  24.5999384   2.5982153  22.8243772  24.6782994
   2.2164261  21.3764993  24.8993826  63.1010353   9.8120634  34.5264316
  62.5390064  10.5722276  34.6764517  63.2445156   9.8033182  33.5800838
  72.9613888   2.6733533  26.3584280  73.8496649   2.9793064  26.1751652
  72.4302637   3.0438034  25.6535101  50.5625629  46.2368155  24.6370435
  50.2889872  47.1479559  24.5311546  50.1937342  45.7861614  23.8773680
  36.6488850   6.4453117   8.9489782  37.4787247   6.9076244   8.8312244
  36.1260235   7.0281784   9.4995332  46.3252567  32.9127336   0.0791808
  46.6426824  32.0851064  -0.2820710  46.2049173  32.7363134   1.0122558
   6.5917885  15.5753271  24.8178983   6.0998833  16.1586706  24.2399979
   7.4676907  15.9594099  24.8567486   3.1022644  58.7933731  13.2271159
   2.8841829  59.7020531  13.4344137   3.9277697  58.6347437  13.6849511
  53.5868429  44.7435594   9.7979422  52.7537083  45.0274969   9.4217750
  54.0933775  44.4298768   9.0487691  62.0826101  59.6320915  20.5261111
  62.8442192  59.9066162  20.0154018  62.3978090  58.8946533  21.0486674
  31.2710047  69.8839760   9.6617311  30.9435606  68.9846277   9.6480507
  31.7498922  69.9519777  10.4877341  32.3860985   4.6806423  23.9070225
  32.5215411   4.5352737  24.8433733  32.8916633   5.4695741  23.7115288
  73.6151791  63.8685226   2.1057795  74.5116425  64.0173578   2.4065065
  73.3102226  63.1222582   2.6218411  64.3083429  65.0020170  19.5323122
  64.8887396  64.5210028  18.9423990  64.8975897  65.5351114  20.0660086
  40.1587105  59.2175770   3.8001478  40.5879784  58.7052250   4.4853187
  40.8592701  59.4249916   3.1817386  26.8480862  15.3317228  51.2566630
  27.2093523  15.6638495  52.0784966  27.5767601  14.8670069  50.8451931
  53.5976648  65.8827877   1.8979406  53.8143396  66.3127851   2.7252200
  54.3514395  65.3219318   1.7149153  62.9189622   4.1445486  49.2551756
  62.8773152   5.1007120  49.2710447  62.7060544   3.8806526  50.1503086
  12.7693760  17.8386823  59.4871569  13.6259615  17.4579374  59.2934608
  12.2280847  17.6069776  58.7324667  16.8387556  46.4377832  47.9764271
  16.1949778  47.1222067  48.1590652  16.7062426  45.7927847  48.6711597
  51.0802937  46.1835527  30.3809786  51.9813442  46.3105822  30.0839853
  50.7903576  45.3887272  29.9332952  10.2854204  69.0892935  19.3603396
  10.3513384  68.6286211  20.1968026   9.5361185  68.6851931  18.9227498
  49.4686413  60.5606222  45.6471491  50.4142284  60.4800558  45.7720995
  49.1016054  60.4606867  46.5255165  15.8438551   2.1509782  26.1194396
  16.0846817   1.2259332  26.0692263  16.5515148   2.5558225  26.6209912
   9.9131250  65.5652809  32.6419711   9.5464468  65.4610872  33.5199904
   9.5842886  66.4134693  32.3441839  45.4158783  70.0688553  59.0263128
  44.8910046  69.3968534  59.4612265  44.8314714  70.8241224  58.9608812
  65.5499029  52.8530836  18.2180285  66.2554026  53.0111694  17.5907278
  65.7248163  51.9760180  18.5591888   7.6267492  23.0232755  60.1343775
   7.2913515  23.1812994  59.2518997   7.4966061  22.0855562  60.2757120
   1.1557817  37.9103518  52.6171541   2.0119715  37.7649498  52.2146225
   0.5979633  38.2004666  51.8954182  50.9034586  67.7721786  33.4490967
  50.5802011  67.9373264  32.5633979  50.9825897  66.8196964  33.5014653
  74.0181934   8.4773103  27.5876999  74.6311342   9.1071931  27.9668903
  73.4425365   9.0061037  27.0352244  53.6414469  38.4008041  33.8399343
  53.4378231  38.7984005  34.6865086  52.7916515  38.3041159  33.4101347
  16.0247862  19.5684282  53.7193346  16.5060865  19.9041215  54.4755697
  15.1109898  19.5544569  54.0039539  54.0974462   2.2713605  55.0828457
  54.3241941   1.3657848  55.2943897  53.5470497   2.5570480  55.8120060
   4.3869888   3.4299270  27.0085716   4.2947208   2.9289714  27.8189802
   5.1752006   3.9566318  27.1410012  63.7174868  23.1436992  23.6948892
  62.8350901  22.9508520  24.0117856  63.6015104  23.3333040  22.7638551
  65.8645403  10.0066511  40.4122210  66.1929714  10.0836984  41.3080072
  64.9811613  10.3734437  40.4486179   3.9671432   6.5523569  31.0139799
   4.4412672   7.3585550  30.8103251   4.4143402   6.1992733  31.7831206
  42.4170542  62.2161770   6.0033882  43.2297993  62.2288084   5.4978967
  41.7257166  62.1580458   5.3439188  50.2029120  31.5989152   6.4419419
  50.3168714  32.1445028   5.6637520  50.8936679  31.8861524   7.0390880
  68.3699619  29.9095003  32.3897457  68.2887852  30.7717649  31.9821382
  69.0142834  30.0337068  33.0866313  60.8828688  61.2328243  33.1357217
  61.2088823  60.4637718  33.6031723  60.7427311  60.9268522  32.2396326
  21.5802872  42.3102228   8.2686013  20.6790316  42.0287172   8.1113696
  21.7912638  42.8675691   7.5195450  41.0336231  60.5809522   8.0041285
  41.5563511  61.1700464   7.4601241  41.3830398  60.6975770   8.8876077
  24.1886532   7.8366796  58.6398649  24.8093759   7.1175519  58.7572813
  23.7452137   7.6380722  57.8151560   3.0077933  39.6618009  18.4153100
   3.4402036  40.4035306  17.9921170   2.1188139  39.9706769  18.5900708
  67.8548252  14.0662328  32.7836084  67.3299181  13.6796133  32.0827317
  67.4830400  14.9395505  32.9074097   7.7113211  10.5919591  48.9923668
   6.8699896  10.3650896  48.5962248   7.4885523  11.2043325  49.6935177
   0.8173906  23.4094087  55.7636786  -0.1305616  23.5383169  55.7320356
   1.0748112  23.7355653  56.6259956  17.3837292  27.8585950  29.5091701
  16.4732897  27.7955190  29.2204523  17.7031433  28.6718885  29.1183209
  55.2080786  33.0615274  15.3899109  54.4606959  33.0964128  15.9869301
  55.9740650  33.0842153  15.9634829  74.1942453  68.1585646  35.8435345
  75.0489855  67.8715467  35.5221796  74.3158293  68.2628107  36.7872405
   7.6126528  68.7244368  12.7532268   6.9908571  69.3416691  13.1387353
   8.2383966  68.5450602  13.4550118  56.9687354  65.8125433   1.4355060
  57.6969993  65.7030758   2.0469590  56.5500366  64.9523076   1.4052411
  71.2971497  52.6451015  23.8299060  71.8415213  53.3199644  23.4243846
  70.8496475  53.0964375  24.5456362   0.0363636  56.9956255   7.2704905
  -0.5039597  57.4648476   7.9061902   0.9103489  57.3717117   7.3751104
  34.1363525  48.8375092  38.5484099  34.0943170  49.3419600  37.7360106
  33.2873893  48.3986235  38.6020160  25.4723095  34.0553785  15.1473590
  24.5396923  33.8812280  15.2743646  25.9118008  33.4636045  15.7579966
  48.7127053  25.5966131  56.6190767  48.5414087  26.2363283  57.3101997
  49.2947041  24.9546758  57.0257950  66.8183624  42.0001451  30.8756185
  66.5910589  41.3631670  31.5529847  66.4838039  41.6171209  30.0646996
  70.0245810  49.5444775  40.0151300  70.3310251  49.2921448  39.1441250
  69.0825462  49.6766043  39.9086380  10.2086889  19.3843786  31.5278864
  10.9364426  19.3038122  32.1444201   9.6023762  18.6881868  31.7807484
  39.0428184  43.6273504   3.9296695  38.7892889  42.7805782   3.5623380
  38.6942266  44.2703367   3.3121844  69.6505785  56.5837574  57.3830557
  69.4744444  56.3434410  58.2927036  69.7003508  57.5396109  57.3931837
  72.7937233  24.4878332  12.2770739  73.0892813  24.5814077  11.3714695
  72.3177683  23.6574403  12.2890890   8.2528925  62.6975536  52.9546356
   8.0315351  61.7977715  53.1946945   9.2044973  62.6907349  52.8515339
   8.5062373  49.5478073  52.2773943   9.3742145  49.7250477  51.9148562
   8.3078325  48.6541000  51.9978396  20.9838175  61.6144586   2.0015450
  21.4622425  61.6911722   2.8270455  20.2551769  61.0265470   2.2007485
  25.3505920  31.2480522  30.6874963  25.8909534  31.6670108  30.0176354
  24.8222898  31.9598318  31.0487576  73.6344099  49.9564552  41.2362051
  74.2008591  49.6922779  40.5112362  74.1726351  49.8328257  42.0180321
  55.2437878  53.2000446  30.8688879  54.4459438  52.9850006  31.3520360
  54.9574089  53.2856226  29.9595499  48.2520056  70.8959055  32.0492268
  48.7388897  70.9258556  31.2256503  47.7101135  71.6848326  32.0359302
  44.6162962  56.5085912   0.5735751  44.3659376  56.4227605  -0.3463105
  44.0320896  55.9090257   1.0377475  22.6168013  64.6195221  57.8627920
  22.1069288  63.8742781  58.1803989  23.0415106  64.2977047  57.0676279
  71.0751926  15.2102605  20.9771299  70.7580435  15.7596055  20.2602792
  71.8617594  14.7912733  20.6278682  66.1076557  11.7535726  55.0880957
  65.1781070  11.9098512  55.2546883  66.1341011  11.3852540  54.2049885
  34.2546034  69.8659563  17.1528769  33.7856627  69.1734552  16.6872883
  34.6183968  69.4318628  17.9245293   7.5823557  23.6464635  22.4979568
   7.6492178  22.8971044  21.9061613   8.4868538  23.8363878  22.7470493
  27.9167711   8.6163942  19.2459452  27.9780065   7.6872102  19.0243673
  28.2704651   8.6747972  20.1334834  71.4896023   3.0394355  31.2370539
  72.1051037   2.4932424  31.7259932  71.8665707   3.0981246  30.3591681
  54.0481567  58.1434774  58.8560629  54.7424650  57.5115252  59.0426254
  54.4347429  58.7424088  58.2172632  31.8029236  51.0425210  15.7369634
  32.6584457  51.2074113  16.1333438  31.7858910  51.6038633  14.9618312
  16.1033106  62.5272799  46.7555141  16.8841982  62.5020933  47.3085117
  15.3733587  62.5661469  47.3734856  41.4673746  57.6408783  45.3408495
  41.1239327  57.3581616  44.4932942  41.3314093  58.5883251  45.3504030
   0.9373962  16.3088171  16.0811317   1.5281212  16.4149419  15.3354669
   0.1063263  16.0371820  15.6915498  36.1980152  43.0404377  26.6232324
  37.1034217  43.2464170  26.3907599  35.6753278  43.4407616  25.9284186
  73.9909697  59.9247074  19.9117947  73.7795734  60.8076239  19.6084750
  74.4202375  59.5106268  19.1631305   4.0749847  28.2005254  55.5522346
   4.6963036  28.9139120  55.6980848   3.4721481  28.5394899  54.8904753
  70.7846498  53.3715343   3.0622599  70.3006124  53.5926247   3.8579118
  71.4292717  54.0732622   2.9712862  67.4342108  39.5007062  48.7278223
  67.2116232  40.2938700  49.2152452  66.7113400  39.3881249  48.1105614
  63.3208084  69.9043131  21.6825461  62.4766207  69.5139265  21.4563251
  63.1588697  70.8476639  21.6723704  65.7110559   0.8594362  32.5576186
  65.5535805   1.4925758  33.2580209  65.8476364   0.0282852  33.0123353
   9.5763456  17.4395792  53.4860086   9.6007788  17.1744100  54.4054222
   8.9128553  16.8738309  53.0911160  21.0200286  64.9522066  54.4365501
  20.2076030  65.4256582  54.6155453  21.1217999  65.0019503  53.4860754
  60.0260115  53.9133024  21.3757658  60.9091520  53.8972282  21.7445970
  60.1520014  53.7310171  20.4445672  10.5013954  11.1584894  25.0937581
  10.6575977  11.1170618  26.0372186   9.6040594  10.8433763  24.9854875
  22.4805605   3.5368577  12.0734811  23.4309399   3.4230463  12.0808804
  22.1323597   2.6459352  12.1087646  61.2576294  65.8542299  12.5388980
  61.0229206  66.2980175  13.3538806  60.4640102  65.8974695  12.0054853
   1.9353163   3.0360881  46.5991640   2.7085363   2.7167789  47.0643568
   2.2825205   3.4260789  45.7969236  44.9431551  19.0662066  57.9834981
  45.3748978  18.4392754  58.5638265  44.0508163  19.1321341  58.3235336
  12.0779467  59.9641180  57.5875711  12.6834059  60.1349306  58.3090115
  11.2094641  60.0993156  57.9666424   4.6344387  13.3365385  24.2698622
   4.7475254  13.0625097  23.3597255   5.1138842  14.1626302  24.3326068
  37.4284387  62.5260162  56.4041853  36.8082118  61.8027020  56.4956617
  37.6353669  62.5473738  55.4698658   4.3134333   7.2716872  16.7706271
   5.0886826   7.8329245  16.7555066   3.7623589   7.6053206  16.0626527
  74.2404556  62.2205591  38.9457035  73.4124517  61.7403460  38.9398384
  74.2288208  62.7279472  38.1341290  14.3086004  49.1676188  45.3387213
  13.7238073  48.4187460  45.2227831  14.7278833  49.0152311  46.1856031
  21.6724121   3.8056365  51.5703630  22.4886667   3.5101739  51.1670446
  21.2681066   3.0057756  51.9065046  24.2491495   4.8318855  16.1012495
  24.4687283   3.9683143  15.7515907  24.8167145   4.9322502  16.8654692
   4.5825922  22.2908727  53.5692310   4.9654066  22.2862951  52.6919270
   5.3355801  22.3296396  54.1589260  61.4924908  36.3531804  14.4427145
  60.7491970  35.7752800  14.2701602  61.8837452  36.5036130  13.5821760
  61.6772175  55.7855892  45.1967573  61.6804981  55.4172373  46.0802364
  61.8222189  55.0332260  44.6230364  68.8103437  67.0149183  54.9040508
  67.8755140  66.9572401  54.7065639  68.8777924  67.7299690  55.5368090
  66.2013149  66.5657473  36.9158125  66.0868359  67.4555683  36.5821362
  66.4698982  66.6842937  37.8268766  49.1929018  12.0995561  41.1157560
  49.9527633  12.0633069  41.6967297  48.5227549  12.5542871  41.6260052
   8.9965164  22.0510999   2.6905051   8.6415111  21.2795774   3.1320533
   8.3345568  22.7294294   2.8243199  19.4160139  18.4488050  27.7219439
  19.3043148  18.0714551  26.8493843  19.8902809  19.2663232  27.5704241
  22.5298262  49.5967579  26.3966393  21.9402170  48.8463211  26.4703822
  22.3382425  49.9681616  25.5354834  28.3643782   2.0912067  41.2331390
  27.6918280   1.8365613  41.8648529  29.0629637   1.4482299  41.3547754
  35.4085135  50.0424194  40.7580423  34.9946427  49.5251083  40.0671482
  35.0466537  50.9217548  40.6482315  55.9892273  56.7426300  15.9544814
  56.4203548  55.8934116  15.8586192  56.6366720  57.2913170  16.3971877
  17.3033201  17.1317235  10.5131376  17.4168837  17.9393331  10.0120342
  17.1941387  17.4245779  11.4178753  39.8584509  55.9486580  48.2834196
  40.2501011  56.1762857  49.1266441  38.9190984  56.0798550  48.4124184
  70.6514215  70.4116678  58.8063669  70.0515556  69.6908379  58.9981985
  70.2717257  71.1657333  59.2574215  18.8877737  33.8694612  18.1807137
  19.7535097  33.8928167  18.5883796  18.2894766  33.6686937  18.9004099
  37.2681236  58.9120483  44.6739101  37.5312376  59.1203833  43.7774706
  36.4499164  58.4249735  44.5763063  24.9587976   6.2698165  13.9226556
  24.7150242   5.6148330  14.5767212  24.4037687   7.0241205  14.1206431
   6.4247858   2.4163715  33.1235647   6.0942661   2.6682035  32.2612596
   7.3159134   2.7648632  33.1496406  31.0366642   1.7948333  55.6272268
  30.4538738   1.3617984  56.2509775  31.0123264   2.7182762  55.8780241
  61.6756952  43.9991244   9.7324055  61.5621591  44.9455031   9.6446180
  62.5891507  43.8441547   9.4919580  32.5150180  24.2029715  21.9107199
  32.9828048  23.3788490  22.0457244  32.2150850  24.4540262  22.7843571
  50.9760380  31.6263509  54.9658060  51.6349316  31.0300207  54.6101618
  51.4579868  32.1734190  55.5860281  68.7601877  61.8185308  14.0755594
  68.0215741  61.2764462  13.7983859  69.4418610  61.1904701  14.3145025
  37.7785540   7.5920427  20.3913975  38.2503462   7.3208421  21.1788583
  38.3149695   7.2687554  19.6675360  50.4701687  23.6850047  61.5639803
  49.7110082  24.2668485  61.5270408  51.1484648  24.1445696  61.0690607
  26.0148478  40.0653553  51.0815048  26.7959595  40.3932428  50.6358767
  25.6409526  39.4287944  50.4722261  29.7067774  70.3368061  26.5384555
  29.6032036  69.8416764  25.7258368  30.3117264  69.8123232  27.0630431
   9.8164225  22.1707344   5.9900445   9.7785181  21.3133883   5.5660707
   9.9770570  21.9745922   6.9130594  45.5515243   2.5613331  61.8179619
  46.4187194   2.4758196  61.4218640  45.5152989   3.4683632  62.1216304
  12.3519003   5.0335413  41.5046883  12.7849543   5.1410371  40.6578445
  11.5681911   4.5198217  41.3094330  40.1980448   8.6364084  24.1755819
  39.7972131   7.8003514  24.4134331  41.1344290   8.5037088  24.3232751
  16.6689909  62.3664131  18.8134634  17.5826252  62.5058349  18.5643280
  16.6946924  61.6172161  19.4086730  12.3451710   6.4876169  19.2116809
  11.4209604   6.4042336  18.9769149  12.6664424   7.2069317  18.6679888
  65.8819080  63.2922258  13.1070542  66.5514529  63.6433908  13.6941016
  65.3736508  64.0575548  12.8383934  51.5811253   1.1158096  35.1311660
  50.7275009   1.4390038  34.8428893  51.6654062   1.4315391  36.0308576
  64.7161592  43.6004861   2.4644214  64.9040270  44.0244683   1.6270576
  63.7911225  43.7868675   2.6250425  53.8675881  22.5040924  61.1256209
  53.6182977  21.8765270  61.8040377  54.8244287  22.4795544  61.1165854
   6.6583217  57.8259166  49.2805433   6.6200626  57.8812643  48.3257151
   7.5685871  57.5992914  49.4710445  58.2593674  45.5935367  16.4993739
  58.6264015  45.7234200  15.6249321  58.7636376  44.8668607  16.8652773
  57.3458988  63.8240083  11.4679730  57.5736893  63.1732520  12.1319449
  56.5400339  63.4911819  11.0729539  23.3124661   1.3429245  26.3400221
  23.3623004   2.2674666  26.5828586  24.2254448   1.0626098  26.2757969
  66.7264355  59.4398113   2.7398485  65.9779776  58.9519604   2.3962730
  66.7465270  60.2441295   2.2212906  28.9259362  15.0442135  56.2782669
  29.5881844  14.6459472  56.8431044  28.8180447  15.9303665  56.6237020
   1.4259661  61.4101132  52.7404690   2.3694528  61.2913486  52.6311016
   1.3407577  61.9240978  53.5434580  72.3335469  53.6409672   6.0450172
  72.4293483  54.5879611   5.9437382  71.5036595  53.5325058   6.5095097
  36.6715587  66.0778852   3.5346580  36.6610253  65.8059879   2.6169473
  35.8289385  65.7843175   3.8811263  41.5832764  70.2099598  36.6379070
  40.8638496  70.7638936  36.3348985  42.2414363  70.2722162  35.9456778
  64.7378994  68.9437141  49.3635273  64.8217416  68.1874710  49.9443054
  65.3182161  68.7465563  48.6282778  37.8934312  20.5206609   9.9347061
  37.7329707  21.0752726  10.6981766  37.9234815  19.6311259  10.2869248
   6.8875087  68.0589425  44.7754908   7.5159443  67.6615550  44.1726780
   6.2299240  67.3783301  44.9189472  48.1982473  20.0889071  26.5480518
  47.5419877  19.5670613  27.0098209  47.6905779  20.6377610  25.9503341
  32.8730011  13.3179593  31.5615392  33.2206845  13.4784329  30.6842732
  31.9539380  13.5797334  31.5065098  45.2392138  21.0958635  61.0378886
  44.2945994  21.0185325  60.9038898  45.3422047  21.1568594  61.9875749
  72.3207283  23.4527254  35.7037640  72.4857017  24.0918446  35.0105548
  71.3670722  23.3783317  35.7389450  36.6813898  26.0639048   1.9568531
  36.5996361  27.0167065   1.9154409  35.8727789  25.7367754   1.5626834
  40.9960222  52.2631216   5.6652659  41.4007950  52.9199982   5.0987786
  41.7344666  51.8105984   6.0728860  53.2952023  39.4999671   0.7448871
  53.1239843  40.4312038   0.8852892  52.5693846  39.0544486   1.1818430
  71.8694264   7.6207948  34.5531774  71.0283545   7.5427526  35.0034428
  71.8774775   8.5159254  34.2141962  10.1513398  50.5381211  23.3512783
  10.5550659  49.6791729  23.2270002  10.1963437  50.9509619  22.4888587
  68.5343290  45.3445180  45.8093643  68.8007451  45.6823500  44.9543095
  68.4227408  46.1255868  46.3513184  67.4091101   5.4583812  35.9557581
  67.7331376   4.7429454  36.5029240  66.5321404   5.6400436  36.2936258
   4.6214068  52.1480056  30.1150417   5.2694285  52.2034534  29.4127417
   4.4693673  53.0571731  30.3729749  72.8043926  43.2798871  33.0043387
  71.8918455  42.9942926  32.9604316  73.1579435  43.0864318  32.1361160
  43.2969857  55.4554641  51.1862532  43.8271011  54.6586465  51.1692266
  43.8834632  56.1402320  50.8647410  71.2947196  22.1177483  48.5347414
  71.8037429  22.5962114  47.8803730  71.0311994  22.7852464  49.1681719
  51.1820627  18.4837353  50.5235557  51.7993117  19.1809213  50.7452945
  51.6821815  17.8903436  49.9631981  42.8302956  31.0498285  22.8947592
  42.4044561  31.0189056  22.0380592  42.2036600  31.5047526  23.4574342
  65.1701117  47.6012071  36.0278726  65.3998936  47.8496917  36.9232440
  65.9409988  47.1359118  35.7031155  40.4284668  12.1257544  10.5562091
  41.3621235  12.3366916  10.5520642  40.3268242  11.5029132  11.2759113
  20.5571163  69.9293160  39.4655800  21.4045036  70.2383541  39.7859955
  19.9169720  70.3405500  40.0463867   2.7850354  42.2324356  16.3105488
   2.9774344  41.3728126  15.9360313   2.2238577  42.6564082  15.6612730
  71.9317272   5.0291783  20.2333021  71.7018849   4.1076300  20.3522682
  71.2481174   5.3743184  19.6590292  33.6928129   5.7207638   6.8199217
  33.8199663   4.9299398   7.3440027  33.0805373   6.2505627   7.3304719
  23.5718716  36.6820152  61.2825852  24.4255086  36.2493696  61.3013876
  22.9392463  35.9664549  61.3457558  32.2053456  27.9676938  28.0313611
  32.8418136  28.6147761  27.7273488  32.1405292  28.1200790  28.9741278
  72.0771045  17.4645472  17.1345484  71.6464695  16.6249478  17.2953534
  72.5515139  17.6495171  17.9450750  75.5317867  53.3374592  19.6306252
  75.1718700  54.2244144  19.6289802  75.3559650  53.0092677  20.5124450
  51.8817186   2.5087059  30.1404881  51.5488291   2.2872178  29.2707992
  51.1674500   2.9935053  30.5540347  11.9219255  35.8009577  60.0301600
  11.0117435  35.5076289  60.0721025  12.2810733  35.3581834  59.2612648
   5.0494564  67.7832197   6.2176752   4.1786945  67.3926165   6.2913942
   4.8910344  68.7270164   6.2372291  30.1352048  12.7565134  23.8589311
  31.0025764  12.3630726  23.9543343  30.0875831  13.0107605  22.9373431
  34.2631388  66.5014800  25.8673215  33.6123932  66.0861238  25.3014207
  35.0645090  65.9992918  25.7195210  14.3043864  67.5774389  44.7106409
  13.7495316  66.8004092  44.6428680  14.0274370  68.1337457  43.9825916
  71.8907250  70.8516803  27.8281975  70.9377420  70.8583479  27.7386856
  72.2027934  71.3992527  27.1077728   4.8454416  42.0739444  19.8442280
   5.4780257  42.4215587  19.2155516   5.1421488  41.1796721  20.0129795
  54.8835937  48.4150775  55.4339647  55.6282014  47.8287419  55.5681324
  54.8929936  48.9926728  56.1971998   3.7017143  42.8852328  37.3299503
   3.4342564  42.5448998  38.1836915   2.9581273  43.4130415  37.0388699
  17.1173799  10.5217695  12.6382685  16.6792536  10.5863237  13.4868610
  16.4044809  10.4188216  12.0078659  59.8860599   9.0660286  46.9398848
  59.1154886   9.5880389  46.7163662  59.5649577   8.4239363  47.5730053
   1.5132026  13.9631546  30.8245826   1.9059083  13.8643420  29.9572587
   1.4919481  14.9087644  30.9715581   6.9547570  46.2259992  43.1346989
   7.1192039  46.5690835  42.2563553   7.6142061  46.6491970  43.6844826
  68.0020285  24.3311048  13.1113327  67.3276854  24.8351073  13.5668302
  68.7140799  24.9553251  12.9714823  24.3588805  48.5187769  18.1076050
  24.2131805  47.7262068  17.5910425  23.6536050  49.1096926  17.8437054
   5.5025209  60.8309313  48.3328056   4.7120321  60.6731590  48.8490057
   6.2226642  60.6188639  48.9266491  62.3032976  42.7583631  40.0288630
  63.2331729  42.8885659  40.2149057  61.9781745  42.2539648  40.7745886
  15.3930509   2.1605532  16.7670882  16.1698925   2.5548828  17.1636403
  15.1191640   2.7897835  16.0997903   9.1589212  19.5412982   5.3542936
   8.3799291  19.5749593   4.7990730   9.0566432  18.7362492   5.8619034
  63.6009098  33.1310709   8.0245048  63.1486977  32.6156505   8.6923963
  63.1923223  32.8663953   7.2003478  28.9126062   2.0254630  57.2993517
  28.3320403   2.2366364  56.5681982  28.6459470   1.1472059  57.5709915
  18.8666964  17.6994526  25.1335216  19.3461561  17.3076379  24.4035721
  18.3793402  18.4228051  24.7392130  25.3556871   1.0497706   2.9006168
  25.9724593   0.8663544   3.6092648  25.1798058   0.1943442   2.5087708
  16.6693521  10.9447920  16.3005638  15.9141862  10.4581070  15.9702706
  16.2909627  11.7141831  16.7261124  14.1277254  33.5004377  17.5124168
  14.3008769  34.3025255  17.0195627  13.1785631  33.3878684  17.4609256
   4.9772776  67.3122566  59.6103954   5.0909508  67.8237205  58.8093281
   5.7372726  67.5362848  60.1474714  18.0865395   7.5646257  42.3261166
  17.6073349   6.7417097  42.4230957  18.7031496   7.5704306  43.0582285
  45.6038178  57.8690918  22.8992534  45.9204141  58.4126898  23.6207104
  44.6558464  57.8309198  23.0262375  68.9218777   2.9919586  36.3505554
  69.2015851   3.5112739  35.5966949  69.2486167   2.1107838  36.1688852
  69.7729826   8.4653097  51.0492563  70.3747845   8.5587072  51.7877293
  69.4216681   9.3453449  50.9137964   2.4444402  68.8221558  50.1259041
   2.6299179  68.7536561  49.1893482   2.8154004  69.6664455  50.3824091
  72.9494587  25.5228925  33.7609482  73.7389405  25.8983517  33.3711028
  72.4649486  25.1607776  33.0190897  22.0862234  52.1380969  32.0788288
  22.9148376  52.3184272  31.6348553  22.1538246  52.6056965  32.9113030
  60.9567202  54.7310134  36.4340734  60.0751532  54.3896230  36.5841532
  61.2547529  54.2845496  35.6415606  68.3072716  45.6767511  10.3090942
  67.6351434  46.3307953  10.1175165  67.8176224  44.9108315  10.6088293
  49.7826015  19.6697923  20.8332940  50.2353250  20.1322481  20.1280232
  50.4724156  19.1776189  21.2784406  13.9473665  62.7453947  48.6598301
  13.0289066  63.0140162  48.6373758  13.9163065  61.7901802  48.7130737
   5.8198274  61.5194019  10.9021735   4.9685228  61.8551787  11.1828291
   5.9375155  61.8722077  10.0201821  21.9188023  17.4871731  29.7661614
  22.4713469  16.7092943  29.8425317  21.4964533  17.3980188  28.9118171
  44.6003043  46.7340943   3.9155456  45.0142490  47.5450727   4.2108317
  44.3604123  46.9054350   3.0048676  11.8146157  38.7375879  49.0377665
  11.0078847  38.7185574  48.5229349  12.2166812  37.8825235  48.8846588
  69.3480456  63.9264997  15.6708264  69.1862166  63.3625211  14.9145389
  68.5527051  64.4529452  15.7515717  43.3870906  43.1304511  22.0447540
  43.1584538  42.4477633  22.6755428  44.0806437  43.6310276  22.4744487
  27.9744554  29.2473960  41.7703295  27.3754740  28.8311768  42.3901796
  28.5037208  29.8367786  42.3076773  24.0915144  61.6414335  29.3265629
  23.7153805  62.2744306  28.7149501  24.5309246  61.0004254  28.7677574
  51.1976100  51.8826719  44.2754459  50.9184029  51.1585768  44.8357725
  50.4201758  52.4348959  44.1925240   9.8494983  15.6300926  33.6502767
   9.3546575  16.0009205  32.9196262  10.3078699  16.3780677  34.0332365
  66.3130558  68.2402693  24.6979785  67.0382488  67.6167308  24.7370410
  65.7743216  68.0291521  25.4604912  18.3519518  65.1317915   4.2779227
  18.3113777  65.6587252   5.0760003  19.2866098  64.9788579   4.1391488
  71.8750263  54.4738257  42.2572748  72.7101971  54.0218508  42.3774354
  72.0389773  55.3655815  42.5640706   7.6416808  29.3367839  29.8658800
   7.0729250  28.7219787  30.3293061   8.2544911  29.6457410  30.5331445
  12.5238264  63.8142028   5.6145108  12.9369605  64.3720975   6.2735295
  11.5859235  63.9743390   5.7190299  55.6254841   2.4174738  58.8567475
  56.2439276   2.0372557  59.4806010  55.0790144   1.6811132  58.5822002
  73.6860517  38.1915021  46.6220760  73.2044190  38.7904167  47.1926594
  73.3630560  38.3869576  45.7424736  57.7603734  58.7588950  16.6042376
  57.5527525  58.2490870  17.3873222  58.6381645  58.4692296  16.3556230
  27.9769945   8.1144261   1.4754628  27.9703879   8.9733291   1.0530013
  28.9053464   7.9019320   1.5716034  27.3795199  25.3866601  44.7525644
  28.0710673  24.8635459  44.3471670  26.5666389  25.0194788  44.4052362
  36.0612702  16.8786788   2.9257220  35.6229854  17.4762416   3.5315764
  35.4134536  16.7147231   2.2403865  29.6817542  52.9062390  58.2212297
  29.8363231  52.1617818  58.8027132  29.8682208  52.5686335  57.3451675
  12.8405452   4.6892485   7.2304213  12.8340340   3.8946596   6.6967380
  13.6449552   5.1416939   6.9765538  45.7497263   5.7674807  41.7125225
  45.7280016   6.2400293  42.5446653  45.0181055   6.1292773  41.2124634
  22.8840971   1.1090668  13.7525952  22.1296453   1.2443044  14.3259585
  22.6147318   0.4032735  13.1647766  53.0983592  63.8141318  21.0136914
  52.3214309  63.8424965  21.5720916  53.8053495  64.1407712  21.5702009
   3.1558359  31.3968857  46.7090178   3.9702738  31.7165812  47.0972395
   3.1504930  30.4593094  46.9017696  10.8075821   5.9922075  15.1980734
  10.0282204   5.4513127  15.3255880  10.9156609   6.0363621  14.2480206
   3.3731497  69.7532425  39.4219160   4.1406501  69.2090288  39.2458248
   2.7116693  69.4414794  38.8042784  16.6251481   7.3659676  52.1506214
  16.0291505   6.9128227  52.7470112  16.1309528   8.1296217  51.8525696
   6.4763558  54.6500739  38.8068438   5.6071938  54.3771215  39.1005921
   6.3568080  54.8786720  37.8850627  16.9144213   9.9111336  21.4779258
  16.2913609   9.4058889  20.9556675  17.3682487  10.4633427  20.8412647
  66.0869861  28.9762791  13.4538424  66.6812361  28.9734229  14.2042375
  66.5817583  29.4092330  12.7581513   3.3348573  46.4967760  13.2024086
   3.3384359  46.3742121  12.2530949   3.8704265  47.2771724  13.3451724
  69.5842481  36.7972334  28.7543440  70.5375779  36.8779858  28.7247705
  69.2808235  37.6521476  29.0597749  15.5762804  35.9706608  51.7097382
  14.7642172  36.4495293  51.5439848  16.1203325  36.5850512  52.2024534
  72.6552165  42.2469624  43.3566761  72.1948684  42.9991253  43.7289190
  71.9641221  41.6114720  43.1702089  40.4089975  21.4497304  58.0966949
  40.0049686  21.4281511  57.2292137  40.7835388  22.3279858  58.1646872
  66.3744475  53.1819975  50.7266859  66.1820818  53.3925175  51.6404192
  67.2978998  53.4091961  50.6178478  34.3902326  30.3059268  20.1041102
  35.1283145  30.7129931  19.6504998  34.6250963  30.3497601  21.0310149
  13.1223154  30.4573679  35.2091885  14.0760946  30.4612613  35.2899456
  12.9224873  31.2381172  34.6927285  14.8498034   8.1246811   9.4217765
  14.3319559   8.4618378   8.6907554  15.3856611   7.4315941   9.0361369
  12.2270811  50.2145799  38.2042670  12.1095741  49.3045004  38.4766245
  11.5561379  50.6975277  38.6867881  62.2648359  69.8688739   1.3639167
  61.4743043  70.2544532   0.9862643  62.7418554  70.6127012   1.7318900
  16.8051756  66.0446819  19.6757054  16.2425888  65.4641827  19.1631162
  17.5587833  66.2096294  19.1090488  18.5988009  13.2927048  24.2702460
  18.2036507  13.7115765  23.5056329  18.5045028  13.9370382  24.9717975
   8.0333674  58.0869957  29.5131350   7.4279535  57.4006530  29.7935581
   8.1088007  58.6647697  30.2725554   4.3300236  69.3898887  31.1649895
   5.0350369  68.8073396  31.4475203   4.6951330  69.8625150  30.4169583
  26.7395819  62.7498468  36.3730216  26.6843498  61.8226727  36.1416602
  27.6785934  62.9287019  36.4230156   1.5522736  27.5957441  36.0434461
   1.5416399  26.6575909  35.8537364   1.3778098  27.6521182  36.9829226
   6.3968790  38.9474424  10.4395175   6.8033875  39.5006760  11.1065376
   6.2118161  39.5437654   9.7139961  37.2288120  50.4751524  17.6495516
  38.0331362  50.9933837  17.6765823  37.4958027  49.6032008  17.9404938
  23.5718989   3.7609285  27.2700930  24.0859485   3.6521244  28.0701828
  23.4491968   4.7069335  27.1910310  45.4363502  51.2622031  14.4158638
  45.0710685  52.0761891  14.0691233  45.5986330  50.7235011  13.6414647
  29.1965055   7.1761674  28.6829519  29.7730160   7.8370100  28.2993484
  29.6579456   6.8827212  29.4685674  23.0828166   8.3309537  14.3612981
  22.8408694   8.6339450  15.2364492  22.2724605   7.9722959  13.9994705
   2.6142678   7.5957292  28.3461308   2.4000885   8.0643654  29.1528153
   2.0520973   6.8211818  28.3626366   3.7092093   7.8662777  43.1787872
   2.8678253   8.2722682  43.3872986   3.8645869   8.0943203  42.2622252
  52.9006101  19.8983430  59.0108437  52.3951937  19.5717477  58.2664514
  52.4104405  20.6614542  59.3168292  23.4508681  14.6324873  13.2620454
  24.3740082  14.6570969  13.5139203  22.9932117  14.3564606  14.0561438
  21.0900545  15.5962658  13.0703783  20.7416630  15.4552090  12.1900606
  21.9798970  15.2453303  13.0348790  42.3530371  70.7762272  42.8375578
  41.7476428  70.7734433  42.0961237  42.9787922  71.4711436  42.6332188
  23.2985258  11.7458415  24.4636822  23.7216258  11.3717604  23.6908412
  23.7166977  12.5995016  24.5760608  66.4953232  29.4210625  38.4020352
  66.0351372  29.0290380  37.6598907  65.9259844  30.1361084  38.6862755
  19.8394239  66.6302633  23.4059715  20.2309442  66.6701984  22.5334191
  20.3704977  65.9886122  23.8776469  15.4746735  26.5832591  35.4983258
  15.6772888  27.2446394  36.1599565  14.6692145  26.1709952  35.8105850
  12.9202736  66.3739934  17.3594558  13.8175762  66.0412564  17.3403549
  12.5952304  66.1365982  18.2279158  14.6036685  10.0781941  11.2597215
  14.4184875   9.2861271  10.7551718  15.1538789  10.6070447  10.6819534
  20.8091021  21.6702962  28.1843567  20.1377106  21.4492297  27.5389147
  20.3482652  21.6577172  29.0232277  11.6230118   7.4863368   7.1734113
  12.4041593   7.2777981   6.6610122  11.1212635   8.0796689   6.6144496
  53.3943677  15.6425726  20.8238769  52.8305912  16.3592970  21.1148977
  54.0166974  15.5210674  21.5409374  27.8710151   1.8721342   4.5719644
  28.7821221   2.1221767   4.7255588  27.8273463   1.6911101   3.6330527
   5.6023658  71.4908105  47.0329714   6.0512889  70.6461102  47.0673323
   6.3067282  72.1379998  47.0683384  62.4517286  32.3227104  44.7087288
  62.1769655  31.5918501  44.1550255  62.6244867  33.0365261  44.0948486
  58.8326694  23.7050497  35.2315883  59.5599676  23.1127524  35.4225067
  58.2065345  23.5513281  35.9390906  20.5710530   9.3384320  35.6775141
  20.1728296   8.9215630  36.4416289  21.0483670   8.6327058  35.2412200
  30.0318933  19.3025541  56.1211920  29.4110560  20.0169230  55.9781218
  30.5885887  19.6088099  56.8371010  32.8148020  53.3343037  19.0511596
  32.3261440  52.5527593  18.7930262  32.6992405  53.3865388  19.9999213
  32.9400873  54.3832731  10.6997430  32.4101567  53.6124086  10.9026480
  33.0096316  54.8518133  11.5315282  12.2609317  18.0404830  47.4543190
  11.8752325  17.3722160  46.8878508  11.8513083  18.8585460  47.1728659
  46.1166668  17.1145988  59.7007990  45.9219170  16.2166691  59.4324255
  45.9264994  17.1308243  60.6387758  58.6405373  11.5932977  38.3349204
  58.7094736  11.0178268  39.0967011  59.1863298  11.1753452  37.6688433
  36.4289975   2.7034637   5.5213857  36.6838789   3.6258847   5.5012292
  36.7516923   2.3476622   4.6934336   8.7060785  17.4225152  18.8249516
   7.7887201  17.5913990  19.0398300   9.0956449  17.1318853  19.6495748
  39.7358609  65.2986290  60.5141544  39.4619370  64.9366923  59.6714211
  39.0279723  65.8939262  60.7606220  21.5495909  45.6685861  12.2227418
  22.3784435  45.3540405  11.8617761  20.8954323  45.4255374  11.5675831
  15.9361780  65.7652285  12.6916289  15.0152529  65.5972286  12.4918568
  16.4100349  65.0639244  12.2445726  33.0377722  30.7721305  29.2678952
  33.6318588  30.7744932  30.0184202  32.4856162  31.5432787  29.3970656
  10.6292391  25.1038432  33.1958222   9.9981356  25.8097196  33.3361030
  10.3906298  24.4376230  33.8403773  23.3198690  37.3429179   8.1343317
  23.8983774  37.1104741   7.4080193  23.3415914  36.5796518   8.7115550
  17.3700809  15.3462636  14.1550720  16.9211686  15.4109931  14.9979949
  18.1832981  14.8813176  14.3518853   1.8858636  51.1764225  14.5734203
   1.6684354  50.4411276  15.1463938   2.4094189  51.7607220  15.1217961
  19.6826053   7.0094913  44.5735931  19.4609070   7.6228404  45.2742243
  19.1484356   6.2360615  44.7544241  21.2336421   2.8613970  23.4399676
  21.1178827   2.8998041  22.4905705  21.4409518   3.7610900  23.6925673
  15.8317698  32.5368627   1.0862025  16.1011446  31.6843804   0.7442367
  15.0939692  32.3409947   1.6637120  35.1890397  10.7815075   4.2984268
  34.9104524  11.6868961   4.4358799  35.9522820  10.8502150   3.7248671
  30.9417725  51.3185414  37.7344799  31.1976851  51.9865283  38.3705091
  30.1060951  51.6281136  37.3851395  70.7590414  62.3167038  53.6300127
  70.0460840  61.7150068  53.4158138  70.3813816  62.9160666  54.2737273
   8.4179902   9.0373570  35.2947831   9.3657643   9.0052885  35.4248929
   8.1434822   9.8438752  35.7311368  16.6381145  52.1757364  24.6737409
  15.7702959  52.2825384  24.2842340  16.9678593  53.0688953  24.7725725
  63.3002412  32.0333624  34.3111873  62.3588634  31.8658900  34.2665577
  63.3705127  32.9839444  34.3988562  53.9379025   4.8783413  32.0100737
  54.0210104   3.9267871  31.9478703  53.1471634   5.0161201  32.5315928
  67.5412160  14.1205525  28.4186840  67.1576971  13.8378084  29.2488647
  68.4815961  14.1643751  28.5918808  69.6927220   0.4429269  32.5059319
  70.4469192   0.4039674  33.0940652  68.9816797   0.0360078  33.0009747
  32.0777082   6.4234805   3.9821899  31.6018939   6.8687159   4.6833289
  32.9970717   6.4815265   4.2422572  40.8008337   9.9824065  12.2761381
  41.6449928   9.7951591  11.8655765  40.9147644   9.7185063  13.1891596
  17.2228885  22.8965116  59.0327549  17.0339930  23.3157587  58.1932402
  17.9832447  23.3694911  59.3709564  22.2104740   7.5212979   3.3794412
  21.6408610   6.8798530   2.9547989  22.1821022   8.2852441   2.8034091
  52.7795362   9.2970961  22.0445180  53.0586958   8.3971077  21.8762255
  53.5859823   9.8106432  21.9981790  44.5844173   3.7815633  25.9830260
  44.1946888   3.6438808  25.1196694  44.3543053   2.9951626  26.4778543
  25.7151079   0.4938809  25.8828950  26.6380119   0.7196339  25.9991622
  25.6130004   0.3825712  24.9376893  24.8588324  33.2601619  43.7297487
  24.6157122  34.1634512  43.9327192  24.7925663  33.2026982  42.7765751
  35.0366200  55.7633480  30.6717968  35.2653587  54.9670585  30.1923871
  34.4356573  55.4670700  31.3553858   1.2833764  49.6149015  33.8410497
   2.1204621  49.8742628  33.4560132   1.0788000  50.3136778  34.4624114
  63.9689302  37.2922611  28.5302520  64.7558212  36.7472768  28.5346389
  63.6158323  37.1959901  27.6457810  62.1810389  22.4872756   7.6635915
  61.4103699  22.7118540   7.1421885  62.0486593  22.9426098   8.4950823
  25.1396990   7.0831954  28.9193916  24.3503141   6.6813171  28.5566282
  25.8530140   6.5149379  28.6287117  45.8693790  19.1126299  33.9468932
  46.2750912  19.1094470  33.0799317  46.4508915  19.6532679  34.4814801
  29.6453834   0.9166667  51.5734005  29.7692251   0.2180132  50.9309196
  30.3889918   1.5034118  51.4355230  60.6083250   2.9188409  57.3940754
  59.7652149   3.2143092  57.0504189  60.6430340   3.2746854  58.2819939
  64.9530912  31.3576451  43.5700695  65.1119066  32.1278247  44.1158096
  64.3186165  30.8397472  44.0655045  10.9038985  65.8514800  35.2751684
  11.0703624  65.0184335  35.7162523  11.1198128  65.6840935  34.3577838
  52.7520180   4.3129057  20.4242134  52.3941183   3.9771193  21.2460327
  53.4601164   4.8982996  20.6928062  37.6551676  11.9843841  31.4523387
  37.2916865  12.8204393  31.1605763  36.9084048  11.5154719  31.8247604
  56.3465405  19.8032212  19.8782635  56.4223623  20.0847602  20.7899761
  56.2869930  18.8490880  19.9263942  36.5860915  13.1324911  14.4795275
  37.3533392  12.5999856  14.2697692  36.1795878  13.3113301  13.6315882
  63.9024115  29.9841189  23.4064627  64.7838926  29.7784734  23.0951166
  64.0179348  30.1895452  24.3341947  42.9695654  63.1434727  14.4124246
  42.7756500  64.0806532  14.4304585  42.8953457  62.9012489  13.4893596
  20.4067445   3.0477545  14.7571146  20.9624219   3.8154769  14.8914874
  20.1073694   2.8121236  15.6352282  43.7871552  26.3534737   6.5899050
  44.0271473  25.6381869   6.0008371  42.9534245  26.6760445   6.2477422
   6.9605530  60.1863976  31.2298107   7.3048318  60.9120425  30.7090974
   6.1127317  59.9875589  30.8324480  10.4334688  11.9088948  22.1708918
  10.4599428  11.9385409  23.1272650  10.6682634  11.0069704  21.9526315
  29.6958899  10.2021205  10.2419710  30.3492069  10.9012818  10.2178478
  28.9218020  10.6109023  10.6291604  33.0358160  67.5038057  30.9162211
  32.5899208  66.7996939  31.3870025  33.4242476  67.0739629  30.1542568
  36.9100178  59.7855564  48.5903358  37.4936855  59.4713613  49.2808771
  37.3905933  59.6237000  47.7784967  28.9457393  64.6610594   7.8682166
  28.5255456  65.4893303   7.6366293  28.9777207  64.1707993   7.0467216
  30.8791947  28.6152267  14.0286171  30.1188016  28.2264662  14.4609344
  30.5456734  28.9181471  13.1840849  30.9824939  47.4676895  57.7809281
  31.6553534  47.4350369  58.4609471  30.2183272  47.0516669  58.1799347
  26.6147876  21.5360236  18.3282685  27.2466588  21.0585189  17.7907169
  26.7423034  21.1903405  19.2117143  69.6350409  61.2381529  48.9816610
  69.9979569  60.5382800  49.5245270  68.7770010  60.9111380  48.7113647
  46.9371176  37.0372200  12.9409587  47.1950150  36.4671898  12.2165382
  47.5875616  36.8676543  13.6224246  73.7627459  10.8548689  42.4011421
  74.2650223  10.8882022  41.5869904  73.2198620  11.6429472  42.3800802
  69.1882623  59.4625112   1.2690586  69.8195303  58.8240858   1.6009393
  68.3902538  58.9552578   1.1203691  24.1018808  62.4571123   7.6704746
  23.1721247  62.6845821   7.6642394  24.1398752  61.6170730   8.1277728
  30.4023218  20.7040358  29.9799180  30.4798579  20.6292486  29.0287995
  30.7774568  21.5606451  30.1841855  53.1740665   4.0012157  27.1876311
  52.8149152   4.6963337  27.7390409  54.1226959   4.1143140  27.2471595
  31.4487934  42.7032089  10.2430832  31.6567373  42.9145002   9.3329465
  32.0374560  41.9807911  10.4617655  14.5442307  12.5346375   5.3629631
  13.7457812  12.5827873   4.8372331  15.1032233  13.2287097   5.0136441
   7.6941234  17.9624319  40.9798956   8.4006667  18.1377697  41.6014147
   7.4342275  17.0592237  41.1612797   8.8587981  33.6417818  26.8620276
   8.3760428  32.9870915  26.3574862   8.6210823  33.4656930  27.7723646
  27.4157799  53.1703373  43.8933802  28.2245625  53.6459991  44.0827084
  26.8430937  53.8226744  43.4899950  72.5432587  26.9994473  49.1223955
  72.3154545  26.8378663  50.0379467  72.8236198  27.9144669  49.1032362
  42.2603655   7.9423881  39.9730706  41.5226412   8.4047711  40.3708124
  43.0227375   8.2316697  40.4744053  19.1367757  39.2189741  16.2167490
  19.5337486  38.3567500  16.0934079  19.8340619  39.8371887  15.9980345
  57.5331831  45.6105137  53.8928986  58.0413628  44.8274279  53.6813354
  56.9192886  45.3223944  54.5684433  19.4662709  27.2210246  57.2086615
  19.6894331  26.6354763  56.4850841  19.8108513  28.0733275  56.9420610
  30.1879168   4.2710337  58.2160473  29.7709775   3.4959960  57.8396034
  31.1247182   4.0764824  58.1880379  10.3867413  39.9737048  59.7180339
   9.6738506  39.3359032  59.7530755  11.1578108  39.4873392  60.0098033
  53.6516048  50.2259576  40.3660063  52.8007914  49.7883474  40.3368787
  53.5305930  50.9437513  40.9875850  14.5525479  40.7004499  23.9833283
  14.7476196  40.2149343  23.1817961  15.3474045  40.6212997  24.5107460
   5.3444445  49.5901271   1.9802447   5.2859652  50.1971694   2.7180167
   6.1627924  49.8237690   1.5421220  11.9720901  64.7790535  51.7509699
  12.0431412  65.3965910  51.0230732  11.0591805  64.8434587  52.0314646
   6.3583612  12.8657722  41.5225983   7.0259619  12.2931266  41.9002533
   6.2859774  12.5809562  40.6116247  34.8984570  68.6051201  19.6352271
  35.3259481  68.6925220  20.4871921  35.2538009  67.7943778  19.2710046
  13.2445645   2.4425440  27.4896049  14.1644049   2.4500902  27.2248983
  13.2350349   1.9469470  28.3084583  31.3383841  33.7409409   4.9490710
  31.4945477  33.2643413   4.1337844  30.9383440  34.5651595   4.6718284
   6.5143478  63.5109373  21.9550037   6.1059726  64.2387047  22.4238515
   6.7453731  63.8758632  21.1007857  52.0915840  33.4822234  36.2301326
  51.3741652  32.9483708  35.8887482  52.4574040  32.9624041  36.9458103
  68.5228861  71.0284110   2.5747114  67.6001585  70.8097331   2.7050534
  68.9925707  70.2221317   2.7881137  59.8949862  31.8505049  31.6803408
  59.3115664  31.9493675  30.9279561  60.7414150  32.1732616  31.3711214
  42.6117374  26.4439565  56.1089591  42.1773184  27.2526699  56.3800577
  41.9905914  25.7513356  56.3340960  55.0710441  13.8448143  47.8750173
  54.3642546  13.2433581  48.1093923  55.6628872  13.8235330  48.6270157
  60.0346250  54.7562274   9.3725091  59.8640675  55.3658601  10.0904846
  59.1727609  54.5873531   8.9918470  24.4708300   3.1179506  33.0414772
  23.8252187   3.6029449  32.5274777  24.8820806   2.5255871  32.4120235
  11.2110865  32.2296405  37.0455384  11.2491381  31.2830257  37.1823025
  11.9263113  32.4125552  36.4362550  69.3134642  64.8611047   6.4368200
  68.6391461  65.3997823   6.0228705  69.0121592  64.7513946   7.3387128
  68.9764226  69.2318744  60.9471655  68.5505415  69.8043316  61.5852499
  69.8232997  69.0223833  61.3410521  62.1182489  17.9858518   6.3232422
  61.6632509  18.7173569   6.7405063  63.0433416  18.1374681   6.5167564
  42.8588152  12.5282419  12.1741474  42.9767942  12.8185821  13.0785894
  43.1048059  13.2870054  11.6450000  74.8193693  19.0690935  25.5568719
  74.0875816  19.0816283  24.9399757  74.4408131  19.3680406  26.3836455
  34.9881768   8.2486868  10.0018704  34.4918275   8.8950765   9.4998258
  35.4639888   8.7647986  10.6526124  47.0490170   7.4283320  54.6375179
  46.8464231   6.4982933  54.7385883  46.3561440   7.8783047  55.1209259
  18.2047391   6.8439519  21.9636893  17.4314451   6.9454902  22.5186110
  18.2996333   5.8975804  21.8559504  28.6195850  26.9480348  36.8603325
  28.1476688  27.3102617  37.6102114  27.9326653  26.7060733  36.2391829
  71.3989407  19.3827713   2.5630456  70.7482833  20.0195622   2.2674534
  71.4450365  19.5097244   3.5106689  58.2243109   3.2813305  30.4029274
  57.7594900   2.9702097  31.1796999  57.6905489   4.0068525  30.0789714
   4.8695480  58.9200076   8.8690349   4.9174654  58.1481370   9.4330808
   5.6169187  58.8312324   8.2776042   7.0090741  24.0933037  35.5870390
   6.7280793  24.0845346  36.5020227   6.2778151  23.7032080  35.1081657
  39.8235011  30.5470967  10.0665081  38.8794494  30.6276822   9.9304777
  39.9396300  29.6670175  10.4245639   2.5117028  65.3506943  40.9270334
   3.2166994  65.7525345  41.4347076   1.8517459  65.1144882  41.5788746
   7.2179138  17.3191818   2.6841803   6.9844400  17.0923206   1.7840405
   8.1750833  17.3245295   2.6892634  16.7677868  68.6263444  26.3510609
  16.7804897  68.4326675  25.4137468  16.3832891  67.8466063  26.7515612
  33.0769253   3.0010179   7.8111887  33.9923120   2.8720611   8.0595225
  32.5885415   2.8802428   8.6255139  10.5471480  55.2636214  30.5562496
  11.2714923  54.7324832  30.8870769  10.7495249  55.3942343  29.6298504
  22.2323227   9.6012002  39.8543429  22.4767709   8.6758578  39.8691225
  22.9634213  10.0350654  39.4144726   7.4133396  15.4669893  27.7839804
   8.2054859  15.3619361  28.3109522   7.4602312  16.3655972  27.4575782
  63.9247095  42.8677383  11.3898774  64.2268621  43.1988444  12.2356339
  63.7126290  43.6539575  10.8867761  27.1922958  58.3424743  46.7595530
  26.4491690  58.7108274  46.2817335  27.5753820  57.7076550  46.1541796
  43.3833504  17.1669328   4.1402006  42.7175426  17.4358869   3.5072744
  43.9358234  16.5506482   3.6593682  22.2772527  40.3419733  15.4193783
  21.7413759  40.7293081  16.1115050  22.2553039  40.9854174  14.7110522
  11.5471399  70.2984624  24.3656802  12.0398367  70.6532810  25.1056695
  11.6271985  70.9647208  23.6830950   2.8789068  39.2679545  44.7152797
   2.2385002  39.9205300  44.4319932   2.5710369  38.4474116  44.3303708
  51.8565596  57.8161522  46.9721508  51.9665993  58.7657424  46.9231415
  51.2305582  57.6114126  46.2775755   3.7217781   1.0902571  31.4650631
   3.3448076   1.9071713  31.1382961   4.5158073   0.9678804  30.9447026
  73.8098848  17.4801493   5.6434071  73.3451557  18.1883073   5.1975703
  73.3662185  16.6829419   5.3538316  27.6093411  37.5875545  10.6524837
  27.9310846  38.3965564  10.2547026  26.7034483  37.7824593  10.8924949
   5.2788287  17.0458424  23.0664325   5.9924263  16.8068802  22.4749017
   4.4996637  17.0546257  22.5105023  42.6545561  51.1963137  25.5284286
  43.3628929  51.5383562  24.9829960  42.2004068  50.5691727  24.9656892
   8.5262371  34.6295511  55.2824960   9.3522049  34.2293790  55.0107125
   7.9553629  33.8878798  55.4831443  49.1061878   8.9985329  33.7849975
  48.1899500   9.0773481  33.5194206  49.0675497   8.6839324  34.6881938
  16.5077376  39.7362924  29.9880433  17.0097852  38.9217329  29.9620748
  15.9289801  39.6852851  29.2273402  61.1295582  49.3164312  55.8374898
  60.8896948  48.6796796  55.1642553  61.3217450  50.1182067  55.3512261
  49.9871254  31.2437296  23.1693578  49.5832109  31.3678002  22.3104668
  50.0826740  32.1295285  23.5193062  32.7936435   3.1951392  58.1215048
  33.4868097   3.3273631  57.4747705  32.9769087   3.8404131  58.8043404
  22.0380640  10.3812695  21.0465050  22.9005456  10.7943559  21.0879469
  21.5394974  10.9281421  20.4393864  14.3144882  61.6088744  29.8884416
  14.9880684  62.2598430  29.6915627  13.7734020  62.0203801  30.5623245
   6.8895632  35.9978414  49.2575645   7.0621383  35.1563597  49.6798849
   7.6369500  36.1309552  48.6745310  25.6569600  23.5756016  43.1403732
  25.0356960  22.8493023  43.1928253  26.5171409  23.1595969  43.1974554
  50.9886789  19.7548878  25.8195996  50.0315714  19.7632015  25.8300233
  51.2355375  19.4878697  26.7050338   6.3662494  70.9829361   3.7548888
   6.7367995  71.2255071   4.6034664   7.1231449  70.9192727   3.1724024
   3.5108626  63.3319356   6.0332453   4.1317213  62.6860221   6.3702339
   2.6724923  63.0845388   6.4233249  17.5658310  46.1784419  55.9236431
  17.4129284  45.4829677  55.2839804  17.6805962  45.7181796  56.7550373
  38.1122005  59.5998248  28.3437133  38.2645977  58.7975391  28.8430572
  38.0586517  59.3088277  27.4333930  43.6546814  62.6394686   1.6449471
  43.0422866  62.2210583   1.0398551  44.4628584  62.7336797   1.1407586
  13.3856821  11.9028187  18.0219340  12.9367602  12.5443327  18.5725331
  14.1341996  12.3784161  17.6617122  24.8564089  60.4855414  20.0436544
  25.3252495  60.1985916  19.2600203  24.3506277  59.7192415  20.3142142
  11.6372371   2.3900098  10.2410901  11.3938558   1.4933485  10.4712987
  11.8433249   2.3499864   9.3071961  53.3730555  23.1237459  31.4538598
  52.5579929  23.5724044  31.2288904  53.9657688  23.8250637  31.7241883
  11.0769665   9.5638317  35.2199101  11.3896775   9.7179437  34.3284535
  11.3176525  10.3570044  35.6986356  34.4789886  11.0743988  47.5427151
  33.8268852  11.1294818  46.8441772  34.4109631  10.1751232  47.8635073
   3.2293341  48.6230230  43.5711432   3.4358653  48.3520222  42.6766396
   2.6100266  47.9637194  43.8842010  73.0644131  31.1633015  24.6942782
  73.5292101  31.7089105  25.3287148  72.9513073  30.3229737  25.1384497
  54.6139145   1.9749044  30.2176476  54.7759104   1.6712691  29.3244553
  53.7191153   2.3142141  30.1966906  16.8817831  52.4316191  60.0616641
  16.4396120  53.0508387  60.6424279  17.4441124  51.9185984  60.6420309
  32.2784281   0.8486754  16.0733688  32.2337604   0.7445206  17.0238364
  33.1986308   1.0443796  15.8968508  54.2426729  18.7102520  29.1846752
  54.8597956  18.0950749  28.7885070  54.0248394  18.3194554  30.0308752
  51.7283726  12.1859193  61.5754843  52.3797417  11.5455449  61.2893534
  50.8993006  11.8549919  61.2300062  55.8861828   3.6253583  39.7616363
  56.6430426   3.4937948  39.1905975  55.9391403   4.5451134  40.0214005
  20.6423879  20.8349776  24.8699117  19.7232866  20.6601071  24.6676636
  20.8283114  21.6686010  24.4377828  25.3274572  69.1878893  17.2182941
  25.2223051  68.8444217  18.1055403  24.7515524  69.9518349  17.1873832
  66.6718472  67.2658973   6.5350091  66.1487461  66.6449281   6.0280639
  66.3773490  67.1461069   7.4378669  21.3806272   4.8723033  43.4953642
  21.7816639   5.1253277  42.6638746  21.0077333   5.6844193  43.8383675
  57.6571513  63.5548281  43.0894832  58.5727717  63.8294673  43.0400542
  57.1906353  64.1744208  42.5285021  53.1328630  10.9527421  32.1249509
  52.3001385  10.6057131  31.8049932  53.3362007  10.4179442  32.8923345
  57.6388383   7.7066094  23.4063387  58.2479453   8.3849281  23.6980653
  57.7075040   7.7175444  22.4516678  31.3528323  16.4160132  42.9735422
  32.1495819  16.3382804  43.4983063  31.5276647  15.8898509  42.1932697
  70.4653883  24.9025893   7.7690518  70.2977276  25.1983261   6.8742549
  70.3475571  25.6860065   8.3062714   4.9500123  54.4900036  18.2850873
   5.1578468  55.3958035  18.5143530   5.3066599  53.9723587  19.0069461
  15.1498735  68.8343819  32.3942995  15.9779013  68.3923297  32.5818968
  14.7708834  69.0087252  33.2558131  42.2685480   4.8262715  22.3916125
  41.6889572   5.1488316  23.0817318  43.1443548   4.8675206  22.7756667
   4.0745342  18.5886884  46.6173267   3.5086533  17.8863180  46.9377756
   3.5398313  19.3792450  46.6904306  41.4137363  26.6325259   5.3715992
  40.5566931  26.5930676   4.9471629  41.8568468  27.3680377   4.9486241
  10.7915938   9.2161965   5.4198253  11.6771245   9.5197010   5.2199453
  10.2999544   9.3631089   4.6117789  67.5545311   8.3380455  60.5596542
  67.5768137   7.4396205  60.8891487  68.0479908   8.3049047  59.7401237
  65.5720484  37.5866628  47.1673155  65.5288982  36.7506623  47.6315022
  64.6646309  37.7745700  46.9274855  48.7134779  51.7430016  19.2082024
  48.7486160  50.8357795  18.9049816  47.7790058  51.9468745  19.2460179
  24.7602940   2.4878077  21.7587185  25.1009393   3.2532862  22.2215748
  24.7920847   1.7830057  22.4056149  50.7931757  44.4450378   8.8182205
  50.7937288  44.7364855   7.9064691  50.0929213  43.7938595   8.8610947
  52.5305653  15.9845686  10.6179750  52.5708246  16.2947822   9.7133315
  52.3994303  16.7777157  11.1375451  35.4510428  60.7969689  56.7741404
  35.1930709  61.4321255  57.4421660  34.6562101  60.6534671  56.2604473
  56.4304495  27.3320413  26.2791133  56.3903999  28.2717013  26.1011577
  57.3440933  27.1717310  26.5153122  72.5617374  71.2379611   7.1254420
  72.3634852  71.0511627   6.2078172  73.4788454  71.5120522   7.1213484
  36.1315155  37.5245500  14.8073685  36.4429712  36.6264081  14.6952581
  35.9354329  37.5951982  15.7416022  36.2164664   5.9707093  23.7377429
  36.0426259   6.9116181  23.7112403  37.1709418   5.9041864  23.7657475
  37.3727692  70.9989468  39.1744184  37.5178755  70.0534963  39.2104530
  37.8147162  71.2787137  38.3727670  62.9860879  52.9748353  13.2784986
  63.4711528  52.9179820  12.4552667  62.2209764  52.4154051  13.1448019
   4.9631966  66.2461194  45.8147621   4.1626704  66.1616167  46.3326883
   5.4969132  65.4951861  46.0745239  74.3012298  49.7293910  28.5086823
  74.1355479  50.1651414  27.6726794  74.2037380  50.4213055  29.1628861
  47.7984381  28.1533909  28.3914590  47.7857399  29.1048074  28.2871532
  48.0175447  28.0163908  29.3131161   4.5373810  68.0091198  36.5471363
   5.0780070  67.5933345  35.8755136   3.9998568  68.6384209  36.0662198
  42.5582826  69.3928727   5.9815379  42.0833075  69.4095310   5.1506635
  42.2354567  70.1581248   6.4573546  75.2777541  68.9304944  47.9570150
  75.6531275  69.3518617  48.7301779  74.6044577  69.5402033  47.6550913
  23.2537580   4.6285200  20.4321027  23.8485765   3.8925934  20.5764413
  22.5021291   4.2440629  19.9810171  31.8891692  19.3647516  16.2887585
  31.5206218  19.7101212  17.1018541  32.8366518  19.4259655  16.4102578
  43.6511803  49.2936754  14.9709725  43.3600426  48.8369989  14.1817248
  44.2006254  50.0069571  14.6460497  67.7585411  30.1423168  11.4235342
  67.6677990  31.0725951  11.6298842  67.6688147  30.0982833  10.4715669
  16.3534379  29.2226863  10.4031503  16.3729835  30.0351286  10.9089041
  15.6439304  29.3496561   9.7733009  53.5567522  20.9017444  14.6495628
  52.6660109  20.9409857  14.9977946  53.9718628  21.7055035  14.9624324
  25.9835518   9.8421780  58.1460548  26.6239918   9.1538349  58.3256502
  25.1354683   9.4031445  58.2110921  33.8681364  22.1413064  22.6648092
  33.8084936  21.4593339  23.3338284  34.7393775  22.5191188  22.7849293
  15.2945925  62.3098254  53.4252433  14.8052288  61.4912009  53.5065339
  15.0709988  62.6370215  52.5539337  19.6538067  34.8308158  13.9590085
  18.9514649  34.5823145  14.5600057  19.6002686  34.1899753  13.2500017
  41.7490625  48.5201073  42.5254250  40.9096384  48.1919527  42.2030687
  41.8876123  48.0542612  43.3500624   1.5807831   9.1965906  30.9570980
   0.9482967   8.8949720  31.6091919   2.1326982   9.8200647  31.4292192
  63.0793524  23.3794236   0.2742979  62.6397133  22.5745511   0.0002008
  63.7220907  23.0923080   0.9229004  20.9982634  35.8541203   9.9233371
  21.1390829  36.4824557  10.6315720  21.8326330  35.3917933   9.8439050
  39.0043186   7.6750970   3.9443990  39.5845913   7.1527315   4.4981595
  39.4769787   8.4965301   3.8099690  70.5012381  21.1815397  27.6947069
  70.1588451  22.0342294  27.4265170  70.3251516  20.6075040  26.9492507
  57.2918987  28.4166312  10.0337660  56.8628740  28.6565828  10.8551013
  56.6113234  27.9710031   9.5293236  16.4569973   2.5930715  20.7691117
  16.2226080   2.3370791  21.6611596  15.6696295   2.4159694  20.2544042
  33.7099767  19.3127453   6.3713396  34.5504403  18.8655365   6.4706296
  33.0597067  18.6112463   6.4070976  43.0291021  65.0602587  21.3315916
  43.3822382  65.8939185  21.0208893  42.3387039  65.3070506  21.9469571
  53.6328077  10.6084108  45.9747744  53.6407471  10.8760178  46.8937731
  52.7183819  10.6991613  45.7067776  61.5196514  15.3583050   6.7848927
  61.6351700  15.9926283   6.0774171  60.7592726  15.6774235   7.2709155
  42.8748465  39.2258453   9.6291035  43.7159634  39.4371343  10.0342059
  42.2487164  39.2457175  10.3528440  46.5512609  39.7698402  53.4791422
  46.1370611  38.9559913  53.1922293  46.3431644  40.4004765  52.7897787
  75.5163038  53.2300445   6.5925717  75.7287062  53.2436021   7.5258112
  74.7554052  53.8051327   6.5117306  48.2487869  27.7688885  34.0040755
  49.0900946  28.2098103  34.1224861  48.1272650  27.7356219  33.0552030
  45.3533495  54.4218298  59.8219681  44.8344791  55.1154252  59.4146252
  45.4860056  53.7805279  59.1238546  69.5949221  34.8095155  16.4094281
  68.6697292  34.9441648  16.2041903  69.5900345  34.2071414  17.1533036
  29.8469591  14.4551921  32.1492434  29.4520068  14.3015254  31.2909698
  29.7018862  15.3864539  32.3163867  54.4834042  52.5313616  13.3143020
  54.8671055  51.7046452  13.6067855  54.0736914  52.8960466  14.0987575
  36.5799236  32.9835463  17.5697756  36.6604042  32.1782112  18.0808413
  36.4244151  33.6666179  18.2220507  72.7017558  58.4413250  38.6363268
  72.1314037  59.0660616  39.0842485  73.5531152  58.5472461  39.0608263
   1.7878605  44.3818777  49.4303862   2.7027727  44.1198343  49.5328490
   1.7957331  44.9977558  48.6976759  34.3196130   4.8835668  35.4919744
  34.0545607   4.2468286  34.8282385  35.0763464   4.4827655  35.9196925
  73.8356781  15.8972514   9.6391302  73.1655836  16.4698315   9.2658240
  74.3129921  16.4555883  10.2528608  33.7638545  28.0689001  30.7398772
  34.2513800  28.7483597  31.2055850  34.1852593  28.0171204  29.8819900
  27.8287531  55.1496744  53.7609867  26.8816210  55.0111985  53.7604384
  27.9409100  56.0394811  53.4264783  42.5941133  22.2827411   1.3841853
  43.3650827  21.7800903   1.6472052  42.2583437  21.8216181   0.6155146
  45.2395201  21.3378763  30.3479433  45.3626013  21.8055701  31.1739850
  44.4094896  20.8737445  30.4568624  32.9697657  12.3144567  20.7377791
  33.6793685  12.8457236  20.3766012  33.3399916  11.9279253  21.5313530
   1.4446640  48.8617325  16.1345661   1.6734314  48.1404305  16.7207587
   0.7302332  48.5174131  15.5985975  40.3379393  52.7692127  29.4630218
  40.2209949  53.5794544  28.9669728  41.0382175  52.3059511  29.0034223
  47.7832937  42.3925495   5.3881955  47.7613115  42.5504780   6.3320214
  48.3276796  41.6115427   5.2886546  64.1968584  40.4620123  10.2681792
  64.3014097  41.3624430  10.5756330  64.6091700  39.9277449  10.9469938
  25.3965974  28.0418181  29.4982696  25.3204012  28.9030981  29.9089122
  26.1544609  28.1190157  28.9186859  23.6120129  19.0117085  44.5914602
  24.2829561  18.5269737  44.1107321  23.8196111  19.9320805  44.4300604
  61.9953394  27.6256180  29.2994118  62.7667761  27.6197338  29.8660517
  61.9817209  26.7538738  28.9043069  44.5685972  65.3973412  61.3568749
  43.7477518  64.9437236  61.5483841  45.2022470  65.0114750  61.9617107
  62.0382881  12.2542477  30.2303672  62.2954702  12.4733186  29.3347692
  62.0473385  13.0917287  30.6938076   1.9580507  28.8635135  19.9977851
   1.4023066  28.5168481  20.6957841   2.7788448  28.3782601  20.0818372
  42.3913813  28.1500578  32.2953844  42.9260826  28.6273122  32.9298544
  41.6355324  27.8474021  32.7987003  51.8860627  58.5451340  31.6928414
  51.2156273  57.9064178  31.9353131  51.5217687  59.3885016  31.9616369
  25.0657951  22.5758592  59.5619583  25.5097925  21.8524209  59.1195393
  25.7698738  23.0633871  59.9895430  49.5561028   5.4844010  49.2877340
  49.3780899   5.7721585  50.1831341  50.4837847   5.2485549  49.2919207
  65.5325104  53.6840939  61.8686671  64.5865728  53.6288070  62.0042321
  65.7073904  53.0764973  61.1500052   8.5277713   4.6290222  55.9445033
   8.8842929   3.7938467  55.6418393   8.0668629   4.9824921  55.1836793
  69.2883062  42.9217196  14.9655235  69.1045570  43.2866621  15.8311355
  68.5764122  43.2449341  14.4132817   0.9486748  62.1447086  40.4426507
   0.2066732  62.2334337  39.8444919   0.8474232  62.8699422  41.0591034
  65.6386232  22.5543594  16.8929517  65.4226160  22.3952866  15.9741104
  65.6451607  23.5079432  16.9758379  33.7827361   6.5339533  53.8679729
  33.2419992   7.0111576  53.2385997  33.4464598   6.8008200  54.7235034
  51.8121195  52.2534370  56.7651892  52.2496414  52.4335194  55.9330988
  50.9107924  52.5459862  56.6300964  19.5832289  50.7342609  41.9513416
  18.6863506  51.0620793  41.8851948  19.6522892  50.4046424  42.8473425
  35.3175295  13.6265484  60.7070359  35.4489077  13.8467852  59.7848278
  35.4202211  14.4585959  61.1689704  57.7457619   7.6554137  26.7749429
  57.7755976   6.8381602  26.2775111  58.3145380   7.4980026  27.5285625
  48.4252071  26.3647604   8.4896523  47.7972269  26.8770099   8.9990431
  48.3341408  25.4726505   8.8244337  46.5940571  51.5202761  40.0677919
  46.0705853  51.4770699  40.8680058  45.9682560  51.7617941  39.3849516
  37.5448454  16.6196076  50.2266220  36.7458237  16.8371883  49.7465614
  37.2648275  15.9780422  50.8794741  29.5654941  46.5664625   2.0054924
  29.2775941  45.8055258   2.5097898  28.9107561  47.2392654   2.1922885
  19.5445943  40.6022644  23.4336042  18.6113203  40.7105970  23.2505846
  19.9741054  41.2578678  22.8841138  65.5532742  43.4475708   7.0734161
  64.9350262  43.0652714   6.4506406  66.1660910  43.9423418   6.5294594
  63.5264517  39.1613793  58.9724866  62.6261402  39.0838980  58.6567862
  64.0592719  39.1689720  58.1773285  22.8070200  62.3850729  25.3856945
  22.9283226  61.8948945  24.5725274  23.6057652  62.9052391  25.4732251
  48.9955854  20.3064966  10.2308238  49.2430973  19.8676825   9.4169354
  49.2867947  21.2107491  10.1135337  49.6031546  10.2606511   7.3358603
  50.2579092   9.8784566   7.9202004  49.8769163  11.1720682   7.2328969
  47.8057338  66.8570137  57.0216597  47.4751330  66.6612339  57.8983609
  48.3802534  67.6125383  57.1455247  53.5960388  32.2796988  10.2273226
  54.4446707  32.2391868  10.6682503  53.3342695  33.1978774  10.2955472
  61.0117007  68.6206677  31.6923118  60.7788897  68.7682255  30.7756567
  61.7031193  69.2584633  31.8694806  44.4935656  10.0984585  18.1646848
  43.6424255   9.6837354  18.3053827  45.0161123   9.8359293  18.9224827
  46.3447475   8.1561142  33.3995199  45.8357763   8.7293261  32.8262711
  45.8884907   8.1917942  34.2402267  43.2130527  31.4970231  28.6240196
  42.8182411  31.8773031  29.4087148  43.7890005  30.8080935  28.9555073
   7.4126113  69.6704142  22.8017783   7.9064024  68.8929629  23.0624938
   7.0920909  70.0379386  23.6254430  13.2466137   6.1134950  30.8794355
  12.8440678   6.7817441  30.3247905  13.0483257   6.3928262  31.7732406
  71.9644842   8.7179440  21.2429595  71.9823384   8.8230973  20.2917194
  71.5515190   7.8656781  21.3820076  21.0312319  12.1062720  25.7620382
  20.4688501  12.5234425  25.1094079  21.9128752  12.1709216  25.3949332
  18.0558241   5.9177557  61.0033836  17.9037178   6.8234554  60.7335494
  18.6799896   5.9847370  61.7259897  52.1047878  48.6370420  21.3361907
  52.4798203  47.9571438  20.7764411  51.1812973  48.6703157  21.0866094
  39.9816489  37.8217030   3.5850751  39.2371798  38.1922722   4.0590772
  39.8457313  38.0916977   2.6768559  59.7118187  23.1842422  39.2660832
  59.5893192  23.9847636  39.7763729  58.8233471  22.8816390  39.0782404
  33.1530690   7.5355703  24.3550515  34.0658712   7.8214866  24.3193722
  32.9118204   7.6190424  25.2775812  75.0141573  20.4651785  44.4810820
  75.0543118  21.4209533  44.5144558  74.6604204  20.2104163  45.3332520
  50.6226398  69.8020959  55.4511152  50.5714775  69.0789556  54.8260699
  51.5556646  69.8816061  55.6495468  46.7757559  48.2829475  10.2004194
  47.4285650  48.3081722  10.9000182  47.2269201  48.6467171   9.4386107
  73.9556325  70.9366814  38.0972552  73.6805666  70.0514384  37.8586864
  74.5202864  71.2145785  37.3760271  63.9275455  51.0085154  19.8964036
  64.8158360  50.7111502  20.0932503  64.0248871  51.5532398  19.1153574
  57.1159888  39.1102841  59.3035562  56.2275148  39.3690166  59.5483063
  57.2771431  38.3079350  59.8000408  26.9901872  55.3414583  19.5333719
  26.7689872  55.2849770  18.6037958  26.7885447  56.2459707  19.7730243
  53.6776638  57.6299715  49.8298073  54.2720890  57.7646303  49.0917301
  53.0171442  58.3160448  49.7336340  42.6262218   3.0262414  39.9216060
  42.7594388   3.8255969  39.4121770  43.3733178   2.9957930  40.5192284
  73.4017467  16.0316026   1.2546408  73.5141897  15.9764612   0.3056689
  74.2267704  15.7042766   1.6130060  11.2368727  29.7043490  26.7116308
  11.3424921  30.6549525  26.7494082  12.0786524  29.3578839  27.0076203
  50.8591175  34.0291119  12.9338861  50.4319334  34.7752976  13.3545423
  51.4763975  34.4228482  12.3173046  21.1923206  64.7334900  25.5471826
  21.8098009  64.0149888  25.6839561  20.4452837  64.3269624  25.1079774
  71.4722157  39.5101571  26.3502192  70.8619499  39.8570323  25.6994581
  71.3627148  38.5606170  26.2990689  49.3325281  34.0324140  24.0086198
  49.8880577  33.7983632  24.7521496  48.5489035  33.4933233  24.1160703
  14.4631636  59.4122895   3.2733270  14.3018305  59.6787509   4.1784259
  14.5449411  58.4595045   3.3151027  45.4694725  57.8926873  59.3425755
  44.8304130  57.2615337  59.0116993  45.7229997  57.5499415  60.1995943
  37.8111482  69.0169239  13.7619627  38.3311868  69.6858072  13.3165550
  36.9033313  69.2529345  13.5711861  22.1612501  26.6535926  41.0641623
  22.6177335  26.4201307  41.8724632  21.6913772  27.4594760  41.2786531
  59.9037886  39.5505500  18.9004004  60.0883961  39.0412521  18.1112432
  60.4330492  39.1363907  19.5820081  48.3405304  43.0240822  13.2595682
  47.7294254  43.7605190  13.2806110  49.2041159  43.4313202  13.1916606
  34.9800205  18.3865070   9.9268854  35.8676386  18.0405438   9.8337400
  34.7622156  18.2424343  10.8477736  41.2643766  24.1975451  26.1807942
  40.9324360  25.0914812  26.0975885  41.6884708  24.1784143  27.0387053
  52.9217481  16.0990873  39.9966029  53.3448250  15.3691307  39.5444993
  52.6910572  16.7118898  39.2984013  73.2856369  21.6786766  20.1449895
  73.0794048  21.5674782  19.2169082  74.0506124  21.1215663  20.2887774
  47.3018122   8.0010265  44.7626686  46.8866205   8.8239098  45.0209522
  47.6958704   8.1886405  43.9107561  50.4282093  13.7410295  18.0765355
  50.4503441  13.2876372  17.2338152  51.2670612  13.5278249  18.4853232
  52.4645687  33.0782908  56.8635539  51.8377758  33.2779920  57.5588814
  53.2575561  32.8077283  57.3263715  45.3838158  28.7584567  25.5533624
  45.5873966  28.1000614  26.2176681  45.9486198  28.5349011  24.8135972
  57.7112961  44.9442005  19.7106028  57.7280092  45.5103350  20.4822493
  58.6174631  44.6537781  19.6069396  49.7572184  44.1812229  36.1427689
  49.4637108  43.6494017  35.4030037  49.2392778  43.8671780  36.8839455
  62.4998569  39.9850535  45.2533293  62.0464945  39.7792816  46.0708570
  62.2957897  40.9061527  45.0915718  20.9368301  69.5079422  46.2258355
  20.4515291  68.8482499  46.7213348  20.5340458  70.3395176  46.4757899
  46.1515188  17.9545689  26.8542719  46.2318945  17.4092937  26.0716820
  46.4220142  17.3832583  27.5730681  18.6128367  69.3423275  32.8417850
  19.1818321  68.7317931  32.3730350  17.9463757  68.7865668  33.2457471
   5.1845694  16.7643619  37.6100898   4.8682928  17.6408505  37.8291082
   4.5302057  16.1735249  37.9828477   2.8427613  50.5505832  39.3819022
   2.0617283  50.8276542  38.9028931   3.5732401  50.9008988  38.8720846
  54.4005680  59.3264008  12.9862595  54.8724174  59.4915533  13.8025403
  53.5904646  58.8966513  13.2606268  64.9317741  44.3439007  37.0493674
  65.6597090  44.1525841  36.4579773  64.6533012  43.4866571  37.3715806
  18.0991173  18.9095461  43.3715487  17.5162649  18.2890749  43.8091946
  18.8467014  18.9941788  43.9633179  53.0154705  39.3568063  46.0313177
  53.1599760  39.1333938  45.1118422  53.3387280  40.2540159  46.1134577
  20.3797197  44.5918608  22.5443268  20.3009367  43.6875677  22.2405457
  21.3186979  44.7175694  22.6812816  74.3634249  58.3006620  59.2060620
  73.9424587  57.5388932  59.6044653  73.6364628  58.8495850  58.9120511
  28.0090880  12.1008480  25.7061195  27.4680114  11.4510012  25.2576017
  28.7586403  12.2305560  25.1251054  74.0531361   4.8785535  38.8738847
  73.9141333   5.3452531  38.0498099  73.6871635   4.0074817  38.7205029
  46.5539085  56.4628753  12.3359319  46.8679630  56.9609627  11.5812703
  47.3489201  56.2213882  12.8111907  24.7471024  69.1532087  58.1323014
  24.3881298  68.9154553  58.9871941  24.8261667  70.1066613  58.1624911
  46.8972826  46.1762381  44.5227289  47.0208311  47.0233631  44.0945387
  46.7920542  45.5562019  43.8011265  73.6472082  39.0312934   1.8920723
  73.8861847  39.2548013   0.9925356  74.1020489  39.6801829   2.4290031
   5.9804260   4.2032711  14.6527493   5.2945005   3.8761846  15.2347720
   5.5119383   4.7196046  13.9968932  27.1382177   5.4251734  54.1322426
  27.5124062   6.2771431  53.9078216  26.4777029   5.2684179  53.4574238
  43.9172220  41.0557699  15.6060553  43.6964464  41.9147539  15.2460027
  44.7877407  40.8659649  15.2561915  35.4887438   8.0170053  49.8390198
  36.1824799   8.2824600  49.2352819  34.6769238   8.2470113  49.3870497
  25.7454967  22.1728468   7.7216285  25.1825356  21.3996840   7.7606773
  26.6224432  21.8228984   7.5643623   0.3677870  55.6503784  48.6120740
   0.5364204  55.6229412  47.6702456  -0.0597404  54.8155737  48.8032667
  67.0407915  68.2996655  20.1332355  66.8614578  68.6698961  20.9975290
  67.1963310  69.0609026  19.5741665  56.8663549  13.5033369  50.0112057
  57.6615620  14.0122318  50.1690149  56.8776178  12.8256369  50.6870937
   9.8948170  40.8077985  53.8357727   9.0734268  40.7631075  53.3463339
  10.5201889  40.3208109  53.2991324  17.9104924   3.4087822  13.2702315
  18.8609016   3.4773743  13.1794024  17.7529013   3.4949708  14.2104280
  13.7924731  47.6994880  24.1974759  13.3146394  47.9989131  24.9709439
  13.1713570  47.8043803  23.4767509  50.4936075  15.2790284  41.2908220
  51.3932943  15.5689955  41.1401081  50.4536295  14.4076204  40.8967638
  56.8301535  13.8469613  28.9977789  56.5586424  12.9866743  29.3178105
  57.7836180  13.8439453  29.0822053  69.5388390  63.6517405  46.2528221
  70.1527334  63.5352039  46.9779316  69.2959858  62.7612900  45.9991447
  23.0933234  60.4124069  59.5985463  23.9826311  60.7661914  59.5843638
  23.2000702  59.5078492  59.8928424  15.7161224  64.7433992  54.7074509
  15.7208574  63.9420875  54.1838932  14.9148405  65.1963814  54.4448042
  13.7995493   2.2545430  44.7311544  12.8947401   2.0234151  44.5210743
  13.8042676   2.3636407  45.6821060  47.0931913  59.7029137  57.9578991
  47.9403521  59.6789407  58.4028415  46.6849519  58.8647341  58.1747583
  55.3783321  64.5043421  13.6818123  55.9676600  63.8807869  14.1062009
  54.5970440  63.9919758  13.4737194  75.3891850  21.2566972  22.6183081
  75.1995611  21.2501788  23.5565162  75.8572578  22.0791268  22.4742651
  59.3052769  46.2880611  30.6674910  58.6736202  46.6551924  30.0490594
  59.4947052  45.4141665  30.3259397  64.8586941  26.1062932  33.7689137
  64.9577522  25.1651216  33.9124894  64.1060638  26.1811757  33.1822538
  48.0892467  39.9852085  10.8490574  47.4332428  39.7986007  11.5206695
  48.8684464  39.5093846  11.1365843  49.5966625  39.1113186  23.8124418
  49.3567514  39.8919463  24.3117380  49.1688919  38.3905053  24.2746902
  72.7678871  22.1320081  43.1797743  73.3720493  21.9943857  43.9093494
  71.9422579  22.3796940  43.5959673  43.0106974  16.4602804  33.3242226
  42.8011847  15.8040380  33.9888144  43.3040047  17.2221339  33.8240027
  63.2222652  26.8200421  10.8903193  63.3772135  26.1126828  11.5163100
  62.6630402  27.4381256  11.3609266  28.1926203  38.8378119   3.5617104
  27.5360012  38.8206887   4.2579794  29.0312433  38.8284683   4.0230757
  46.6367340  23.3411217  36.3601041  46.5112066  23.8627434  35.5673957
  46.9645500  23.9649343  37.0078897  41.2754345  30.6239343  42.4028015
  41.1702013  30.5034351  43.3465385  41.8372822  31.3945508  42.3209143
  69.9135780  44.1817665  41.8282509  70.6678772  44.5935297  42.2498131
  69.6784639  43.4594297  42.4106503  50.4827642  20.4746652   0.2764169
  50.4082632  19.5204270   0.2659396  51.4042759  20.6451154   0.0815102
  32.3592938  13.9380709  56.1275826  32.3905170  14.8696295  55.9097306
  31.8999517  13.9035860  56.9666586  12.0925581   2.8321210   0.4494083
  11.9312012   3.7755577   0.4384489  11.8207657   2.5325529  -0.4181277
  32.7170897  14.8016548  47.7762699  33.0596495  15.4648542  47.1770573
  33.4924006  14.4530344  48.2162571  60.2220917  58.1249237  12.8689206
  60.4222775  57.9775524  13.7932789  61.0691166  58.3216763  12.4688315
  61.6651488  47.3389959  58.7864898  62.0337201  46.7665648  59.4593273
  62.2334362  47.2123670  58.0267213  16.8029844  51.4366952  21.5966105
  17.5442087  51.2662736  22.1777940  16.6058123  52.3644392  21.7256618
  48.3546305  51.4048481  33.0897141  48.0970144  52.0781469  32.4600053
  48.7011003  51.8945360  33.8356328  69.4892550  30.6780887  39.3395257
  69.1278076  30.8427572  38.4686208  69.3473625  31.4958882  39.8162866
  58.7350130  19.6324563   4.3493402  58.1109190  20.3534317   4.4326314
  58.5058546  19.2118442   3.5206050  72.7078629  46.5051651  20.3627658
  72.9681444  45.6526041  20.0140166  72.0758200  46.2993670  21.0515332
  54.7588348  61.8289566  42.6739979  55.4118681  62.2562933  43.2282209
  55.0148630  62.0594406  41.7809391  14.9445046  23.0484167  60.7608500
  15.4950655  23.3983866  60.0603960  14.0561092  23.3128563  60.5219873
  49.2499113  61.0490608  41.9266844  49.4100857  60.4439735  42.6508713
  50.0169992  60.9550667  41.3619089  35.1765894  38.6481023   0.9588500
  35.3007673  37.7577472   0.6300946  34.9362110  39.1577697   0.1851006
  62.8087425  23.6524701  47.6717234  63.7587118  23.6320210  47.5560999
  62.6794767  23.5364747  48.6130381  47.3844910  33.7444258  21.2297630
  47.4002123  33.9995003  22.1522164  46.5939331  33.2119393  21.1419463
  43.5409355  54.7958851  16.3402200  43.7164259  55.2115536  15.4960310
  44.3163300  54.2607784  16.5095031   0.8739901  49.2472553  60.8079433
   0.4310703  49.9729776  61.2476969   0.4969645  49.2343235  59.9282169
  64.5118618  22.8848767  34.5443892  65.1201391  22.2916079  34.1036415
  64.3703699  22.4877930  35.4037690  65.8248043  58.8779354  55.1686811
  65.2568436  59.6275759  55.3467178  66.6153049  59.0494823  55.6804514
  43.1025982  59.9415350  29.7912526  42.5607395  60.7053947  29.5933938
  43.9614296  60.3060436  30.0051999  42.6664162  45.2513885   0.7296628
  42.9498625  46.1018705   1.0651880  42.7951574  44.6496582   1.4628607
  32.0053864  55.6298351   3.8943076  31.1783457  56.1046124   3.9768893
  32.6787710  56.3035011   3.9889729  15.6686508   7.5266353  47.3105764
  15.2196657   8.2721225  47.7091980  15.0002014   7.1054737  46.7701817
  27.9890275  59.9494457  36.1380720  28.3347440  60.3504801  36.9354963
  28.7595654  59.5936728  35.6954336  46.7830229  33.0423641   7.8073025
  45.9081793  33.4228778   7.8853136  47.3768520  33.7598062   8.0283940
  73.8921987  15.3550092  45.4499722  73.9456856  14.9268190  46.3043833
  74.3672621  14.7707216  44.8590803  73.0145869  55.1646137  10.1504970
  72.2481722  55.5408621   9.7177440  72.7443314  54.2774963  10.3876054
  56.4899063  46.3870621  31.5215683  57.2135305  46.7641973  32.0219398
  56.3325834  45.5366755  31.9318438  34.4340944  57.5577307  40.7993650
  34.8615098  56.7210960  40.6160927  33.9906931  57.7843142  39.9818778
  35.5297685  52.4055004  22.4722457  36.1563516  52.5147915  21.7569280
  35.1858020  51.5198183  22.3561239  67.7863026  49.9048615  51.1900473
  66.8635511  49.7131109  51.0227346  67.7850962  50.3825045  52.0195580
  65.4213333  17.8907514  35.7875896  65.0534201  18.5398746  35.1879978
  64.7239923  17.7293611  36.4231205  59.7067261  50.6411791  27.5735116
  58.9898586  50.2799177  28.0948734  60.4872036  50.5006695  28.1095600
  57.2688627  27.7943540  14.4668210  57.2785521  27.6183891  13.5259843
  56.3860655  28.1211686  14.6402824  57.2397530  14.3761770  13.8905931
  56.6384708  14.4975702  14.6254110  57.2608005  13.4292642  13.7522507
  70.6843853  26.2104297  22.3233271  71.3169336  25.4962325  22.2456384
  70.8830404  26.7875862  21.5859938   1.4335775  32.9412866  54.2353868
   1.0654831  33.7387419  53.8548517   0.7426739  32.2865820  54.1341639
  45.1776171  47.7985191  36.2588882  45.5068684  48.4746790  35.6667471
  45.1215410  48.2323599  37.1102810  72.7724648  60.1293564  24.5094347
  72.4843121  60.4767990  25.3535223  72.0143986  59.6487713  24.1768599
  32.3060501  61.7761150  51.8025998  32.0812977  62.6486221  52.1257947
  32.3792112  61.8834892  50.8542589  29.6116232  20.2073169   5.6010695
  29.9664568  21.0835052   5.4506894  29.7741102  19.7392917   4.7820540
  56.2547445  30.1555228  25.7381296  55.3297663  30.3520417  25.8865333
  56.3192177  30.0044990  24.7951198  74.7749519  40.6478119  53.4229994
  74.3488884  41.4743614  53.1960297  75.1838732  40.8144379  54.2722654
  55.9384346  46.2546825  24.6305156  56.1498308  46.9743872  25.2251291
  54.9866915  46.2936020  24.5362067  36.7621064  19.4211650  19.8398030
  37.6338506  19.8161638  19.8563159  36.8719983  18.6196184  19.3282580
  64.5591307  41.6996098  23.0775905  64.0337086  40.9022093  23.1433082
  64.0873623  42.3416996  23.6080503  41.6747999  30.9877753  20.1608229
  41.9998884  31.5218854  19.4360662  40.7404661  31.1904597  20.2074218
  60.0369740  24.8013067  22.7662611  59.1071129  24.8127413  22.5394201
  60.4174519  25.5142260  22.2532153   9.7004271  51.6502476  11.1388958
   9.3770361  50.7512665  11.0798657  10.2920961  51.7414713  10.3920150
  55.0068617  66.8268251  47.2870493  55.2015781  67.4891949  47.9500580
  55.5819750  66.0933828  47.5050926  67.3239040  54.3241835  21.1017656
  66.8185949  53.6218977  20.6922626  67.3093843  54.1163206  22.0360112
  17.5382853  64.8931980  22.2382998  17.2665548  65.3257847  21.4288163
  16.7238283  64.7580147  22.7226782  60.9641218  31.3408947  60.2994299
  61.7583323  31.8414760  60.4861879  60.4922771  31.3209009  61.1320114
  67.0925617  17.1704030  29.4243431  66.3993311  17.1508944  30.0841045
  67.0830202  16.2934136  29.0408993  39.7093510  16.7674041   4.6848365
  39.2095970  17.4875904   5.0692960  39.0444731  16.1453414   4.3895169
  64.4948244  63.0959892  46.4829493  64.6227503  62.3720264  45.8699656
  65.3006697  63.1180763  46.9990444  55.9738493  17.5880361   2.0622458
  55.6623030  17.5815439   1.1571886  56.6898394  18.2233191   2.0645350
  66.4503241  40.6776476  33.2397342  65.7965565  40.0213146  32.9988027
  67.2606802  40.1798964  33.3483458  56.0014725  27.5724196  33.9175248
  56.2700939  26.7005825  33.6277437  56.4312077  28.1708908  33.3064675
  50.1842594  52.0989370  28.8150620  49.2961073  52.0814085  28.4585333
  50.3947592  51.1796618  28.9789224   8.2407236  25.8446765  45.8781004
   7.8055429  26.0939002  45.0627851   8.9437628  25.2557397  45.6040239
  23.5076118  20.7760382   7.6077628  22.9338717  20.0111747   7.6528555
  23.1710792  21.2847281   6.8700540  59.0791273  41.9697523  35.6459188
  59.2332554  41.4084530  34.8860359  59.4167328  42.8261375  35.3835154
  49.9583292  18.3719730   5.6814456  50.7091951  18.2043231   5.1119465
  49.2018700  18.0806100   5.1724190  56.5412748   0.2587548  49.8299316
  56.8182982   0.4236642  48.9286558  56.1587465   1.0874382  50.1183573
  39.5384526  64.4485092   8.3709967  39.2143536  64.5702934   7.4786073
  38.9585114  63.7870121   8.7482536  16.0950554  22.9972378  55.2589861
  16.5499390  23.7385765  55.6586496  15.2607096  23.3601919  54.9617271
   8.3244562  47.6406145   4.4990006   9.2483091  47.3914623   4.4736093
   7.8767920  46.9507360   4.0092045  54.5597744  39.7658825   5.3505927
  54.7866106  40.5881214   4.9161926  55.2378368  39.1515040   5.0695181
  63.1780910  14.7367096  31.1431646  62.6322699  15.1787627  30.4928565
  62.5790691  14.5365667  31.8624330  70.3402090  70.0141048  20.3108931
  70.5669641  70.5647612  19.5614958  69.6776915  70.5162859  20.7853532
   3.8345385  56.1419678  34.0872598   4.2936563  56.3690329  34.8958874
   2.9315662  55.9816694  34.3614435  53.0751944  53.5830593  18.0265880
  53.6478710  54.2094994  17.5840414  53.4881830  52.7328444  17.8755558
  50.8004570  30.7982063  62.1322823  50.6361866  29.8571372  62.1925879
  50.8312654  30.9762073  61.1922836  47.5888777  58.3153772  16.3002324
  47.6961946  58.3973694  17.2478580  48.4826422  58.3090305  15.9576333
  38.7922955  43.1763363  16.2598383  39.1020107  43.6143398  15.4670823
  39.2143035  42.3174286  16.2393498  65.7415939  62.4598336  55.1298843
  65.1783539  63.1363320  54.7539298  65.1332141  61.8160748  55.4927609
  62.0470190  11.2811518  18.7284160  62.5425911  11.4276493  17.9227006
  62.6406527  10.7791293  19.2868090  33.7086237  60.6423100  33.9257240
  34.0471399  61.5332474  33.8370132  32.9609001  60.7279750  34.5171642
  32.7998924  57.4716806  28.3871818  32.6737738  58.4202147  28.3623528
  32.7352262  57.2456741  29.3150663   6.4711618  64.5478487  43.5782385
   6.2290525  64.1362858  44.4078350   6.3866568  63.8484240  42.9302406
  66.2816858  35.6305671  28.4437084  66.2760925  34.6918321  28.6307406
  66.9297171  35.7320309  27.7465749   0.8322954  70.9897327   9.6685261
   1.5778875  71.5155125   9.9581361   0.4873466  70.6002808  10.4720020
   5.1020384  45.9274912  48.1177855   5.6222773  46.4118147  47.4766827
   4.5526361  46.5928221  48.5321903  26.9057644   7.4530235  56.5082655
  26.4667452   7.5034491  55.6591777  27.8357447   7.5494782  56.3031576
  61.1080170  14.9772501  44.4382620  61.6730404  14.2245173  44.6125555
  61.2522602  15.5623007  45.1819992   6.0274076  50.7496977  53.3530951
   6.6511297  50.0847006  53.0615664   6.0508203  50.6975317  54.3085861
  67.0750332  29.6844220   8.6078995  66.5360975  29.0863824   9.1257095
  66.4549494  30.1206374   8.0235678  60.7663441  43.4658003  14.4412768
  61.7041922  43.6437702  14.3706095  60.6816006  42.9399776  15.2366161
  55.2815580  44.3081284  41.8781948  55.7385826  44.0575790  42.6810551
  55.9376478  44.2091417  41.1882782  67.3293877  48.2506037  39.6346164
  67.4380350  47.4208593  40.0993204  66.6564608  48.7166739  40.1307821
  46.5489244  52.9022264  55.5821848  46.0209656  52.8236198  56.3767385
  46.4418888  53.8144684  55.3127670  51.9659710  34.7413421  15.3452730
  52.7629042  35.2304459  15.1405632  51.7715406  34.2542601  14.5445359
  64.3352318  56.6983986  13.1400752  64.1336727  56.1360645  13.8879943
  64.7023535  56.1041069  12.4856520  43.6093283  57.3473740  34.6896744
  43.9818048  56.7262793  34.0637898  43.9099979  58.2036114  34.3852186
  10.4619265  61.5235662   7.7069139  10.9262419  61.6203737   8.5383415
  10.1514387  62.4054909   7.5018823  65.4774237  50.1270533  12.8794837
  64.5868349  50.2457905  13.2096088  65.7954025  51.0162354  12.7230322
  52.3658514  65.4944944   5.2768469  51.8695211  66.1037636   5.8233637
  51.9953966  64.6352959   5.4787672  50.5428457  69.3316984  19.9853063
  50.5804777  69.5860720  20.9073186  51.3662577  68.8687181  19.8307836
  75.0487471  54.1054630  28.3432174  75.1788521  53.3140326  28.8656569
  75.7817364  54.1092873  27.7276373   9.1747904  38.7488866  38.3383203
   9.2816019  38.9950562  39.2571378   9.2025518  37.7920961  38.3419204
   1.2906277   3.0417673  15.9734249   0.7559263   2.6448862  15.2858138
   0.7590401   2.9632131  16.7655587  51.9741667  41.9109932  61.3123151
  51.2133158  42.0153490  61.8836728  52.7166451  42.1879736  61.8491918
  42.6270103  24.0627551  19.1461134  42.0560551  24.6015620  18.5984588
  43.0216122  24.6807814  19.7613907  72.2526752  34.3705503  45.1249981
  71.6783821  34.7889654  45.7663584  72.1629536  33.4334985  45.2985239
   8.9318132  48.4772825  35.3799486   9.7261381  47.9462862  35.3221917
   8.2713366  47.9726601  34.9052358  71.6437197  12.4729061  46.8415117
  72.4836874  12.9318929  46.8456221  71.6774893  11.9185984  46.0618734
   4.9039030  21.6589785  36.1956215   3.9545822  21.5364265  36.1921620
   5.1053286  21.9940448  35.3219008  65.7750988  37.9815006  10.9308994
  65.0999403  37.3721123  10.6325078  66.5725613  37.6908636  10.4883873
  74.0058327  58.2258940  27.3609686  73.5731745  59.0695238  27.4926209
  74.5905828  58.1365919  28.1135106  38.8648415  52.0746279   7.3344028
  39.7333574  51.9331741   6.9577020  39.0010333  52.7428627   8.0060774
  72.6372862  31.5978837  45.6327009  72.0373392  31.5018487  44.8930550
  73.3810997  31.0372424  45.4121256   4.0542078  48.3826065  18.3399916
   4.5277643  47.7681541  18.9007258   4.1202021  48.0058432  17.4625385
  63.4493876   1.4715831  50.1225138  63.5949945   2.2454050  49.5782471
  64.0666962   0.8222169  49.7856426  74.2195606  17.4340916  12.3303640
  75.0936127  17.8196180  12.3906279  73.6592722  18.1547201  12.0422530
  56.4009190  54.6316814  18.8643694  55.7573366  54.7853756  19.5560396
  56.2895727  53.7092400  18.6342824  73.9227247  18.6620665   1.3365024
  73.2062101  18.8932288   1.9276083  73.9486551  17.7053821   1.3542111
  45.8592558  60.4877615  19.0841436  45.2690125  60.0977755  18.4393561
  46.2682009  61.2198448  18.6225677  56.8868637  58.2197332  33.5654879
  56.6634703  57.3601198  33.9224005  57.3682737  58.6537695  34.2698240
  20.5572737  22.3976437  53.6788104  19.8065270  21.8261973  53.5173688
  21.2945354  21.7979637  53.7930850  57.0704889  38.5970759  52.5118351
  57.3140860  39.4468427  52.8789759  56.6377449  38.1398177  53.2328606
   0.6548214  63.3636475  34.2362475   1.1141777  62.5245142  34.2033815
   1.1559057  63.8866520  34.8620367  66.7355728  55.6675673  40.6531715
  66.2444973  56.3138914  40.1458836  67.6431847  55.7809877  40.3710127
  30.2552080  59.5215321  45.4543591  31.1947107  59.6960020  45.3984594
  29.9208379  60.1970673  46.0443449  37.6912773  16.1034933  53.6557929
  37.9237402  16.6601482  52.9126046  38.4155834  15.4815451  53.7249849
  52.3152542  54.9194145  35.0904322  52.2373581  53.9845848  35.2808356
  52.3982668  54.9637270  34.1378665  63.5928249  54.8899603  41.0338306
  64.3088341  55.5228901  40.9794188  62.9159164  55.2439070  40.4569817
   7.0613564  63.4405687   4.9886850   6.6895974  64.1235127   5.5469090
   6.8037856  62.6204684   5.4097849  75.6717611  59.7295308  61.7362964
  75.0612522  59.9744057  61.0409200  76.2704445  60.4734707  61.8023478
  34.2914796  31.4472580   5.5283266  34.2020464  31.0480881   6.3937151
  34.9912810  32.0918798   5.6330621  47.4558103  19.8602430   2.8439701
  47.8886330  20.6257383   2.4659336  48.1011641  19.1575757   2.7664521
  72.1779966  32.0816231  39.0099525  71.4079523  31.5130877  39.0040517
  72.3884773  32.2093868  38.0849648  52.6310778  23.7739396  50.8709955
  53.4808922  24.2125297  50.9121275  52.5596476  23.4746265  49.9646091
  56.5758419  25.8914304  48.5215139  57.1075964  25.5983758  47.7815199
  56.6407442  25.1807261  49.1594172  48.3951699   3.2719175  24.6930981
  48.2329213   2.6115505  25.3667617  49.3416416   3.4125272  24.7185683
  49.4097053   3.9575092  18.8643336  50.0319898   4.6292440  18.5854733
  48.5552918   4.3857757  18.8114607  27.3482693  18.2840792  49.1898803
  26.3982332  18.3894745  49.1393010  27.5525940  18.3961741  50.1182751
  44.7691321   2.3646013  11.0863435  44.2991864   2.2676031  11.9145787
  44.5954096   3.2664243  10.8165860   6.0294199  37.1869040  36.9782639
   6.4928293  36.5797567  37.5551915   6.2417078  36.8867493  36.0944819
   5.6515943   5.4308788  36.9553757   6.0490095   5.3706542  37.8240919
   4.7101652   5.3719369  37.1180606  72.2393549  41.8343655  46.1820976
  72.2380603  42.2617642  45.3256158  71.7283238  42.4186913  46.7421357
  64.7293091  56.4506102  54.1425896  65.4632521  55.8708429  53.9390564
  65.1405573  57.2640276  54.4349241  54.9026585  34.0432453   1.1739419
  54.2378616  33.4449291   0.8329184  55.1188469  33.6935258   2.0383427
  51.2217951  42.1015120  26.2259507  50.4992437  42.7277040  26.1808562
  50.9050512  41.4119196  26.8093610  18.0345869  58.8475132  28.7261176
  17.6414919  58.6689854  27.8718138  18.1271887  57.9855824  29.1319847
  13.0706930  59.5271444  40.0416994  13.3514166  59.1474533  39.2090726
  13.3194017  60.4494286  39.9803185  12.1586668   1.1154644  21.9468451
  11.2928545   1.4105550  22.2288299  12.2888576   1.5337841  21.0957932
  18.0128717  34.2159677  39.4969749  17.4487734  33.7911153  40.1431322
  18.7073183  33.5788393  39.3295169  52.0643806  26.9292164  17.9513943
  51.2029743  27.2784662  17.7228487  52.3926592  27.5238204  18.6258626
  70.6589270  53.5689068   8.3023888  70.0129128  52.8689814   8.3972323
  71.3598394  53.3318186   8.9096355  54.7660828  18.3468747  41.3069010
  55.1268911  18.0773830  42.1515465  53.8481092  18.5459256  41.4911079
  30.4735970  53.7453222  11.9882238  30.1268506  52.8609657  11.8702936
  31.2318373  53.6308718  12.5611174  55.3559017  27.7185893  20.9999561
  55.3367233  27.4605966  20.0783801  56.2813091  27.6771212  21.2410784
  72.8804457  30.4278985  19.5223153  73.2927811  31.2282888  19.8472619
  72.9790747  29.8000566  20.2380824  23.4474670   7.1322671  40.6720591
  24.1643488   6.5576974  40.4033995  22.6816284   6.5591470  40.7075691
  46.6020727  52.4780226  46.8425465  47.0989656  52.0283079  46.1591101
  47.0026064  53.3455992  46.8983269  29.0702081  62.6606560  21.3247275
  28.3994198  62.5547504  20.6501484  29.4737601  63.5066175  21.1304879
  39.5538055   4.2306177   7.9913855  39.0014374   4.7852031   7.4404299
  39.4964516   4.6247856   8.8617718   9.7013426  28.8661504  31.9088936
  10.3217745  28.6934876  32.6170444   8.8519144  28.9314795  32.3452878
  54.6019506  47.5974703  34.7055221  55.4523039  47.9273081  34.4151092
  54.4715452  46.7944765  34.2011142  69.7207689  27.1691275  33.6819649
  70.3636694  26.9542241  33.0061531  68.8845539  26.8781257  33.3182430
  26.4603197  17.7848665  45.7164097  27.2949326  17.5136129  45.3342152
  26.7049992  18.2954732  46.4881945  58.7656033  66.0475954  36.6123219
  57.8515017  65.9462150  36.3470479  58.7290203  66.1505588  37.5632687
   5.9103250  58.6518145  41.0967398   5.3899431  59.2336369  40.5427408
   5.2684927  58.0662394  41.4984655  64.3588448  31.3181567  13.5386097
  64.7527313  30.5110979  13.2073355  65.0823927  31.7827153  13.9591944
  60.1820326  18.3403146  47.3414326  59.3722439  17.9295468  47.6443243
  60.0813961  18.3961272  46.3911724  67.0993376  14.9140346  49.3565416
  67.9695702  14.9386764  48.9586401  66.7449522  14.0612221  49.1048384
  45.1484871  54.1817999   2.7297276  45.4681063  54.1745567   1.8274949
  45.9420395  54.1783142   3.2649773  69.2162371  31.9435143  49.4851637
  68.4021568  32.1704769  49.0357351  69.8717356  32.5266695  49.1024256
  65.9802151  13.7466252  42.7848339  66.2664604  14.4514620  42.2038889
  65.0704575  13.5848963  42.5349903  54.3964195   0.3363471   9.8876351
  54.1975212   0.2704671   8.9536476  55.1548672  -0.2342364  10.0118303
  69.1286945  34.6736789   5.9401768  68.6700153  34.8560166   5.1200551
  68.4495211  34.3371868   6.5247554  57.9005480  25.8227468  55.4770136
  58.2438135  26.7081881  55.3570366  58.6760283  25.2848315  55.6367397
  66.2136698  44.5685148  32.5989461  66.4990044  44.1551113  31.7841363
  66.5586329  44.0015888  33.2887483  57.4887037  53.6718464  37.9772115
  56.9912624  53.4486437  37.1904683  56.8291759  53.9825392  38.5974765
  24.7270180  64.5189476  42.2605459  24.2384983  63.7764740  41.9051389
  24.7676493  64.3503832  43.2019106  15.9108555   7.5075952  14.1310525
  15.6917536   6.9200174  13.4078813  16.8296492   7.7335350  13.9861250
  39.1181231  38.0744886  11.5418267  39.5652151  37.2684836  11.8000841
  38.7960982  38.4437752  12.3641145  66.8009520   8.2462788  46.1051989
  66.8272400   7.4395484  46.6197157  67.6292419   8.6834657  46.3027811
  63.0040741  33.7829208  14.6722841  62.9241753  32.8968263  14.3191791
  62.2210836  34.2365861  14.3602860  13.3114576  52.1205664  29.5480299
  13.1481504  51.2294579  29.8570347  14.0901232  52.0439339  28.9966226
  14.6575594  51.8713999  39.7220612  13.9125776  52.1311522  39.1800594
  14.9587774  52.6872110  40.1220036  69.1180014   9.3199468   8.8820907
  68.8764261   9.5519805   7.9854079  68.8704370  10.0843788   9.4022675
  54.4654226  67.7656794   8.1241125  54.0847015  66.9135046   8.3364320
  55.0514793  67.5895023   7.3880911  50.0016142  69.4392681  48.4729187
  50.1200152  68.6180043  47.9956965  49.3518783  69.2340946  49.1452126
  56.9127703  38.8279438  43.2504416  55.9988880  38.5439920  43.2709837
  56.9498634  39.5604515  43.8654900  49.4163847  21.2167454  13.6428213
  50.0286245  21.1903191  14.3781435  49.6826553  21.9844747  13.1369305
  36.3497925  14.9336302  39.2771220  35.6370473  14.3025017  39.1776061
  36.2667966  15.2486932  40.1771641  65.1329660  37.0332289  40.8124971
  66.0148764  37.2471833  40.5080414  64.6114445  36.9725084  40.0121450
  51.3867319  10.9800736  48.3565132  50.9346760  11.0085693  47.5132660
  50.6860912  11.0392920  49.0059964  17.2782183  17.8003812  13.0874002
  17.5910616  17.1432209  13.7090933  16.4431715  18.0953395  13.4506226
  25.3262949  46.7741776  13.2127678  25.3218889  47.7161741  13.0428898
  25.4336119  46.3755608  12.3491597  38.9617682   4.1983861  44.4348907
  38.8955426   3.7787950  45.2926731  39.6794200   3.7393188  43.9984703
  11.6816950  47.6864338  34.8650718  11.5096807  48.4777975  34.3547916
  12.6181841  47.7254772  35.0592160  42.5030947  69.5996571   9.2376280
  42.1279192  70.1150227   9.9516815  42.0809412  68.7438440   9.3124306
  74.6496630  46.3604546  13.3825421  74.2933083  47.2201681  13.6064529
  75.0108719  46.0293484  14.2048109  24.6248794  69.3360186  50.3956127
  23.8522601  68.7875652  50.5315828  24.3319845  70.2207661  50.6139421
  36.1517119  64.3877792  25.3991795  37.0856237  64.1785288  25.3832269
  35.7272673  63.5694122  25.6567717  48.1823778  51.2418509  58.5882473
  49.1003561  51.3374281  58.3344412  48.0951118  50.3194284  58.8285589
  71.4049339  33.6272764   0.0032928  70.9597015  33.9326787   0.7936914
  70.8864784  33.9854765  -0.7172143  44.9409103  61.3004923  15.1368380
  44.1494036  61.8386698  15.1476693  45.2975941  61.4168024  14.2562246
  31.2930012  27.2155142   7.1047992  31.1910748  28.1665754   7.0683533
  30.3971243  26.8784142   7.1039516  35.0259506  12.8842107   7.5920922
  35.6849491  12.1903554   7.6149559  34.2268955  12.4460641   7.2992361
  60.5025244  36.3410401  41.0105515  61.2062788  36.4264560  41.6537189
  60.4693460  37.1938539  40.5771446  54.9156380  54.8601675  21.1253285
  54.0106869  55.1490021  21.2430787  55.0741911  54.2646170  21.8577290
   2.1207535  10.9756032  27.8300929   2.6748335  10.3893129  27.3148370
   1.9745266  11.7300168  27.2593808  42.4410391  51.2382603  28.5712004
  42.6878881  51.4017391  27.6609421  42.3569727  50.2865314  28.6293387
  46.9196690  70.3733667   7.0480466  47.1664417  70.0818119   6.1703610
  46.2743366  69.7301886   7.3414689  56.2790930  13.7541334  45.5744028
  56.6107571  14.6473447  45.4827547  55.7839810  13.7653486  46.3935280
  11.1039305  41.7676020  44.4983768  11.8511820  42.0957375  43.9981985
  10.6128836  41.2343311  43.8732910  50.6606674  58.8161755  23.8648129
  50.1524925  58.4370947  24.5819521  51.5476990  58.4815216  23.9967918
   6.9005918  45.4209423  56.2736225   7.1637011  44.6228886  56.7319965
   6.3266993  45.1154852  55.5710697  36.7929935  54.9896669  28.1116939
  36.7218232  54.0827036  27.8140664  35.9867954  55.4058313  27.8065920
  49.5687389  48.1145334   0.9220689  50.2289820  48.4202051   1.5440618
  49.2004156  47.3306751   1.3296697   5.4797888   9.1729349  48.3747244
   5.8516836   8.4237385  47.9092932   4.6425199   8.8540232  48.7116385
  59.2504215  58.5858774  43.3315039  58.9403963  57.6810646  43.2936239
  58.4994793  59.1083479  43.0498219  57.7540493  49.5216751  57.1165752
  57.8156853  49.0130568  56.3080359  57.7835226  50.4340076  56.8284607
   9.4534159  66.6352129  10.2325714  10.3902674  66.7735767  10.0933385
   9.0321112  67.3487616   9.7534227  10.2274334   0.6029598  61.6501904
   9.5393574   0.1003925  61.2140560  10.6857836   1.0494129  60.9382725
  10.1658869  43.4880877  46.6228199   9.2813158  43.6888504  46.3171005
  10.3659105  42.6363134  46.2346172  44.6817720  30.7926479  54.1246502
  45.1237619  31.5885702  54.4202570  45.1503265  30.0818792  54.5622520
   9.8549700  54.3042660   7.2532916   9.3904638  53.5353279   7.5837421
   9.3263102  54.6039581   6.5137440  10.9367014  31.0418725  49.6496955
  11.5124632  31.8047046  49.7028116  10.7299782  30.9622013  48.7184874
   2.1910751  60.9020630  60.1902109   1.5281284  61.2712017  59.6067218
   2.1044147  59.9549118  60.0823841  31.9660389   7.3616878   7.7238339
  32.3181164   8.1250135   8.1816679  31.0922443   7.6330368   7.4426132
   9.4884729  47.3719406  26.3779879   9.0751982  46.5089607  26.4045548
   9.0247965  47.8382349  25.6824255  53.8860130  16.0399795   5.6443822
  54.4388199  15.3379774   5.9876460  54.5040178  16.7066646   5.3446609
  31.3471842  16.1280692   0.2412755  31.8335199  15.7102084  -0.4694299
  30.8328295  15.4196787   0.6283844  75.2523624  11.5794317  20.3916740
  76.0551655  11.8446294  20.8404684  74.9804508  10.7788030  20.8403277
  61.9626427  61.0605335  27.1243000  62.2742414  60.1736403  26.9438529
  61.7353916  61.4141560  26.2643337   2.6073074  56.0721159  14.6691501
   3.4369135  55.6004047  14.7431695   2.8465033  56.9201231  14.2951155
  72.2445726  45.4447079  12.3807037  73.0043602  45.9530067  12.6645827
  72.4625874  44.5408201  12.6080537  14.8201740   2.7691237  57.5041092
  14.7073234   3.7086454  57.6483289  14.6398533   2.6465169  56.5720771
  26.8953074  67.5862741  22.1952462  27.4064243  68.2425281  22.6688743
  26.0918701  68.0428075  21.9456553   0.1340782   6.7618839  12.3738158
   0.0848114   6.9597188  13.3090520  -0.0567282   7.5947944  11.9424415
  74.5967400  13.5983888  30.1928473  74.3724787  12.7360956  30.5426931
  75.5531036  13.6269418  30.2209687   6.9411993  43.7892675  15.3737855
   6.5525293  43.7436390  14.5002401   6.9697618  44.7247171  15.5746663
  12.3588192  16.5264074  31.4948177  11.7416489  15.9731904  31.0159731
  11.8730413  17.3327676  31.6681075  67.5039053  67.2285223  42.2937918
  67.7479744  66.6220808  42.9929972  67.1165657  67.9759455  42.7493763
   2.4491108  36.8392626  43.5344569   1.8352116  36.3943115  44.1187362
   2.4457062  36.3110176  42.7362207  18.0438089  38.8188338   6.0420144
  18.1801271  38.9123988   5.0992018  17.9107428  37.8799915   6.1727703
  24.3174135   6.8145982  33.3157754  24.4574606   7.4317829  32.5976562
  23.8970863   6.0595457  32.9041243  35.1379156  64.5633507  19.1060138
  36.0038996  64.2362976  19.3496048  35.2660990  64.9630165  18.2457411
  19.8706161  19.1994230  30.6079674  20.5529749  19.7867624  30.9329963
  20.3496706  18.4834234  30.1907301  62.0575190  29.8779273   8.1966716
  61.3857794  29.1976690   8.1492770  61.6014624  30.6824923   7.9498565
  50.5830622  41.3195038  14.7990167  49.9945211  41.6982794  14.1460371
  51.2906837  41.9585991  14.8830473  48.4879208  55.6823158   4.0953839
  48.3112717  55.5225611   5.0224793  47.6848984  56.0846043   3.7644064
  48.3781074  53.5335374   9.4473096  47.7949737  53.1440092   8.7958070
  48.0335449  54.4167257   9.5795604  42.4114656  57.8590727  31.3246155
  41.8260288  58.1452084  32.0257711  42.4954319  58.6241388  30.7555342
  53.9423752  50.1460123  26.9723225  53.7470722  50.7389498  27.6979351
  54.1920424  49.3242979  27.3950315  68.8842869  27.5317693  40.4607725
  67.9690504  27.6281404  40.7240057  69.3314886  28.2701039  40.8744144
   6.5185404  55.9612322  30.1251817   6.5858889  55.3015995  29.4348335
   5.6645918  56.3698339  29.9835443  18.6898493  21.0632730   2.6499339
  17.8888344  20.7134080   2.2598000  19.3585609  20.4073835   2.4527808
  53.6575508  49.3529701   6.2219715  53.5329676  50.2741909   5.9937930
  53.7716436  48.9111233   5.3805536  62.2935915  36.4334989   1.5330504
  62.5229311  35.8213568   0.8338248  62.7262354  36.0815263   2.3109722
  23.9383470   2.0740119  41.6762686  23.5209763   1.8370286  42.5044394
  23.2819616   2.5997201  41.2190771   6.7520189  58.5174465  37.7584219
   7.2993803  57.9900122  38.3401752   6.1738348  59.0019703  38.3476305
  63.1234789  51.2465572  10.6992328  63.8611364  51.2287807  10.0895011
  62.4064398  51.6329956  10.1964843  70.0305283   2.1308748  14.0817595
  69.3891298   2.8130619  13.8831210  70.8152782   2.6100914  14.3477571
  57.8973341  33.5525942  25.2600384  58.8212776  33.3094001  25.3185391
  57.4312449  32.8225565  25.6675148  33.7738918  12.2711635  17.0064183
  34.1346096  11.5299487  17.4929543  32.9753326  12.5030399  17.4805089
  73.4925032  37.8035164  42.0947409  73.7273407  38.6107397  42.5524282
  73.9236259  37.1105194  42.5948620  41.1316978   4.9685136  14.0917373
  41.2741768   4.0364734  14.2567742  41.1839592   5.3755990  14.9564803
  21.5291203  33.1863514  52.6412676  21.5302551  32.2773138  52.9410777
  22.2680319  33.2395617  52.0351259  21.5500784  63.9972448  46.5156603
  20.8973932  63.9292383  45.8188009  21.4109468  63.2161665  47.0511866
  69.8089886  13.1816840  43.8639641  70.3837442  12.4295962  44.0062761
  69.1113138  13.0757165  44.5106888  25.0989389  68.0402184  29.1321826
  24.4459677  67.6802206  29.7324061  25.0366735  68.9879799  29.2509270
  60.4289890  68.3751559  41.6580109  59.6436263  68.8076591  41.9932357
  61.1519648  68.9277887  41.9548873  27.0626140  67.1899796  27.3031902
  26.1271906  67.0778847  27.4724436  27.3407936  67.8587294  27.9289913
   2.9045034  68.3930230  54.2988561   2.0301605  68.6423778  54.5981590
   3.1958271  69.1335821  53.7669400  47.3222935  10.1011125  17.0601487
  47.2296631  10.9042493  16.5476811  46.4307415   9.8893301  17.3367703
  15.2269983  22.0261240  17.6401389  14.9999189  21.8589139  18.5548580
  14.6972990  22.7853584  17.3967969  12.6040279   1.6070692   7.6333988
  13.5265886   1.3961784   7.7770567  12.2308886   0.8081428   7.2609538
  49.7172964  48.3575932  54.4201515  50.3280342  48.8350025  54.9816797
  49.9363792  48.6411205  53.5325418  30.1286018  65.3445831  37.3874668
  29.9268616  64.4328419  37.5978545  30.2434958  65.3513447  36.4372114
  64.3950129  63.9293909   7.3522156  64.7093678  64.2862082   6.5214956
  64.8150826  64.4714689   8.0199903  48.4395016  18.0251185  50.5835656
  49.1410196  18.3402077  50.0136367  48.8909185  17.7055660  51.3648085
  69.3538952  64.8626614  12.1629179  70.2831554  64.6351910  12.1939611
  68.9129972  64.0402603  11.9496107  50.5743742  40.3575563  20.0833774
  51.4690828  40.3250790  20.4220009  50.1625156  39.5609760  20.4181457
  18.7712431  39.5560074  12.9469526  19.3288946  38.9230537  13.3993077
  19.3591928  40.2783251  12.7260244  52.7300692  47.1407413  14.1453326
  53.0075979  46.4622355  14.7608304  53.1392860  46.8937206  13.3160233
  66.2269794   6.1094610  40.4407358  66.8680202   6.7197505  40.8052158
  66.6776859   5.2650444  40.4329300  46.7505169  30.1958919  34.2606187
  47.2318077  30.8245850  33.7227249  47.3566914  29.4637394  34.3734837
  65.9894918  17.9192329   0.4732724  65.5751871  18.4256196   1.1719581
  65.3911852  17.1878600   0.3204413  46.0383141  16.1970560  46.9577408
  45.2822506  16.1344377  46.3740587  45.6794464  16.5321199  47.7794313
   3.1247854  48.6995459   7.4920756   3.6258268  49.1372347   6.8038750
   2.9241419  49.3932819   8.1203336  63.3157385   6.7329756  60.0213073
  64.0382040   6.3481394  60.5174764  63.7394274   7.3337093  59.4082541
  15.6838476  31.2459032  28.0847335  15.8760464  32.1569196  28.3068657
  16.4518272  30.7592432  28.3840585  44.7416735  67.3896599  42.5332355
  44.7365570  66.7974997  41.7812014  44.9745941  66.8320560  43.2755661
  55.8612048  16.7916147  43.3233356  55.7759892  17.2629682  44.1520691
  56.7864286  16.5502874  43.2790899  26.8231796  36.3778711   2.6435300
  26.4077877  36.2974620   1.7849179  26.3824676  37.1218133   3.0540820
  20.8055269   8.1704942  22.4904466  19.9530708   7.8475372  22.1984601
  20.9400045   8.9763395  21.9916916  44.8341465  39.5238614  17.7809966
  44.6225643  39.9737620  16.9630396  44.6652031  40.1742220  18.4626997
  35.1981247   4.0540305  46.8679146  35.5140865   4.5056501  46.0853294
  35.8849085   4.1951147  47.5195698  44.0057993  69.8987341  35.4670262
  44.6000957  69.4467831  34.8680401  44.5474672  70.1107979  36.2271953
  74.1773617  13.4164468   8.8419002  73.4643471  12.8445665   9.1261464
  73.8420164  14.3027154   8.9772290  72.3647690  32.0066786  30.7196784
  72.2575331  32.6928782  31.3783622  71.8757820  32.3246765  29.9607301
  39.2737495  12.3931447  14.6935415  39.8554527  12.4969236  13.9404917
  39.5672237  13.0581705  15.3163230  68.8117647  66.9306517  31.3016129
  69.0803194  67.6763439  31.8383193  68.8981152  67.2408867  30.4002070
  50.8882999  66.2238407  25.6103659  51.3473940  66.7446375  24.9514008
  51.3215876  65.3706741  25.5858588   1.0699034  15.2891743  45.3222275
   0.5353975  15.6632078  44.6217728   0.6766129  15.6236529  46.1282539
  12.9727125  69.5814896  40.5576420  12.1573877  69.1441393  40.8030224
  13.2850504  69.9793577  41.3702774  27.7669166  20.5133367   0.4636737
  27.9511761  19.7099948  -0.0230769  28.5545992  20.6624914   0.9866877
  70.4650068  48.8289833  37.4216437  69.6643162  48.4155560  37.0988441
  70.6745434  49.4916296  36.7634416  24.9135935  33.0938474   0.7524163
  24.5045959  33.7946741   0.2446737  24.4711983  33.1231443   1.6007447
   6.5266561  35.1384926  58.3109760   6.1140394  35.4678655  59.1094017
   6.8024111  35.9257936  57.8415585  53.7227345  44.8692465  22.7137542
  54.0873098  44.1639853  23.2484746  53.7701368  45.6437588  23.2742143
   8.3354341   5.9933130  44.6878624   8.3893597   5.6064073  45.5617189
   8.5446321   5.2727214  44.0935469   1.6078293  22.8744642  41.3076830
   0.7322180  23.1357233  41.5927839   1.9615614  22.3775045  42.0453405
   3.8156282  18.1416456  42.4309635   2.9167520  18.2100240  42.7527905
   3.7672102  17.5038187  41.7188740  18.5764515   1.1379472  35.8471036
  17.6324045   1.1188356  36.0040903  18.6639320   1.0317365  34.8998451
  50.5844021  56.5168095  57.0714140  50.0076914  56.3637733  56.3229370
  51.4559269  56.6109276  56.6869450  20.9700310  24.1558877   3.8848862
  21.6408503  24.7842161   3.6176080  21.4033329  23.3042661   3.8281405
   7.1481253  40.5244639  49.1141121   6.2879492  40.8626341  48.8651816
   7.0337606  39.5744657  49.1397218  69.7849762   3.5039846  33.3504057
  69.6247017   2.6278631  32.9997563  70.5854094   3.7942735  32.9130673
  50.3398371  47.1837854  19.4203699  50.6790209  46.2895060  19.4584465
  49.9162865  47.3156214  20.2685785  68.2781244  49.2683971  48.5790817
  68.1834484  49.5786476  49.4796435  68.6382938  48.3858549  48.6664132
  46.6771448   4.9336973  51.8980823  46.4845312   4.3446795  51.1685697
  45.9786451   5.5875126  51.8688706  34.3897486  13.0906475  34.5027637
  34.3572211  12.4636769  35.2253175  34.4094443  12.5473535  33.7149334
  23.2605886  44.0910721   9.7932023  22.5778532  43.5328293   9.4210893
  23.0732894  44.9628496   9.4451231  20.4337395  34.3601528  56.1414889
  21.1669004  34.4516102  55.5329339  19.8111761  33.7955776  55.6833337
  68.9544868  39.5000219  13.2825840  69.1748476  38.8510180  12.6144016
  69.5198441  40.2471161  13.0864954  12.2456217  60.7076502   9.7048527
  12.2210360  60.8837557  10.6453931  12.4880934  59.7839212   9.6403909
  16.6497564  54.3245697  12.5675440  16.0878038  55.0724459  12.7703297
  16.0616922  53.6851215  12.1656489  24.9290991  21.7538810   2.6152766
  25.2670145  22.2207832   1.8510491  24.9595308  20.8305788   2.3646364
  50.8964825  70.4302788  30.1970339  51.5062428  69.9867725  30.7867193
  50.8407927  71.3231850  30.5373979  47.4920761   7.7365343  24.6642661
  47.2629177   8.5819189  24.2781925  47.1311008   7.0903245  24.0573573
  27.0190203   3.0420152   6.9156599  26.9520533   2.4886648   6.1374861
  27.5285589   3.7994710   6.6278058  28.0486452   8.9221994  31.6675186
  27.8432428   8.8242952  30.7377577  27.2360098   9.2412321  32.0600343
  39.3222547  15.0644088  23.0118418  39.4139051  15.9986007  22.8244448
  39.9271894  14.9049783  23.7363195  74.5208836  14.4887090  22.7560735
  75.3577948  14.0294123  22.6863885  74.2620993  14.6538806  21.8494391
  70.4296314   5.5742065  38.5324073  71.0119831   5.2512161  39.2199945
  70.4017651   4.8654596  37.8896499  69.3768644  69.6153450  13.0782580
  70.1106453  70.2293015  13.1074965  68.6135054  70.1430988  13.3127558
  43.7596893  42.4351978  31.4491153  43.9041233  43.2632637  30.9912109
  43.2656384  41.9007301  30.8274341  68.8059998  47.5335836  12.7001405
  69.0502071  47.0293999  11.9239986  69.3026161  47.1316147  13.4129000
   4.6598577  32.5870180   6.3523316   3.7679625  32.5737977   6.6995800
   4.5944738  33.0947065   5.5435002  19.5666075  38.7879729  25.9903169
  19.5165300  39.5680165  25.4378152  18.7336016  38.7744284  26.4616466
  63.2297230  55.5085611  37.7093196  62.4000025  55.3360796  37.2642994
  63.1178045  56.3766861  38.0966926  22.9888964  53.1964588  13.2475996
  23.3895349  52.3410416  13.0927312  22.2364569  53.0103779  13.8092422
  66.2475634  59.3014860  52.4279547  66.1114979  59.2144156  53.3714247
  65.3717184  59.4526339  52.0725918  14.6696806  34.2864537  21.6471744
  15.4672575  34.8156238  21.6381025  14.5999289  33.9738059  22.5491834
  72.4914385  45.7236015  54.4066075  72.4727512  46.2851536  55.1815538
  73.3030535  45.9611654  53.9581893  44.6491026  25.4567886   8.9797278
  44.1760086  25.9269882   8.2932015  44.0204119  24.8129106   9.3059178
  75.2526796  14.1388002  55.2037779  76.0934294  14.4922939  54.9132279
  75.3205908  14.1132275  56.1582235  60.7306099  20.5601025   0.8461993
  60.4736948  21.3396072   0.3536573  59.9186516  20.0639200   0.9499209
  59.1001368  55.2341127  29.6680236  58.7011194  54.5707226  29.1050577
  58.4065437  55.4761028  30.2817011   8.6349916  70.8955050  41.4865637
   7.7437639  70.6944275  41.2010813   8.9570475  71.5246725  40.8410692
  24.7743141  17.4497644  14.2319429  25.1718437  16.5837327  14.1414773
  25.5177271  18.0472986  14.3126678  75.9179985   2.0943729  41.1748362
  75.0938999   1.8374912  40.7611895  76.3643133   2.6217882  40.5123663
  35.1119208  71.1132622   1.9343713  36.0665417  71.0897017   1.8682089
  34.8882103  72.0393467   1.8419078  73.2202816  43.3264685  25.2249789
  72.9195356  42.7766180  25.9484768  72.4212122  43.7215137  24.8761725
  43.6192263  15.5940739  61.0357707  44.3393744  15.2820459  60.4878120
  43.2998646  14.8093668  61.4812763  55.7714510  52.2621489  42.0065832
  56.1156797  52.9715443  42.5492573  54.8735046  52.5271273  41.8073177
  27.0704281  26.2856142   9.3333185  26.7124426  25.7150117   8.6532545
  27.2776997  25.6946222  10.0571978  32.5970852   5.1043598  31.0865259
  32.5565731   5.0740139  32.0423865  32.1358406   5.9098474  30.8526993
   2.2131311  10.9813253  21.6024518   2.1514379  10.7711545  22.5342536
   3.0639278  10.6341402  21.3344312  11.4824915  41.8062401  35.6393242
  12.1570539  42.2672415  35.1406479  10.8921576  42.4973822  35.9394264
  51.1185395   9.1279260   9.2542052  51.7679178   9.1933004   9.9543947
  51.1459720   8.2091562   8.9871198   2.3389160  15.3363935  38.1051898
   1.7869484  14.5812837  38.3086205   1.8279325  15.8435861  37.4744129
  51.7566586  52.1920300  35.3584194  51.7574215  52.0192957  36.2999034
  51.3129997  51.4347935  34.9763346  21.4493157  61.1073660  46.5159313
  21.8232704  60.6973672  45.7360009  20.5729605  60.7292485  46.5884677
  10.6971025  36.1364865   4.0490007  10.3177881  37.0151520   4.0315711
  10.3773832  35.7537532   4.8660237   4.6974516  26.2580276  33.2750392
   4.0827417  26.9818521  33.3952022   4.2761660  25.5125093  33.7027764
  41.3569880   6.0376960   4.5282277  42.0176649   6.5939265   4.9409571
  41.6330624   5.1446557   4.7343725  14.6743274   8.9744818  31.5657949
  15.1355040   9.4665527  30.8865213  15.3566360   8.7347114  32.1928501
   5.6816269  67.7180028  55.0419573   4.7461868  67.5173759  55.0114296
   5.8134342  68.3532500  54.3381671  68.7029684  70.9911041  48.3210278
  69.3518341  70.3832333  48.6755657  69.0451789  71.8588443  48.5358524
   7.8327764  29.9828061  18.6640227   8.6128700  30.3770026  19.0542674
   7.1142209  30.2609643  19.2319500  19.4091690  60.0242373  12.3158336
  20.2575577  59.9023160  11.8896866  19.5793617  59.8520549  13.2419109
  18.2027031  32.4417874  55.9743951  18.6017586  31.7099020  56.4448527
  17.7061678  32.0297956  55.2673242  21.7682815  41.3278627  26.6025615
  21.6148210  41.1312532  27.5266957  21.0173106  41.8618011  26.3433695
  26.6234970   3.9787787  34.2259717  25.7653141   3.6710039  33.9343739
  26.6422701   3.7836608  35.1628852  22.0806063  46.4178237   8.7597710
  22.5865925  47.2301706   8.7771463  21.4600456  46.5375098   8.0408746
  16.9816816  51.0363062   9.9679106  16.6427744  50.3839143   9.3549204
  17.4509085  50.5247243  10.6269550  26.6406131  19.3708968   6.5498984
  25.9743905  18.6983192   6.6913873  26.9682145  19.2014444   5.6666112
  66.6316057  56.4787984  61.5319088  65.8598925  56.8343639  61.9726615
  66.5685392  55.5329120  61.6643972  49.5687532  18.1672907   1.6528465
  50.5228424  18.2155550   1.7129681  49.3910313  17.2662055   1.3832307
  38.4618461  38.6739984  17.7272769  38.6713659  38.0422097  18.4151574
  37.5052320  38.7043976  17.7132817  56.4249516   6.9610286  15.3484559
  56.8785620   7.6149666  14.8166347  56.9909334   6.8375540  16.1104608
   6.8680656  60.8367725  22.1073079   6.5818465  61.7449041  22.0092988
   7.4220098  60.8431526  22.8879070  61.9395733  12.6724231   7.4279505
  61.4372921  12.1961510   6.7668045  61.8198538  13.5946655   7.2013056
  69.8753357  63.7576103  19.7714889  70.4094553  63.5415125  20.5358529
  69.8548698  64.7144699  19.7563744  48.3050001  62.1336260  21.4159703
  47.3700512  62.3237481  21.4931631  48.3787907  61.6162463  20.6140327
  73.7370909  66.5897836  48.5490942  74.4484103  67.2288226  48.5925102
  73.6909068  66.3452282  47.6248169  57.6580049  41.4174527  44.0334741
  57.5404621  42.3616218  43.9287857  58.1850530  41.3282930  44.8275165
  43.4655428  12.6532459   7.0145708  44.3699217  12.8077543   6.7416912
  42.9601860  12.6934826   6.2026447  24.4240236  14.9083483  27.2846532
  23.9194703  14.1294217  27.5190282  24.8197031  14.6923018  26.4402628
  51.4700174   2.4436320  15.8578086  51.8605804   1.6573751  15.4763746
  51.7746878   2.4463505  16.7652214  29.0672016  22.9341078   2.2941175
  29.7294426  22.6472354   2.9229027  28.2598639  22.9900050   2.8053054
  34.1620804  26.4359760  58.7310163  34.8057247  27.1280813  58.8824854
  34.3539024  26.1195325  57.8482367  37.7932346  64.9950715  32.5855732
  38.3260572  64.8980018  31.7963266  36.9392193  65.2839764  32.2639751
  52.4928213  45.4358351  59.8678485  52.3656846  46.1821341  59.2820946
  52.5103594  44.6754706  59.2866693  24.1993713   9.5787901  22.6743364
  23.2983518   9.2632854  22.6046658  24.6853495   9.0589458  22.0341659
  75.7421900  66.7715501  60.3903454  75.0601984  67.4373579  60.3019213
  75.2625729  65.9514069  60.5068048  40.9567785   5.7944816  24.5468879
  40.7960463   5.4750991  25.4348016  41.7468548   6.3293195  24.6240902
  45.5295324  37.2071242   6.3523155  44.6753502  37.6386690   6.3714570
  46.0415506  37.6596093   7.0226336  29.0306425  17.0086718  44.6389675
  29.6712327  16.8022406  45.3196049  29.5558333  17.1548522  43.8521814
  14.7463751  32.0542979  19.6928382  15.0033236  32.8050470  20.2281761
  14.5319509  32.4308991  18.8393593  37.1164072  52.6914986  20.0710082
  37.8091562  53.3505233  20.1159191  37.0929516  52.4310287  19.1502273
  15.0779665  51.6844233  16.6543067  15.2522743  50.8780297  17.1396708
  15.7367027  52.3021408  16.9716787  26.7441273  18.0618584  20.2582622
  26.1823010  18.7494612  20.6157327  26.3250804  17.2450852  20.5293989
  74.5887089  21.0789990   6.5266335  74.9890614  20.4400706   7.1163130
  75.0737333  21.8887043   6.6858792   7.2089034  22.2833610  28.2640338
   7.1171641  23.2359529  28.2836747   7.9367572  22.1005344  28.8582015
  25.0346411  55.9180280  32.3567128  25.0919521  55.0573417  32.7716398
  24.3219269  56.3595899  32.8185534   3.5930098  69.4462322  56.7739201
   2.8458322  69.4190048  57.3715973   3.2525409  69.1002343  55.9489393
  44.2935753   0.2872195  18.0113554  44.3411016  -0.5475475  18.4773350
  44.9254322   0.8486137  18.4606075  45.0602806  59.7556158  12.0579231
  44.3543566  59.7456678  11.4115465  45.7288540  59.1769382  11.6913521
  64.0034926  71.1039848  13.2187390  64.6119667  71.4915929  12.5896513
  64.5523274  70.8612167  13.9644432  63.7427808  50.4551220  47.2837726
  63.7212754  50.6042993  48.2290320  64.6689345  50.5228018  47.0516244
  64.5503689  51.1894917  49.7039572  64.8587013  50.2845037  49.7504202
  65.2396442  51.6995048  50.1294164  68.2263304  62.7420902  41.0009650
  68.9484573  63.3653950  40.9218721  67.9980970  62.5240254  40.0973133
  43.2472849  67.0567369  17.5215411  43.8812399  67.7721119  17.4708593
  42.5505781  67.3935843  18.0848956  10.8217371   3.4553662  25.3390173
  10.7895983   3.0781976  26.2181882  10.9016264   4.3979088  25.4855231
  11.6000712  65.0492235  45.3352451  10.8814014  65.3963479  45.8636856
  11.5009463  65.4777595  44.4850922  17.8548945  59.9611386  20.6811833
  18.2294596  60.0627490  19.8061931  17.2197426  59.2510088  20.5888391
  59.4971800  15.5438983  32.2591281  59.3899965  14.7444355  31.7437625
  58.6574602  15.9960091  32.1772814  17.2575939  38.8211592   0.1140423
  16.3208569  38.7153729   0.2800542  17.5654352  37.9386147  -0.0923139
  28.4556782  44.2549255   7.2224017  28.0551683  44.6354880   6.4407369
  27.7196943  43.8957509   7.7179357  64.6127892  21.1871457  10.2316225
  63.7374687  20.9242749  10.5161357  64.5707846  21.1644387   9.2756146
  39.7631872  54.5605370  45.4944992  39.6439541  55.3858503  45.9644699
  38.8919151  54.3470510  45.1605272  12.5223995  36.5971703  51.6525296
  12.0578075  37.3923161  51.9135425  12.2565342  35.9417802  52.2975186
  37.5193394  67.2641577   7.3027813  37.6949299  66.5433993   6.6978788
  38.3578146  67.4225034   7.7365035  16.2375952  10.5110311  56.1256800
  16.4293362  10.0137567  55.3305791  16.0114552   9.8456883  56.7756096
  17.8447950  63.3906176  13.2109344  17.3121441  62.7196928  12.7838814
  18.6483324  63.4247645  12.6919031  29.6113003  71.1055497  58.5615778
  30.2674902  70.4304052  58.3888912  29.0307081  71.0753249  57.8011608
  66.6819382   1.2008706  55.6905321  65.8197630   0.9826532  55.3366003
  66.8514562   2.0894161  55.3775076  11.3760055  46.5285262   8.9936763
  11.0152066  46.2048133   9.8190653  10.7267297  47.1574076   8.6787438
   0.7705677   2.5081674  27.8843025   0.3469098   3.0018369  27.1821384
   1.2310541   1.7995707  27.4347786  64.2426683  49.3626797  59.2826191
  63.9379836  49.8306691  58.5051976  63.7482477  48.5430705  59.2779053
   7.8794527  32.9162598  29.3814635   7.6067591  32.8174853  30.2936673
   8.7140894  33.3823490  29.4301081  28.0830133  59.8936292  10.4021680
  28.9275921  59.5743605  10.7199454  27.4514282  59.5898624  11.0541332
   4.8532093  30.2897080  13.7443531   4.7146738  30.1353653  14.6788144
   5.3742540  31.0918768  13.7087500  31.9027555  51.4360031   9.9854475
  32.7603853  51.8141719  10.1796019  32.0939482  50.6838139   9.4251895
  13.8002241  36.6022070  20.4222751  13.0635274  36.2112554  19.9525225
  14.1933668  35.8725174  20.9010506  25.9467304  46.4816388  10.5009484
  25.7073200  47.0527037   9.7710162  26.8910444  46.6027769  10.6000829
  49.2134523  21.4532423  28.6423993  49.5585108  20.9220767  29.3600535
  48.9630651  20.8170605  27.9724669  43.2533884  18.9862394  18.9372921
  43.6388540  19.7936130  18.5970092  42.7731133  18.6188436  18.1952763
  18.6235512  57.2924896   8.8446963  18.0942619  58.0666753   8.6530727
  18.5745228  57.1983000   9.7959888  22.2634924  68.7722789  42.2980833
  21.4823998  68.3526736  42.6587200  22.9580820  68.1235891  42.4120045
  11.1806620  55.2248343  23.1752777  10.4183543  55.8017131  23.1270266
  11.5158713  55.1954230  22.2791719  32.4117220  61.2471839  36.3498044
  33.2941521  61.2307163  36.7203236  31.9311369  60.5846926  36.8461680
  59.6997118  10.1186645  19.1412139  60.5138540  10.4861808  18.7972128
  59.8183107  10.1211715  20.0910354  37.6366735  17.5838423   0.5319724
  37.2872663  17.4395776   1.4113665  37.1851087  16.9400334  -0.0137671
  28.6048115  70.8089599   6.7539120  28.6882437  71.5710227   6.1807358
  28.6831129  70.0575011   6.1661959  37.5111413   2.4854989  26.5442777
  38.1582808   2.2649990  25.8743358  37.6740217   1.8595114  27.2498560
  37.7406633  68.2757270  38.6910844  38.6666525  68.2483455  38.4502101
  37.2755993  68.0831220  37.8769255  66.8859529  24.0265203   1.6295861
  67.0808458  23.6785555   0.7594311  66.2981415  23.3797836   2.0200250
  57.1448803   1.2221201  12.9345548  56.2879610   0.9197240  12.6337576
  57.6470613   0.4191379  13.0733597  74.0026379  10.0590456   9.4529831
  73.6096096  10.8427250   9.8371804  73.2657290   9.4633555   9.3174952
  57.5945473  18.5917151  24.9938536  56.6484976  18.5142553  25.1172090
  57.9722786  18.1367671  25.7465649  29.1904688   0.8863431  38.6494160
  29.0124440  -0.0540937  38.6385751  28.4868455   1.2571806  39.1819811
  66.3740826  38.0395985  16.4297378  67.2722769  38.3403206  16.2917340
  65.9409618  38.1848669  15.5885875  70.4669285  13.3797216  31.7718625
  69.5436049  13.3355856  32.0203686  70.5154848  14.1143894  31.1601949
  26.8516148  47.5178226  34.1470027  26.6933191  48.4295758  34.3917131
  27.3572481  47.5718149  33.3360457   6.5774667  27.1569729  31.3434529
   7.2264618  26.4638448  31.2225795   6.0654473  26.8760633  32.1018457
  29.4901586  17.0553339  40.6492376  28.6334085  16.9937396  41.0716343
  30.1173353  16.9066930  41.3569021  41.9735886  63.8881278  58.8861776
  41.5446831  64.5392298  59.4414658  42.4155880  63.3027243  59.5011261
  43.2906246  44.0255260   3.2151175  43.8555670  44.2272758   3.9610177
  43.8653469  43.5793304   2.5931513   1.3533856  58.6671447  58.9348854
   1.5750147  57.7427315  58.8227586   0.4664923  58.6588525  59.2948608
  17.1180464  60.8576631  31.4639453  17.8770615  60.7736659  32.0410661
  17.4346901  60.5684971  30.6081680   2.5424814  37.4712038   0.9581268
   2.8496695  38.3619332   1.1268450   1.7242336  37.4028277   1.4500868
  27.2685838  31.8905282  25.9950805  26.6174579  32.5877190  25.9164023
  27.0469522  31.2757754  25.2956581  19.4314182  50.7084449  20.3613186
  19.1777266  49.8796638  19.9551213  19.0677822  50.6629833  21.2455893
   5.7484413  55.8365297  59.4996531   5.5178476  56.6115284  60.0119388
   6.1408211  56.1862540  58.6996780  55.9326220   7.6884979  19.8960829
  56.4966249   7.4722213  19.1535473  56.2743187   8.5211766  20.2218437
  39.2299223  29.3605161   0.7769746  39.6536684  29.8249507   1.4987576
  38.3463907  29.1769195   1.0961859  44.8993731   4.2867973  22.8987336
  45.6450748   4.8788053  22.9971528  45.2894497   3.4504411  22.6446056
   2.0568466   1.4357372  50.4190159   1.5947437   2.1363439  49.9587536
   2.8773117   1.8374407  50.7048464  38.5710741  60.3055843  15.2269590
  38.2187129  61.1778005  15.4039156  38.9980674  60.0493833  16.0444355
  14.4930828  66.9451552  25.2396965  15.3280771  67.2943585  24.9281359
  14.1217196  66.4980539  24.4791555  30.3477097  16.8687248  16.0421932
  30.6398249  16.8170667  16.9522667  30.9031534  17.5425863  15.6502426
  52.6780654  51.9804036  31.2463645  52.2899486  51.1917579  30.8673696
  52.9185773  51.7247879  32.1368960  41.0421848   9.5607090  53.1698322
  40.3088617   9.0666246  53.5363722  40.6491232  10.0976729  52.4817848
  14.4746078  62.2684868   6.1988914  15.2470005  62.5422265   5.7042068
  13.7375272  62.6522031   5.7238084  58.2783413  26.5099859   4.9500811
  58.4505749  26.1565423   5.8228034  57.3691988  26.8071699   4.9871612
  71.7807139  65.0140276  57.8853559  72.3183764  64.2624970  58.1350565
  72.3769391  65.5844488  57.4002123  74.2275715  28.3940864  36.8084192
  73.5882282  27.7517390  36.5004253  74.8443174  27.8849435  37.3343754
  44.7836828   6.0938197  14.7846532  45.3382730   5.3137052  14.7935426
  44.8820162   6.4675868  15.6603599  42.2428751  41.2388802  18.0276740
  43.0142927  41.3425016  17.4705267  42.4739933  41.6853762  18.8422048
  48.5850693  54.3288290  38.2542447  47.7306796  54.4496584  38.6685542
  48.7953163  55.1862871  37.8843907  62.8660203  69.4034671  46.8578796
  61.9342304  69.1851353  46.8396548  63.3006002  68.5802388  47.0807413
  73.9355266  11.4307952   4.7197118  74.7574474  10.9419167   4.7606486
  74.1033050  12.2243810   5.2279478  27.3109663  66.4141925   6.6457349
  27.4371803  66.9377150   5.8543909  26.3981331  66.1295517   6.6015464
   4.1523731  48.1909522  26.6059303   4.5820988  48.2291778  25.7514668
   4.2654312  47.2840580  26.8905258  34.2336106  17.8584409  20.7112789
  34.9501252  18.4010661  20.3820395  34.1126871  17.1877742  20.0391054
  60.3470159  17.7001786  18.5995686  60.5182230  18.4763062  19.1329992
  60.4722381  16.9648647  19.1994560   3.7728775  70.1875310   3.3556113
   3.9283073  69.9614843   2.4385636   4.5411242  70.6988270   3.6097872
  33.9343954  38.0681038  57.8200952  33.8846768  38.9916595  57.5735102
  34.8656721  37.9118175  57.9767145  12.7902842  33.8938642  44.3676567
  12.7368402  34.6940303  44.8902559  13.5464144  34.0306306  43.7968731
  18.5450268   8.2870609  13.3360732  18.1027424   9.0553439  12.9750228
  19.1482270   8.0115205  12.6458120  42.9049541  56.8912816  61.5267091
  42.5250996  57.4808311  62.1781487  42.1800948  56.6889739  60.9352022
  24.7277332  48.5696590  44.0112249  24.0012146  49.1406035  44.2610673
  24.7110582  47.8639817  44.6577326  35.4377270  32.5550413  22.8244448
  35.6378984  33.4851909  22.7196336  34.4882345  32.5261641  22.9421735
  49.6997253  70.3989477  12.8767800  50.4767712  69.8433734  12.8153908
  49.0694869  69.9961307  12.2794783  37.6331949  15.0576425  35.9306669
  38.4728813  15.3031027  36.3191366  37.8274465  14.2747664  35.4152989
  45.6043041  48.6710342  25.6608891  45.1404799  48.9025577  26.4655590
  46.5249050  48.6269649  25.9193063  10.7143105  19.4684561  20.4716563
  10.6863845  20.1915749  21.0981917  10.1580942  18.7932690  20.8602190
  56.9439484  28.5343581  45.8822970  57.2320152  29.4107401  46.1376492
  57.7250625  27.9889494  45.9751705  52.3007381  60.3723236  46.2995672
  52.4838055  61.0273143  45.6259918  53.1548441  59.9892589  46.4995670
   2.9969085  38.3840116  25.4931784   2.8538025  39.3286427  25.5516863
   3.9490450  38.2857021  25.4908252  67.6408434   7.0474714  15.2541792
  67.5275421   7.3929220  14.3687081  67.2992420   7.7355355  15.8252382
  58.1887150  35.2403522   5.8421057  58.6436367  34.7712541   6.5415519
  58.4987354  34.8277354   5.0359631   8.4288228  50.9104975  34.0829968
   8.6759198  50.0342687  34.3786263   8.2336081  50.8030137  33.1520987
  72.5248695  18.8716340  39.8443870  73.2721401  18.7143051  40.4215101
  72.2301413  19.7541105  40.0693325  18.3658016  59.3590578  23.3087087
  19.2965925  59.1725393  23.4314871  18.2742060  59.5120653  22.3682690
  47.3069477  15.0274980  24.6392155  46.8912745  14.8341811  25.4794979
  46.9848967  14.3452501  24.0501046  43.6721516  14.9397755  11.3373685
  43.8616562  15.0572360  10.4064965  42.9455948  15.5381989  11.5112531
  54.2023350  31.6924813  58.8992376  54.2617680  32.2467857  59.6773414
  55.0989605  31.6491711  58.5669578  61.0545778  25.6366181  25.2772927
  60.9827471  25.2654219  24.3979263  61.3705158  26.5289807  25.1355171
  71.1729002  15.3493559  38.2561660  71.9061708  15.7710898  37.8081799
  71.1127710  15.8032227  39.0967727   1.9852412  69.9240445  45.3656673
   1.1019624  70.2022702  45.6078291   2.5624836  70.5407653  45.8158636
  31.4972628  66.0425266  57.9836226  32.0701063  65.5052116  58.5307741
  30.6131971  65.7439759  58.1970024  46.8934679   4.2424384  19.4003224
  46.3708353   3.5819489  18.9455247  46.3128519   4.5790023  20.0828505
   6.4840949  61.7403122  59.0384102   6.5404833  61.9477238  59.9711657
   7.2858489  62.1044835  58.6631775   3.6893905  44.7471508  16.8844688
   3.4630669  43.8261064  16.7552924   4.5277012  44.7253426  17.3459792
  10.8336760  52.1643996  53.2670371  10.4263617  51.6251373  52.5891552
  11.2272812  51.5339696  53.8702474  73.9162804  19.6415841  54.9314568
  73.0408217  19.2753541  55.0566689  73.7741114  20.4265928  54.4025133
  27.5370765  21.2984419  30.0671482  28.0856085  21.3646150  29.2855048
  26.9683599  22.0672965  30.0264335  34.2947710  59.5736750  12.0055604
  34.7566832  59.9085196  11.2369585  33.5361851  60.1499148  12.0989943
  66.6984583  39.6571117  56.3463656  66.1592747  40.3817618  56.6632102
  67.5135542  39.7301244  56.8428794  52.7454139   6.5184426  61.0369279
  53.1567741   6.1564874  60.2520696  53.2288529   7.3262882  61.2098552
  41.9344139  10.4894960   0.3996412  41.6555882   9.6231687   0.1030504
  42.5946045  10.3122580   1.0696919  26.2830771  59.6059605  32.9175735
  26.1680401  60.4962929  32.5854492  25.9776724  59.0434929  32.2058225
  33.3892906  65.0017645  59.5306110  33.8845051  65.7468315  59.8710060
  32.9972733  64.6003207  60.3061104  48.0925608   6.1486387  33.8861036
  48.4298706   6.4513987  34.7291899  47.3982430   6.7706096  33.6686063
  56.6964316  15.6715071  22.0355463  56.0708940  16.3172305  22.3641396
  56.9663012  16.0119367  21.1826038  54.5160686  45.9955331   1.0482808
  55.1016104  45.5791428   1.6807290  53.9588797  45.2838853   0.7331105
  25.4324663  70.4872820  43.6432934  24.6444977  71.0166822  43.7660503
  25.3022707  69.7285329  44.2121315  38.5427273  67.5261750  33.7144876
  38.6062897  66.5876999  33.5371280  38.8564861  67.9433494  32.9121470
   9.9692154  35.4315400   6.6636342  10.4342782  35.1821613   7.4622321
   9.2433619  35.9756231   6.9691563   4.4577369  24.0150094   4.3276742
   4.5183212  24.5728731   5.1031417   5.3042316  23.5701060   4.2859578
  46.3736534  14.6053696  27.4176335  47.0882988  14.1739154  27.8859973
  45.5994081  14.0837264  27.6289701  52.2064257  11.8171871  11.6797197
  52.2755194  12.7024567  12.0371485  51.3318396  11.7829275  11.2922204
  54.2317152  26.3272929  27.8052306  54.7019339  26.8747354  27.1763921
  54.7957659  25.5635309  27.9266763  36.6191792  20.6351018  29.8948979
  37.1844983  21.2496758  29.4269800  36.3684535  21.1003280  30.6929779
  20.8797873  71.5954667  33.4404469  21.4041079  71.2333079  34.1547012
  20.1050365  71.0345314  33.4037805  39.1144490  18.7574792  29.2216945
  38.3745027  19.3643761  29.2020607  39.8866081  19.3189240  29.1525316
  62.1763277  29.5206714  27.0877934  61.3744974  29.7662139  26.6262650
  61.8864012  29.3073249  27.9747295  11.8962027  58.2817053  30.0575117
  11.4341856  58.2192206  30.8934979  12.1629168  57.3831176  29.8635129
  57.1264458  16.4731181  19.2884719  56.7142057  15.6783283  18.9499485
  57.3772430  16.9646263  18.5063255  16.5551449  58.0700659  49.1133980
  16.2940193  58.2006025  48.2018022  16.4873577  57.1249437  49.2489711
  49.4198275  11.4667976  19.6299422  50.0666618  12.1539485  19.4697499
  48.5948324  11.9374406  19.7487283  55.9628010   2.4685459  19.3028057
  55.1084185   2.1347554  19.5763862  56.3054037   1.7959788  18.7141562
  58.7670708  40.7023573  39.9010277  58.4860086  41.1403513  39.0976644
  57.9839325  40.2491283  40.2132940  53.9844036   6.7416340  21.5606570
  54.6401644   7.0034570  20.9143925  54.4873571   6.5729457  22.3574090
  46.8129063  25.1126194  38.7769246  47.0806265  25.4675698  39.6246076
  45.8581161  25.0669456  38.8271427  52.1850527  69.0493225  12.0621693
  52.0396889  68.5537483  11.2562478  51.9519461  68.4405091  12.7630544
  69.9036407  19.9006808  25.4513812  69.2878675  20.4040861  24.9188042
  69.3533993  19.2867327  25.9377289  31.5729511   6.8954531  45.4213111
  32.1597469   7.3291508  44.8017863  32.1578444   6.4883152  46.0603491
  45.4454327   2.6020241  36.0753155  45.3126812   3.0736479  35.2530146
  45.4708576   3.2873538  36.7430806  42.2373724  10.3440630  27.8082490
  41.9264555   9.4884408  27.5124860  43.1873131  10.2449226  27.8716016
  36.3742304  37.8338790   6.9846600  37.0535564  37.5567102   7.5994158
  36.0993910  37.0259309   6.5511668  43.9351463  17.4472499   8.8499677
  43.7593031  18.2306647   9.3710923  44.6818352  17.6872182   8.3012402
  34.5312250  71.3033257  28.5971689  34.4862879  70.6851353  27.8677487
  33.8892973  70.9768583  29.2277074  54.1121101  19.5838654   4.2195684
  54.9348593  19.2958844   4.6150190  54.3714762  19.9760866   3.3858278
  48.8642252  17.4663273  59.6867111  47.9674185  17.3202530  59.9877551
  49.1932905  18.1694952  60.2466274  14.3432283  69.3188000   1.3037877
  14.3125868  69.9796820   1.9955422  14.6442366  68.5243177   1.7447282
  49.2571783  23.5115337   9.8947781  50.0255632  23.3821058   9.3388414
  49.6117258  23.5800886  10.7812464  19.6461094  21.2201944  57.6448710
  19.8580683  21.9776264  57.0993409  19.7503794  20.4683271  57.0617256
  65.8821392   4.2985687   2.0569654  65.1341152   4.2138535   1.4657697
  65.8968544   3.4747773   2.5441855  55.6546640   5.9803647  23.5755110
  55.0832796   6.5083897  24.1331291  56.4616966   6.4906514  23.5081196
  74.8623276  45.3216934   8.6812901  74.9182272  45.5400944   9.6115631
  74.9791431  46.1584520   8.2313794  62.1898317  39.6991920  37.9859591
  62.7415466  40.4337502  38.2547879  62.3451376  39.6147203  37.0452261
  54.1373349  50.2335548  61.8883893  54.1931034  50.3800380  60.9441093
  54.6295453  49.4257903  62.0349412  24.4217539  31.1131477  45.8044720
  23.6858416  30.5532742  45.5570745  24.7540045  31.4530516  44.9736261
  28.0700278  27.9870081  14.7885859  27.4258375  27.3315167  14.5210350
  28.5811496  27.5550914  15.4730105  35.8680963  56.9609404  12.6396108
  36.2329340  57.6927948  13.1371176  35.3243685  57.3745251  11.9691324
   1.1345911  11.5408075  12.1181428   0.7337475  12.3479128  11.7954385
   1.7280626  11.2712312  11.4171803  59.0084553   8.2508963  32.9323626
  58.6538935   7.7816987  33.6875916  58.5705900   9.1018510  32.9518986
  59.2313766  37.5101376   1.3880870  60.1347017  37.2061229   1.2996823
  58.7495804  36.7428684   1.6969581  56.6177511  21.2914658   4.0529129
  56.4484453  22.0519757   4.6089622  56.3378906  21.5661407   3.1797218
  40.2616644  14.3595982   2.6257914  40.0396681  14.3220055   1.6954497
  39.4852161  14.7335041   3.0423856  66.3081837  61.2008914   0.9589987
  66.8317831  61.8957027   0.5598594  66.2919915  60.5054291   0.3015022
   4.5715952  56.0753107  25.4338861   4.6571779  56.6438055  24.6685624
   4.8823595  55.2211618  25.1337194  14.9259996   4.0989017  32.1769166
  14.1600847   4.4461146  31.7196965  15.2261019   4.8233959  32.7258086
  18.4637440  67.3959177   5.8383590  18.1930674  67.4020996   6.7564690
  19.3464363  67.0258918   5.8513767  45.5232239   8.6196023  39.3431258
  46.4559555   8.8193470  39.2634916  45.3781652   7.9029328  38.7254071
  55.4028082  18.5012770  15.8656442  56.0986233  18.3876574  16.5130711
  55.0509739  19.3736720  16.0427618  33.5228909  36.3321789  12.6053667
  33.5200727  36.4452132  11.6548681  32.8559149  35.6654581  12.7692544
  53.5824728  21.4375782   6.9175780  52.8041124  21.0846186   7.3486310
  53.6579227  20.9322286   6.1081582  70.8454025  67.7997165  16.1705863
  70.8488954  67.5075769  15.2590632  69.9203826  67.8057509  16.4166212
   0.2317024  63.7101864  51.5462307   0.4479815  62.9858136  52.1333752
   0.1635290  64.4723940  52.1212302  29.1975582  69.7847209  29.8503351
  29.6990622  69.3410628  29.1663098  29.4277704  70.7089056  29.7548604
  55.1416397   7.0922267  27.4362397  55.9746790   7.2735232  27.0010257
  55.1266050   7.6903528  28.1834030  67.1787596  24.8855925  30.5050516
  67.9385281  25.1169658  29.9707747  67.2895670  25.3907752  31.3104987
   0.4037548  59.5637297  51.2112121   0.9527184  58.7817788  51.1527280
   0.9594179  60.2150035  51.6393594  10.5507231  29.8016810  19.2623258
  11.4289618  29.8392773  18.8834751  10.6961393  29.5834112  20.1828933
  41.4704227   1.6031514   8.6472636  41.6096354   1.1257429   7.8293800
  42.3086452   2.0318380   8.8200176  12.1059443  25.6128764  56.8934877
  12.6382662  25.9349775  56.1660818  11.9346167  26.3889610  57.4269394
  72.7938461  53.0804825  14.3610907  73.3036137  53.8666439  14.1653466
  73.4504652  52.4102831  14.5506024  47.3431253  26.1226273  17.6324511
  47.0048904  25.2505684  17.4291182  47.0387268  26.2958813  18.5232675
  34.5425261  68.0090021   9.4723290  34.5946539  67.6259433   8.5966694
  33.6138952  67.9616668   9.6995676  18.9605404  57.1029925  50.3314237
  18.8165880  56.2375569  49.9486295  18.3668972  57.6794624  49.8502771
  52.7060366   2.3812208  18.3199823  52.2669363   2.9924101  18.9114821
  52.9082060   1.6220926  18.8668680  47.1998072  30.8997631  26.6044235
  46.4287996  30.3880858  26.3595462  47.2746897  31.5632391  25.9185505
  23.1432486   4.0775150  35.6797504  23.7786722   3.7933096  35.0227118
  22.6695871   3.2798687  35.9156322  16.7682768  40.2553185  45.7423321
  16.7183949  40.8135700  46.5182821  16.2585474  40.7208055  45.0792138
  32.3032368  22.7305571  48.6798600  32.9529655  22.1415440  49.0634612
  32.3546494  22.5635782  47.7387396   2.4340189  58.3210703   7.4544173
   3.1871307  58.5570868   7.9960340   2.2660649  59.1006239   6.9249642
  20.7190752   7.0292729  26.6513133  20.6718397   7.8481877  26.1579800
  19.8056650   6.7992234  26.8216157  11.1961639  61.5463879   3.4497046
  10.3239978  61.6944339   3.0841368  11.4753497  62.4079069   3.7596580
  12.3661959  27.7077761   2.3763820  13.1603538  27.3572173   1.9730826
  11.9125235  26.9382950   2.7203484   6.1716330   6.8789903  19.9420965
   6.8939745   7.4154989  19.6155846   5.6333553   6.7062942  19.1696537
  34.6385479  10.4984701  22.6489639  33.7719297  10.5014265  23.0554080
  34.6798968   9.6655405  22.1791244   2.9945875  18.7957322  60.8890248
   3.3070303  18.3936584  60.0785021   3.6117817  19.5079481  61.0564946
  19.1828896  68.2087111  50.3450970  19.5597960  68.8718485  49.7668056
  18.2624651  68.1608247  50.0867311  65.6138468  25.9248471  17.2780287
  65.0118876  26.6563368  17.4151516  66.2772131  26.0294700  17.9601061
  45.7819223   1.5167563  19.8110926  45.1280260   1.7760532  20.4602575
  46.6050386   1.4873683  20.2987885  33.6643827  67.3453718  38.6303711
  33.8181770  68.1906577  38.2083869  34.2406977  67.3508169  39.3946123
  53.6727571   8.0840600   6.5401387  52.9597282   7.4850750   6.7615879
  54.4687653   7.6024836   6.7652822  14.1834284  70.6718301  50.1318983
  13.4102703  71.1218524  50.4723934  14.0033175  69.7430229  50.2771834
  58.5692693  34.1548748  37.7473120  58.7322045  35.0323709  37.4013547
  57.6346184  34.1485449  37.9537539  61.9611895  68.0277928   6.2189265
  61.6040670  67.3459276   6.7879220  61.6201221  67.8172883   5.3496810
  56.1216784  21.5419602   8.1822938  55.5590916  22.0012665   7.5587827
  55.7923985  20.6431842   8.1850117  67.1948862  30.7050347  26.2786865
  66.2489223  30.5643582  26.2388229  67.5261211  29.9637389  26.7856336
   6.4695215  26.3212967  39.0548682   5.7788038  26.8505192  38.6560249
   6.2708235  25.4248810  38.7843227  26.1374283  26.9405842  35.2319956
  25.6073189  27.7073145  35.4495716  26.5316153  27.1541023  34.3862653
  35.2136064   8.3795393  14.0818965  35.2182531   9.2339170  13.6503315
  36.1308336   8.1058103  14.0810919  33.2677603  16.1826980  45.1223564
  32.9341722  15.2899635  45.0330448  34.1454530  16.1496067  44.7418404
  63.9062595  66.3486719  44.2032623  64.7786808  66.2217331  43.8304424
  63.3103085  66.2320757  43.4633398  38.6021412  59.3551680  19.5134747
  39.2259920  59.9294730  19.9575686  39.0833796  59.0172728  18.7581789
  11.2382628  63.0708623  54.1663841  11.7887665  62.4753618  54.6748702
  11.2427975  62.7048373  53.2819424  68.6983109  39.0443397  15.9060037
  68.7164736  39.2288351  14.9669278  69.6092939  38.8547707  16.1305141
  60.3933430  13.6505270  17.1873534  59.9962854  14.3063521  16.6142297
  60.3913450  12.8462219  16.6683912  33.2445610  59.5074805  31.5658522
  34.0290726  59.0514751  31.2611651  33.4898079  59.8607834  32.4209929
  56.0642147  31.4637613  19.6268535  55.8385849  31.4083076  20.5554271
  56.0617113  32.4016070  19.4353557  60.5878448  51.6085196  13.7687743
  59.8339367  52.0194340  13.3456826  60.4604626  51.7779732  14.7022033
   2.3181915   4.4760454  25.4804897   2.7433252   5.3313315  25.4174113
   2.9506206   3.9278978  25.9450364  58.6657810  19.7385442  37.0865893
  58.4987307  20.5456972  37.5732398  59.2293024  20.0083613  36.3614154
  70.6630945  41.5450001  20.5393577  70.5225658  40.9531546  21.2784147
  69.9635792  41.3286066  19.9228489  60.8144569   7.4154949  22.4393296
  60.5926514   6.5517426  22.0915294  61.7624712   7.3855788  22.5682163
   9.9655294  15.8225441  13.9628410  10.7770205  15.4335260  14.2890012
   9.5469677  16.1910319  14.7408223  33.3400799  44.1279536  50.2197997
  33.6450363  43.9787608  49.3248288  32.4140812  43.8862931  50.2007166
  61.9003487   6.0265231  12.3721993  61.1146450   5.4972863  12.5093424
  61.9211721   6.6227710  13.1207216  18.6342217  60.4092311  59.4427114
  18.5860802  61.2213587  58.9383698  19.3718029  60.5406355  60.0384767
  19.8080087   7.8822416   1.1486667  19.8533535   7.2491479   0.4321698
  19.5464242   7.3641682   1.9098537  75.9312963  55.2303314  45.7361412
  75.6251574  54.3263006  45.6637907  75.4348230  55.7053852  45.0697517
  56.6800976  60.1635265   1.8367325  57.3161554  60.8080959   1.5265757
  57.2132730  59.4373083   2.1600927  59.9007654  15.3417742  14.8896897
  60.6419945  15.0890052  14.3393111  59.1306639  15.0413668  14.4070601
  56.8186712  63.4093142  38.1220126  56.2434626  62.6578808  37.9780984
  56.2289858  64.1631842  38.1357121  46.1609411  45.2125597  41.6017389
  45.3081703  45.4657555  41.9551563  45.9689999  44.4829416  41.0126305
  12.2843863  63.7622952  34.1314773  12.3741890  63.2905149  33.3034734
  12.2242857  63.0740451  34.7939972  59.0671540  65.9196567  39.3682436
  58.5766364  66.1620593  40.1536516  59.7023488  65.2716875  39.6730331
  38.2528210  28.6920834  27.9521012  37.2996092  28.6047792  27.9519892
  38.5512233  28.0608821  27.2972941  38.1885529  28.0002570   6.3970286
  37.6918983  27.9408240   7.2131371  39.0471244  28.3297396   6.6626000
  39.8366165  49.8908854  12.1859050  39.1997242  49.2123222  12.4098504
  39.7560620  49.9913263  11.2374032   1.2070370  29.8378778  42.3336554
   0.5346346  29.1665006  42.2180653   1.6499901  29.5957088  43.1469059
  22.8351545  27.2130585   7.1669102  23.4235716  26.5211368   6.8648458
  23.3880854  27.7797985   7.7047843  28.0186129  36.1103559   7.2245401
  27.6799345  36.7538142   6.6020519  28.6051416  36.6111946   7.7914381
  33.6134553  14.9080586  27.4238372  33.5202456  13.9599407  27.5166559
  33.6027384  15.0583804  26.4785767  53.2211733  48.6548471  43.1218052
  52.9151630  47.7672911  43.3084393  52.5007534  49.0600252  42.6390457
  18.2460415  17.0733511  47.1297026  18.0063701  17.7708256  47.7398825
  19.1235793  17.3093331  46.8289232  21.2435186  58.0482396  30.8979321
  20.3744782  57.8797384  30.5337834  21.7679346  58.3266910  30.1471424
  37.9198194  26.1646795  22.0238733  37.4675918  26.1084485  21.1821151
  38.8407993  26.0131693  21.8115664  55.5436563  30.4681659  14.5498157
  55.4814911  31.4082313  14.7190571  55.0196171  30.0650239  15.2419806
  25.9710073  33.5294628  10.2659714  25.7777834  33.8025618   9.3691361
  26.9235039  33.5934448  10.3358710  51.5930271  46.9459295  34.1954446
  52.4828291  46.6216564  34.3344593  51.1005020  46.1776447  33.9066625
  45.5636251  59.9473115   6.4038801  45.3554142  59.8500725   7.3330861
  45.0622499  59.2554410   5.9724045  68.1404114  28.3354235  15.8227277
  67.4848795  27.7471757  16.1975336  68.7042856  27.7643776  15.3010178
  32.3889816  60.8605894  23.9707971  32.4497402  60.0591811  23.4509063
  33.2439697  61.2784155  23.8676214  24.2222155  17.4921003  53.8101778
  23.3388937  17.6197020  54.1561399  24.3059576  16.5437332  53.7110929
  61.3870621  55.1460075  31.3985467  61.5599251  54.2154741  31.2555003
  60.8372307  55.4039764  30.6587029  45.8642090  26.9913164  50.3745536
  45.3815544  26.1979261  50.1425866  46.5007437  26.7019287  51.0282413
  51.3451290   9.0447313  18.6268628  50.5034924   8.6469007  18.8495994
  51.1159134   9.8138648  18.1052065  42.9325104  28.5693502   4.4970626
  42.9217052  29.4514036   4.1254514  43.6758852  28.5725880   5.1000696
  48.7338840   1.6244308  15.7215178  49.6440517   1.9014207  15.8268607
  48.6992657   1.2443344  14.8437023  63.3047867  27.2731519  18.4050834
  62.8685856  28.1191206  18.3035934  63.9332676  27.4112201  19.1137302
  57.0082117  66.1990019  27.0817828  57.7945394  66.1643126  27.6265025
  57.3069656  66.5745132  26.2535524  55.1416206  60.1615191  26.7279625
  54.5226097  60.1232433  27.4570656  55.3295851  61.0940886  26.6220617
  74.7225809  54.4752693  38.2642937  74.1012764  55.0479317  37.8145456
  74.3344498  53.6027145  38.1992054  59.0076351  21.0171533  16.9001663
  59.5264053  21.6279292  17.4236739  59.5718098  20.7982802  16.1585248
  11.9939840  68.0892890  11.6502631  12.4103010  68.9450975  11.7527568
  11.8378723  68.0100467  10.7092094  45.8603191  27.2079825  13.2501733
  45.7610464  26.2845898  13.0183983  46.4152431  27.5699997  12.5593519
  66.9847584  37.1550870   6.6974854  67.7369833  37.4074531   7.2329301
  66.2308407  37.5327969   7.1504450  64.7689486  27.0942044  29.7943640
  65.2717924  26.8212819  30.5617571  65.0391960  26.4893913  29.1034245
  22.7615822  70.5455790   7.8984404  22.6559914  70.3037877   6.9783211
  22.4466742  69.7832032   8.3840823  21.4044989  68.9228978  24.6696496
  20.6102646  69.0813144  25.1798701  21.4477480  69.6588554  24.0591359
  34.5619662  29.8659038  61.5017644  35.1349158  30.4874175  61.9508535
  34.3193014  29.2326295  62.1772712  72.3286152  36.9171357  28.0979490
  72.4112606  37.8417826  28.3312535  72.9582405  36.7920709  27.3879027
  11.2045407   0.6800419  43.4214067  10.7753694   1.3771179  42.9252911
  11.1831379  -0.0778521  42.8371382  33.3118296   1.6474846  46.9251585
  33.6779594   2.0540467  46.1397362  32.9804206   2.3814809  47.4425077
  17.3893381  58.0970859  57.5151245  16.6490437  58.3580422  56.9673119
  17.7149988  58.9178872  57.8845314  51.2736654  29.1419935  15.2894020
  50.9836626  30.0300074  15.0806844  50.5502510  28.7653351  15.7904327
  54.0847158   3.9448446  44.6054792  54.4341183   3.5820350  45.4194307
  54.2109966   3.2496491  43.9597321  54.2231024  34.4607147  19.6725798
  54.0091026  34.8600992  20.5157447  53.9085568  35.0894865  19.0230095
  53.3280039  10.7742059  59.8378229  52.7200365  10.5284727  59.1405296
  54.0035486  11.2888598  59.3962383  54.5923519  35.5807662  14.7032893
  55.1110601  34.7764230  14.7175860  55.1885700  36.2560439  15.0269437
  67.1874619  26.7185593  19.1903257  68.0691576  26.4309645  18.9533973
  67.3027658  27.6189041  19.4941604  27.0489120  16.5973008  23.2052875
  27.9245520  16.8724287  22.9336476  27.0206809  16.7809510  24.1442800
  32.8723753  63.6429658  14.8981130  33.1004894  64.4440772  15.3697228
  33.0394733  62.9397686  15.5256665  57.4747658  29.4096422   3.8323319
  56.7498112  29.7212124   4.3741772  57.1445036  29.4648337   2.9356098
  51.8704880   3.9790169  49.3181066  51.9511371   3.5185734  48.4828106
  52.6810824   3.7737623  49.7839812   6.2308836  44.2237425  12.8015554
   6.4109659  45.1249504  12.5339150   5.3288984  44.0666580  12.5223088
  53.0500782  61.8079927  13.3521259  52.8412712  61.4779361  14.2260230
  53.4806717  61.0732289  12.9151595  35.9073067  25.5668759   6.7523807
  36.2634492  25.4799938   5.8681595  36.6765165  25.5611300   7.3220438
  46.7798042  41.0874462  21.0001326  46.8827200  40.4059601  20.3358912
  46.4847660  41.8557358  20.5113387  53.4938812  32.4702907  17.4231184
  53.8789177  32.9403448  18.1627333  52.8606892  31.8735099  17.8220546
  23.0028224   5.9813285  25.8877850  22.1186328   6.2584758  26.1278486
  22.9471707   5.7869887  24.9521732  34.9220443  23.8866425  17.5078666
  34.9514937  24.0797853  18.4449148  34.7361875  22.9487634  17.4623597
  18.9507044  51.4787360  25.9415627  18.0911100  51.5782126  25.5323744
  18.8545216  50.7221445  26.5199661  67.3270680  65.6593227  57.8620244
  67.5263001  66.5409255  57.5468833  67.7392794  65.6145119  58.7247545
   4.4499410  69.8135336  18.2403493   4.1553844  69.1103817  18.8191795
   4.9938930  70.3703073  18.7974405  23.6754274  16.5971422  42.4579525
  23.9041328  16.0195112  41.7297554  22.7741623  16.3607681  42.6772213
  53.0380726   6.7575896   9.7838557  53.2236910   7.5246859  10.3254652
  53.8744354   6.5508461   9.3667400  18.1314814  34.2460632  34.3942952
  18.1426775  34.5266771  33.4792209  18.1436396  35.0617075  34.8951054
  46.8751144  12.7066469  16.1740386  46.0064936  13.0483198  16.3861477
  47.2134829  13.3078182  15.5104625  51.5407896  27.8986764  48.8216305
  50.6978035  28.2633257  49.0911341  51.7581749  28.3678436  48.0161142
  39.6652222  45.9183931  34.2962193  40.4733133  46.4228773  34.3895960
  39.0700960  46.5038967  33.8279843  17.1641338  58.4247311   4.5627558
  17.3003424  57.8100260   3.8417730  16.4311922  58.0565485   5.0561810
  28.5757589  18.3966756  38.2153130  28.7691617  17.9919076  39.0608835
  27.6356506  18.5744119  38.2442880  30.2225769  10.6263891  60.2954161
  29.9185312   9.7220579  60.2181124  29.8061073  10.9517017  61.0935123
  60.3006554  23.6744785   1.3387431  61.1938810  23.6114979   1.0004923
  59.7440386  23.5360837   0.5724185   3.1888688   2.0725845  38.0960441
   3.6701301   2.3687693  37.3234534   2.5630453   1.4323059  37.7574873
  42.9116774  22.7075553  14.6547210  42.6619482  23.4868765  15.1512325
  43.8635492  22.7692223  14.5749426   2.2615099  53.6847687  12.0512116
   1.9800758  53.7245417  12.9652393   2.8821421  52.9565811  12.0231688
  41.7114676  11.7755428  41.9018773  42.4361742  12.1680800  41.4151053
  41.1171377  11.4502684  41.2257127  29.1483736  19.0332007   7.9298568
  28.2694769  18.7922239   7.6371050  29.5041132  19.5581794   7.2128618
  15.0853861  32.0672098  59.0940041  15.7273710  32.4617306  58.5037194
  15.0083149  32.6912848  59.8156829  51.4425468  64.1479111  13.2921374
  51.7690945  63.3224869  13.6502802  50.5309010  64.1902590  13.5808182
  52.3258352  48.9282608   8.7029785  52.6996708  49.0958405   7.8378797
  51.3889313  48.8169527   8.5415608   9.3565416  58.8049746   0.5096682
  10.1393652  58.9676142   1.0359497   9.6933126  58.5849810  -0.3589042
  68.6659336  52.3613119  22.4872351  69.5187521  52.5264072  22.8893232
  68.7189388  52.7851343  21.6306162  55.7539129  35.8024454   6.5356028
  55.8224154  36.2627745   7.3720449  56.6606045  35.6274867   6.2835455
  58.4856367  16.8347740   6.0812294  58.6529541  17.3659110   6.8597722
  58.6839199  15.9392703   6.3550717  69.8117447  43.8619900  39.1275144
  70.0040245  44.1128159  40.0310326  69.5770407  42.9355478  39.1809058
  52.9523182  39.4669676  26.4875960  52.5504637  39.9145103  27.2322106
  53.4918451  40.1371479  26.0680723  32.1995617  71.1058521  33.5967425
  31.3575245  70.6869602  33.7748984  31.9699455  71.9759297  33.2704381
  63.8138701  54.2337620  55.7390402  64.3733908  54.8028743  55.2105705
  64.3319441  53.4388530  55.8653347   4.5380891  26.1991945  46.1957769
   4.8257769  27.0375744  45.8344177   4.9562085  25.5423132  45.6390778
  57.9170942  32.7986455  22.2111273  57.5653172  33.2524896  21.4452887
  57.7255344  33.3829188  22.9447222  45.4470003  14.7141234  58.6702175
  44.6077240  14.2543999  58.6925189  45.6927908  14.7192207  57.7451269
  35.7905078  29.8642635  10.6220376  35.4407978  29.3231058  11.3299108
  35.0180936  30.1457548  10.1317644  17.8385664  61.3223552  38.3841638
  17.3054434  60.6215477  38.0088190  18.1668497  61.8057990  37.6260451
  45.8846712  41.0080433  32.4452019  45.1758957  41.5576982  32.1109176
  46.0223770  40.3526020  31.7613363  68.3313465  27.0117164  23.2476544
  69.1321135  26.7983460  22.7686119  67.9178429  26.1643195  23.4124589
  21.2994528   8.1915939  12.0010364  21.7581224   7.3773259  11.7941034
  21.6267633   8.8208628  11.3582921  72.6325178  23.9665294  21.6305661
  72.5675631  23.5660577  22.4975348  72.8203440  23.2351255  21.0423470
  29.3571402  60.9503317  53.7618563  29.3621088  61.8948102  53.9173214
  29.4648624  60.8629226  52.8147624  38.5178971  38.2138872   8.9416122
  38.9727855  38.0463195   9.7669780  39.2111635  38.2131076   8.2816017
  12.5874449  48.6189389  59.2913545  13.0821587  48.0606770  58.6914928
  11.7691637  48.8009727  58.8292859  42.5710726  18.6379027  25.6828690
  42.0892143  19.4271696  25.4356861  43.0095387  18.8713694  26.5010858
  38.0135179  48.3258200  15.0994253  38.3498883  47.7012157  15.7420385
  38.4249353  49.1572475  15.3354394  28.5727383  68.1464815  37.4958996
  27.8763653  68.6454773  37.0689324  28.8421846  68.6940455  38.2333306
  34.0579343  15.5811191   5.9004372  34.6805668  16.2726414   6.1248386
  33.2565498  15.8199883   6.3662249  62.0733976  42.6515818  44.6392393
  62.6279402  43.1300402  44.0229702  61.7037058  43.3295012  45.2049160
   7.7995550   7.1569244   4.4638672   7.7005016   7.9207937   5.0321305
   7.3258411   6.4588920   4.9161622   0.6326008  28.1863594  22.6888037
   1.3550901  27.8688908  23.2305145   0.1614380  27.3944068  22.4298644
  34.2589605  11.0437742  55.0869552  34.4340933  11.9598595  54.8716746
  34.1181648  10.6213108  54.2396454   1.7582798  57.8680897  19.8290765
   1.9911528  56.9399738  19.8536563   1.4300966  58.0560493  20.7083941
  59.2232800  35.3902102  27.2085500  59.6908760  35.7833457  26.4716458
  58.6816025  34.7079182  26.8119454  48.2892942  21.2371874   5.5814385
  49.0730286  20.7422686   5.3425896  47.6599932  21.0384893   4.8880905
  62.3044157  44.6901131  48.3671999  61.6857290  44.8736668  47.6602554
  62.0658016  45.3057957  49.0601826  57.8400135  42.3080301  38.0652595
  58.1071424  42.0679903  37.1779871  56.8832731  42.2928667  38.0397081
  43.5069942  25.7588983  21.1721683  44.4030523  26.0584450  21.0185957
  43.3940744  25.8177066  22.1208620  31.7576862  48.2116115  61.0678247
  31.3790203  47.9420590  61.9045978  32.5826622  47.7294159  61.0118336
  35.7505739  69.3277120   5.4235965  35.4947842  68.7511837   4.7035837
  35.0681723  69.9985295   5.4473001  39.7641087  12.1117949   7.5771815
  40.3264856  12.1178901   8.3517319  39.8869443  12.9763710   7.1851981
  72.4461889  32.8420448  36.3991427  72.5122690  33.7877750  36.2670064
  71.8433285  32.5464344  35.7169366  58.0249357  41.9311094  12.9073358
  57.1714735  42.1884823  12.5586307  58.3618402  42.7236557  13.3251858
  10.4380274  48.6124659  28.6701941  10.0823545  48.2642508  27.8525925
   9.8588896  48.2671595  29.3496037  75.0408745  60.7258320   3.0598888
  74.2483521  61.1565351   3.3802557  75.5900764  60.6257439   3.8374433
  59.3194628  63.7551498  48.2924461  59.7940683  63.9163017  49.1079235
  59.9280024  64.0236187  47.6040888  66.7889929  36.7690134   2.0660880
  66.4548159  36.1700177   1.3984349  67.6829386  36.4691877   2.2310209
   2.2569752  39.7909784  29.1756058   3.0351734  39.2371440  29.1131163
   2.3382997  40.4018402  28.4431648   4.4149542  11.8865705  13.2175481
   4.4640303  12.3487675  12.3807704   4.1167355  12.5495553  13.8402414
  51.5456057  56.0353374  25.3696609  50.6143141  55.8157349  25.3431797
  51.6109514  56.7221832  26.0331416  59.9226176  31.8048135  17.4111748
  60.4072535  32.5353090  17.7955294  60.3326451  31.0236112  17.7824306
  17.1365023  42.0113325   8.7906033  16.6421556  41.3999557   9.3365586
  17.1242952  42.8336096   9.2804378  42.0594383  63.9391708  61.7574275
  41.2002445  64.3204450  61.5767802  41.8767048  63.2022714  62.3403650
  36.0184050   3.8476902   8.6230290  36.1559248   3.5168567   7.7354091
  35.9313583   4.7947642   8.5148364   9.0056848  46.1368179  37.5333500
   8.5782671  46.9427633  37.2435355   8.8542318  46.1117840  38.4781599
  10.1808691  38.9739227  40.9822369  10.8723021  39.2977858  40.4049349
   9.5615053  39.7009850  41.0454226  68.0632162  62.4631834  11.0980392
  67.4046659  62.2406244  11.7560756  67.5837564  62.4625063  10.2695763
  54.7378206  11.9593310  18.2648611  54.1531086  12.0578790  17.5134397
  55.0629187  11.0614252  18.1992328  34.0979552  63.0318928  22.4732876
  34.5358396  63.7753534  22.0588541  33.4209251  62.7736425  21.8478513
  45.2113628  22.5283933  19.3115759  44.8556376  21.6981578  18.9947152
  44.4399977  23.0583715  19.5124435  56.2102032  31.6653109   5.6754774
  56.4228535  32.2081280   6.4346606  56.0652113  30.7916760   6.0387582
  54.0885925  33.7704945  31.1761761  53.8214684  33.7918234  32.0951009
  54.5943165  32.9621220  31.0924625  53.8040161  56.0603905  11.5989602
  54.7241497  56.1212397  11.8556440  53.6717844  55.1335859  11.3995135
  70.9759760  20.3403258  21.3364339  71.8937778  20.5771303  21.2030196
  70.9987736  19.4099557  21.5603161  53.6434555  58.6824942  40.6443501
  54.5432568  58.5474443  40.3471136  53.7264824  58.8800049  41.5772629
  61.2777519  43.5632086   6.1596972  61.5568495  43.6874437   5.2525580
  60.8245659  44.3758678   6.3842934  64.9709845  26.5155101  21.0806990
  64.9717045  27.4726534  21.0910201  65.8242416  26.2792659  20.7168674
  74.7968149  58.3532667  45.9998083  74.0504122  58.6582470  46.5156603
  74.9147987  57.4412251  46.2653112  18.9930689  34.4733262  23.0916524
  19.2308891  35.3558135  23.3760643  19.8086810  34.1022110  22.7550745
  25.4476166  14.1917431  48.1264830  26.0436225  13.7965941  47.4901962
  25.8178902  15.0580716  48.2956171  50.6600714  60.8791637  32.5546527
  50.5257511  61.2908220  33.4083056  51.0433531  61.5694523  32.0135164
  48.6145401   7.5337052  17.0851386  49.2106199   7.3286653  17.8054738
  48.0859852   8.2619411  17.4115372  16.4215708  48.1405497  21.7784572
  16.2509966  48.7091589  22.5293350  16.2799025  47.2545528  22.1118760
  73.0411863  51.9460583  60.0184488  73.2465315  51.9764662  59.0840292
  72.1347952  52.2486305  60.0744629  22.1707869  13.6969161  15.6103957
  22.4656916  14.5170569  16.0061622  22.2949457  13.0414784  16.2968493
  12.4333334  45.7458210  47.1012688  12.3958063  46.6471195  47.4213982
  12.0971441  45.2197456  47.8268337  61.5959501  32.6008558   9.9627334
  61.0411072  31.9012642  10.3076279  61.6800642  33.2195330  10.6882644
  58.1958139  62.2869392   6.0815382  58.4662760  61.8963309   5.2505708
  57.8438128  61.5543928   6.5872073  52.9737902  48.2310390  31.9737864
  52.6425838  47.4493074  32.4158621  53.1318188  48.8570023  32.6804876
  71.9930983  49.2057800  20.4188514  72.1265745  48.2849741  20.6436467
  72.4748659  49.3247700  19.6003306  47.7506519  69.6244979  57.7986816
  46.9391419  69.5922351  58.3052833  47.5061680  70.0603032  56.9822652
  55.6867504  41.0309982   7.6550573  56.4833403  40.6092262   7.3329014
  54.9938011  40.3914833   7.4905086  11.6680002   7.9451263  45.8746910
  10.9209967   7.9703534  45.2767086  11.8558836   8.8647902  46.0621738
  13.1105185  46.8932819  16.3929665  13.3570528  45.9760046  16.5115213
  12.5891447  46.8993425  15.5902469  31.3906586  61.5740022   2.5595160
  31.0810387  60.9274992   1.9251700  30.7381737  61.5541943   3.2595893
  41.8711472  54.9748278  24.3983483  42.1521568  55.3884315  23.5821414
  41.3460922  55.6439114  24.8375201  57.0383167  36.9903088  38.9957476
  56.3742542  36.6367102  39.5875382  56.8846560  37.9350829  39.0004230
  36.8369902   8.8549868  52.5855360  37.5410355   8.7497440  51.9456319
  36.8515432   9.7861782  52.8066734  21.5990627   9.6823898  61.6627762
  21.1769760  10.3174177  62.2414065  21.2966669   9.9192539  60.7860293
  69.0260459  71.5178646  15.8310878  68.6221397  71.4671254  14.9647641
  69.9323071  71.2443759  15.6892145  59.8361492  49.6324015  38.8986301
  59.9387026  48.6871862  38.7877965  60.7298470  49.9745131  38.8764715
  61.0710239  59.3747473  49.9481153  61.9361067  59.7419310  49.7663498
  60.8362246  58.9068604  49.1467524  50.7469034  49.0705585  37.4584723
  51.3721228  48.7800789  36.7944264  50.1718378  49.6799612  36.9956994
  50.1305532  58.4501696  11.0834527  50.0420904  59.3905926  11.2384009
  50.9421301  58.2091379  11.5300834  69.9985958  63.0355572  23.9716581
  70.7066990  63.2509517  24.5786385  69.8286558  63.8523244  23.5023598
  50.4321909  65.7142830   0.8743669  50.5999708  65.1449299   0.1234203
  51.1287308  65.5025291   1.4958331   8.2358026  14.1077507  49.8591185
   7.7376127  14.1245985  49.0419531   8.7178564  14.9346972  49.8628378
  37.3969412  55.4725647  24.6755862  37.7240729  55.6687832  23.7976837
  38.1101298  55.7296801  25.2599549  12.7719080   9.3212835  17.5295126
  13.0579674  10.2343313  17.5569201  11.8612158   9.3642656  17.2379208
  54.6186829  58.0723619  36.2460279  55.4873610  58.4479523  36.3894153
  54.2766142  58.5432291  35.4860926  71.6473675  21.6230154  12.7873278
  70.6971073  21.6885734  12.8818893  71.9418383  21.2177920  13.6029935
  48.4079504  12.1922803  22.9849362  49.2813969  11.9044852  23.2504487
  48.5680819  12.8556347  22.3137069  53.3930635  40.2632523  49.6020412
  53.7957382  39.4455791  49.3096447  52.4722672  40.0409508  49.7396946
  74.5233751  63.8205528  57.6554141  74.4870258  63.3026766  56.8512283
  74.3003632  64.7092080  57.3783062  59.7532976  18.4653059  51.6571406
  60.2508390  18.1150642  50.9182099  59.7687948  19.4136730  51.5283267
  48.0808401  49.3861437  17.9618990  48.7702560  48.7226486  17.9885745
  47.5351048  49.1346693  17.2168028  36.9719934   0.2417376  22.0210052
  36.7026567   0.8706793  21.3515854  37.4626708  -0.4246488  21.5399694
  58.6848593  40.0858068   9.5934200  58.3872890  39.7419333   8.7511396
  59.5055151  40.5354929   9.3920892  24.3025160  11.8733597   0.3241492
  25.2196360  11.7448425   0.5662073  24.2470694  12.7964985   0.0772260
  48.0342722  41.1196756  25.1443505  48.4313440  41.8049526  24.6068001
  47.1970701  40.9359741  24.7182369  27.9548669  29.7535491  12.5930929
  27.1293902  29.2899752  12.7342331  28.5583043  29.3667197  13.2274890
  73.9284658  32.8006434  20.0469947  73.3025551  33.1988144  19.4420791
  74.3220425  33.5421729  20.5068469  72.1548271  54.5171356  50.6605148
  71.9246435  55.4297781  50.4863453  72.6315308  54.5444870  51.4901161
  10.7821321  30.0940418   9.2173868  10.0726175  29.6693254   9.6994990
  10.3842497  30.3561234   8.3871824  20.9270752  41.7316500  45.5335120
  20.3549660  42.1240107  46.1930398  21.6008366  41.2781921  46.0401217
  68.1377579  57.9006695  35.1940230  67.8955484  57.0950937  34.7372822
  68.3496643  57.6172852  36.0834173  46.9658661  17.2094595   4.8801935
  46.0261059  17.3910773   4.8705846  47.0431805  16.3713002   5.3359818
  43.1620312  23.1625462  24.0540266  42.6269197  23.8617253  24.4295788
  43.6240911  22.7859926  24.8029852  47.2771597  53.3687973  31.3716793
  46.9752169  53.2011461  30.4789567  47.4977970  54.3001938  31.3789511
  72.4901772  50.2673292   5.5351394  73.3847713  50.0396490   5.7883036
  72.5726938  51.1169529   5.1020563  66.1308670  39.6326709  21.4865422
  65.4781199  40.0132990  22.0741463  65.6189013  39.2624354  20.7674813
  59.3392277  38.8558578  26.4499354  58.6456251  38.9364076  25.7952142
  58.8855219  38.9282918  27.2896600  32.5039601  54.4880342  36.8106461
  32.2717834  54.4251585  37.7371311  31.7630935  54.0932798  36.3507414
  12.6800072  44.5859292   3.0193015  12.3571264  45.4533895   3.2632132
  13.6195671  44.7093227   2.8842803  19.5383024  25.0058603  32.2558451
  19.7534323  24.9990368  31.3231611  19.2202425  25.8932900  32.4217939
  59.7202206  43.2677507  17.2019315  59.9603605  43.5113144  18.0959344
  59.0805101  42.5638247  17.3091018  62.3229408  23.0912590  26.6558790
  62.1205616  23.8706017  26.1382842  62.9978085  22.6372075  26.1512733
  33.5542275  44.5630073  52.8284095  33.5886074  44.4526475  51.8782143
  34.2471481  45.1945507  53.0214075   2.7802849  36.2488294  55.1949215
   3.0852175  36.1601090  56.0979033   2.1846342  36.9978237  55.2157688
  34.6288717  40.2361218  60.8513457  35.0837744  40.3985516  60.0249622
  34.5899857  39.2821661  60.9198630  57.1364759  35.6594062   2.5087233
  57.8837465  35.0981117   2.7155324  56.5435575  35.0954795   2.0120736
  46.4205265  27.2468185  10.2813065  45.9966373  26.5654325   9.7595209
  45.7315445  27.8928638  10.4367483  66.2697363  17.8853106  24.0342617
  66.4771843  18.4111869  24.8066950  67.0951366  17.8312969  23.5525632
  57.5139141  60.4951668  42.2392321  57.5272369  61.4143944  42.5058365
  58.1477833  60.4440689  41.5238047  67.5756216  54.7874832   6.9533151
  67.6939249  55.4918814   7.5905472  67.0434046  54.1369963   7.4113953
  24.4918215   3.2412521   5.4569697  24.6228802   2.5985757   6.1541259
  23.7974512   2.8676692   4.9142712  18.9962351   6.8145696  10.1470339
  19.8239815   6.9960443  10.5921566  19.2408096   6.2687723   9.3996906
   8.8789797  45.1465225  30.4439926   9.3054914  44.8948288  29.6248651
   8.1270266  44.5582914  30.5130911  40.4224253  59.3442726  58.9905357
  41.3778257  59.3220091  58.9362907  40.2322054  60.0890732  59.5609093
  24.2501629  16.4686266  57.6065833  24.5334232  16.1080137  58.4467948
  24.3458736  15.7427994  56.9899390  15.7923234  26.5225625  18.5979927
  14.9663699  26.8844914  18.2769918  15.8876967  25.6925154  18.1309175
  20.8913660  36.9786954  12.5739968  21.6370249  36.8322134  13.1560326
  20.2596331  36.3026905  12.8192914  67.7826822  21.3651816  61.1771760
  67.3536814  22.0646540  60.6842989  68.6808241  21.6733757  61.2979508
  56.4380693  39.5875955  40.6864023  56.6344929  39.2366505  41.5550137
  55.4861355  39.5214987  40.6110287  23.1467068  26.0452405  22.1860433
  23.9664900  26.3949148  21.8368793  23.3914816  25.2068464  22.5777221
  48.9688719   7.5257746  28.1114034  48.6819351   6.9250837  27.4236039
  49.5920313   8.1077782  27.6764635  66.0189629  60.4135180  40.1177454
  66.3898087  60.6840563  39.2777991  65.2218962  60.9359598  40.2070522
  52.0854902  56.0463619   9.3251002  52.5814486  56.6222525   8.7431973
  52.5616169  56.0767221  10.1549292  46.1517763  59.9645901   3.4063303
  45.5953264  60.2039289   4.1474855  46.9355345  60.5039930   3.5112533
  70.0640154  26.0947919  36.5580988  69.5444679  26.8537259  36.8232799
  70.0912046  26.1451793  35.6026125  43.5509109  56.2783527  13.8214660
  43.7444162  57.1377420  14.1959488  44.3612337  56.0206604  13.3819127
  58.2611799  48.1703806  13.4195507  59.0693092  47.9183006  13.8663328
  57.5626469  47.8190041  13.9716506  50.4215097  16.0912514  32.4520063
  50.7483101  16.9478273  32.7271652  51.1828613  15.5141222  32.5111914
  69.6523571  61.5437126  30.5765939  69.5706511  60.8208895  31.1987519
  69.8324680  62.3096800  31.1216545  53.5816145  61.2528563  60.8695841
  53.3028460  61.1895084  61.7830944  53.1121326  60.5461979  60.4263449
   8.0424821  66.8892288  40.1232862   7.2190988  66.5441370  39.7780561
   8.6065096  66.9765472  39.3548584  36.2057411  11.0863439  61.4565706
  36.2169408  11.9937555  61.1520720  35.9528028  10.5781881  60.6858397
  71.7604517  26.8991495  11.2237378  71.9941663  26.0908676  11.6801186
  70.8034872  26.9144178  11.2385007  55.4490932  14.3396688   6.8161126
  55.7755577  13.4774185   7.0733567  55.7312070  14.9226499   7.5209351
  75.6389805  35.9617972  45.9601307  75.2308670  36.7992043  46.1801863
  76.3517192  35.8692503  46.5923262  16.4764857  62.9962238   4.5260259
  16.6895377  62.6350387   3.6655684  16.9686925  63.8159880   4.5702334
  13.2252096   2.3626709   4.5515510  13.8048028   2.7449179   3.8926192
  13.7601923   1.6970039   4.9838897  37.5996828   2.9061309  42.3428917
  38.1430530   3.6597530  42.5731850  37.9094779   2.2038070  42.9147291
   1.4166534  27.6655260  59.1345031   0.7605112  27.7642695  59.8244009
   0.9623874  27.9252211  58.3329839  49.8998921  12.8149581   5.6319590
  49.8595506  13.5651327   5.0387975  49.8603502  12.0516277   5.0557681
   7.8147525  54.7874928  49.7039700   7.4556696  55.4519844  50.2919722
   7.1161813  54.6261692  49.0697765  72.6828884  38.8585639  10.6171914
  73.5662531  38.7745929  10.2582427  72.8083395  38.8521839  11.5661164
  14.9274242  60.8618736  44.9327898  14.1684091  61.4422464  44.8753786
  15.4340219  61.2023163  45.6701422  40.4166174  61.4823675  39.6383333
  40.9863567  60.7151985  39.5828152  40.7914639  62.1046925  39.0150857
  33.9970289   1.7961375  24.2068025  34.1619669   1.6089694  25.1309224
  34.8437796   1.6632621  23.7806722  26.8571186  42.1138000  56.8581486
  27.5154328  42.5352001  56.3056278  26.6305518  41.3101196  56.3901758
  50.7629496  23.4146715   4.9344083  50.5310150  23.3920122   5.8628055
  50.5309634  22.5451541   4.6082898  34.2939704  59.0451034  48.3361836
  34.0597879  59.2999729  49.2286130  35.1456588  59.4552239  48.1856557
   5.4868549  38.1113601  18.6045587   4.9550796  38.6151981  19.2206705
   6.2626100  38.6529207  18.4591413  21.2872028  62.7608490  50.6620312
  21.8991733  63.1226444  50.0210714  21.0278654  61.9156885  50.2950430
   9.8773581  52.9353619  37.8193164   9.0038246  52.6150846  37.5943923
   9.9769384  53.7385273  37.3081970   5.2346891  65.6822586  22.7540731
   4.6757200  65.3621435  23.4621072   5.0052106  66.6074944  22.6674223
  20.6913614  41.3879967  29.4179940  20.6787348  40.6912327  30.0741887
  20.9237576  42.1757698  29.9095607  59.8302794  38.6529231  54.8774910
  59.8925114  39.1625428  54.0696239  59.7638762  37.7445340  54.5831299
   9.9209308  64.9705109   3.0421849   9.6483588  65.4277691   3.8377067
   9.4895648  64.1177401   3.0963584   7.4292856  38.1665540  50.9707069
   7.2454214  37.8509450  51.8554735   7.2426456  37.4169850  50.4054213
  62.6966476   4.9410427  20.2020812  62.6981986   5.2997887  19.3146515
  61.8153000   5.1185465  20.5306411  29.5899280  61.3859948  13.1969090
  29.3281513  62.2825393  12.9873534  30.4304212  61.2719950  12.7532836
   8.3990109  48.0439520  22.8159451   7.7491319  47.3871279  23.0658984
   7.8968728  48.7125063  22.3499823  22.9893398  45.6238508  53.3457518
  23.1233335  46.1779785  54.1146564  22.0406795  45.6162262  53.2183981
  48.9605319  59.0032014  18.7156411  48.7378466  58.5711225  19.5402356
  49.4077813  59.8072370  18.9797040  57.3717392  22.7508235  43.4772778
  56.8635917  23.4730625  43.8465834  56.7196894  22.0826912  43.2659388
  57.8487026   3.5195486  33.4158301  57.0502459   3.1696121  33.0205560
  57.6620066   3.5404960  34.3544126  13.4387778   0.2811933  29.3223496
  13.2813429  -0.6543278  29.4498082  14.2850899   0.4407549  29.7401067
  26.3941765  50.3352928  50.4060602  25.5297542  50.7416582  50.4683208
  26.7042208  50.2920675  51.3106251  60.5626559  17.0257270   4.3577319
  61.1821604  17.5172365   4.8970506  59.7331619  17.0846570   4.8317561
  13.4279001  50.6074190  25.8529592  14.1142440  50.9601068  26.4193296
  13.0232537  49.9120378  26.3715529  44.7099774  17.0430494  14.0135642
  44.3427723  16.6134048  13.2410355  45.1820718  16.3481784  14.4723864
  66.0500050  46.5314722  42.7989006  66.5236294  45.8983707  42.2593689
  65.8817989  47.2683191  42.2115374  37.0402837  69.3606281  43.8029623
  36.1686945  69.7276258  43.9508724  37.6185799  70.1226759  43.7698889
  68.0230862  52.2288513  40.7099438  68.2172990  52.9561710  41.3011503
  68.2546002  52.5578356  39.8413801  70.4961449  60.8596134  61.7251205
  70.6256104  59.9740839  61.3855505  69.7758806  60.7737064  62.3496771
  44.1416311  47.6298475  53.5861111  44.5492458  48.4909058  53.6791468
  44.7293234  47.0350504  54.0520144  22.4129081  53.9968348  34.0550613
  22.2935152  54.0650368  35.0023341  22.4117899  54.9033213  33.7476325
   2.8424340  59.7918653  56.4894819   2.6698059  58.9481449  56.0716724
   2.1373197  59.8910856  57.1291733  68.3728200  51.6700172  26.0074759
  67.4674469  51.4702606  26.2454438  68.5838139  51.0402679  25.3181815
  12.6029098  22.6769400  37.1261668  12.2748387  23.4059024  36.5996552
  12.8878689  22.0268464  36.4839768  32.4069810  54.4753790  58.9355278
  31.6470408  54.0280581  58.5631943  32.1387434  55.3921413  58.9973497
  61.3636338   5.5719987  25.7064342  62.0186436   5.6074230  26.4035273
  60.5436718   5.3724042  26.1581564  61.9442260   7.9447738  36.4347458
  62.2880423   8.3851615  35.6575203  62.1765625   7.0244733  36.3110399
  29.5366430  63.8655710  54.4325495  28.8256264  64.4981575  54.3299675
  30.2613020  64.2359447  53.9286375  12.4925898  22.7860904  15.2740117
  12.6832794  23.6727071  14.9677773  11.6172193  22.8478217  15.6563064
  33.7135601   3.7361518  52.5920582  34.0442615   4.5801155  52.8996229
  33.7690961   3.1638566  53.3573246  72.4749945   2.8999202   5.1932021
  73.4030653   2.7715937   4.9971219  72.2080953   3.6231486   4.6258040
  54.8020708  -0.0910910  37.2795367  55.3680741  -0.1151522  38.0510879
  54.0378415   0.4131166  37.5587511  42.6835394  30.0214958  60.4587221
  43.4064054  30.6296635  60.3043652  42.0973206  30.1521373  59.7133970
  42.9667615   1.7523471  27.1666288  42.5783324   1.0527221  27.6918697
  42.5421106   2.5509635  27.4798679   2.3037684  52.8445625  60.0510693
   3.0668211  53.2113791  60.4976416   2.5529262  52.8261900  59.1270494
   3.9499992  37.6042390  28.3765340   4.5036170  37.7084112  27.6026559
   3.0866525  37.3856044  28.0257297  26.9138170  19.6321527  34.2802668
  26.3291715  19.2649309  33.6172652  27.5994142  20.0722162  33.7777448
  34.0700840   5.7088972  28.1978150  34.7127663   5.1921106  27.7118894
  34.3541132   5.6481481  29.1098805  12.5029695  52.1438551  36.1288929
  12.6674533  51.5461254  36.8582058  13.1336021  52.8530741  36.2535739
  48.2330704  52.5875711  43.6732435  48.4052658  51.7536831  44.1105223
  47.4731398  52.4142265  43.1176472  46.5520497  22.3370719  10.1973601
  47.3334672  22.8443885   9.9777051  46.1378007  22.8299165  10.9056874
   5.8731383  22.2911835  47.0078182   5.6921589  22.6685143  46.1469460
   6.3296860  22.9857302  47.4825811  73.1370747  19.3221036  61.0258245
  73.8712894  18.7808744  60.7355976  73.4825766  19.8154489  61.7697811
  71.0938200  42.6627350  51.8365288  71.2254971  41.9607162  51.1993027
  70.7800615  42.2165012  52.6230812  72.5206244  13.7245599  54.6204805
  73.2600057  13.1229154  54.7075224  72.9049313  14.5940725  54.7322226
  12.5983858  48.3543587  26.9338536  11.7336953  48.3725595  27.3439884
  13.2032609  48.1905317  27.6574016  51.6605938  48.8269735   2.7893849
  52.5147291  48.4636999   3.0233117  51.6215639  49.6641183   3.2518693
  64.8825359  31.1652398  40.2045584  64.1594172  31.1579251  39.5774412
  64.9528694  32.0797420  40.4783678  30.5476189  33.8170290  58.4679604
  31.0650253  34.1530514  57.7361059  31.0876250  33.1217623  58.8437700
  10.9169340  43.2346821  24.5537162  11.5717113  42.6153851  24.8761606
  11.1734784  44.0744829  24.9347019  42.8402972   4.2753307  33.4544921
  43.7278354   3.9174406  33.4750652  42.9312360   5.1615612  33.8045669
  19.2264807  36.8417883  48.1757784  18.7579715  37.1058273  48.9676189
  19.8094130  37.5769186  47.9860258   9.3648290   1.7449943  46.9482327
   9.8673677   2.4924699  46.6242456   8.4533321   1.9705526  46.7624140
  16.4697111  19.6269405  17.5541782  15.8952391  20.3617406  17.7693117
  17.2356713  20.0326681  17.1480715  59.5553624  54.4250866  18.3991548
  60.0496447  55.1805624  18.7172337  58.6498391  54.7323080  18.3558484
   7.5498079  31.6835666   1.0598441   7.9368328  32.0937086   1.8332930
   7.7345132  32.2949005   0.3468295   2.0792841  44.1677499  14.0879508
   2.4945711  45.0288606  14.0405198   1.1641072  44.3544031  14.2973300
  75.7292078  47.5591469  26.9506764  76.3784417  48.1889915  26.6375875
  75.1124539  48.0843592  27.4605775  64.8038232  31.9273138  57.8525877
  64.4777715  32.0712757  56.9642162  64.2385829  32.4667525  58.4055281
  75.1741885  46.2300229   1.7864438  74.3822049  46.3347364   1.2591525
  75.8192252  46.7981077   1.3652011  60.0872719  36.5634608  10.8168316
  60.4137611  37.4079108  10.5061221  59.4967675  36.2656617  10.1248407
   3.6956552  63.1043053  23.7757277   3.2628679  62.4776840  23.1958413
   3.0823398  63.2225418  24.5010543  34.2472625  69.3002367  26.3467288
  34.6152830  68.4233618  26.2376928  33.6456203  69.4009066  25.6090808
  29.5361280  53.7431383  35.5942559  29.2349195  53.0755949  36.2106085
  28.8187861  53.8307142  34.9665761  44.4068217   6.4683811  26.9691515
  44.4197893   5.5568210  26.6773915  44.6748304   6.4298431  27.8872561
  71.1266934  13.6298315  14.6157956  71.9414341  13.2690469  14.9654591
  71.4091289  14.3019620  13.9955473  20.0657785   7.4257294  55.0903652
  19.6394122   6.8072048  54.4971768  20.6190074   7.9608074  54.5212767
   3.0849921   7.9695741  40.3888321   2.7475512   8.8371889  40.1660872
   3.6793148   7.7521125  39.6706915  72.3490047  39.4614267  29.4283128
  72.0091194  40.3278446  29.2046452  72.7258241  39.5700526  30.3014898
   5.9474725  61.1916304   6.2572485   5.2055746  61.2418175   6.8599927
   6.5254253  60.5333471   6.6430807  73.5572647  31.5904212   2.7415868
  72.8921842  31.9778657   3.3106061  73.2139658  30.7227493   2.5282212
   5.4708671   0.8849565  39.9449611   5.9796798   0.6314842  39.1748333
   4.6458947   1.2149946  39.5889759  31.1994432  26.1709905  10.5885859
  31.2488626  27.0706678  10.9116479  30.3210377  25.8775449  10.8305045
  21.7154231  29.5713178  22.7967763  22.2231295  29.2148534  22.0678043
  22.3441421  29.6407835  23.5151911  53.3351385  57.3113021   7.1596499
  52.6380431  57.0064720   6.5788146  54.1304790  57.2534164   6.6301986
  45.3743649  70.3372145  49.8105335  46.0666418  69.7401857  50.0943327
  45.7726717  71.2062407  49.8592806   3.6719560  40.6272960   5.3268214
   2.8196167  41.0216451   5.1417895   4.0398930  41.1688257   6.0251065
  68.1763887  70.2277899  39.1702819  68.0209678  71.1350632  38.9077401
  69.0295267  70.2467251  39.6039057  42.8414391  28.3405424  14.7145053
  43.4461211  28.7504173  15.3330441  43.4034037  27.8246284  14.1363545
  10.3367006   0.6322519  34.3925691  10.7233393  -0.1183947  33.9417171
  10.9504997   0.8287517  35.1002932  75.8657693  19.4690442  33.9751836
  75.2439450  18.7513185  33.8550397  75.3739332  20.1339126  34.4571420
  19.4779372  27.5714898  49.7901154  20.2091956  27.9301047  49.2872381
  19.2003822  26.8017268  49.2934656  26.0133958  59.1191721  28.0012417
  26.9384170  59.1089344  27.7553439  26.0096216  58.8842821  28.9291644
  68.9102756   3.1313411  51.2380981  68.8617193   3.9046661  50.6760979
  68.0184471   2.7837268  51.2447596  21.0154128  56.0435534  54.3920517
  21.5258837  55.2612686  54.6010542  20.9372354  56.5082073  55.2252436
  23.5004330  63.5574818  49.1855574  23.7374425  62.6301003  49.1896629
  23.1348062  63.7073946  48.3137321  67.4692594  10.5573884  49.4296408
  67.0885241  11.3724557  49.1026163  68.2907116  10.4661123  48.9468241
  34.6180177  65.8747959  43.6624098  35.5267978  65.7463741  43.9341831
  34.4696355  66.8154287  43.7594891  67.7234649  29.9624372  46.4589234
  67.5344287  30.7426429  46.9802495  68.6786329  29.9384714  46.4013787
  16.9476855  38.2298160  37.9613471  17.7738440  38.3378744  38.4325337
  17.0478857  38.7674975  37.1757960  19.2571973  51.3070337  50.4153728
  19.2337292  51.9909612  51.0846424  19.9663484  50.7262746  50.6911612
  72.8502082  54.0590406  46.3572999  73.5201334  53.9596296  47.0337220
  72.1407341  53.4800458  46.6359349  16.2738251  36.9371295  10.7446500
  16.6398906  36.6174055  11.5692731  17.0363664  37.0835472  10.1848956
   2.8360354  66.6113027   6.4801093   2.4804055  65.9503993   7.0742198
   2.1195757  67.2342738   6.3583585  29.7476888  48.0640173  53.1190825
  29.9550962  48.6785460  53.8230515  30.4713583  48.1565475  52.4994278
  70.8974313  25.1870036  53.4739610  70.9280943  24.3402839  53.9193269
  70.1075112  25.6077266  53.8134499  33.6178708  69.4016457  52.0694876
  34.3105316  68.7415743  52.0970631  34.0353966  70.1709318  51.6820621
  41.2847327  41.2813497   1.6148349  41.9678633  40.6114746   1.6436788
  41.2583112  41.5572000   0.6986257  67.6622003  33.0256629  41.1257315
  68.2116574  33.7086821  40.7412672  66.8294579  33.4616613  41.3065004
  28.8618565  63.4256744  42.1726513  29.4263482  64.1738939  41.9783640
  28.6495757  63.5205269  43.1011820  46.8224852  35.8900667  19.5040437
  45.9291663  36.0893226  19.7842427  47.0733662  35.1286960  20.0271150
   0.1034820  66.7216587  29.3019128   1.0243683  66.8523598  29.5280027
  -0.3791322  67.0762825  30.0486088  59.0634632  71.1436129  41.4227772
  59.6830893  71.2644911  40.7032776  58.2022142  71.2329388  41.0147190
  37.1535683  49.9890041  48.4144974  36.3092232  50.4379416  48.3724785
  37.7385283  50.5287218  47.8827524  11.2704467  47.5252557  22.8013917
  11.3639473  47.9337621  21.9408055  10.3247451  47.4657274  22.9367848
  48.0795908  31.0468841  47.4977160  47.1247673  31.0786796  47.4383116
  48.3227873  31.8828440  47.8955317  13.2392371  54.3119287  31.0043979
  13.1481671  54.1407585  31.9417548  13.2334685  53.4440136  30.6007648
  44.5907068  68.7140283   2.3165389  43.7318205  69.1151151   2.1835919
  45.2137029  69.4216093   2.1509047  22.7164315  25.0690055  17.5775309
  22.7359127  25.7067609  16.8640061  23.3793568  25.3793550  18.1943341
  45.1580273  28.9731717   5.8956166  45.3217869  28.0307985   5.8590003
  44.9551343  29.1454721   6.8150588  63.6362337   6.0437513   7.1762772
  63.3876108   5.4661823   7.8979655  63.7176620   5.4616428   6.4207955
  33.5621452  50.7484961  36.5063548  32.7131319  51.0343122  36.8435717
  33.6340642  51.1702490  35.6500936  63.3389699  47.8487825  22.3469448
  63.1327307  47.3364687  21.5651321  62.5518870  47.7871799  22.8881836
   4.0911900  21.6022912  31.1728215   3.5069119  20.8560697  31.0386229
   4.0838706  22.0658533  30.3353930   3.2291650  36.3179326  13.1799098
   3.5989713  36.6421342  14.0011092   3.5397505  36.9349313  12.5172826
  57.3797988  32.3599172   8.2311889  56.8520146  32.0500017   8.9671441
  57.8313254  33.1333042   8.5691663  10.1290166  55.8973932  17.7607048
  10.0690854  56.8447351  17.8839338  11.0034251  55.6696224  18.0765557
  57.0998979  24.6938443  59.3471003  58.0308461  24.8477435  59.1862154
  56.7638814  24.3651032  58.5132790  71.6484445  65.7203245  46.6240311
  70.7512951  66.0256720  46.7586327  71.7252323  64.9480963  47.1843815
   0.4327177  40.2937723  19.0316029  -0.4965998  40.5195117  18.9910718
   0.5929374  40.1037431  19.9559709  40.1541125   3.0339075   3.5940095
  39.8401486   2.7086711   4.4377395  39.4524204   3.6049295   3.2812901
  53.7887955  63.8486528  31.3264418  54.6002054  63.3531666  31.4375424
  53.9882875  64.4838333  30.6387091  26.2628197   7.9717374   5.7557841
  26.4202522   8.5241056   6.5215131  25.6801151   7.2820783   6.0736819
  65.6030320  56.2944818  16.1335393  65.3535222  55.6014943  15.5221911
  64.8915636  56.3169122  16.7734929  49.7191000  17.1927035  55.1721239
  49.4985008  16.2617779  55.1414061  50.4331398  17.2905564  54.5421982
  38.1947433  53.1156659   0.4178544  37.9854452  53.4259344  -0.4631499
  37.3832368  53.2322336   0.9119197  70.5660891  46.9217039   3.0976506
  70.9509324  46.2020231   3.5978480  71.2384771  47.1549344   2.4575492
  24.8181844  65.1370192  52.9081059  24.4832325  65.8195877  52.3266125
  24.5230556  64.3177509  52.5107002  41.6145575  23.4672204  58.9397860
  41.2502551  24.3498365  58.8727617  42.4213159  23.5014192  58.4257793
  51.1682569  11.2274972  23.9797258  51.1072528  10.2853624  23.8219571
  52.0565164  11.4587919  23.7081957  24.3136260  67.4988183  32.6730081
  23.8383395  67.2502955  31.8801900  24.0847668  66.8231067  33.3111878
  17.9780006   6.6825191  57.4767065  18.4482330   6.7652885  58.3063221
  18.6512941   6.4333812  56.8435860  19.0838230  64.8576355  32.6090384
  18.7715113  64.0852308  33.0803013  18.4955168  65.5605555  32.8847694
  57.2369611   6.5409986  60.4938364  56.8712913   7.4222938  60.5702639
  57.6735317   6.5358774  59.6420097  67.8282892   6.6018096  28.6984301
  68.4190380   6.5477649  29.4496465  68.2397282   6.0536424  28.0302548
  16.9990050   5.8301727  49.8043823  16.8771111   6.6243164  50.3246784
  16.1377030   5.6587736  49.4235802  15.0769567  55.8954477  23.7020779
  14.7812295  55.7518721  24.6010590  15.3611338  56.8093586  23.6864972
  34.0383577  49.9524307  51.1121464  33.8444567  49.2963791  51.7816496
  33.9144754  50.7914209  51.5559626  31.0218465  17.0194761  60.6702566
  30.8924138  16.2131921  61.1696386  30.1550376  17.2266904  60.3210592
  65.1270747  20.7934618  59.0711355  65.1648092  21.6876960  58.7317944
  65.4434466  20.2499080  58.3495522  68.7036907   1.0883037  20.6413198
  69.4478285   0.4877178  20.5990505  68.0232679   0.6637470  20.1188183
   2.5399244  45.9787846  47.1585703   3.4843343  45.8228350  47.1598816
   2.4512596  46.9135094  47.3447371  60.4693067  44.7423029  34.2381167
  60.7974947  44.1788530  33.5373688  61.2555862  45.0308609  34.7015071
  59.9922407  11.0778368  44.2128611  60.6897175  11.3470721  44.8105812
  59.3298054  10.6832278  44.7800446  10.1987373  11.1093561  16.2095642
  10.1363098  10.2240793  15.8509135  10.5690395  11.6307584  15.4973483
  11.2026380  27.9342342  12.0410272  10.7532286  28.7678504  11.9019242
  10.7959508  27.3354507  11.4146920  50.1230061   4.6509353  61.9405985
  49.4648253   4.6383659  61.2457085  50.8796060   5.0846616  61.5460491
  46.7476606  21.5401196  13.0867994  46.5828919  21.1606288  12.2236264
  47.6970792  21.4849806  13.1954122  33.9956921   2.6744071  33.7895966
  34.0491217   1.9730417  34.4388008  33.4878176   2.2975246  33.0710888
  68.5229504   9.6190683  28.0920887  68.2558453   8.6999170  28.0995178
  69.4080269   9.6142332  28.4565735  27.8885174  62.4622488  48.9978456
  27.5938416  61.9481850  49.7495985  27.7316809  63.3713675  49.2530680
  26.9433784  32.3480129  53.0173397  27.2264552  33.1401062  52.5605202
  26.1130834  32.5914097  53.4267282   7.8373694  50.0744677  25.0427032
   8.1649655  50.5567074  25.8018827   8.6186403  49.8879433  24.5220733
  66.0289210  36.9491863  25.1998830  65.9178376  36.5010142  24.3614125
  66.9291776  36.7527199  25.4590559  14.6801627  68.6582899  47.1353149
  14.7523880  68.5232782  46.1904430  13.7559438  68.8623714  47.2781467
  63.1554103  51.4193439  52.1522522  63.6902022  51.5097141  51.3635397
  63.5808492  50.7222319  52.6515245  36.3507163  15.5949346  47.0682240
  35.8782458  16.1127893  47.7200174  36.0312366  14.7015325  47.1947193
   0.3851094  51.4117289  42.9200315   0.4606999  51.5048790  43.8696861
   1.2486666  51.6545534  42.5860596  37.5797557   4.0196458  52.0051146
  38.3412814   4.4135515  52.4307299  36.8514108   4.5962087  52.2360229
  68.7791556  40.6609631  46.3082314  68.7716997  39.7437596  46.0345268
  67.9893792  40.7586050  46.8401623  56.4932131  62.5947786  30.9962006
  56.7529004  61.7520929  31.3686105  57.2421234  62.8621698  30.4634114
  39.7214937  53.9165688  19.9091041  39.6317124  54.8578548  19.7602725
  40.0984359  53.5803986  19.0960014  48.0501782  29.6882097  53.4239388
  47.5364458  29.1050474  53.9827156  48.7711632  29.1435567  53.1080866
  68.5339962  10.0412059   6.2875672  69.1100882  10.5546308   5.7212230
  67.8531920  10.6571985   6.5582915  50.1875102  10.2441637  60.4064322
  50.2671682   9.4259302  60.8967257  49.4419443  10.1022474  59.8231411
  17.9175317  40.5229282  32.1246886  17.6738131  40.2534008  31.2391424
  17.8765607  41.4790249  32.1038580  59.8600924  14.1691820  58.3701992
  59.1461789  14.8067228  58.3600950  60.1141488  14.1086618  59.2910814
  69.5951055  52.5902963  34.0966817  68.9601170  52.7272153  34.7997304
  69.1506039  52.9021287  33.3083840  40.1687717   6.0294763  38.7049460
  41.0207116   6.3238803  39.0270567  40.3683543   5.5582420  37.8960371
  29.5546508  48.5931110  40.4643106  28.5982013  48.5567427  40.4536343
  29.7638512  49.1824150  41.1890078   8.1243228  69.3195463   5.7914039
   7.8749489  69.0538049   4.9062892   7.8653859  70.2393747   5.8472033
  16.8431795  66.3110113  27.9959321  17.3404777  65.9773064  28.7426353
  16.8909776  65.6113958  27.3444057  41.8667412  71.2380743  39.0619135
  41.5667152  72.1023417  38.7803912  41.7519522  70.6819582  38.2913351
  44.0430545  12.4295846  60.5486631  44.4995772  11.6059534  60.3770685
  43.2934689  12.4164525  59.9535322  33.9582872  53.3533096  28.9106822
  34.1620851  53.9134073  28.1616902  33.1919837  53.7615871  29.3135762
   9.3803595  48.8225675  10.7736464   9.3833732  49.1384721  11.6772099
   9.6021890  47.8940702  10.8437987  55.6743633   4.8051492  55.1821756
  55.8472430   4.9583522  54.2532682  55.4160392   3.8846580  55.2290916
  24.1656326  41.9354606  25.2245351  23.4679006  41.2951160  25.3636857
  23.8843559  42.7068782  25.7165070  30.8329361   4.0969507  29.2812705
  30.8020687   3.1526176  29.4346213  31.5824496   4.3985836  29.7945714
   4.5831369  45.7940126   2.0336743   4.1684007  46.1260057   2.8299209
   5.4455327  45.4934049   2.3202725  18.2202971  56.1742115  60.4455471
  17.9305172  56.0615635  59.5402479  18.8995314  55.5102539  60.5639887
   9.8687052  38.7136150   3.9257832   9.0403985  38.9445424   3.5052892
  10.5101990  39.3050266   3.5321399  32.3956418  68.1434536  49.2105341
  32.4060035  68.8743448  49.8285294  33.2388234  67.7090359  49.3392038
   2.8978440  25.1472998  42.0186186   2.1699953  25.7145596  41.7642879
   2.7382594  24.3281794  41.5497828  36.9822693  62.9021931  37.4947786
  36.7012429  63.5970020  36.8993783  37.6495838  62.4220181  37.0045185
  14.6545684  39.8033690  41.5646458  15.4570627  39.2907357  41.4674664
  13.9649534  39.2365360  41.2191582  13.6081313  38.4278036  35.6654092
  12.7570890  38.5671783  36.0807820  13.5282444  38.8476348  34.8089143
  15.3591657  27.5385451  26.2941217  16.2133920  27.3877740  25.8894038
  15.1395214  26.7038417  26.7079544   9.4976055   5.7972661  38.5993314
   8.7454378   6.2832920  38.2613182  10.2587330   6.2574283  38.2455325
  74.4810392  23.2673144  41.3169289  73.8543266  22.7491069  41.8218327
  74.0207376  23.4738469  40.5034828  53.2184099  47.1070695  24.5006772
  53.1082319  48.0367971  24.3014451  52.3394178  46.8054796  24.7301122
  14.6796893  23.7279916   4.6192475  13.9905595  23.2326770   4.1765376
  14.2089604  24.3554378   5.1678439  49.6229708   4.1742126  35.6149840
  49.0839779   3.3853332  35.6731796  49.9073040   4.3369094  36.5143800
  57.7078545   3.4347764  37.6260900  57.1110188   3.9746610  37.1078801
  58.5652601   3.8431589  37.5064731  14.1609394  22.4863664  45.1539278
  14.7041237  21.7786447  45.5007982  14.7874510  23.1184427  44.8015213
  23.0081081  40.7581329  47.1236801  22.4450874  40.4644632  47.8399181
  23.0684400  40.0013351  46.5407181   4.3518590  50.0800634   5.6151124
   5.0504803  50.7278848   5.5229255   3.5904502  50.4887033   5.2034017
  36.2414479  70.4714060  54.0619802  35.4464555  70.5327749  54.5915604
  36.5683341  69.5861673  54.2223644  75.7668494  63.7714029  29.1867371
  75.7174682  63.5924554  30.1257630  75.8451628  64.7235895  29.1281625
   7.9321818   0.6229274  11.5632363   8.8508223   0.4274146  11.3785621
   7.9319869   0.9422747  12.4655934  39.9880433   5.9828178  53.1768274
  39.4298589   6.6474048  53.5805416  40.8565831   6.1431829  53.5458183
  42.2370863  60.3310728  52.3004484  42.4737167  61.2490892  52.1682024
  41.4194489  60.3636360  52.7970791  66.3111984  46.9578290  19.7213288
  66.5725755  46.2510705  20.3115960  67.1336399  47.2741533  19.3474885
  62.7075183  10.6326906  61.3472462  63.4907925  10.8980600  61.8292093
  62.5245249   9.7457830  61.6572952  36.1393213  64.7103786  39.5652294
  37.0074224  64.9834824  39.8619556  36.2827229  63.8549328  39.1604090
  25.4170537  56.5472317  37.5903082  25.0499988  57.4207973  37.7258968
  25.6121230  56.5121031  36.6538525  11.5019715  54.0787220  42.9633188
  10.8655965  54.2236710  43.6634970  11.0550010  53.4948254  42.3505259
  72.3376382  62.2133090  58.3542681  71.4768088  62.0418962  58.7361336
  72.2719276  61.8839355  57.4579287  58.6611164  41.6633797  24.6861339
  58.3533669  41.2918854  23.8593841  57.9046834  42.1369457  25.0322199
  33.8692093  18.0402088  35.5111361  33.3302307  17.3310316  35.1607060
  33.3978605  18.8388658  35.2740502  63.6756146  10.2289951  20.5039883
  64.1158235  10.7012010  21.2107205  63.7939692   9.3048209  20.7233620
  11.1196899  36.2657189  47.6895666  11.2727416  35.7945943  48.5086203
  10.5162966  35.7062197  47.2005796  52.4829888  55.3337479  50.8374739
  52.8280568  56.1585331  50.4955864  51.9343376  54.9925661  50.1312065
  17.7385426   0.9852164   6.6919911  17.9510355   1.4503258   7.5011587
  17.9250324   0.0669436   6.8875110   3.1204373  46.7230272  38.9255977
   3.3668458  45.8113384  39.0815878   3.7456346  47.0312214  38.2695675
  57.0641667   2.3507014  61.4881812  56.6857660   1.7649880  62.1439115
  56.9589425   3.2264176  61.8600448  55.1955439  55.5790388  58.4756512
  56.1107470  55.7361459  58.2433770  54.8765827  54.9799466  57.8006838
  24.7958469  52.3265123  34.0249157  24.2849445  53.0263281  34.4316936
  24.3258214  51.5240431  34.2515302  25.5548692  27.6754642  41.3490438
  25.5735040  28.0792022  42.2167301  24.8147702  27.0693684  41.3827372
  57.1260590  68.6548098  16.3969696  57.1065689  68.7485137  15.4445660
  57.5494564  69.4550463  16.7077553  52.1699381  37.0464802  41.8245649
  51.9052219  37.5429511  41.0501814  52.1758819  36.1344981  41.5339041
  29.8883002  57.4230656   4.4808885  29.4981324  57.4537262   3.6073562
  29.4639393  58.1362232   4.9579163  28.9345074  11.8280160  46.0350609
  29.7858715  12.0416796  46.4168453  28.7547374  12.5491667  45.4318523
  30.4879164   7.2554469   1.8909427  30.9456347   7.0830608   2.7137490
  31.1422621   7.0868373   1.2129756  50.1362276  11.5142906  32.7686405
  49.8042583  10.6854045  33.1135702  49.8881364  11.5055430  31.8441916
  33.0407572  20.1534462   2.7354977  33.2143497  19.3849707   3.2791352
  33.6446190  20.0664139   1.9979286  15.8827073  64.9788856  40.4061369
  16.3036455  65.7081890  40.8612851  16.3335110  64.9304437  39.5631293
  14.5377469   5.0332016  49.0755415  13.7625563   4.5406663  49.3452072
  14.3076301   5.3914899  48.2182741  12.2674119  54.4412184  56.3732624
  12.6341522  54.9550962  57.0927525  12.3673129  55.0014305  55.6035805
   5.6180650  50.0422668  43.0137157   5.8932710  49.5514584  42.2393799
   4.9340931  49.5019007  43.4092093  52.9236269  20.0093937  35.1800585
  52.3324084  20.4092622  35.8178663  53.4605575  20.7356286  34.8630095
  57.2401631  29.4494581  29.1552854  57.7845860  28.9527822  29.7661448
  56.3417161  29.2347503  29.4061351  44.2373211  61.7735024  59.5668268
  45.1580388  61.8182536  59.8247147  44.2309785  62.0542981  58.6517620
  12.9164946  16.7458189  22.8083801  12.3087907  16.0213208  22.9568052
  13.7843466  16.3461924  22.8663754  18.9782155  54.4823599  49.4465113
  19.0063226  53.6371708  49.8949480  18.4264016  54.3283987  48.6796761
   4.7591978  43.1642628  34.8576164   4.5233339  42.9282618  35.7547784
   5.7156134  43.1279993  34.8439789  54.3718600   4.9140066  47.6752758
  53.4158039   4.9594530  47.6865292  54.6495008   5.7823437  47.3834944
  16.9587326   9.2032492  35.7830024  17.0554316   9.4965267  36.6890216
  16.3282263   9.8130769  35.3998542  13.7697399  66.5376501  38.7519813
  13.3379591  67.2739907  39.1851068  13.2673467  65.7704153  39.0261745
  24.9870589  68.6985215   3.6222239  24.9785887  68.6623796   4.5787021
  24.5840120  69.5405897   3.4107800  14.7876620  32.3855901  55.5603743
  15.3106821  32.5387478  54.7734690  15.2317810  32.8866506  56.2444305
  15.0383210  41.6554114   6.7973109  15.0299787  41.1978617   5.9565898
  15.9608769  41.6717204   7.0519801  32.3372679  68.0419525   6.7535468
  33.1833094  68.4887012   6.7242165  32.2693824  67.7162608   7.6510688
   4.4751158  43.3513737  49.8899317   5.0275016  44.1331005  49.8915195
   4.5429268  43.0083704  50.7809877  12.4112058  10.3274059  32.8734612
  13.1175447  10.0692570  32.2812819  12.4473143  11.2838316  32.8867435
  65.1630724  51.5731009  34.9137688  64.2228556  51.4027723  34.8570919
  65.3757001  51.4380892  35.8372378  18.4795315  12.4100947  60.3760604
  19.2660106  12.5892901  59.8607239  17.7578307  12.5154876  59.7561630
  74.6371672   7.2190297   5.4275399  74.4744760   6.7003971   4.6396416
  73.8173687   7.1711105   5.9193385  38.9723195  54.5640540  61.4353190
  38.0919922  54.4269359  61.7852532  39.0734542  53.8848674  60.7684542
  19.3256021  36.1696839  45.4519176  19.1526771  35.2515817  45.2435446
  19.1009045  36.2513518  46.3787794  67.7244753  34.3985796  45.9596682
  66.8676364  34.2967510  45.5453157  68.3469206  34.3690014  45.2330875
  70.9595290  47.1643209  17.7687848  70.5597931  47.0030975  18.6234486
  71.0784847  48.1135082  17.7352273  23.8871397  56.2930592   3.6352750
  23.1962490  56.2652906   2.9733582  24.5471725  55.6763812   3.3185788
   9.8190808  23.6140823  44.9833298   9.1029358  23.5695744  44.3497753
   9.5712489  22.9937720  45.6689119  61.0010612  46.6193485  28.0430198
  60.8892119  46.5189457  28.9883447  60.6427336  45.8128119  27.6724386
  12.2545934  55.3141594   7.8309667  12.6604915  55.5796862   7.0057565
  11.3785028  55.0189495   7.5828731  54.7789168  34.9464107  51.5312195
  55.6865311  34.7802973  51.2765169  54.2727065  34.7799373  50.7360649
  75.4523731  26.2376761  32.9284406  76.1851848  26.0521531  32.3412442
  75.5151415  27.1772146  33.1003642   4.1679984  36.2990117  49.4494343
   5.1198357  36.3201332  49.3504763   3.9842963  35.4334402  49.8144913
  48.2580471  42.5475979  34.6612406  48.3113885  41.5960550  34.7504330
  47.9829860  42.6881933  33.7552571  22.2369576  50.3373623  40.9524298
  21.3297415  50.2962399  41.2549162  22.1734738  50.6332827  40.0443363
  58.2506539  58.7000513  58.4510244  58.1744314  57.8938055  57.9407410
  58.0833555  58.4289384  59.3536542  46.6494346  34.3430710  33.3874655
  46.4492965  33.5431480  32.9013586  46.5528417  34.0950942  34.3069267
  29.5237637  17.5726759  32.7109075  29.1799164  18.4498119  32.5416923
  29.1973352  17.3516095  33.5831499  68.2433403  33.2034278  25.7430363
  68.2860744  32.2765565  25.9782243  67.3790741  33.3100986  25.3456712
  45.2237797  29.6029401   8.4510005  44.9350929  30.5062461   8.3208871
  44.8138189  29.3366575   9.2739576   4.0954310  49.5418596  46.2120152
   3.7098432  49.2684221  45.3796768   4.9988467  49.2280531  46.1720324
  10.4625940   5.1950876  51.3556242   9.9670398   4.5074216  50.9109068
  10.0079965   6.0052482  51.1249542  75.8036357  17.8105605  54.8265314
  75.7439032  17.5143087  53.9182949  75.0577775  18.4005070  54.9355793
  16.6387546  22.1962047  21.4890265  17.3351943  22.2091413  20.8324933
  15.9551978  21.6489816  21.1023378  46.7154670  10.4524827  35.4270148
  46.2754560  10.9687257  34.7516513  47.0337057  11.1010838  36.0549259
  55.0324392  24.0531230   4.9465817  54.3445349  24.0488195   4.2809981
  55.5498385  24.8343849   4.7512299  72.8837368  24.8354554  56.2822151
  73.4409380  24.9028897  57.0575905  72.8753194  25.7196593  55.9156847
  21.1861777  32.2208786  32.4262595  21.3008523  31.6471386  31.6686940
  20.8759737  31.6405725  33.1214213  55.8151424  20.4306412  46.3292837
  55.0265431  20.8582044  45.9953213  56.4457083  21.1425114  46.4381790
   7.4727237  59.9447727  19.2257595   7.0161772  59.1062737  19.2944264
   7.4980295  60.2778721  20.1227736   6.4039677  70.7510471  25.0806904
   6.0663861  71.6419268  24.9879217   6.9114828  70.7705069  25.8920360
   4.5827809  30.5714536  52.5131893   3.8067394  30.3642154  53.0338049
   5.1816756  30.9894395  53.1319332  49.8212552  23.5941887  51.8348694
  50.6604219  23.5097051  51.3822174  50.0569677  23.7420392  52.7507353
  56.5128160  70.2249146  52.4764442  56.3208103  70.6048155  51.6191006
  57.3333073  69.7486782  52.3490763  13.4412313   6.1512893  46.5048027
  13.5876012   5.8079773  45.6233597  12.7260172   6.7790288  46.4016390
  51.3749552  33.5036826  25.8313298  51.6797590  32.9329538  26.5367317
  52.1770859  33.8434124  25.4345894  63.2123124  19.8005700   0.7995244
  63.5406076  20.0630594   1.6594954  62.2771703  20.0028587   0.8281823
  11.0198069  16.0672259  18.7712586  10.1905179  16.5279567  18.6438322
  11.5998185  16.4281774  18.1007862  36.5115952  59.3243742  41.3787079
  35.7838488  58.7285852  41.2007856  36.1040092  60.1881456  41.4419746
   1.1677576  40.9822130  37.8765750   0.7193337  41.8044806  38.0741382
   0.4614596  40.3599072  37.7030683   8.3202249   8.2465929  18.5091054
   8.9516914   8.9314574  18.7292004   8.8167924   7.4313164  18.5796547
  63.1556892  57.4681854  33.7116170  63.6988115  56.7734575  34.0839100
  63.4242487  57.5164795  32.7941346  48.5928416   2.1682911  57.6311827
  47.7107453   1.7969726  57.6150417  48.6096001   2.7779686  56.8934536
   2.0854973   9.1322112   7.1856996   1.1438631   9.1481185   7.0145102
   2.3581742   8.2473970   6.9428321  68.7321609  35.8664465  21.1013699
  69.5950496  36.2601781  20.9724140  68.8237405  35.3445554  21.8985367
  34.1553413   4.3550086   0.3933116  34.2135035   5.2350021   0.7654162
  33.6810087   3.8474036   1.0517760  64.4363368  65.3373909  58.8566780
  63.7760162  64.7503996  58.4883738  65.2007675  65.2222013  58.2922220
  32.7343105   0.4140234   6.0918780  32.7267932   0.4097557   7.0490380
  32.8488254   1.3349581   5.8573600  12.3988390  46.9690371  54.5679903
  12.1795213  46.0458899  54.4417572  13.2947624  46.9584751  54.9047995
  39.3623889  58.3809575   9.1072202  39.1135634  58.9406320   9.8428029
  39.5272935  58.9903172   8.3876932  35.7664323  49.2893410  24.0463781
  36.5613723  49.3609428  23.5180068  35.9836340  48.6445761  24.7196817
  22.6134205  42.6009750  13.2506788  23.3846283  42.5851059  12.6839185
  22.6907492  43.4215355  13.7374389  64.0083122  40.4516363  48.5522270
  64.4986093  40.5010939  49.3728352  63.4127700  39.7120976  48.6732483
  55.9935331   0.3616265  21.8185997  56.5750766  -0.1749784  21.2799954
  55.1384091   0.2873603  21.3949490  51.5258622  36.7674732  46.7486191
  51.1235547  36.7948413  45.8804989  52.0698738  37.5541925  46.7853975
  54.0664220  45.4600000  29.4613409  54.1054225  46.2813711  28.9713883
  54.4326115  45.6751776  30.3191495  34.3318844  66.5603378  28.6783862
  34.0216232  66.5157067  27.7739644  34.7092915  65.6966098  28.8450289
   2.1919732  41.0551500  31.6983390   2.0431170  40.1158571  31.8070030
   2.2029242  41.1878347  30.7504439  75.8479368  69.9504026   1.8847104
  75.4947006  69.2246326   2.3992177  75.2711927  70.0069150   1.1228677
  17.5639272  60.7681608  51.3104248  18.4843266  60.9842110  51.4601564
  17.3922837  60.0316048  51.8971539  72.5263810  46.5665531   0.3562229
  71.5692019  46.5616274   0.3522169  72.7675912  46.9302750  -0.4956916
  59.5895135   6.3611364  54.3157816  59.1318786   5.5204684  54.3068790
  59.0249252   6.9465387  53.8110304  20.1183176  39.6598959  34.7275853
  20.4835176  39.4376802  33.8711500  20.6024122  39.1106629  35.3442121
  62.1494103   5.7872454  53.7433962  62.6489044   6.5770784  53.9505337
  61.2395871   6.0257689  53.9210508   4.5864367  57.3747015  17.3319733
   5.1696020  57.5252533  18.0759394   4.5493189  58.2187796  16.8820977
  52.3883283   0.6979648  52.0437908  52.6062476   0.0382654  52.7022266
  51.6731536   1.1996833  52.4349833  11.4868987  20.6726217  46.8701744
  11.5796292  21.0391283  45.9907961  10.6598938  21.0306096  47.1928787
  51.5429831  41.5893126  11.8231237  51.8604851  42.1573448  12.5250936
  51.0816240  42.1796989  11.2274563  54.7969079  30.9193349  22.0912623
  54.5422864  30.0422287  21.8047523  55.6342196  30.7919621  22.5372624
  51.6036521   8.7288547   0.9548970  52.4285228   9.1469598   0.7078906
  50.9449437   9.1570449   0.4080983  24.8543835  34.2311239  18.9003611
  24.2403340  33.9855146  18.2083702  25.1453471  33.3972478  19.2694438
  12.7630234   7.3998088  25.1481581  12.5790441   7.4347502  24.2094564
  13.3950806   6.6871154  25.2419829  67.4346405  38.1887197  44.9549246
  67.1088207  37.6363158  44.2443466  66.8043602  38.0630302  45.6642771
  21.5106834  58.7922295  24.7933578  21.4084948  58.0212208  25.3513336
  21.6406310  59.5159062  25.4062510  70.2367472   9.7746587  13.4361573
  71.0604714   9.3551278  13.1877585  69.9307047   9.2729020  14.1916772
  52.7372098  27.2745633  31.7218733  52.8222752  26.8305182  32.5655651
  53.6373329  27.3745847  31.4120245   7.8020132  37.6815534  21.7768621
   7.7409452  37.6253366  22.7304578   8.5960221  37.1935868  21.5585256
  15.1746583  27.1311355  48.4037161  15.8954120  27.3761034  47.8234243
  14.3945098  27.1824813  47.8514814   0.3068530  70.8602175  12.1948644
   0.1040780  70.5773934  13.0865642   0.3234899  71.8159756  12.2446843
  74.0073937  42.3010015  22.7687144  73.8395825  43.0205870  23.3772111
  74.9160908  42.4257851  22.4949813  43.1154442  67.0535612  29.5171714
  44.0046883  66.9011211  29.8369169  43.2339382  67.3709774  28.6219406
   5.8224815  40.7822227   8.2580954   6.6017437  40.8586216   7.7075082
   5.3984869  41.6379356   8.1931311  56.8369627  66.8617868  20.6948519
  56.3889885  67.0978212  19.8825467  57.1522093  67.6948738  21.0453033
  19.6717983  44.4510236  10.4338571  19.4878154  43.5956737  10.8221312
  19.4297450  44.3530890   9.5129605  37.1312213  42.2971773  58.1114769
  37.5308180  41.4481211  57.9226494  37.4742603  42.5372124  58.9722538
   2.9126281  29.1196918  44.5537281   3.8018084  28.7991500  44.7048712
   2.6233619  29.4360447  45.4095793  21.9231939  51.9261360  19.9785674
  22.3862243  51.6055346  20.7525492  21.1038089  51.4314413  19.9676394
  20.0218415  44.0717363  56.7156029  20.6010985  43.3394194  56.5048838
  19.1398036  43.7276602  56.5746880  28.0230904  22.9386687  24.7959018
  28.8810086  22.5758290  24.5755506  27.4708891  22.1719313  24.9489331
  52.3060060  32.0969129  43.4730196  51.6684818  31.4467859  43.7681961
  52.8584027  31.6249323  42.8498602  17.4940228  47.3742819  18.0445349
  17.5143147  46.7412663  17.3268247  16.6318595  47.2566319  18.4433639
  12.2067809  27.9852247  36.3452601  12.7003181  27.8983974  37.1608043
  12.6128089  28.7274098  35.8974504  22.0751572  26.3114619  55.9792089
  22.6832175  25.5774164  56.0667849  22.3802066  26.9530201  56.6207504
  66.8038601  54.4844866  53.7794161  66.9803256  53.5610962  53.9595318
  67.6231658  54.9309969  53.9929533  27.1700948   0.3687755  19.2018104
  26.8379907  -0.4608878  19.5447326  27.7248205   0.7124940  19.9020743
  58.5457790  70.8629981  25.3334236  57.8874791  70.4935091  24.7449088
  59.1937066  70.1659145  25.4358745  14.4378723  58.7847519  59.4950891
  14.9752034  59.1393900  58.7867541  15.0545682  58.6352801  60.2117310
  37.1048915   6.8546382  16.0361183  37.6066660   7.6592294  15.9053886
  37.4579739   6.2443201  15.3887594   0.4089949  69.1885662  40.6137276
   0.7782168  70.0523567  40.4299641   1.0363033  68.7822342  41.2117338
  12.1370113  40.7610416  25.4094839  12.8877628  40.8360624  24.8204350
  12.3899662  41.2620306  26.1848903  43.5999537  58.2652473  50.8071566
  43.2959557  58.7584496  51.5691042  43.6854649  58.9214993  50.1155996
  43.8294375   8.5771481  47.3455421  43.6563218   7.9785601  48.0721489
  43.7608201   9.4498888  47.7326457  50.8574626  71.4291642  18.4399533
  50.5717848  70.7209293  19.0170360  51.2112469  72.0927323  19.0321910
  21.0812750  64.2752537   4.1244288  21.1632171  64.8612889   4.8768159
  21.6846761  63.5567006   4.3136855  71.0898852  36.7244029   8.4926337
  71.6905126  35.9953117   8.6472452  71.6592905  37.4602652   8.2678825
   3.8512784  69.7995186  24.6778774   3.8361517  70.7564354  24.6956110
   4.7808447  69.5739698  24.7134662  -0.2610101  10.0861311  28.8924313
   0.4131624  10.6362927  28.4936261   0.1717237   9.6857965  29.6465564
   4.9940240   1.2031213  28.6774540   5.7076382   0.5782310  28.8059139
   4.3000018   0.6918851  28.2612777  75.1374840  43.4188032  48.8486385
  75.1569647  42.4640608  48.9143324  76.0312782  43.6914444  49.0560770
  38.1608092  68.5682639  10.0925227  39.0910768  68.3574804  10.0124951
  38.1279754  69.2602142  10.7530995  72.9496597  36.4194036   0.0007363
  73.1017875  36.7492319   0.8863421  71.9969891  36.3636947  -0.0737409
  15.3527689  17.6998723  41.6494751  15.8275509  17.3140192  42.3856354
  14.4995379  17.9371464  42.0126963  20.6786132  55.7280636  22.0960307
  20.7050824  56.6847515  22.0794129  21.4640236  55.4751205  22.5811911
  31.5514075  23.4146572   0.7013818  30.7793950  23.3282209   1.2606259
  32.2478448  23.6934543   1.2959214  72.2397774  28.5345101  44.9868345
  73.1890601  28.6126018  45.0816774  71.9908556  29.2830753  44.4446898
  63.7891113   0.4557458  36.8939424  64.5451247   1.0194246  36.7298055
  63.1016218   0.8061687  36.3275552  17.1378969  16.0294032  16.9308539
  17.3090767  16.9125629  16.6038009  16.9073414  16.1553598  17.8512927
  16.3940775  33.4001660  29.6017766  16.1471212  34.1562128  30.1343536
  16.8284786  32.8070354  30.2147388  33.0018997  18.9649177  30.3620577
  33.8460684  18.9880180  29.9114180  32.3699522  19.2488205  29.7015476
  75.7100090  66.9929361  15.9400082  74.9696627  67.5703335  16.1263692
  76.4131112  67.3154306  16.5038145  53.6938739  42.7729511  24.6002746
  53.5938621  43.1826973  25.4595399  53.0851626  42.0343781  24.6148086
   5.0595057  32.4941254  35.7286716   5.1657337  33.0164981  34.9336410
   5.9224498  32.5097060  36.1425757  16.5986132   5.9133077   2.5311109
  17.0036792   5.8307100   1.6677876  15.9456896   6.6050315   2.4241420
  14.1737890  31.7458987  25.6376600  13.4271407  32.2916293  25.8844924
  14.2894602  31.1494946  26.3773584  72.1185029  53.0118656   0.4982171
  71.5189272  53.5112190   1.0526426  72.9872182  53.2035589   0.8515140
  58.8917471  70.5537057  60.4162678  58.3302260  71.0121154  59.7911395
  58.9700795  69.6675920  60.0628556  36.4231110   5.0979239  26.7497325
  36.8180656   4.2330074  26.6394496  36.4834523   5.5009800  25.8836293
  48.9258838  14.5076549  21.5819955  48.9633417  14.9884427  20.7551527
  48.0230737  14.6156526  21.8811679   9.9046797  52.9702139  24.4930267
  10.1736498  52.1009159  24.1960216  10.2481842  53.5673046  23.8284063
  57.6721435  45.0441575   4.8021670  58.3626877  45.6213308   5.1281329
  57.7333145  44.2631364   5.3521701  44.1892767  25.7683015  38.9397454
  43.4947848  25.3937650  39.4816279  44.1263032  26.7118359  39.0881038
  33.3530998  15.6891739  24.8829031  33.8632584  16.4980340  24.9243379
  33.1168556  15.6020427  23.9594173  66.8892253   4.8885075  59.9173216
  67.2923077   4.3503252  60.5985806  66.1095799   5.2567497  60.3329950
   4.3984138   7.9346553  37.8922606   4.4898116   8.8515893  37.6332235
   4.0031898   7.5090734  37.1314001   1.6352117  32.5136828  49.2656565
   2.1798983  32.8001094  49.9988031   2.2123520  31.9589019  48.7409115
  57.8431176   1.4370919  26.4754220  58.2502734   2.1675396  26.0096951
  58.5167931   1.1366701  27.0854493   2.6662844  47.5822592  56.7654324
   2.7620631  47.7187634  57.7079916   2.4032897  46.6657162  56.6816616
  16.9816291  52.0148373  55.0789881  17.4156094  52.0691299  55.9304285
  16.0616302  52.2007418  55.2667999  12.8406525  66.0502338  49.1567850
  12.3209298  65.3657246  48.7353992  13.7482536  65.7729387  49.0318918
  63.7071824  60.9270000  56.0709572  63.1419611  60.1980162  56.3265705
  63.2636070  61.7043972  56.4102650  33.7417936  19.0548003  47.4058723
  33.8141179  19.9401939  47.7623510  34.4543409  18.9938176  46.7696428
   8.4122217  12.9609323  26.4067483   7.5635630  12.5669563  26.6087198
   8.5030222  13.6722815  27.0407581  14.6806908  51.4749479  58.8426256
  14.1594434  51.1435366  59.5738554  15.5637455  51.5670967  59.2003345
   8.2076126  55.5482960  19.8020303   8.0783337  54.6168756  19.9808502
   8.8733268  55.5700588  19.1145837   4.1699335  51.3320780  34.0755272
   3.3517909  51.8177700  34.1803074   4.0720499  50.8754158  33.2399988
  17.0450282  34.5594764  49.8715353  16.7564464  34.8052406  50.7504845
  17.8343451  34.0375543  50.0157881   6.2422365  57.2663116  19.8183155
   6.3793284  57.5045013  20.7352138   6.9063759  56.5999079  19.6420920
  54.6284032  52.8990555  23.6846972  54.2124844  53.6931515  23.3490586
  54.0944386  52.1842003  23.3381462  62.1813226  42.0139122  29.0468121
  61.7688918  41.8362474  28.2014894  63.0134058  42.4314690  28.8242936
  25.1103640  19.3125856  52.0578194  24.6882629  18.7397194  51.4175987
  25.1106954  18.8053465  52.8695726  21.4858890  25.8552623  13.9874852
  21.2177539  24.9919009  13.6729348  22.4418020  25.8139253  14.0149415
  59.8374236  24.1577578  32.2270584  60.1750577  23.4520316  32.7785873
  59.8863637  24.9378443  32.7795982  58.6905992  47.9625845  41.5146446
  57.8650320  48.4210157  41.6712046  58.6431491  47.6899719  40.5983162
  51.3990641  37.4257517  32.6616645  50.6166959  36.8973875  32.8196573
  51.9499445  36.8770194  32.1034074  69.2480003   0.1117937  24.3586826
  69.3335354  -0.0133046  25.3038096  68.6734592   0.8720867  24.2687392
  69.6746236  27.2801447  56.4240408  69.1102302  26.8678570  55.7700443
  70.5479288  27.2616506  56.0326004  14.6669459  42.3962879  46.4868879
  13.8682973  42.0528173  46.8874121  14.5845556  42.1739340  45.5595255
  10.6076658  34.8159838  32.4584317  10.4220569  35.6665397  32.8563476
  11.4221931  34.5305562  32.8723264  65.7495843   4.9535585  14.6636125
  66.5194308   5.2174735  15.1675101  65.0463473   4.9004960  15.3108140
  38.0988908  55.6927156  30.4317045  37.5077152  55.6981277  29.6789026
  37.8602958  54.9034882  30.9179401  51.8995571  62.1553421  56.7560673
  52.3640966  62.3354006  57.5733852  52.1525311  62.8718328  56.1739349
  49.3354096  10.2100826   4.6516534  49.5728537  10.0959850   5.5718871
  49.7134969   9.4493032   4.2106362  23.1121526  50.3232479  54.2983673
  23.0928419  50.5551207  55.2268569  23.3974434  49.4096410  54.2855392
  41.3754577  61.7000707  47.2122860  41.0342187  61.1673137  46.4939833
  41.5404517  61.0740753  47.9173660  12.8752494  52.7425623  50.8871794
  13.7378955  52.3801327  51.0889673  12.4162662  52.7503109  51.7271280
   8.9072633  29.3016720  15.6363237   8.6682010  30.1831436  15.9228325
   8.0834824  28.8143539  15.6480575  18.8572639  54.1845211   1.5327331
  19.6413385  53.6359688   1.5092965  18.3735847  53.9448842   0.7422515
  10.4206705  23.3766603  19.0064073  10.6808841  24.1371584  19.5261788
  10.5032909  23.6676216  18.0982506  11.3902068  18.0308855  34.1040897
  12.2263813  17.6964867  34.4284678  11.1378980  18.7013781  34.7389221
  34.1948068  25.8853094  13.8149822  34.5969265  25.1367895  13.3742511
  34.5774018  26.6502229  13.3851421   9.1982697  10.0557447   3.0689355
   9.3332671  10.9428382   2.7356597   8.3148860   9.8240400   2.7822705
  63.2553113  38.8984704  32.8643680  62.9304969  38.1371665  32.3835945
  63.6108911  39.4750047  32.1880531  70.7125431  29.6136379  34.4426703
  71.2677795  29.5364618  35.2185512  70.4111981  28.7208986  34.2740345
  59.3420589  60.3445435   4.1143367  60.0566220  59.7097635   4.0625334
  58.5479260  59.8104048   4.1310295  62.8409624  12.7511644  44.3662167
  62.9055071  11.8074286  44.5126009  62.9831088  12.8579259  43.4256697
  25.2798533  27.6001382  48.4174728  25.1083231  28.4076381  48.9019871
  25.2482843  26.9112253  49.0812778  34.9470472  24.8926640  30.8607197
  34.9483395  24.7997952  29.9080372  34.5342970  25.7418513  31.0180283
  17.4117362  20.0677991  56.0717392  17.5289071  20.9954500  56.2765932
  16.5866983  19.8312807  56.4955330  67.2033024  37.0663309  30.7651424
  67.7511597  37.7091217  30.3146935  66.8087113  36.5522981  30.0606561
  23.3027983  38.7678480  45.4386854  23.2550025  38.1746483  46.1883926
  24.2269945  38.7649560  45.1895142  18.4564638  38.8192177  53.4816170
  17.5622189  38.8762021  53.8182354  18.8923776  39.5984149  53.8266706
   1.6628112  21.2804747  58.1384277   1.8348798  22.2208762  58.0908298
   2.3618613  20.8825159  57.6195908   2.8371456  41.5635347   8.9616990
   2.8847533  42.4306822   9.3642175   3.7220395  41.4026260   8.6341286
  70.2675432  47.2895384  56.1988211  71.1741304  47.2198105  56.4979362
  69.9247807  48.0604601  56.6509533  25.9515032  64.2149028  18.7054654
  26.6299566  63.5430750  18.7731477  26.2206381  64.8906311  19.3277093
   1.2032589  38.8945913  21.4927936   1.7401248  38.7264752  20.7183623
   0.7988038  38.0501628  21.6917586  59.6268641  68.5596212  10.2584287
  60.5213224  68.4400472   9.9392482  59.2308199  67.6907047  10.1923772
  45.8983946  70.4799843  37.7809620  46.0895491  69.6536684  38.2246876
  46.6187763  70.5908918  37.1604943  16.6337751  45.8205533   1.2366744
  17.2816824  46.5209890   1.3131162  17.0427631  45.1782251   0.6566926
  58.6997938  57.6032352  40.2817869  59.1396618  57.9408598  41.0620165
  59.3962860  57.1833277  39.7769976   5.7948297  63.2910347  28.3306980
   5.6847894  63.4642887  29.2656326   5.6783509  64.1446590  27.9135823
  24.8782346  16.9168798   6.8467897  24.3702667  17.0655481   7.6443481
  25.6432601  16.4212934   7.1389604  56.8114615  40.0809765  15.5355775
  57.2819936  40.4445982  14.7855043  56.8503940  40.7694721  16.1994231
  13.1368911  31.0964131  60.9799004  13.8261688  31.0070968  61.6380405
  13.6074364  31.1996531  60.1527596  57.4583555   3.2481853  57.0802472
  56.8859274   2.8413621  57.7306722  56.8617118   3.7120024  56.4927773
  27.3703061   9.1132299  28.9807940  27.7555897   8.2409278  28.8978267
  26.4406258   8.9832250  28.7936449  72.6979387   8.1872860  49.5246057
  73.2313383   8.9809910  49.4827262  71.8611992   8.4798208  49.8858825
  26.7655182  39.2888761  56.4131641  26.6956353  38.6200285  57.0943308
  27.3692775  38.9149523  55.7713747  67.8938950  27.0042053  61.3374257
  68.4522462  27.5697294  61.8709584  68.4405172  26.7653671  60.5888314
  70.5767673  32.9953551  10.0390482  69.6396929  32.9936838   9.8438054
  70.6307954  32.7269888  10.9562683  62.8797710  10.7833067  53.4786294
  63.0535710  11.0935703  54.3673150  62.1003104  11.2664906  53.2043974
  19.6381140  54.1267300  61.3764286  18.8796115  54.1722488  61.9585228
  19.9134636  53.2107162  61.4129972  45.3513670  19.9606144   9.1898817
  45.7086682  20.7172489   9.6547151  44.7267413  20.3344274   8.5683209
  13.0388379  63.3539248  15.6243217  12.8972089  64.2500114  15.9296179
  12.4082959  63.2407331  14.9131012  75.7366316  71.7833853  23.2326794
  76.1126542  71.0760975  22.7086735  74.8325090  71.5108538  23.3892632
  52.7289486  32.1678615  38.7610841  52.0147228  31.5675783  38.9750290
  53.4814739  31.8266392  39.2443085  43.8213361  71.3953423  55.6542120
  43.8037981  70.5291104  56.0611121  42.9431857  71.7467808  55.8010928
  18.6359334  40.7791424  58.9012051  18.7091100  41.5032387  59.5229530
  19.3293500  40.1715231  59.1585016  18.5904551  56.5526772  30.2013278
  19.3538332  56.0033846  30.3795457  17.8417051  55.9687901  30.3224993
  74.1480750  48.5570383  15.0248134  74.2418045  49.4380522  14.6625066
  73.5486171  48.6642933  15.7633114  66.0833752  46.5653309   7.6575585
  66.7722141  47.2266730   7.5915547  66.1320555  46.0854479   6.8307706
  18.5513914  25.1914358  48.9922047  17.8584480  25.1693296  49.6521854
  18.1903875  24.7072744  48.2495785  62.0961666  47.5176573  17.3102856
  62.9830790  47.7016830  17.6197302  62.1987629  47.3537540  16.3728213
  27.1343255  49.3768644  38.4153581  26.3679838  49.3675566  37.8418875
  26.8056130  49.0674448  39.2594194  38.8853550  62.4472141  12.1764910
  39.8280716  62.4989176  12.3341107  38.5371447  63.2626438  12.5371265
  17.5814581  49.3286037  35.8733940  17.3515880  48.4667158  36.2205887
  18.4280503  49.1968775  35.4465890  59.1709578  50.4532290  36.2717962
  59.3045902  50.6358290  37.2018671  58.3720028  49.9268293  36.2434411
  14.9206138  70.4782343  30.1794815  14.8031938  69.7446203  30.7830167
  15.1326776  71.2214184  30.7442307  27.7407837  47.6095486  42.8094482
  28.3087969  46.9462824  43.2014513  27.7389932  48.3276939  43.4422922
   7.4388486  25.2137470   7.8023952   7.3818505  24.8330688   8.6787903
   6.6627055  25.7694793   7.7317137  18.9382482  65.1126432  58.0759525
  19.5067883  64.7991085  58.7792969  18.3128357  65.6905270  58.5131454
  13.2645917  45.7315540  36.5304971  12.4903595  45.8671427  35.9842253
  13.4631801  44.7998142  36.4374542  23.3552116  17.7947179  19.0315986
  22.8608337  18.0804864  19.7998154  23.4260739  18.5787717  18.4871078
  22.6868892  67.0653105  30.3393579  22.5574183  66.1210012  30.2512980
  22.0150208  67.4525356  29.7782135   5.1517469  47.8652811  33.4043741
   4.8001009  47.9643822  34.2891097   4.6128839  48.4450626  32.8661251
  57.6861792  36.2246061  12.6175233  57.2658651  37.0822645  12.5543424
  58.4897309  36.3133407  12.1050187  74.0324043  60.7812643  35.6578946
  73.8478155  61.0375452  34.7543001  73.2687983  60.2680874  35.9220576
  72.3425916  61.5314722   2.9700577  72.2995958  61.6564417   3.9180899
  71.4303896  61.5668726   2.6821923   3.5037756  48.4303665  40.9138823
   3.4666872  47.7020645  40.2938557   3.1913793  49.1854477  40.4153967
  56.1380255  13.1848279  41.2533951  55.9761989  14.1100160  41.0688305
  57.0828020  13.1310026  41.3973713  19.0800416  42.6208115  60.8234358
  19.0585685  42.1438932  61.6530848  19.9206305  43.0785990  60.8320141
   3.2072976  33.0487823  56.3941717   2.5932240  32.9554987  55.6658554
   3.1052631  33.9570165  56.6786528  34.9172126  42.5446201   2.8157493
  35.3906535  43.0458665   2.1517917  35.5160700  41.8368316   3.0537291
   4.9855742  56.3941193  43.8724661   5.1988715  57.3166847  44.0124989
   4.5921776  56.1112642  44.6979713  21.5540671  62.4020529  34.5422411
  21.8808556  61.9294262  35.3077888  21.3241100  61.7149591  33.9167380
  12.9747938  10.1235509   8.1914874  12.3385166   9.5753217   7.7323314
  12.4722742  10.5370784   8.8934155  57.1949827   4.5438806  47.1788883
  56.3047325   4.5505563  47.5305176  57.1549618   5.1188413  46.4146566
   4.6451283  22.8868580  44.5964479   5.0998807  22.2004628  44.1082954
   4.7635445  23.6756516  44.0672827  54.3130732  26.1599398  12.4713731
  53.9246702  25.6771111  11.7418194  53.7549758  26.9310045  12.5724435
  43.5234427   0.6820241  35.9459591  43.3117163   0.5119792  36.8638301
  44.3877696   1.0925237  35.9716082  20.1649690  27.8488636  35.1864719
  20.2821565  28.4347558  34.4386554  20.4528761  26.9933748  34.8679113
  12.5560749  52.8570557  45.7435369  12.7853215  52.0032740  45.3764820
  12.4053860  53.4136009  44.9794817  29.3191218  31.1168242  53.5292864
  28.3998275  31.3806176  53.4900475  29.2980504  30.2264905  53.8801336
  31.7158389  59.5861006  55.0935030  30.9250307  60.0467014  54.8129606
  32.4168754  60.2298117  54.9914312  21.3439205   1.9126502  35.6835365
  21.2317115   1.0846178  35.2166271  20.5055943   2.0553581  36.1229396
  56.4063406  70.5898190  49.5587969  57.2160339  70.7734346  49.0824461
  56.4496946  69.6534967  49.7528553  67.4220037  61.5731573  37.8638268
  67.3518711  62.5065136  37.6634502  67.1499181  61.1340761  37.0579672
  14.4625199  45.4839039  27.3545671  15.3137207  45.5703402  26.9253635
  14.3748975  46.2820196  27.8756809  26.2477243  20.5032316  57.7598531
  26.7890060  20.2033535  58.4901402  26.8719614  20.8707110  57.1341393
   6.8849146  33.6697650  19.1006863   6.5453005  33.1473589  18.3740616
   7.8327084  33.6782765  18.9670968  36.8395102  16.5620271  15.9625256
  37.0883965  16.4313356  16.8775153  36.1044526  15.9641782  15.8265126
  67.3321843  59.7751904  27.0546412  68.0643952  59.8929596  27.6598096
  67.5834507  60.2709198  26.2753153   1.2385596  55.0003195  34.8414135
   0.3380182  55.3210497  34.8902655   1.3145319  54.3874359  35.5727386
  26.2392473  47.9497910  40.7092428  25.5459785  48.5128880  41.0535288
  26.7311835  47.6751757  41.4830732  -0.3309023   8.0458132  55.8531467
   0.5319560   7.6314608  55.8579634  -0.1945745   8.8880507  56.2870578
  27.5850557  39.4456554   1.1199304  28.4380554  39.8196197   0.8990832
  27.6795815  39.1521383   2.0261022  30.8924723  58.8186121  25.7565665
  31.4090633  59.3912888  25.1896358  30.9851313  59.1992807  26.6299152
  65.0698149  59.0056181  21.1313796  65.5240500  58.1724072  21.0062361
  65.0586009  59.1321659  22.0801115   7.6596326  51.5104246  57.4494553
   8.3053136  52.1554899  57.1609831   7.5874823  51.6495228  58.3937454
  40.1891863   1.5956823   0.8785866  40.1448392   2.2118799   1.6097261
  39.2982804   1.2550441   0.7980704  16.4978957  33.8887978  57.5147438
  16.6280687  34.8316860  57.6159716  17.2644281  33.5925150  57.0239496
  50.3446203   2.0810095  53.1736038  50.5967218   1.6515914  53.9910857
  49.5119871   1.6731516  52.9356841   9.4735872   1.1471311  57.5308418
   9.6384966   1.6539518  56.7357492  10.2391159   1.3101379  58.0818701
  18.8451040  21.5509987  36.6859746  19.2059851  22.2674513  36.1637759
  19.5709777  21.2722707  37.2442293   4.8218583  27.7529931   1.0171433
   4.3915748  28.1092096   1.7944451   5.6485437  28.2321430   0.9602376
  24.4412422  45.1273060  48.6160278  24.0180516  44.5552301  49.2562437
  25.3115225  45.2909565  48.9794350  10.4175842  66.9275093  16.0260284
  10.4427719  67.6654577  15.4169071  11.3349354  66.7697382  16.2492049
  11.7816746  44.6361446   7.1014309  12.1842873  43.8170671   7.3899633
  12.0327425  45.2746010   7.7689427  72.1730194  68.5494661   8.5927647
  72.4629340  69.3401098   8.1377161  72.3704842  67.8371048   7.9846692
  17.3124576  22.9983211  24.0698528  16.9272506  22.6045465  23.2870436
  17.9516137  23.6259365  23.7324977  62.3015891   9.3052459  48.1151696
  61.3869726   9.0764404  47.9497643  62.7400218   8.4637094  48.2409783
  13.7010562  70.5016947  34.2186308  14.0393043  71.3378048  34.5391560
  12.7610338  70.6482124  34.1131663  17.9035305  70.9156919  12.5691720
  17.9543804  71.6996217  13.1160708  18.5183405  70.3024316  12.9718562
  29.5945402  56.1795482  11.0571738  30.2650481  56.7529949  10.6859466
  30.0859248  55.4516395  11.4378568  72.0892762  13.0866599   3.7351867
  72.1695327  13.3344198   2.8140994  72.7774309  12.4348617   3.8687249
  30.4119945  62.1359110  30.1893711  30.7685971  62.9001617  29.7366142
  29.4713855  62.1718836  30.0156116  20.7054710  66.0064602  27.8266025
  21.4593077  65.4772472  28.0871677  20.5211735  65.7344913  26.9275475
  50.0425148  56.5049219  32.1219492  50.5745888  55.7281780  31.9493079
  49.8737192  56.4751387  33.0636787  71.0865697  25.3142691  24.8723578
  70.3729564  25.5743623  24.2898297  71.7975903  25.9208941  24.6657538
  15.2197051  48.5975409  48.3326435  15.5624664  49.4524240  48.5932541
  15.2138329  48.0852365  49.1411877  72.9521343  41.1962080  15.2819884
  73.6258101  40.9451771  15.9139514  72.1960941  41.4329481  15.8191943
   8.5850466   8.9300600  57.6967890   9.1521776   8.2237688  57.3873607
   8.4630693   9.4919745  56.9315387  27.9773998  57.0579910  22.1701097
  28.2064223  57.9328823  21.8565106  28.5509491  56.4697504  21.6789412
  30.6377255   1.4899675  30.1821208  30.9071224   0.6563894  29.7963762
  29.7645008   1.3194267  30.5351448  63.6611152  12.2121441  16.8941438
  63.5607755  12.0999169  15.9488559  63.6887836  13.1604767  17.0211482
  18.7668884  52.5719500  52.7662945  19.4931650  52.8658438  53.3161831
  18.0699289  52.3553896  53.3856344  68.6731380  28.2410884  30.4380322
  67.9805851  28.0892277  29.7949624  68.3842850  29.0140891  30.9230757
   9.1612338  23.4883762  11.4869805   9.9858712  23.0349994  11.3118907
   8.5802530  23.2108522  10.7786914  21.7903781  60.7076311  27.4069786
  22.0549345  61.4354229  26.8443394  20.8495235  60.8314657  27.5322342
  59.8783814   6.3860599  47.6810074  59.7105824   5.4768125  47.9286957
  60.1622736   6.3371459  46.7681837  28.1053948  51.5525007  37.1981025
  27.7128625  50.7482529  37.5377202  27.3688459  52.1560907  37.1010995
  20.3132081  39.4708276  31.8014145  20.0329804  38.5798168  32.0107007
  19.5268190  40.0034189  31.9204617  46.2794721   9.8597566   8.0734998
  46.4130914   9.8329393   7.1260518  46.7281830   9.0801755   8.4008241
  47.3696947  41.8625975  51.4562893  47.1657085  42.0730495  50.5450630
  48.1336594  41.2882423  51.4042139   9.3886483  34.1631762  61.3733946
  10.1290072  34.2925516  61.9661530   8.7220252  34.7749821  61.6857091
  28.5911798  58.7232399  19.0533984  27.6743269  58.5553837  19.2712045
  28.9813948  59.0230036  19.8744369  70.8801364  23.3706212   1.7732402
  70.6592177  22.4393821   1.7582103  70.2040075  23.7683511   2.3217793
   7.7183104  46.8723249  33.5487556   7.0002282  47.4794054  33.3697486
   7.5914985  46.1599159  32.9221559  44.0582108   9.2764513  44.6607447
  43.9759969   8.7068120  45.4255915  43.9766764  10.1629487  45.0124693
  41.7347479  58.3896065   5.9022760  41.7322111  57.4995947   6.2545592
  41.3827133  58.9285898   6.6106534  60.1772642  25.2181315  44.2979479
  60.0790167  24.3287754  44.6379805  61.0599816  25.2370453  43.9282417
  11.9736183  65.6398058  19.9538565  11.6278625  66.0963821  20.7208157
  12.7136493  65.1340151  20.2896523  61.1923707  68.1168652  14.2093158
  60.2466643  68.1307507  14.0620756  61.2923932  68.3077478  15.1419425
  22.7223396  65.6868029  38.0418777  22.9701996  66.4882803  38.5027790
  23.4079719  65.0584507  38.2684064  20.6389260  28.9045334  32.6814604
  20.6631351  29.4235754  31.8775678  21.4740276  28.4368110  32.6898074
  48.1388617  46.6489649   5.0355554  47.5120592  46.9601727   5.6886268
  48.7630081  47.3684597   4.9406859  37.4866557   1.4345352  51.2886524
  37.7439713   0.8234588  51.9790173  37.5634193   2.2987691  51.6929245
  44.5700741  50.0931787   2.6632178  43.8088274  49.9092484   2.1128523
  45.2867031  50.2286577   2.0432824  28.5053921  69.4330025  19.3230009
  27.8220606  68.7857628  19.4972730  29.3031716  69.0403843  19.6774507
  48.5483885  64.3801403  26.8332243  48.2672358  65.2803516  26.9969463
  48.6146545  64.3194818  25.8802485   1.1686147  10.2093664  61.3648632
   0.4944385   9.6388117  61.7339027   1.2393249  10.9314648  61.9892049
  24.0598297  47.2711039  46.9417667  23.2609129  47.1155310  46.4380169
  24.2547274  46.4268255  47.3485136  34.3307471  47.3203516  61.4855719
  34.2092371  47.5501013  62.4068117  35.2164936  47.6187754  61.2791157
  68.2805169  16.7337084  46.0192776  68.5505807  17.2942376  46.7466736
  68.1776291  15.8662903  46.4107275  30.2968954  32.5956512   9.4072982
  29.5413612  32.0771623   9.6840115  29.9704861  33.1252075   8.6797973
  13.1094980  25.8295385  22.0097065  13.9839160  25.8947221  21.6258121
  13.1627833  26.3433973  22.8155255  27.9416623   1.9981185  54.1745424
  28.7857085   2.1532289  53.7505627  27.4673411   2.8232948  54.0729046
  54.2840802  10.6948320  56.2322378  53.4988939  10.9317342  56.7257929
  54.9840843  10.6871263  56.8850517  20.1965022  51.4098883  11.9694948
  20.2670145  52.0123243  11.2290013  19.9961233  51.9723654  12.7176273
   2.9172048  67.2135115  19.5137763   3.3187598  66.9340277  18.6910510
   2.0087701  66.9188929  19.4491303  21.2316370  54.5191669  19.6943223
  20.8191013  54.8096180  20.5077624  21.5425467  53.6344099  19.8860765
  40.5347788  28.6970273  23.7379622  39.8213386  28.3104269  23.2302523
  40.5887544  29.6003095  23.4258580  17.2661078  51.6281986  30.6647158
  17.1990442  50.9949541  29.9500561  18.1645775  51.5370083  30.9820008
  24.0639249   8.0006305  38.1056714  24.1179393   7.5893060  38.9683008
  23.6865183   7.3255912  37.5416565  68.4583866  21.9500486  48.1201410
  68.0736362  21.4191572  47.4227524  69.3910276  21.9852010  47.9075861
  66.2022901  61.2450647  29.2119741  66.5500093  60.6358814  28.5606551
  65.5392993  60.7398510  29.6825457  29.2620981  68.0552699  32.1739936
  29.3581665  68.5552310  31.3634109  28.4619725  68.3971866  32.5728917
  34.5780062   5.3915636  14.0852690  34.9781799   6.2171880  14.3581069
  34.2942970   5.5489866  13.1847370  41.6021633  52.7664566  49.8181200
  41.8366337  53.3429956  49.0908957  42.3131657  52.8761005  50.4495382
  60.0224007  36.1480633  53.3973346  60.6942642  36.6527382  52.9389290
  60.2434326  35.2346054  53.2157610  63.6083901  58.1179285  49.1697550
  63.6723948  57.8122711  48.2649326  63.5999894  57.3166037  49.6932364
  49.1488361  69.5428562   2.4020523  49.4857073  68.9065456   1.7712945
  49.8267412  70.2171135   2.4473798  16.6190696   9.0355611  26.0662127
  17.4480176   9.3175465  26.4529467  16.5128303   9.5925164  25.2950144
  62.1476721  19.6752811  25.1220342  61.4682805  19.8393178  24.4680043
  62.4262058  18.7744451  24.9572965  27.4013782  68.7325668  51.2639046
  27.8854847  68.7344933  50.4381466  26.5043044  68.9564133  51.0161448
  32.5884371   6.3706151  40.8754349  31.9500869   5.7543603  41.2345600
  33.0106317   5.8902589  40.1632261  26.1789918  21.7415285  11.8695962
  26.7651796  21.3431764  11.2262201  25.3028226  21.4707232  11.5953219
  68.9277655  33.4539986  57.4731255  68.1797206  33.9921355  57.7320957
  69.5708543  33.5867453  58.1695795  32.2659326  52.2982407  34.4900513
  31.4575076  52.7322626  34.2174530  32.3117614  51.5128851  33.9447546
  50.1666546  61.2851906  35.2918053  49.2683554  61.0162830  35.0995135
  50.3303242  60.9583902  36.1764765  12.7953970  32.7761364  29.3787289
  12.0962310  33.0834723  29.9557400  13.5979009  33.1213832  29.7699094
  10.2296793  35.9687352   9.3241471   9.3729585  36.1471987   9.7119761
  10.6650782  36.8209076   9.3026704  39.3080329  10.4729501  20.5460477
  39.6926188   9.5965330  20.5310225  39.9798667  11.0359422  20.1614642
  25.8357951   5.5577890  18.6409163  26.5811215   5.4880802  19.2374575
  25.0755762   5.6425897  19.2163348  39.5304763   0.5707208  37.9256725
  40.4086208   0.2360002  38.1074834  39.6011805   0.9702436  37.0587158
  17.5088871  44.3387508  34.3987250  17.5294948  43.8236046  33.5922337
  17.2023046  43.7256241  35.0667953   3.8290563  57.8703547  36.6957879
   3.2706150  57.3293734  37.2540998   4.7208038  57.6017046  36.9167948
  33.5425531  22.0372892   6.0721656  32.9854034  22.7164483   6.4523717
  32.9528462  21.2975288   5.9264537  47.3728824  43.6558437  48.9861012
  47.3362732  43.3966255  48.0654001  48.2778120  43.9377546  49.1197586
  35.6043005  58.5335159  34.0035844  35.2455759  57.7337265  33.6190248
  34.8462391  59.1076708  34.1127825  61.3172603  42.5864649  33.0362582
  61.0489094  41.6688251  33.0826497  60.9459639  42.9032564  32.2128391
  28.3241569   5.9219018  32.9297304  27.7004884   5.3119699  33.3237481
  27.9329207   6.7850105  33.0646873  51.0643637  23.1533472  21.6489649
  51.7717230  22.9023687  22.2430038  50.3460896  22.5595609  21.8674564
  35.7779145  68.3317614  40.7298803  36.2942243  68.5651779  41.5013504
  36.4252782  68.2169151  40.0342035   8.8625056  51.2157679  45.5491829
   8.2130343  51.4215899  46.2215328   9.1267592  52.0679808  45.2025747
  34.2824500  11.1393491  43.2760096  33.3448988  11.1295930  43.4687138
  34.6753668  10.6115858  43.9712143  18.8185418  46.1216068  36.1750507
  18.1442964  45.4941654  35.9143901  19.6195412  45.7972383  35.7634497
  63.4813929  35.5919838  42.6053238  63.8042545  36.3577557  42.1303654
  62.8899050  35.9519124  43.2662487  62.9253876  47.7615690  38.5085917
  61.9995165  47.5238705  38.5585260  63.3801222  47.0492506  38.9580894
  30.1398587  53.5731649   4.9174199  30.7864738  54.1490221   5.3254771
  29.3120146  53.8072300   5.3370881  39.4767618  18.3165971  49.2764854
  38.8961005  17.5680200  49.4132280  39.1132736  18.7653676  48.5131311
  27.2166848  41.7383242   5.5607706  26.3393950  41.6505146   5.9334415
  27.0686841  42.0713377   4.6756545  12.8873837  59.7771835  47.4194431
  12.0321393  60.1684809  47.2414637  12.9874587  59.1039085  46.7464542
   3.9179173  18.4309411  30.4387808   3.5952908  18.4354496  31.3399601
   4.6365151  17.7986336  30.4448056  61.0958422  22.8726593  59.8813404
  60.8673740  22.1948067  59.2452959  61.8918288  22.5477425  60.3021369
  64.3092990  30.9312224  53.2782888  64.6759641  30.1943040  53.7668991
  64.4437635  30.6998706  52.3592520  48.2575235  30.0866533   8.7432500
  48.5784431  30.8289934   8.2312127  47.3208498  30.0492263   8.5496684
   6.3025397  48.6938143  13.4183347   5.5912274  48.9884710  12.8496122
   6.0179782  48.9318943  14.3007040  11.8466640  52.9277039  39.5271969
  11.7887652  52.3746538  40.3063107  11.1486232  52.6091385  38.9549327
  43.1812780  25.5406547  13.6427995  42.6961510  25.1412082  12.9207679
  44.0493243  25.1396490  13.5989304  30.6864660   9.8432580  25.8903170
  30.4701995  10.4661600  26.5841818  31.0364311   9.0816823  26.3526678
   1.3765982  35.9485650  39.4841981   1.8617167  36.6914487  39.1250086
   0.4909654  36.2847281  39.6216035  16.9633419  66.0952520  60.0881065
  17.3014099  65.6102156  60.8408900  16.9115962  67.0018172  60.3909146
  19.6897816  30.2107168  11.7205163  19.6756100  30.3559995  10.7745095
  20.6154512  30.0860286  11.9298430  16.3467598  42.8301191  38.4942985
  16.9282222  43.5890245  38.5411549  16.3340485  42.4827003  39.3861341
  15.2776873  60.8666325  25.5057216  14.5039558  61.4090729  25.3529882
  15.3875840  60.8684778  26.4565897  43.7071597   1.4989797  21.4481544
  43.9018392   1.7712108  22.3449397  42.9520714   0.9168712  21.5331316
  74.0055334  10.0641481  45.3574371  74.5767319   9.4589464  45.8303928
  74.5868360  10.5103628  44.7416306  73.4095787  31.0060811  11.6067811
  73.5080384  30.2876974  12.2316476  73.9833282  30.7698656  10.8779117
  61.2082756  27.5360417  47.6380491  61.9635284  27.2401381  47.1298504
  61.0012269  26.7979288  48.2112408  22.5588727  30.3419399  15.8398366
  21.6969657  30.5226278  15.4647326  22.3790169  29.7801661  16.5936899
  25.1445800  59.3415364   4.0909787  24.6971190  58.6187562   4.5309802
  25.3895826  58.9867982   3.2363673  39.1730189  67.6594639  42.7127647
  38.7288499  68.2398176  43.3309364  40.0899935  67.6741934  42.9869318
  15.6619787  64.3837738  44.5664692  15.6716275  63.9602041  45.4247952
  16.4087272  64.0039301  44.1035271  55.3453016  41.2694645  47.3841190
  55.4345703  41.7826700  46.5810728  55.3832245  41.9172430  48.0878067
  15.3226948  19.9599242  20.9634256  14.7558284  19.7141254  20.2323437
  15.8545673  19.1809833  21.1265016  19.1515291  24.4529406  60.1880645
  19.2603243  24.0379683  61.0437463  18.8485611  25.3386036  60.3881719
  46.0623026  45.0127268  59.4341850  46.0331249  45.9683228  59.3871307
  46.9891977  44.8071051  59.5559072  60.6715155  60.6266451  17.4887717
  60.3100872  60.6097651  18.3749533  60.3572989  61.4511108  17.1176171
  45.0248766  69.8741961  46.9087648  45.0231552  70.0821447  47.8430986
  45.9350443  69.6499968  46.7149639  59.7520828  39.3096232  42.9514408
  59.9905431  39.0665579  42.0568562  58.8114357  39.4819903  42.9101467
  52.2593117  48.9522362  49.8479939  52.2352076  49.5365429  50.6057787
  52.4595690  49.5266247  49.1089344   4.4416344  29.8775331  16.2553322
   4.6944963  28.9846174  16.4898670   4.6073067  30.3891889  17.0471585
  72.6931402  26.3841653  36.4289045  73.0807823  25.8506441  35.7351327
  71.8029082  26.0451531  36.5226531  52.9765701  69.8795652  39.0134311
  53.1133890  70.6540060  39.5590997  53.8538885  69.5188522  38.8852596
  16.7559868  14.3430654   5.0865161  16.2132239  15.0884191   5.3435981
  17.5276100  14.4031087   5.6497431  13.5566400  32.1468616   2.5787850
  13.6208891  32.8585506   3.2156535  13.1497573  31.4282823   3.0628510
  71.0304225  24.5633188  50.2332477  70.9205735  24.5747486  51.1840550
  71.9335568  24.8477856  50.0930468  50.1650333  43.7063742  29.0567088
  49.7915316  42.8605175  29.3042040  50.0725985  43.7396336  28.1045628
  55.1485634  48.2511997  30.0671172  55.5635977  47.5144625  30.5156565
  54.4648027  48.5439920  30.6695938  41.4626824  20.1347295  29.7862935
  41.0157263  20.3130666  30.6137347  42.3290956  19.8206178  30.0449276
  19.6839177   1.8388168  20.4255748  19.6791458   1.9275419  19.4725072
  20.5815994   1.5831892  20.6378317  15.4949462  64.5316124  17.8509378
  15.7026196  63.6900711  18.2570314  15.5409300  64.3613863  16.9101179
  52.5357580  64.2892694  55.0822020  51.9686079  65.0302696  55.2954912
  52.4029303  64.1480207  54.1448450  40.6865501  71.1337900  19.1692984
  41.4463902  71.2271547  18.5947061  40.1731920  71.9274712  19.0183938
  21.2320852  69.0348816  58.9096260  22.1020484  68.9334726  59.2957783
  21.0951161  68.2283354  58.4126806  45.6741476  61.3426638  56.5092897
  46.1816835  60.7548666  57.0688725  45.7562590  62.2004175  56.9261217
  53.3236265  59.6074820  38.1727934  53.5270166  59.0749693  38.9417529
  53.7201262  59.1336870  37.4416685  38.7620115  43.8430262  25.5192351
  39.4717956  44.4056797  25.8288550  39.0900970  42.9526138  25.6447434
  53.9637502  36.8414092  17.4488946  54.5951878  36.9502092  16.7377826
  53.9641382  37.6852489  17.9007407  44.8577452  65.6166601  32.9304814
  45.1221514  65.7796526  32.0250797  43.9030027  65.6838703  32.9169822
  50.1232540  11.4850465  15.8873177  49.4220435  10.9256879  16.2214673
  49.6684968  12.2283784  15.4912317  45.9224033  39.3958354  12.1352875
  45.3473043  39.6584344  12.8539896  46.1451864  38.4849572  12.3273826
  54.7159326  16.5785829  31.1634588  55.4120981  16.5301458  31.8186212
  55.1471769  16.3547269  30.3387451  17.2317374  42.9524612  56.7471409
  17.0451951  43.2985258  57.6198816  16.3694358  42.7975464  56.3615656
  59.5027506   7.6539556   8.5855681  58.9415872   8.3553211   8.2547963
  60.2077257   7.5873844   7.9415113  25.2601437   2.4265615  15.0516140
  26.1656337   2.1241085  14.9820256  24.9203800   2.3728935  14.1583550
  55.0557137  63.6067057  26.7380548  55.9799957  63.6369133  26.9850802
  54.6468449  63.0575228  27.4069762  16.8831037  46.2957311   9.7357150
  17.8274034  46.3808370   9.6042462  16.5573954  45.9391904   8.9092608
  65.2450859   7.8898612  38.7599587  65.5262196   8.7409154  39.0959716
  65.5932390   7.2573463  39.3884063  49.3816328  46.3118458  22.1482921
  48.7127876  45.7770634  21.7206430  49.0397215  47.2047281  22.1025658
   9.3333065   4.2305032  60.3496981   8.8630497   3.8278858  59.6196365
  10.0397121   4.7260705  59.9354076  71.5587675   6.2936107  23.8142300
  70.6987249   6.6730634  23.6337471  71.3673460   5.4595176  24.2430377
  34.5495796  55.3507614  18.4569478  33.7692094  54.8593903  18.7134802
  35.0961804  54.7110367  18.0006516  31.2485665   9.9578992  53.2245541
  31.2136214  10.6460420  53.8889790  32.1826672   9.7836915  53.1090546
  55.7686936  21.3289587  28.5365629  55.5579555  20.4247610  28.7694907
  54.9582636  21.8125669  28.6964059   8.3371878  68.2952404  53.9228058
   8.2762098  69.1873837  53.5813522   7.4714136  68.1202602  54.2916632
  73.8431942   6.0326854  54.9960279  73.5784161   5.5433694  55.7749271
  74.5638287   6.5872280  55.2950287  27.2194338  71.0239029  60.2759552
  27.2770238  71.0352707  59.3205547  27.3911214  71.9286633  60.5370331
  43.9710140  48.2682133  22.0367861  43.8174009  47.4860859  22.5668001
  43.2394457  48.2869101  21.4197850  32.3597479  35.9182501  57.8804350
  31.4949393  36.1797786  58.1965685  32.9180193  36.6757631  58.0557632
  72.0706617  10.9620420  32.3750019  71.6240417  11.0028211  33.2206368
  71.7621290  11.7359010  31.9036317  50.2251517   1.0643569  61.3638878
  50.2643716   1.1562959  62.3158550  49.3584024   0.6952230  61.1944199
  14.3276715  54.3145180  36.4771295  15.0924623  54.3003798  35.9016919
  14.6070921  54.8292112  37.2342610  18.5895920  69.2556810  22.4370956
  19.1553295  68.7936354  23.0557132  18.8825417  68.9576054  21.5759563
  40.9202003   9.5889312   4.0578973  40.5316687  10.3795922   4.4322410
  41.8287230   9.6028936   4.3589240  13.6777210  47.9321480   8.2740664
  13.0941594  47.3614359   8.7740409  13.5966301  47.6255751   7.3709232
  61.4642298  17.3535768  33.5399985  62.0961439  16.7533914  33.9358354
  60.7292568  16.7949335  33.2870865  15.9256220  61.7452812  22.0231748
  15.0969017  61.3198471  21.8030286  16.5966940  61.1465406  21.6954446
   4.2126905   8.4007398  34.0842295   4.4521963   9.0724985  33.4457898
   4.5464384   7.5851957  33.7104177  11.9131923  62.0164728  31.7820191
  11.4774144  61.5545416  31.0658145  11.6667557  61.5277433  32.5672841
  55.5419719  11.5959970   7.9826856  54.6839654  11.2526170   7.7334028
  55.4840838  11.7205945   8.9299738  54.2975807  62.2149801  38.6939859
  53.9951944  61.3072920  38.7238908  53.9300823  62.5632238  37.8816414
  62.9730021  25.8629362  46.1249399  62.9200327  25.0433961  46.6166544
  63.0804932  25.5892030  45.2140331  54.5148516  37.7077556  43.4336376
  53.7176275  37.6960826  42.9039907  54.8115969  36.7977357  43.4398842
   5.6920511  48.2277298  24.3728304   6.1385226  47.4327612  24.0814233
   6.3956207  48.7970114  24.6845102  10.8432101  32.9066682   6.1160441
  10.0028585  33.3509469   6.0035439  11.2494444  33.3479286   6.8620320
  11.2626815  60.3404713  27.9164815  11.1806881  59.7334480  28.6520290
  10.9746242  61.1829281  28.2679367  63.0169452  21.3228718  61.0757594
  63.7477041  20.9985415  60.5494187  62.8694010  20.6383053  61.7283151
  56.0247552   2.1761552  32.3085737  55.2900207   2.0356266  32.9057765
  55.6690537   1.9820158  31.4413834  19.7717869  69.2217875  13.7519121
  20.7115602  69.2947197  13.9184582  19.6971714  68.5224104  13.1026530
  45.1357317  51.0172606  23.6667085  44.7559261  50.4450798  22.9999304
  45.3588867  50.4290915  24.3881559  27.4183630  17.9409830  14.6454132
  28.0198842  17.1971551  14.6790206  27.8509348  18.6222688  15.1601517
  41.1676407  55.6506634  35.3270650  41.9700670  56.1722898  35.3112388
  40.6317091  56.0142040  34.6221924  38.5569429  69.8005056  51.8373108
  38.8223267  70.6083536  52.2768402  38.4248543  69.1733122  52.5482368
  45.9483290  53.9473438  11.8507934  45.2931452  53.7428474  12.5179887
  46.0228539  54.9013853  11.8727732  19.2943214  15.3073335  10.0081130
  18.5282968  15.8446432  10.2099391  19.1367554  14.4830680  10.4685327
  59.1446877  65.9429264  15.6875312  59.2067432  66.6143656  16.3669038
  58.5611343  66.3210154  15.0296974  57.5714636  52.9222393  58.2381535
  58.3607435  52.6318693  57.7810383  57.0156145  53.2858849  57.5489283
  56.4369881   5.0635234  13.0531240  56.8072664   5.9244195  12.8582215
  55.6022250   5.2532188  13.4813952  39.8855829  55.5016661  32.6009655
  40.7192707  55.4962444  32.1306849  39.2245913  55.3881502  31.9180036
  16.2885343   2.2915069  37.3753047  16.5198528   2.1939603  38.2989979
  16.3844025   3.2279912  37.2019958  70.8423674   7.4444190  40.3090954
  70.6158411   6.8852464  39.5659661  71.2023794   8.2371561  39.9113631
  45.4715192   9.9111120  31.7189598  46.1019670   9.8113195  31.0056520
  45.6402456  10.7866804  32.0670056  27.2745347  65.3070879  54.0487528
  26.4372468  65.1949120  53.5986423  27.8588223  65.6670952  53.3814907
  32.5810838  59.6869850  42.8783512  32.7679276  59.9850035  43.7685776
  32.3127246  60.4787064  42.4120998  20.6535816  57.1599627  26.7898703
  19.7401762  57.2632837  26.5229464  20.6332278  57.2272968  27.7444839
  48.3631074  16.5261880  13.9548457  48.9480388  16.9516222  13.3278692
  47.9725944  17.2487298  14.4464493   7.8995263   6.7006771  40.9457636
   7.2936987   5.9808914  41.1221504   7.3344421   7.4391881  40.7188082
  55.0804269  17.9580728  21.8859577  54.1968762  18.2427827  21.6524768
  55.1744067  18.2000391  22.8072882  69.2448961  19.0804998  60.3114557
  69.8223221  19.5089666  59.6796131  68.9144432  19.7945825  60.8565426
  29.1890073  56.1482382  50.1491737  29.9683118  56.6552019  49.9213505
  29.2972827  55.9473228  51.0787678  51.6276026  52.0919847  48.8435984
  51.8996954  52.9955435  48.6830330  52.3946428  51.5667486  48.6155510
  68.5643101  66.7175722  46.8418026  67.9134703  66.2845612  46.2894106
  68.2504559  67.6184273  46.9204712  39.8003983  70.4748678  49.5265675
  39.3065214  70.1384974  48.7787867  39.3615460  70.1015234  50.2909374
  49.9305677  71.3636684  57.5805902  50.1958513  71.0971785  56.7003393
  49.4425917  70.6138372  57.9209805   4.5819258  35.4012227   9.7549029
   4.0987920  34.6977401  10.1884051   4.6953582  35.0947976   8.8551970
  75.1639079  36.6442490   4.6317595  75.3967692  36.0184121   5.3175700
  75.2007476  37.4976444   5.0637245  16.4827036   1.6570322  54.2318773
  15.7520210   1.9517271  54.7754717  16.1032241   1.5461866  53.3601332
  29.4149041  56.5246105  36.3572001  29.3912864  55.5779076  36.2178159
  28.5584617  56.8318987  36.0600233  50.1582479  65.1701736  34.0659881
  49.2830276  65.4587412  34.3247366  50.4981613  64.7155619  34.8367167
  61.7223190  28.2634378  15.3054496  61.9652318  27.3411632  15.3868695
  60.8606278  28.3215022  15.7181807  22.0977234  59.4797063   3.9663764
  21.8045687  58.5701967   4.0218469  23.0154442  59.4197965   3.7009927
  14.2588853  69.3802572  22.2555085  13.4731912  68.8337541  22.2393819
  14.8995947  68.8939309  21.7366525  55.9260893  42.5902796  20.9422398
  55.7889795  41.9390965  21.6302752  56.1126423  43.4018278  21.4142823
  41.3147354  48.4098959  28.4444737  41.0173178  48.8771963  27.6638293
  40.7205820  48.6984634  29.1372561  37.7929710  42.9486013  13.0915185
  37.2638725  42.5178695  13.7629004  37.7949213  42.3342920  12.3574563
  25.1986337  49.4230318  13.2768524  24.5535254  49.8012304  13.8743770
  26.0334730  49.7982645  13.5569882  41.6197109  60.1597309  33.0344748
  42.0508909  60.9335566  33.3971143  41.3861132  60.4122305  32.1412182
  60.6894255  58.4021997  16.0011005  61.5228891  58.4751940  15.5360842
  60.5568361  59.2658091  16.3920331  50.3942156  46.3409853  15.5906546
  50.9368944  46.5515661  14.8307920  50.6288052  47.0011663  16.2428558
  60.3413391  63.4648323  42.2144413  60.3030062  62.7681351  41.5591717
  60.8938360  64.1376734  41.8166161  60.2003037   4.8941413  21.4200425
  60.8588373   4.5810453  22.0401502  59.5136439   4.2276565  21.4430308
  43.8213110  69.5410538  52.0609856  44.0157986  69.7056723  51.1383200
  43.2576656  70.2698135  52.3206758  46.1473560  32.7978206  35.5400681
  46.0256910  31.8503284  35.6007910  45.4188490  33.1654000  36.0404634
  71.1608695  20.8267093  33.0999204  70.5687355  21.3312745  32.5422307
  72.0308017  21.1724735  32.9001733  59.5507347   5.5053417  50.7848644
  59.5099365   6.0249416  51.5877247  60.1320922   4.7761957  51.0007477
  57.0357382  32.5851480  33.8745952  56.6926753  33.4722654  33.7671041
  57.9537403  32.7108232  34.1148233  53.2100773  64.5375919  52.0544243
  53.8694429  63.9775896  51.6447067  53.4336615  65.4221153  51.7648411
  63.3542096  21.3078062  44.6955538  64.0393888  21.9508974  44.8777533
  63.6019217  20.9259550  43.8534975  11.1457479  64.6813011  23.0574179
  10.8138466  64.4095993  23.9131331  10.6513977  64.1536093  22.4302101
  43.1767750  19.5846415  33.9357686  44.0982723  19.5503843  34.1924810
  42.6955318  19.4994509  34.7587991  41.6586756  59.8201021   1.2855121
  42.4844729  59.3443283   1.3745614  41.2016272  59.3751081   0.5718490
   6.9942856  45.0841284   2.9756859   7.2616684  44.3548059   2.4163771
   7.1105289  44.7570086   3.8677126  16.2388587  34.1134453  53.9276552
  16.9836557  34.7104716  53.9988470  15.4766047  34.6884370  53.8599348
  72.9969586   3.5855166  34.3900510  73.8488543   3.1962935  34.1925546
  73.1938969   4.2955272  35.0010701  48.0999481  27.7013246  31.3175702
  48.8153350  27.0653764  31.3138556  47.3091566  27.1716730  31.4192772
  70.4149246  63.6328316  61.5846825  70.3469372  63.6295462  62.5394583
  70.6584066  62.7350998  61.3588095  20.5127263  67.4245310  20.5149102
  20.4735327  66.4968300  20.2824020  21.3123631  67.5076723  21.0344291
  41.0883760  14.3419305  28.3109522  40.4045212  15.0091688  28.3689570
  41.0498213  13.8857404  29.1515684  21.2474990  61.4749575  15.4676223
  22.0151973  61.0394192  15.0972486  21.2980652  62.3717642  15.1368439
  11.4273798  25.8041135  50.7051325  12.2444403  25.4684202  51.0738564
  11.5808498  26.7428247  50.5979204  54.0782833  27.1993542  50.2375078
  54.7789335  27.5408888  49.6819210  53.3145142  27.1587205  49.6619797
  69.6163713  22.7245370  35.7871366  69.3286001  21.9451562  35.3117657
  69.5150911  22.4929849  36.7103672  46.4619493  69.6195221  40.3484583
  45.9232140  69.9217224  41.0796738  47.2134352  70.2123737  40.3435755
  42.8101683  56.4844322  47.3759317  42.3885727  57.0219135  46.7054033
  42.1895790  56.4802408  48.1046820  66.1291885  51.6838789  22.5925922
  65.9505463  50.7664537  22.3860717  67.0719242  51.7805290  22.4578762
  42.8738213  70.9081364   1.1374260  42.4088049  70.7468176   0.3164712
  43.3997774  71.6891432   0.9652971  37.9987036   4.9108378   3.6185952
  37.8513990   5.4679267   4.3829080  37.9318581   5.5060260   2.8719302
  11.4610815  56.3961315  38.2984829  10.6505632  56.1960030  37.8302574
  11.1740541  56.6562605  39.1737986  35.3347874  70.0442600  13.4289300
  34.6043372  69.8325157  14.0101671  34.9550176  70.0257444  12.5504851
  35.8787894  71.2504530  51.1852551  35.9669638  70.8754206  52.0615005
  36.6491294  71.8097878  51.0854912  54.2737781  10.2296487  52.0881224
  54.1619122   9.8210088  52.9464579  54.8340117   9.6223012  51.6049004
  28.8075470  29.9651981   0.8984109  28.8964151  29.4097209   1.6728660
  27.8647589  30.0022197   0.7371207  25.3044224  69.6095037  38.6001921
  25.5448484  70.0895023  39.3926740  25.1686502  68.7096977  38.8970923
  35.6632781  55.2294683  59.7156096  35.0489593  55.8946180  59.4050980
  35.8851433  55.5049276  60.6050634  18.9005016  14.8439432   6.7667647
  18.5284637  14.5675064   7.6042624  19.8473905  14.7874809   6.8950149
  40.9545517  61.1774349  13.5016322  40.3338909  60.7910299  14.1194546
  41.4161491  61.8436098  14.0109181  48.6065149  57.9060316  42.5257111
  48.8849449  57.0368290  42.2372627  48.2754087  57.7691698  43.4133291
  13.9241278  39.0488195  45.5448198  13.5342729  39.5715570  46.2455273
  14.3178594  39.6928525  44.9562407  41.9915915  50.5262947  35.2223396
  42.2542715  49.8673344  35.8649898  42.5060749  51.3008499  35.4495168
  47.9496670  68.4939814  21.0560155  48.8890648  68.4468222  21.2336111
  47.5804186  68.9177752  21.8307972  48.9565182  50.5407095  45.3813028
  48.8095570  49.6664190  45.0203991  49.3895674  50.3837633  46.2203932
  49.2629945   0.1392309  18.0734432  49.3644154   0.8843271  18.6657035
  48.9532577   0.5250350  17.2540236  46.2985229  68.8333797  53.4296083
  45.8521605  69.5948696  53.0593109  45.7351780  68.5527992  54.1508198
  10.0541127  26.8544165  60.8680987  10.4176987  27.4477879  61.5253287
   9.5490182  27.4221960  60.2860848  46.6447210  38.5841203  40.4220295
  46.9278240  38.4732938  41.3296652  45.9212780  37.9657626  40.3195810
  58.2691657  23.1507818  30.3974748  58.6203277  23.6226598  31.1526227
  59.0077221  23.0838434  29.7922587  66.9962883  63.4265709  48.2605696
  66.6072035  64.2951679  48.1586409  67.8730869  63.5114384  47.8860617
  39.3411160  66.7779541  20.5950022  38.6473560  66.1245871  20.6846642
  39.8859024  66.6570997  21.3727140  64.8150765  17.7537099  40.5581856
  65.6217443  18.2624761  40.6398773  64.1266357  18.3460943  40.8604431
  25.9222341  70.4364204   1.3296972  26.1674237  69.5864344   1.6952527
  25.2073884  70.2395821   0.7243193  25.2533889  62.0737839  58.6059284
  25.5907130  62.6435089  57.9146528  25.7886028  62.2832394  59.3713760
  56.6073608  46.9435883  44.5291615  57.1592045  47.3370647  45.2050924
  56.8024063  47.4461508  43.7381983  26.1549311   1.5024129  48.3884907
  26.3945170   1.5720788  49.3125963  26.8598824   1.9531909  47.9236507
  70.9882754  70.8329439  39.4658208  71.0971874  71.0443926  40.3929996
  71.7959541  71.1396551  39.0537310  41.6425180  24.3787328  11.6742051
  41.8907618  23.5536138  11.2573206  40.7854270  24.2026369  12.0623016
  32.8007149   9.7610021   8.8700458  32.2646545  10.4386020   9.2820283
  32.8393053  10.0139881   7.9476901  47.1280193  63.7255716  31.1665249
  47.9293776  64.0080357  30.7257676  46.4538479  64.3238497  30.8443546
  72.7238571   4.2182199  60.0521612  72.1077549   3.4953348  60.1708651
  73.5817778   3.7963764  60.0046968  40.1986980  42.4334669   9.6022987
  40.2988052  41.8434286  10.3493369  39.3407583  42.2153902   9.2381316
  66.9453728   1.4095680  22.9999256  66.1332619   0.9598009  22.7666450
  67.5237619   1.2631837  22.2514153  63.1919909  47.0206118  42.7908278
  62.6367044  47.4706268  42.1541309  63.2492781  47.6268053  43.5293961
  43.3095074  68.8453007  56.7847776  42.5028849  68.3362627  56.7043400
  43.9618874  68.3382893  56.3014936  65.9608185  65.8770609  49.1079950
  65.4458475  65.6635189  49.8860931  66.8286961  66.0953569  49.4476509
  18.0824303  18.9855695   8.1152364  18.3832573  19.8577142   7.8600903
  18.3643507  18.4160495   7.3994132  42.5027800  66.2496901  34.2724252
  42.2697020  66.8989706  33.6088467  41.8695211  66.3889217  34.9765754
  10.1533281  34.3506471  44.4139671   9.9342787  34.1797391  43.4979773
  11.0069191  33.9355127  44.5375872   3.9323494  50.0527716  31.7673922
   3.5519701  49.4384909  31.1395359   4.3631583  50.7134962  31.2251043
  55.7454967  36.7365193  22.7553201  55.7166910  36.8363905  23.7068605
  56.6140747  37.0532990  22.5074267  72.6111353  47.8595177  51.4386491
  71.7654336  47.4879185  51.1877827  73.2561100  47.2449795  51.0885362
  25.3680634  61.6269445  14.1740429  25.9236860  61.7218304  13.4004080
  25.3520417  62.5000811  14.5659697  37.9339552  47.9779673  18.2444119
  38.7193346  48.2432890  18.7229669  38.0171466  47.0285749  18.1551778
  35.1813005  44.3427682  17.6712342  34.7114443  44.3828416  16.8382522
  34.5893072  43.8718152  18.2577344  75.2179951  43.8043070  28.6565495
  75.2090798  43.9928865  29.5949483  76.1427462  43.6725140  28.4475112
   1.8992532  31.0939089  57.7671112   1.3892282  31.2395779  58.5639090
   2.1360696  31.9725815  57.4703283  28.3104563  53.0811787  25.1443172
  27.6113892  53.5745192  25.5734491  28.0800200  52.1635628  25.2896070
  23.9868725  65.0686470  46.2956230  23.8924635  65.9733120  45.9974472
  23.0889786  64.7669521  46.4334504  15.1525903  40.2453518  56.4681435
  16.0399890  39.9366236  56.2852764  15.0852561  41.0746861  55.9949589
   3.1715738   0.2648441  57.2467232   2.6412928   0.7373229  56.6050100
   3.4739935   0.9415857  57.8523540  59.7288477  27.5244466  59.2811060
  59.7706663  26.5847723  59.1036177  60.3052961  27.6517622  60.0345850
   9.3529522   2.7936641  42.6647615   9.6646559   3.0182401  41.7880440
   8.4204876   2.6116315  42.5481081  52.3346065  20.0123859  17.9299279
  52.4905704  19.4390369  18.6803742  53.1468176  20.5100799  17.8358766
  61.4769125  61.2243080  23.9511967  62.4222946  61.3741255  23.9569759
  61.3854980  60.2728891  23.8993979  66.4416992  15.5549280  19.9297893
  65.9351599  16.3207284  20.2003527  66.4393436  15.5919305  18.9733076
  56.8770468   9.9853746  54.5608044  56.2013804  10.5726377  54.8996735
  56.8625152   9.2352621  55.1552343  34.7585559  61.2336969  37.7588248
  34.5509624  61.4118481  38.6761022  35.5627608  61.7263556  37.5952077
   7.7550041  30.7840101  40.0296354   7.8900349  30.5880014  40.9567738
   6.8294966  30.5934087  39.8768568  53.8941276  17.9166452  36.4194512
  53.1926381  17.7229158  37.0412350  53.5305178  18.5966817  35.8523893
   2.4476969  11.2463037  46.5211248   2.1796905  11.4962617  45.6368589
   3.0685961  10.5297700  46.3896608  24.1029358  53.4886742  42.6822376
  23.8935685  53.6950588  41.7713022  24.8614311  54.0366840  42.8837442
  55.6925774  48.5162687  42.0305586  54.7969866  48.6890745  42.3208714
  55.7403564  48.9047241  41.1570263  22.9034531  31.5419809  28.4708166
  23.3194172  30.9165899  27.8774452  22.3975241  32.1168939  27.8965855
   6.1730396   2.1477405  55.9781122   6.2878906   2.7370016  55.2325821
   6.3386690   1.2750713  55.6213951  27.1833204   6.0579944   8.1096717
  26.2801432   6.0123849   7.7959462  27.7160429   5.9096122   7.3283788
  67.0060980  16.4914075  51.5507746  67.0849859  15.9189359  50.7877016
  66.3883793  16.0400144  52.1260118  42.4057001  34.0108458  59.9525867
  42.1491367  33.3638874  60.6097419  42.4438173  34.8379532  60.4328715
  44.1095972   5.0967542  10.4318500  43.1654274   4.9569932  10.5042589
  44.2810666   5.8626405  10.9798002  32.8070807  57.6076078  38.6672449
  32.2386169  58.3043575  38.3391857  32.2379994  56.8398714  38.7216330
  12.6990318  55.1634121  10.5073690  12.5222552  54.2418146  10.6961441
  12.6122296  55.2341032   9.5567381  49.8619449  22.5850431  56.6604519
  49.6910202  21.7350713  56.2547636  50.3316175  22.3750535  57.4676323
  53.0357122  51.2415838  21.7588305  52.5638437  50.4087830  21.7614102
  52.3973608  51.8775654  21.4359164   1.6201019  34.2820883  25.5501103
   2.5192976  34.4826937  25.8098006   1.1992264  35.1374555  25.4638505
  53.1322300  28.0331842  22.8034115  52.4308431  27.4963418  22.4345160
  53.9334046  27.6780931  22.4183655  43.1107807  44.1458845  39.7684336
  42.1860218  44.2596197  39.5490670  43.5581541  44.1356611  38.9222765
  50.5556305  40.5167309  57.1419010  49.7260456  40.1208368  57.4089045
  50.9929774  39.8351780  56.6315577  72.4294328  36.8259073   2.8406735
  72.8977488  37.6223350   2.5904437  72.0812987  37.0164371   3.7117310
   4.9534380  13.8458959  45.9371614   4.9155104  13.9913885  46.8824816
   4.6010601  14.6504442  45.5566835  33.4670770  16.0732881  50.6347322
  33.4166425  15.1258699  50.7615471  32.5692820  16.3800470  50.7615948
   2.0569933  40.2283684  35.1916794   1.9361461  40.5900875  36.0696224
   1.6918672  39.3451038  35.2441982  56.7007304  68.0061642  36.1158566
  56.1527384  67.7477947  35.3747896  57.4877430  68.3748547  35.7147125
  54.0880251  69.9284029  35.8248425  54.5650959  69.4990778  36.5349936
  54.7710896  70.3140926  35.2763057  70.4424440  24.3511335  15.9705412
  71.3730633  24.2695562  16.1791551  70.1667463  23.4606401  15.7531989
  39.4312906  67.4006701  46.1383533  38.9209151  66.7403984  46.6071701
  40.2935600  67.0008469  46.0249329  38.7384485  26.7163539   4.0508290
  38.3176397  25.8582902   4.1044780  38.3251165  27.2296453   4.7450276
  64.8637402   5.5300848  52.6466036  64.6625196   6.4658634  52.6388121
  64.0097677   5.1010171  52.5930691  74.2973148   6.1375896  25.7220340
  74.1177761   6.5784494  26.5524817  73.7582218   6.6028730  25.0824094
  73.0768454   2.2473947  39.2588282  72.2335159   2.4900762  38.8765550
  72.8870880   1.4695159  39.7833586  17.7182114  -0.0191983  21.5758061
  18.1509506   0.8096878  21.3710690  16.7991125   0.1290981  21.3533092
  14.5139515   9.5651189  15.3465307  14.1526281   9.2409364  16.1715043
  14.8059999   8.7777845  14.8871434   7.9353773  17.4224512  37.3069429
   7.6248133  18.2774774  37.0090795   7.1364653  16.9246618  37.4806857
  74.5746719  21.2386743  29.7342038  75.3140413  21.6245405  29.2644548
  74.8858034  20.3738252  30.0015402  12.7137613  69.0511370  43.1675100
  12.0514441  69.7164440  43.3544159  12.2136545  68.2456541  43.0359221
  50.7408964  24.1044561  35.8027816  50.1961481  23.7765447  36.5182972
  50.7161939  23.4094564  35.1450586  31.6976559  18.7590829   9.3982750
  30.9487831  19.2730848   9.0962285  32.2753250  19.3990652   9.8141366
   9.5332539  10.9534717  55.5430698   9.4538420  11.9073045  55.5316830
  10.4756975  10.7921124  55.5877352  23.3882689  40.7303858  22.4187708
  23.8288951  40.9915161  23.2274079  24.0576339  40.2591085  21.9227052
  16.5524935  43.7373039  10.9510203  17.3621481  44.1296038  11.2778111
  16.0881215  44.4612547  10.5309173  53.8803644  69.1008321  22.6132011
  53.8295404  69.1044491  21.6573572  53.1284017  68.5777830  22.8910565
  31.4603543  51.1422777   6.4561570  31.6031480  50.7735682   5.5844373
  31.5944695  52.0832729   6.3431144  20.6035614  23.8867211  26.5891027
  20.7948565  23.4490252  25.7596087  20.9565592  23.2989454  27.2570443
  61.4928651  39.0120745  10.4858923  61.6768444  39.0309834   9.5467299
  61.0996544  39.8651075  10.6701505  11.2049329  13.3364320  19.5047367
  11.1516082  14.2189050  19.1378176  10.8175647  13.4156775  20.3764582
  17.2074687  26.8660069  46.3226509  17.9720068  27.4333072  46.4220619
  17.5706053  25.9820461  46.2681103  40.0887955  62.5771179  23.4260345
  40.7054693  62.5890054  24.1580200  39.9543226  63.5001369  23.2111287
  73.9824478  16.0112691  31.0728788  74.1842061  15.7227814  31.9629908
  74.1125342  15.2315462  30.5331182  23.3258557   1.4748274  17.4211538
  23.6474657   1.7332961  16.5574455  23.9904499   1.7964846  18.0303168
  15.6104386   0.6108702  30.6954455  15.4225373   0.5886056  31.6337562
  16.5109479   0.9304525  30.6390262  57.2700429  34.0578008  56.6724777
  57.7268338  34.7330093  56.1708164  56.7999220  33.5467935  56.0136223
   7.6367456  23.3900332  43.4129238   8.0323631  22.9657865  42.6515245
   7.3102522  24.2255187  43.0788612  35.9117174  44.9712706  13.3774984
  35.8026123  44.8525524  12.4339759  36.5594316  44.3126965  13.6284482
  10.5788553  22.4770999  50.8311987  11.1711621  21.7251825  50.8364439
  10.9251511  23.0500150  50.1470375   3.1373173  55.7690144   7.1679300
   2.5137663  56.4787674   7.0141017   3.1942156  55.7025766   8.1211251
  66.0508508   7.1055984  23.4293389  66.3148344   8.0199736  23.3270526
  65.9309691   6.9949907  24.3725395  21.0426200  48.2012495  15.4906523
  21.6721261  48.1111725  14.7752225  21.4015592  48.8988098  16.0391068
  23.9754724  53.9571106  52.4449829  23.6359848  53.9350378  53.3396856
  24.5400215  54.7297608  52.4220161   3.0031985  12.2916651  32.4274325
   2.6378012  12.6053548  31.6001987   3.5898769  12.9927182  32.7112722
  69.5347363  14.6064579   7.5321913  69.4070983  15.4894710   7.1854520
  69.8146158  14.7427189   8.4373611   6.3673937  49.2491770  21.4037704
   6.2241715  50.0920486  21.8342161   5.5045027  48.8349581  21.3951445
  14.2946088  15.3373539  32.8713250  13.6105907  15.8515728  32.4424529
  15.0104463  15.9578943  33.0082130  42.0233942  47.6662978  19.1675794
  42.1733076  46.9889506  18.5080647  42.1711392  48.4899648  18.7028468
   8.7077630   4.7276330  12.0731795   9.3350232   4.3811494  12.7077866
   8.5104948   5.6096303  12.3884547  24.7070802  58.1386312  16.9155657
  23.7769139  58.0216869  17.1088219  25.0482381  57.2481628  16.8324518
  10.5257154  33.6634398  22.6675510  10.5998373  32.7115083  22.7351213
  11.0220110  33.9960051  23.4154320  21.8523598  39.7014308  19.3277538
  22.0971203  40.2781773  20.0514150  22.0965934  38.8254499  19.6264863
   1.2539539  50.9309816  22.5711370   1.4509650  50.5392981  21.7202544
   1.2830211  50.1971912  23.1850910  66.7185289  16.5870011  33.4391904
  66.2228096  16.7359519  34.2443657  66.3222224  17.1799552  32.8007722
  34.4476701  41.4313310  57.8280885  34.0463502  41.9566434  57.1358306
  35.3893412  41.5227645  57.6827390  62.1341730  68.5046645  38.9630246
  61.8267501  68.7163799  38.0816054  61.9299913  69.2830705  39.4813156
  59.1159809  28.7131500  23.8392830  59.7921956  29.3777966  23.9704728
  59.0970159  28.2250285  24.6624541   6.8718350  14.2013979  37.9600906
   6.4112777  13.3819091  38.1405258   6.2461317  14.7218764  37.4562764
  74.7785027  46.0455704  43.1678486  74.2419609  46.4742565  43.8346195
  74.5619833  46.5032578  42.3555231   1.4258730  51.9994959  35.2670880
   1.6702997  52.4124619  36.0953065   0.4762709  52.1085533  35.2161427
  34.5389193  55.4283246  -0.2432756  35.0646913  55.7292923   0.4978152
  33.6431747  55.6812056  -0.0198344  37.9790354  22.8281736  28.4585500
  38.0023932  23.4913850  27.7687407  38.8618159  22.4581909  28.4650803
  22.9786110  27.3400855  32.7227974  23.4706068  26.7066026  32.2004271
  23.5390401  27.5135708  33.4791374  53.7051705  67.1215608  35.3591251
  53.5227821  67.9741528  35.7541609  53.9764375  67.3253956  34.4640827
  14.7914433  17.8859377  48.2220078  13.8722193  18.1478214  48.2737350
  15.0641561  18.1417966  47.3408747   2.1994787  10.5789113   9.5849591
   2.6818776  10.0953722  10.2555656   2.2055243  10.0009274   8.8219851
   2.0680137  10.9939206  14.6851516   1.7231409  11.3370633  13.8608050
   2.6703626  11.6710842  14.9931419  37.2191083  69.0417227   0.1468059
  37.6732671  68.5748514  -0.5546216  36.7585337  68.3566913   0.6314012
   0.4554897   2.0719711  20.3648782  -0.2544983   1.9959888  21.0023546
   0.1168639   2.6709950  19.6994960  27.4206627  13.3099094  32.9875330
  28.2550538  13.7623802  32.8638724  27.6059688  12.6418940  33.6475710
  25.3219045  62.0394304  31.6816688  24.8389447  62.6378234  32.2516751
  24.8133267  62.0180073  30.8710384   4.9150146  59.3983181  34.7155166
   4.4479836  58.8436397  35.3403711   4.6585596  60.2904995  34.9489164
   5.6415850  26.9336772  13.5759044   5.9709501  26.6058993  12.7390575
   4.6926522  26.8210340  13.5205042   0.4374835  30.0595188  33.6864257
  -0.4722141  30.1468754  33.9711189   0.9435297  30.5173469  34.3576479
  40.6727791  26.5082049  10.1133430  41.2015629  25.9023094  10.6324852
  40.3900003  27.1755290  10.7385993  58.2357883  30.8514690  45.7291269
  58.5322475  30.9682441  44.8265171  59.0410709  30.8428836  46.2465048
  55.1961753  70.0258569  26.2425828  54.9778477  69.1153265  26.4413261
  55.9575350  69.9690650  25.6652284  55.3661239  56.9470891  -0.0456552
  55.5477869  56.0429033   0.2106162  54.5896136  57.1878418   0.4596206
  73.5122198  26.8993330  60.0964451  72.8699249  27.5927162  59.9450970
  74.2939883  27.3595262  60.4018784  63.3890665  44.1232777  14.1144049
  63.4613514  44.4462013  13.2162249  64.0495849  44.6170568  14.6003401
  16.6415215  41.8165445  41.0072517  17.4799025  41.3985729  41.2038469
  15.9868526  41.1503267  41.2165260  45.5107308  67.3126649  55.4063634
  46.2474753  67.4115729  56.0094033  45.2169801  66.4105034  55.5330388
  29.8078513  15.3432465  38.6634326  29.7307801  15.9920013  39.3630099
  30.7502532  15.2566051  38.5198903  15.1945734  35.5367541  31.2207127
  15.8090258  36.1090803  31.6801929  15.0289977  34.8211646  31.8345118
  72.6631523  60.5130505  51.9165615  71.8987228  61.0541892  52.1141670
  73.3221675  60.7874751  52.5542287  68.7700027  40.1992893  61.5886545
  68.3138239  39.8354530  60.8298683  69.3556428  39.4983149  61.8748283
  15.1224852  25.5312324  28.1306219  15.6210566  24.8822045  28.6270308
  14.5916677  25.9800267  28.7886882  25.8097529  24.2536592  11.6548395
  26.0033107  23.3372712  11.8523288  25.0210261  24.2205811  11.1135018
  21.6214061  18.7896395  22.4252129  21.8624830  19.4760096  21.8031120
  21.8961668  19.1305864  23.2763863  29.1384888  21.8089080  20.1049709
  29.7428322  22.1377707  19.4395018  28.5213590  22.5272703  20.2440381
  63.9030219  64.5474434  54.9193720  62.9757286  64.6584367  54.7095189
  63.9068676  64.2012810  55.8117781  42.8789186   5.5698156  43.6177206
  42.9631519   5.4660565  44.5655441  43.6700487   6.0414702  43.3571625
  37.8379869  18.5888553   5.3416622  38.3008814  18.9835167   4.6026075
  37.9090977  19.2369390   6.0424924   5.5263698  21.0367346  18.9213359
   4.7914931  21.4951372  19.3288338   6.3017863  21.5058327  19.2294073
   6.8106061  41.2027502  12.5035477   6.3747233  42.0538902  12.5459766
   7.6870340  41.3648272  12.8525996  12.1046007  29.8116779  16.9714797
  12.2898507  28.8953662  17.1771145  11.2989700  29.7831774  16.4553595
   6.2992382   6.6962135  10.3720903   5.5086410   6.4781630  10.8656931
   6.7651165   5.8644420  10.2863812  16.5843797  16.4453614  43.6001682
  16.0107183  15.6977606  43.7682056  17.4697971  16.0911202  43.6825228
  68.4121406  22.6657343  32.0351911  68.9812923  22.2203183  31.4075732
  67.8159374  23.1824064  31.4931369  46.1945242  58.2721718  38.8113427
  45.3998703  58.0198856  38.3411217  45.9247661  58.3212861  39.7284317
  21.9336224  19.9945378  53.7438536  21.7884207  20.0896692  52.8025293
  21.9043231  19.0500367  53.8964748  24.5740868  64.3279799   4.1774150
  25.1684529  63.6030301   4.3708297  24.3785643  64.7119602   5.0321456
  63.6710191  21.5794349  37.0444441  64.4574916  21.5356445  37.5882959
  63.2522380  20.7264733  37.1598196  65.3392922  30.7571388  17.4281999
  66.2529503  30.4864097  17.5185510  65.3580855  31.7068315  17.5463887
  26.3673162  21.0840607  26.3042903  26.8665552  21.8218923  26.6544294
  26.4315009  20.4092145  26.9800830  75.0725874   2.0897703   4.6913782
  75.9724783   2.2918218   4.9475098  75.1617013   1.4298302   4.0037957
  70.8821440   3.5914284  16.7955828  71.4283013   3.0305853  16.2447667
  71.4103702   4.3773550  16.9353271  69.5855976  66.8290820  19.8117363
  69.8210705  67.4564286  19.1282010  68.7632621  67.1629342  20.1702595
  25.8794559  71.1775545  24.2798352  25.7704485  70.5539688  24.9978137
  26.1119497  72.0002509  24.7103572  51.8920995  49.6389341  55.7845620
  52.1453358  48.9990210  56.4498554  52.1258927  50.4854929  56.1652348
  66.8418926  48.4334755  28.0713916  66.2944353  48.9780903  27.5057793
  67.6752931  48.3662939  27.6053858  70.0050998  21.3608909  30.4992175
  70.3386980  21.4675593  29.6083927  69.6992016  20.4545331  30.5334926
  71.4396378   8.6601847  59.8645353  71.2826499   9.5449317  60.1943970
  70.8722913   8.5865074  59.0971231  62.9857839  60.7947799  47.9930735
  63.7676704  60.2749702  47.8068399  62.5796390  60.9315582  47.1371698
  57.8932893  62.5689411  58.4704065  57.9859352  63.3383989  59.0321684
  57.5582492  61.8866205  59.0521383  18.0824363  10.7612169  19.1467524
  18.2817864   9.8269188  19.2065656  18.9068437  11.1651576  18.8757992
  73.4174389  39.4539762  18.0074716  73.3230656  40.3634024  18.2907963
  72.5325945  39.0930200  18.0621684  64.7665095  19.3331122  17.0711780
  65.4793668  19.8521924  16.6988599  64.8872566  18.4592140  16.6997576
  34.9297296  61.2037500   9.8123904  35.5266046  61.9520101   9.8212930
  34.0766447  61.5804180   9.5965262  26.5712274  70.0704864  41.0580254
  27.3907102  69.7465413  41.4318371  26.0369599  70.3029962  41.8174505
  10.4460740  45.2199030  17.7965403  10.0572503  45.8792639  18.3712518
  10.4464507  45.6273699  16.9303977  67.8363586  64.0052935  51.3215065
  67.5241948  63.6373224  50.4948378  68.5892106  64.5427307  51.0753202
  46.3555347  42.0611414  11.0805198  45.7982289  41.4259132  11.5301009
  47.0376265  41.5314576  10.6677028  73.4077192  67.3773884  51.4730541
  72.7594257  68.0797910  51.4223043  73.4987475  67.0698475  50.5711869
  48.3214188  26.4684319  14.7517729  48.0638576  26.3646841  15.6678140
  47.6921821  27.0956850  14.3956196  48.3993697   1.8110219  35.7684898
  47.4985933   1.9342807  36.0678911  48.5095620   0.8611660  35.7253265
   9.3251270  12.6875639   1.9805156   8.7959957  12.9612422   2.7297503
   9.9855822  13.3744740   1.8900427  75.3423087  31.7581129  16.8604183
  75.3879061  32.1413302  17.7363741  75.5658840  32.4789762  16.2716889
  64.7926247  17.7391350  10.4650569  64.0660346  17.3589981   9.9713004
  64.3788171  18.1409943  11.2289310  37.1585536  30.3189993  18.7993777
  36.7604613  29.6383047  18.2567823  37.6260114  29.8380399  19.4823086
  14.6934187  14.0831172  35.2737761  14.5908976  14.4804084  34.4089746
  15.6191671  13.8440585  35.3193092   5.6902672  67.6621246  48.1401030
   5.3038193  67.5677991  47.2694758   5.0862623  67.2002673  48.7215702
  61.5544987   0.4957090  46.5827894  61.4507151   1.4458352  46.6349554
  62.4321497   0.3700908  46.2219810  49.0900107  60.2448555  27.7888536
  49.4707250  59.6860345  28.4663558  49.6700664  61.0053774  27.7518058
  67.5022924  18.9790928  37.6273441  66.8497604  18.4227383  37.2020173
  67.1832240  19.8709285  37.4892998  62.0688105  39.6031427  35.2459645
  61.1666775  39.2837405  35.2267241  62.5084031  39.1215348  34.5452213
  23.1396890  22.4328661  26.3363528  23.9502287  22.9281712  26.4543819
  23.2747960  21.6292405  26.8385148   4.7320068  63.6220106  55.5849123
   4.6703923  62.7127769  55.8777094   4.9991549  64.1074093  56.3654566
  43.7488270   1.9021113  13.7495768  44.2309666   1.7998609  14.5701373
  42.9768944   2.4155667  13.9877284  12.9948331  46.7349517  44.4607047
  12.1282805  46.8058455  44.0603379  12.8326202  46.3299942  45.3127185
  43.3581496  59.5695516  44.0498590  42.9480017  60.3855845  44.3363953
  43.2929403  59.5910676  43.0951262  11.0376799  25.7439613  20.3994322
  11.6857123  25.7312918  21.1037922  10.2102232  25.9402728  20.8387589
  23.6176801  38.1083202  16.0782075  23.1115794  38.9189100  16.0230887
  24.5036530  38.3938217  16.3013029  61.2806154  60.0536760   6.8586254
  61.5365971  60.9758528   6.8758178  60.5732906  59.9894460   7.5003397
  20.1255989  14.6079755  20.0871110  19.8230445  15.4894924  19.8688900
  21.0798264  14.6804953  20.1076627   1.8174450  44.4671535  36.4161849
   1.7364600  45.4207897  36.4321876   2.1746835  44.2716217  35.5499387
  11.1651265   3.6270467  12.6988232  11.0621678   3.2249347  11.8363047
  12.1120202   3.7048189  12.8153384  14.1649760  46.6104924  58.1494702
  13.8974513  45.7183146  58.3701090  14.3052937  46.5912723  57.2028060
  17.4925888  25.0207853  34.5848989  16.7283666  25.5355287  34.8441935
  17.3973799  24.9106073  33.6388397  23.0728648  60.5903053  54.4204132
  22.3272647  60.7703399  54.9930386  23.7204952  60.1788210  54.9926791
   6.4163197  69.4688938  39.9707985   5.9852851  68.6190202  39.8804998
   7.2331298  69.3764944  39.4803715  54.6959353  22.7089667  37.8159332
  54.7011137  21.7521095  37.8409362  53.7998128  22.9498529  38.0508161
  13.3401752  12.9742932  26.1571455  13.9652717  12.7188146  25.4787540
  13.6053228  13.8597429  26.4059567  28.9912510   1.2026859   8.3307421
  28.9829850   0.9225103   9.2459828  28.2108140   1.7495193   8.2405996
  47.5942851  58.4186622  32.8977895  47.4260405  58.9626666  32.1283841
  47.6969821  59.0438255  33.6153221  45.1362038  29.0567636  28.6263824
  44.6572447  28.4844041  29.2257428  45.8943939  28.5391164  28.3554244
  52.8963685  18.5567963  24.1915536  52.7143574  18.9606345  23.3430147
  52.1444845  18.7923050  24.7350979  24.2246532  -0.0728530  34.0193987
  24.1020966   0.8044603  33.6567235  24.5422626   0.0782146  34.9096417
   1.0232926  18.3580160  23.9117885   1.6801977  18.9742362  24.2357969
   0.2468142  18.5343993  24.4430161  50.2761471  68.3549093   0.3102583
  50.6637807  67.4972119   0.4844062  51.0172172  68.9060523   0.0586871
  13.2578218  41.4095354  58.1040096  13.9758098  41.0889530  57.5581598
  12.5059247  40.8748770  57.8490067  20.7313679  28.7750345  60.2078328
  21.4953802  29.2617595  59.8986154  20.8935238  28.6428827  61.1418955
  21.0309243  26.8302512  10.8212161  20.3094196  26.9187760  11.4439726
  20.6082511  26.5844393   9.9983221  71.6387263  21.0465050  40.8272219
  70.6815761  21.0409403  40.8191967  71.8690121  21.3904333  41.6903067
   1.3090909  13.3524394  48.0859756   1.5473050  13.2384586  49.0060282
   1.7470357  12.6311910  47.6340532  40.0246835  70.2448922  26.3353753
  39.8114670  70.6163918  25.4793620  39.4694651  69.4682362  26.4044356
  15.2810771  65.1105809  32.2786597  15.2591396  65.2311420  31.3293342
  14.4063247  65.3647613  32.5726537   9.1353262  51.7497524  14.6281230
   8.5629499  52.4449476  14.3035877   9.9300778  52.2045179  14.9070311
  71.1798772   6.3375181  27.2162104  71.1607206   7.2465813  26.9170976
  70.4761988   5.9099025  26.7281389  22.7828943  51.0181999  57.0221252
  22.8406143  51.8957078  57.4001215  21.8532742  50.7959461  57.0735193
  26.5734507  35.7730261  60.7552073  26.9967047  35.0288109  60.3271518
  26.5032316  36.4361348  60.0684846  12.2720660  27.7613371  58.7761194
  12.8356267  28.5096889  58.5796521  11.7887593  28.0245560  59.5592944
  21.8466616  49.7216415  38.3935356  21.5096855  50.3235769  37.7299452
  21.2267423  48.9923048  38.3922482   6.8755723  24.5108258  55.3218696
   7.8233470  24.3770146  55.3148089   6.7038907  25.0489044  54.5490638
  50.1965868  48.2347866   5.1478406  50.9236204  48.2915279   4.5278140
  50.1662719  49.0976843   5.5610200  72.1199304  12.7497244  39.1866970
  72.0317960  12.8329992  40.1361847  71.6962677  13.5336661  38.8371587
  58.9839995  26.7550254  45.9792614  59.6685779  26.8918061  46.6341496
  59.3847418  26.1755562  45.3313017  17.9174280  44.1987562  23.6205721
  18.6104858  44.5741129  23.0774236  17.1132553  44.6049786  23.2972765
   8.3720070  11.7739105  31.3311505   8.6477047  10.8981133  31.6017103
   7.4228311  11.7051303  31.2283564  19.3233061  44.5731306  41.0456514
  19.0868211  44.3803501  40.1383781  18.7108648  44.0551901  41.5680361
  63.7781811  50.3406429   6.6837174  62.9169929  50.6766415   6.4353418
  63.7155902  49.3955708   6.5452933  16.5879810   2.1276013  40.1173858
  17.3377741   2.6174561  40.4551510  16.1864079   1.7385427  40.8943061
  21.8683791  37.8726912  27.0269966  22.4194837  38.3790302  26.4302254
  20.9739947  38.1312156  26.8045688   5.6703436  44.9321890  37.5769711
   4.7909945  44.5956993  37.7494669   6.2097633  44.1487837  37.4695659
  51.1021423  23.1973457  27.3779178  50.9689760  23.3291316  26.4392304
  50.4190016  22.5768518  27.6319551  29.3724012  44.4762230   3.8263428
  28.8846064  43.6541605   3.8763705  30.2402806  44.2609119   4.1678944
  64.0469527  65.6219244  13.3345389  63.2540262  66.0198879  12.9752040
  63.8723934  65.5449867  14.2725384  25.5794668  61.1621475  42.5229216
  25.7430029  61.5693045  43.3736372  24.6625566  61.3618088  42.3341322
  21.9047213  33.5370421  35.6600428  22.2127008  33.2168627  36.5078998
  21.0548043  33.9349222  35.8486223  54.0053463  48.9642668  17.5675833
  54.0091276  48.6493635  18.4714925  54.7126436  48.4795523  17.1421278
  20.4419745  53.5518225  41.0950947  20.1344431  53.4437557  40.1951075
  20.3392780  52.6854738  41.4889526  23.1248140  35.1718116  25.3199840
  22.4543738  35.8549953  25.3192401  22.6511574  34.3716598  25.5472255
  63.2130862  63.1940269  60.9734192  62.4697639  63.5135221  61.4849103
  63.6837150  63.9862346  60.7142956  29.0788150  69.3136072  42.7939606
  29.4259644  69.5167923  43.6625433  28.5548520  68.5232258  42.9243231
  25.2038574  35.3294039  34.7014856  25.5831265  34.8010612  33.9991760
  25.0383878  36.1813331  34.2976665  66.9138873  43.3094311  46.8531418
  67.6183158  43.7273312  46.3577938  66.4392984  44.0371227  47.2549725
  15.7505810  28.2856011  33.2422519  15.6809652  27.6239562  33.9304447
  16.6482317  28.2028580  32.9203701  18.0563462  29.0723372   3.8462147
  18.6174083  28.3521628   4.1339469  18.6069608  29.5822501   3.2520387
  51.5539933  68.2304430  53.1399719  52.3866893  68.6709380  53.3097164
  51.6033913  67.9711556  52.2198848  12.3127401  65.1046660  31.3378882
  12.1249140  64.2326232  30.9907651  11.5296519  65.3377297  31.8365717
  39.9136103  50.5645569  26.2286329  40.0758398  51.5074249  26.2588453
  40.4805267  50.2463730  25.5260682  49.7126770  70.1956129  25.5155182
  50.6418943  70.4246902  25.5330968  49.5615244  69.7442245  26.3459587
  30.4960799  27.5675130  33.9381647  30.7813025  28.3674383  34.3797541
  30.4165173  26.9217253  34.6402049  20.6087399  35.8058095  40.7814693
  20.7457304  36.3172793  39.9840593  19.7168553  36.0213971  41.0540390
  20.0192022  45.9564114   1.4092511  20.0406885  45.0013208   1.3494869
  19.8259306  46.2478590   0.5182206  15.2888417  63.9189196  23.5557890
  15.4649961  63.0918598  23.1072688  14.6674156  63.6891222  24.2466235
   0.3331232  23.7058759  59.9035025   0.6496546  24.2980504  60.5856800
   0.5922744  22.8346229  60.2034903   8.6504650  47.0454454  45.0152731
   9.2653781  47.7173376  45.3096771   9.2049897  46.3066912  44.7643137
  53.9006125   9.8998205  25.8429122  53.4466850  10.1994363  26.6305780
  54.8213136   9.8525754  26.1004138  28.6528945  32.2669959   2.3650244
  28.8215280  31.5657187   1.7357349  29.5098376  32.4576616   2.7465042
  46.2369537  38.0904913   8.7063128  46.0632467  37.6640511   9.5454830
  45.6412625  38.8395810   8.6904699   5.5968047  53.5696482  55.3286890
   6.1575259  54.3118906  55.5542991   5.9375335  52.8442740  55.8521084
   0.8867926  40.6219292  58.3502531   1.1331905  39.7385693  58.6244678
   0.2804591  40.4863024  57.6221085   1.4450711  37.2512722  27.6926470
   0.5234746  37.4262857  27.8830719   1.5695235  37.5695229  26.7985225
  27.3532605  14.4475436  11.3834417  27.8469563  15.2641380  11.3081372
  26.9946647  14.4654155  12.2707534  22.8877664  14.4402993  19.5553541
  22.7808785  14.7289717  18.6490011  23.4854174  13.6946344  19.5003259
  14.4063222  53.4607887  14.4041312  15.2455318  53.7652302  14.0587699
  14.6315777  53.0100012  15.2179372   2.4088198  23.8809466  18.3433867
   2.4929428  24.3772984  19.1575062   3.3082139  23.6537695  18.1073499
  30.6477332  49.0936216  17.0523187  31.1554807  49.8111364  16.6733762
  31.2546402  48.3536168  17.0693465  65.3018415  52.3713827  41.0955048
  65.0653064  53.1106520  41.6556549  66.2472117  52.4570560  40.9723568
  63.0733323  69.5216942  55.7546759  62.1949279  69.2191887  55.9851694
  63.6153901  69.2770529  56.5047121   6.0590678  29.8188591  33.0244899
   6.7051852  29.1828012  33.3314013   5.2136302  29.4151664  33.2207012
  65.7321882  36.1620879  49.4875383  65.5882287  35.3523707  49.9773026
  66.6813082  36.2853312  49.5021725  24.7391748  18.5166347  39.0779924
  23.8761306  18.2519162  38.7596989  25.1709580  18.8955665  38.3123517
  36.0149288  44.9840307  24.7489047  36.8616581  44.5814276  24.9417639
  36.1055613  45.8881998  25.0497293  61.9945538  48.6222025   9.0232488
  62.9352319  48.7900456   8.9668103  61.8850171  48.1471809   9.8470136
  75.3399726   9.9717975  35.7312083  74.6733598  10.5181479  36.1475730
  76.0923287  10.5533957  35.6219602  49.3796802  31.7090225  11.5382624
  49.1626287  31.9743466  10.6445491  49.4156218  32.5296569  12.0296884
  53.9282060  49.5283461  45.8482504  53.2505131  48.8525629  45.8650827
  54.2259693  49.5463371  44.9387217  -0.1541935  16.0008526  27.2494197
   0.3939137  15.6311119  27.9415917   0.3024302  15.7787859  26.4379930
  23.1252503  12.9460049  48.3737373  22.3605108  13.5024631  48.2262182
  23.8735223  13.5123730  48.1852007  15.4435062  30.2914691  50.9702015
  15.2062595  31.1485791  50.6162119  15.5377579  29.7317529  50.1994419
   4.4229335  51.6960716  12.2342348   4.0312883  50.8277845  12.3286974
   5.0954884  51.5836668  11.5624702  19.9663651  14.0724123  27.1999192
  20.4734087  14.8785257  27.1033907  20.4828453  13.4084487  26.7431569
  16.3332748  31.3075447  32.6954103  15.9945071  30.4969335  32.3154378
  15.9909785  31.3144183  33.5892868  25.2109599   7.0810717  24.8400760
  24.9849939   8.0072576  24.7543335  24.5204353   6.7163122  25.3935742
  33.3939219  11.1981285  14.3273318  33.5193658  11.9830358  14.8606396
  33.2597017  10.4954100  14.9632585  34.2836947  61.5013837  61.5289194
  34.9008174  61.0980391  62.1394139  33.4369392  61.4442873  61.9716122
  72.4444271  58.6842990  29.8172072  71.9376064  58.1544470  30.4325298
  73.1187512  58.0899214  29.4882230  68.3802248  65.8759352   3.7947527
  67.8293181  65.7437988   3.0232123  69.0970123  65.2507391   3.6871615
  21.8432665  35.8514762  34.0998149  21.8365526  34.9654222  34.4618845
  21.8994260  36.4227867  34.8657656  19.0719581  17.7259886  15.4458916
  19.8703694  17.6199794  15.9631276  19.2348957  18.5023797  14.9102604
  35.4370904  29.9010205  14.2405546  35.6460881  30.8147478  14.0465081
  35.0822949  29.9200225  15.1293683   8.2931799  31.8373537  16.3196659
   8.6722046  32.7064037  16.1880493   8.5133785  31.6144919  17.2241426
  33.1002283  48.4768295   1.0768502  32.2258759  48.7296963   0.7805483
  33.6739373  49.1690969   0.7484331   5.3954089  70.3410731  28.9027286
   6.2259019  70.1971994  28.4490609   4.7354901  69.9678998  28.3183670
  17.2684407  35.6134915  27.0824575  17.6452219  34.7814322  26.7961979
  16.3232386  35.4624701  27.0782089  17.0665872  41.7433739  22.3643422
  16.2835312  42.2218323  22.0920706  17.5476062  42.3633718  22.9124761
  31.9297647  58.2801676  22.8316736  32.4839759  57.7917099  22.2229910
  31.4276695  57.6071596  23.2912350  26.1512303  39.5623708  16.3772285
  26.8875313  38.9507413  16.3789082  26.1023211  39.8808026  17.2785830
  47.0401425   7.2326485  48.5022120  46.1702776   6.9025866  48.7272100
  47.5656024   7.0774666  49.2870943  20.9979868  22.0684981  60.2670956
  20.9214044  21.7944765  59.3531609  20.8552361  21.2668276  60.7702684
  62.7190709  49.8724031   2.0157461  63.6025488  49.5041418   2.0247503
  62.8335547  50.7767391   2.3078215  75.6892131  27.8725457  17.7733743
  75.5935549  27.0869565  18.3118272  74.9265395  28.4076929  17.9928720
   2.4474350  29.2984080  53.7381029   2.4612600  28.9012980  52.8672743
   1.5232727  29.4876599  53.9003992  44.6091593  11.0759941  40.0102810
  43.7889660  11.2443462  39.5464138  44.8772634  10.2059475  39.7147016
   5.3057849  65.1422548  36.5833783   4.6654058  65.1425457  37.2948194
   4.8622707  64.6958447  35.8620977  47.1470213  52.7207708  36.3946772
  47.7660060  52.9281092  37.0947504  47.1357441  53.5043859  35.8450866
   8.2674396  27.3488879  18.2314360   7.6211488  27.5863051  17.5664747
   8.8354957  28.1164122  18.2981384  62.9001380  68.9999318  51.5777818
  62.4517990  68.3574199  52.1276937  63.8309599  68.8187503  51.7080812
  23.8900900  22.4441242  15.6093669  23.2226753  22.2548914  14.9498379
  24.1123390  23.3643746  15.4680324  57.1342589  64.7229862  53.0100123
  58.0480267  64.4959592  53.1824086  56.6519834  64.3533158  53.7495957
  15.2991056  13.5823083  42.0389271  14.7948289  14.0408647  41.3668680
  14.6884525  12.9394972  42.3996592  21.4789891  46.5706635  46.0848141
  20.7390594  47.0083714  46.5057039  21.1170721  45.7453537  45.7621431
  49.4300581  70.6861496  60.9042706  48.9409829  71.3926983  60.4825793
  50.2330304  71.1035800  61.2160678  61.4914227  70.3946495   7.2629511
  61.0563886  70.9147930   6.5873545  61.7848349  69.6062088   6.8063372
  13.8452828   0.4774872  60.3737510  14.6132958   0.5573765  59.8080621
  13.6721004  -0.4631766  60.4110629  36.5168964   8.8227216  38.0369186
  37.1178889   8.5100929  38.7131596  36.6933166   9.7614900  37.9751062
  53.4529499  58.9056083  24.7190475  53.0374358  58.4987553  25.4793429
  54.2561549  59.2949053  25.0647926  22.2794247  37.6262403  38.9472103
  22.8312707  38.2952356  39.3523526  22.6670003  36.7960358  39.2242980
   1.3560725  43.4507733  46.0261396   1.9855739  44.1524523  45.8599905
   0.5128790  43.8175130  45.7601301  38.5151577   9.3330514  28.1535864
  37.8795385   8.6207855  28.2235694  39.3135667   8.9112341  27.8360271
  75.1220846  38.7486887  37.7824187  75.8281565  38.3447719  37.2778916
  74.9836063  38.1537199  38.5193515  10.9135950   4.5288321  35.7363248
  10.9054327   5.3949058  36.1438560  10.5903983   4.6790957  34.8479557
   9.3404043  35.5698729  52.0246458   8.7588346  34.8606873  51.7506647
   8.7739086  36.1706877  52.5087261  12.7803218  19.3799520  29.7782040
  13.5576308  19.9282181  29.8850965  12.0777106  19.8760235  30.1982999
  13.7746179  21.2787938   0.9165730  13.8961244  20.6914473   0.1705884
  13.5964561  22.1327376   0.5225326  45.1260996  12.9402363  29.1985559
  44.4560814  13.1373250  29.8531270  44.9770117  12.0222342  28.9721107
  37.8007936  12.8661358  27.3637056  38.5676074  12.5139558  26.9118237
  37.4736738  13.5518920  26.7814994  31.1363339  35.3782463   1.3729502
  30.5949497  35.3448510   2.1616331  30.9160852  36.2164450   0.9665676
  24.8274255  43.4568310  12.0713532  24.3796349  43.8314247  11.3128066
  25.7205439  43.2959414  11.7669046  41.5171952   6.3099733  48.2749287
  41.7592383   5.8596102  47.4657158  42.3110998   6.2858597  48.8091258
  67.0788807  33.6349869  34.5985174  67.4663055  32.7831841  34.3971038
  66.3541782  33.4344649  35.1908255   4.6699095  19.3153310  38.4456420
   3.8665354  19.5214069  38.9235067   5.3392088  19.8641133  38.8544321
  52.2992444  23.5208750  38.5315824  52.3400497  23.8885164  39.4144225
  51.4085126  23.7078953  38.2351851  24.2732024  27.3233342  16.0395110
  24.4917655  28.1882763  15.6926179  24.2621779  26.7528343  15.2709806
  63.3546829  32.9328775  25.6004238  63.3608305  32.4915552  26.4497948
  62.4807763  32.7632022  25.2486706  21.9338441   7.2465503  34.3530965
  21.7817068   6.8855488  35.2264595  22.8686309   7.1115172  34.1976166
  13.7549174  34.7797251  39.1697073  14.1767323  35.4646039  39.6885967
  13.2140577  35.2556062  38.5394382  51.0929513  36.0509324  17.6995647
  51.4117169  35.5619192  16.9409573  51.7158484  36.7708302  17.7994585
   4.7777253   4.7194532  62.1086740   4.2433497   5.0682741  61.3952351
   5.6219852   5.1602942  62.0131969  19.0736497  30.0842368  51.3340406
  18.5374338  29.3034041  51.4718978  19.9157567  29.7458362  51.0297851
  25.6740761  21.2551713  31.9895792  25.0796509  20.5465388  31.7431450
  26.4301705  21.1449575  31.4130330  25.9018779  13.7202811  18.8280439
  25.6128001  14.5783770  18.5176611  26.8175578  13.8507330  19.0745091
  60.0038755  40.2488422  32.8073168  59.5141125  40.1442146  31.9915843
  60.0987363  39.3584585  33.1456161  20.7937372  68.7417688  34.8918653
  21.1283196  67.8463953  34.8409653  19.8511398  68.6381733  35.0223041
   5.9090954   4.6118778  47.9623508   5.0599289   4.7739807  47.5514126
   5.7072860   4.0648705  48.7214851  61.6523516  23.3914351  42.2480726
  60.9066069  22.8559399  41.9772577  62.0718122  23.6503673  41.4275599
  54.5341444  37.5459909  27.8748322  55.1083660  37.0499444  27.2913575
  53.8573647  37.9019547  27.2990823  24.9604321  44.3319082  20.0725031
  25.9152055  44.2661142  20.0901723  24.6951461  43.7709618  19.3436718
  23.4499764  57.6156378   6.0018134  23.5207939  57.0371199   5.2425146
  22.5964832  57.4081373   6.3822436  63.7753893  59.8944306  51.4124159
  63.6562134  59.4678735  50.5638413  63.3003760  60.7216906  51.3334576
  20.1821160  36.6256762  24.5110536  20.5711579  37.1705437  23.8269496
  20.0701785  37.2181916  25.2544427  74.2715656  10.9364740  14.1497707
  73.9528095  11.8216363  14.3261802  74.8505604  10.7392351  14.8860407
  70.4522896  53.0134535  13.2174110  71.2842628  53.1386232  13.6739028
  69.8864275  52.5896263  13.8627064  73.2913625  30.4337740  40.7115841
  72.9374230  31.0051823  40.0300789  74.1501305  30.8052540  40.9134579
  30.6442022  52.8963089  26.7159772  30.9786558  53.4458256  27.4247837
  29.9014664  53.3862829  26.3631320  13.2606506  24.8162675  40.7621956
  12.4969423  24.8450899  41.3385201  13.0011475  24.2320681  40.0497341
  68.3431524  35.8451486  26.4810944  69.1688901  36.0037541  26.9385147
  68.4656435  34.9980831  26.0524821  22.0007777  18.1742978  38.7834167
  21.4301586  17.6088846  38.2629013  21.5783906  18.2162344  39.6413589
   7.8568363  37.6015997  43.9998913   7.1575963  37.3608279  43.3921719
   8.6566430  37.2787356  43.5848045  20.6266928  31.7670298  48.6862040
  21.2345505  32.2251439  48.1057978  21.1890435  31.2422657  49.2559528
  67.8281230  14.8893559  23.2885075  68.4395611  14.1686213  23.1371236
  68.3189958  15.6746936  23.0465961  40.2726102   2.6401058  61.2007669
  39.7284139   3.2970444  61.6349500  41.0518802   3.1209556  60.9219181
  70.7889534  67.1239686  58.8711510  71.2253834  66.2739205  58.8147662
  71.2429930  67.6693916  58.2288183  65.4288746  43.1159186  61.6063270
  65.8968664  42.5053680  62.1759256  64.8998405  42.5559085  61.0382228
  41.0702372  15.9911001  25.7246661  41.7428398  16.6714835  25.7549381
  41.3744736  15.3259170  26.3420844  20.6732106  23.1050205  18.0386806
  21.5676641  23.4458804  18.0382526  20.7318091  22.2780561  17.5602198
  40.3966379   0.4719606  42.7620220  39.6186638   0.5202723  43.3175898
  40.8023357   1.3351995  42.8423977  63.4648383  32.1568704  47.1617126
  63.6225045  33.0959439  47.2592497  62.9563105  32.0819807  46.3542318
  13.5666740  29.1832972   9.0385234  13.5172999  29.7980857   8.3065194
  12.8931880  29.4831991   9.6490228  28.3647776   4.5964408  30.1184368
  29.2685151   4.5027912  29.8172402  28.4389162   5.0365835  30.9652019
  74.6540779  55.9122276  19.8156691  74.8203754  56.6676188  19.2517900
  73.7132782  55.7554436  19.7347558  32.3982549  39.9858952  18.6640310
  31.5444493  39.5833278  18.5053277  32.7851892  40.0779772  17.7933800
  27.0257330  40.2403069  22.6505327  26.5703249  39.4240785  22.4441147
  27.8103495  40.2219915  22.1025610  25.0073671  31.2261605  11.6077363
  25.6303811  31.6491675  11.0168457  24.3505359  31.8994498  11.7851830
  24.2595625  22.7087665  47.8416491  24.9538994  22.4374676  47.2412109
  24.7171998  22.9299045  48.6527586  45.0671625  49.6409130  12.0517349
  44.2276621  49.1812849  12.0371866  45.4961586  49.3819714  11.2361717
  32.2948909  64.2973614   2.2469479  32.0865655  64.3659401   1.3152134
  31.9566321  63.4400702   2.5055355  11.8466604  31.2717199  44.8272085
  12.4971938  30.6004643  45.0332546  12.3536646  32.0794797  44.7453308
  48.3481002  14.2861462  11.4103162  47.6805115  14.7309422  10.8880949
  49.0778995  14.1552877  10.8049214  15.3990865  33.8887858  33.3832026
  16.1225796  34.0429163  33.9906836  15.6962204  33.1614447  32.8364682
  56.1191188  36.3728309  25.8951016  56.4417617  35.4716564  25.8992120
  56.8684124  36.8941856  25.6070348  19.1685510  33.0792689   9.2466170
  19.2295194  32.2185135   8.8323569  18.2285035  33.2362700   9.3354708
  34.9048185   1.4020182  26.9485879  34.6405053   1.7350960  27.8061604
  35.6901479   1.9031383  26.7286634  29.3744993  15.4691148   6.7363727
  29.1706729  15.5323946   5.8032691  28.5405111  15.6358874   7.1755564
  73.2458688  54.4170904  53.2065753  72.9222871  54.4793558  54.1052685
  73.9534975  53.7740218  53.2508127  70.7585353   8.2692039  45.3643227
  70.3936881   8.9925492  45.8741188  71.4930093   7.9522485  45.8899832
  12.2768235  23.1648088  22.4237776  12.4526227  24.1051102  22.4578142
  12.8102946  22.7957749  23.1276631  21.6681767  23.3167124  13.2109141
  21.7861962  22.4270439  13.5437644  21.4471745  23.1994224  12.2869909
  21.4593315  28.6036110  47.9498482  22.1684384  28.0054188  48.1855679
  21.5618706  29.3440270  48.5477591  70.5509526  20.1298141  46.8728590
  70.4305190  19.3568981  47.4245214  71.0769650  20.7253909  47.4065542
  29.4787443  60.4508253  32.3286343  28.6376823  60.8665474  32.5184250
  30.0058616  61.1457666  31.9343829  70.9416309  35.9617686  50.6558037
  70.6807232  35.0932336  50.9620810  70.1253450  36.4608598  50.6272078
  63.4225417  36.6859264  60.3006580  63.3444501  36.2566593  59.4486817
  63.4587360  37.6202227  60.0956892  12.5683081   7.2630888   3.6615899
  12.6408601   8.1414455   3.2881501  12.8536844   7.3645562   4.5696077
  68.0217636  64.1190275  25.6706095  68.7992478  64.0531661  25.1161623
  68.2719386  63.6853477  26.4864326  25.9347725  20.8981776  21.2627602
  25.0533557  20.8990502  20.8894801  25.8202386  21.2433386  22.1481848
  74.9354673   2.2207926   7.8099495  74.8567867   2.6897675   6.9792247
  74.1690311   2.4952127   8.3134383  71.9389159  15.5089808   5.1814103
  71.0088593  15.3068340   5.2832127  72.3297027  14.6907377   4.8748207
  15.2148271  31.0160065  23.4554672  14.8685718  31.2908792  24.3044567
  15.9658611  30.4629946  23.6707783  18.3828199  36.2050390   6.5125066
  17.8638732  35.4757786   6.1732328  19.2590773  35.8394122   6.6338432
  35.3746784  68.6676227  31.9721150  35.2423370  69.5906376  32.1883583
  34.5504892  68.3956470  31.5684152  68.9110780  59.3994093  38.2863045
  69.7685289  59.8237801  38.3166265  68.2851356  60.1235676  38.2910228
   3.2430002  14.0551412   5.9201384   3.2447964  13.1942105   6.3384998
   2.4529372  14.0571868   5.3797424  46.8154836  52.3652506  51.7189074
  47.3931408  52.2434235  52.4723673  47.3961902  52.6587963  51.0168791
  58.6303777   0.3973666  53.7901227  58.3578575  -0.5180105  53.8537482
  57.9160631   0.8278290  53.3203469  72.3087272  15.6695664  12.8132021
  71.5426743  16.0891616  12.4216211  73.0535725  16.1643875  12.4717498
  11.5988076  48.0561113  40.2276516  12.4610734  47.6405478  40.2339458
  11.3421404  48.0891943  41.1492014  43.9824772  35.0756264  27.1954727
  44.1812086  34.5612931  27.9779053  43.4682322  34.4851422  26.6449189
  39.1294694  18.1960642  25.6979489  39.2844796  18.4417486  26.6100025
  39.8551536  17.6108277  25.4808927  24.9705637   1.9502846  54.4829468
  24.8829401   2.7872625  54.9390433  25.8838881   1.6980139  54.6186898
  30.0390457  36.7158533  12.0103570  29.2221903  36.9920802  11.5948125
  30.3882288  36.0416341  11.4274951  40.5564880  46.8228912  12.8746653
  40.4381657  47.2335815  13.7311482  39.7369361  46.9952250  12.4111295
  34.0892124  44.4613218  15.2647376  33.7632275  43.6647272  14.8459280
  34.9373794  44.6198845  14.8503685  12.6788437  67.9049635  -0.1766315
  13.2730949  68.4220600   0.3671632  12.9483032  66.9981861  -0.0304323
  73.0084955   1.6877166  11.7556310  73.4766256   1.1974231  11.0798335
  72.4664175   2.3086015  11.2689221  31.5375280  39.1065931  10.5823362
  31.1111903  38.3779001  11.0334158  30.9231377  39.3525887   9.8907852
  38.8004422  53.9053679  15.7687974  39.0848184  53.9536524  14.8560917
  37.8453755  53.9517212  15.7248616  44.1850662  52.7577209  35.7441449
  44.7652864  52.2467566  36.3085008  44.7297001  52.9963779  34.9940443
  22.4160194  54.1873598  27.6994681  21.7300606  53.6702061  27.2772765
  22.2195864  55.0914955  27.4541426  41.2127686  58.4615040  37.1821737
  40.6042719  59.1568995  37.4319530  41.1154175  58.3876371  36.2328053
  35.1205659  52.9577780  34.5883918  35.3930783  53.8747787  34.6211886
  34.1639900  52.9918194  34.5945430  22.1469617  29.7493696  44.8292732
  21.3985109  29.6142101  45.4104662  21.9555640  30.5724907  44.3797493
  24.2614627  51.7015839  27.4171400  23.6048794  52.1642208  27.9378104
  23.8350058  50.8818197  27.1674395  68.2023715  16.4655185   1.7391177
  67.8569232  15.6604362   1.3534518  69.1479515  16.3234783   1.7831107
  14.6469211  50.8648229   6.8858405  14.6553325  50.1700712   7.5442429
  15.3031896  50.5942178   6.2437173  49.7526685  69.1578252  42.1184444
  49.7971865  68.2612606  41.7861462  50.6551134  69.3700112  42.3567772
  65.2696443  31.8551946   0.6094190  64.8299062  31.0098767   0.7005259
  66.0916185  31.7504597   1.0886072  45.6949139  53.3456421  16.5516043
  46.5270615  53.7664604  16.3355529  45.8447838  52.4160671  16.3794029
  14.6349204  34.2305533  61.0093401  14.8111141  33.7664858  61.8277707
  13.7589253  34.5982376  61.1262863   8.5751498  40.8514452  28.9043236
   8.3004045  41.6191673  29.4056678   9.2586321  40.4479933  29.4394040
  65.3216374  53.0576658  44.1863394  65.4447246  52.1103191  44.2464972
  66.1490262  53.3847475  43.8332415   6.3819897   1.1413042   2.3282735
   5.5458176   1.2504283   2.7811930   6.7518913   2.0234148   2.2924604
  38.9480281  19.6295857   3.0385837  38.5462213  19.6067226   2.1701032
  39.5287752  20.3900814   3.0138561  55.9488666  22.9582063  21.6132188
  56.5328490  22.3326627  22.0420527  55.0729835  22.7093832  21.9084287
  64.1955482  13.1294195   9.1679645  63.4318745  13.1378881   8.5909343
  64.3113338  12.2076360   9.3985063  44.0909386  59.2579412   8.6853284
  44.1217995  58.4726810   9.2318141  43.4614468  59.8303509   9.1238683
  44.8354614  17.3582855  55.7145313  45.2132547  17.7982536  54.9529991
  45.1429022  17.8692261  56.4632962   0.0509932  22.8634882  18.0287492
   0.9441628  23.2062864  18.0598903   0.1574374  21.9132829  18.0735588
  35.2119589  61.1665010  16.8582320  35.9446692  61.5412188  17.3470581
  35.5449700  61.0669708  15.9663641   3.7934631  48.6015558  22.5262094
   4.1850862  48.6401367  23.3987761   3.4286118  47.7186489  22.4662590
  11.2797248  34.6634459  41.3974619  12.0542419  34.8721457  40.8751583
  10.8343565  33.9765048  40.9014845   8.4074479  70.6772041  30.4714417
   7.9638088  70.9032011  29.6539211   9.3118924  70.9615421  30.3396702
  28.5072947  55.2615404  15.7920897  29.0425658  55.5509615  15.0532031
  28.7363625  54.3392944  15.9070754  62.0745468  57.1975279  22.0003533
  62.8057003  56.9389248  22.5613976  61.3185346  57.2194004  22.5870371
  13.8992882  39.4633031  31.8623042  14.4156826  39.4876194  31.0567117
  13.1629801  38.8869858  31.6575122   1.1168657  49.7524214  25.5284929
   0.2437520  50.1328421  25.4326701   1.4780235  50.1749611  26.3077617
  64.9082994  29.1773915  19.8910987  65.1337147  29.6063256  19.0656078
  65.3261399  29.7162104  20.5628991  10.2214216  24.0646720   1.3578864
  10.2425670  24.6153808   2.1405145   9.8701929  23.2281661   1.6630622
  44.7211885  67.1086073  20.1827526  45.3232050  67.4694300  19.5318961
  44.4071865  67.8718185  20.6676674  61.3036108  50.0421190  49.3936014
  61.7768335  50.8702898  49.3134451  60.7808352  49.9865866  48.5936880
   7.6914877  42.9360247  34.4555569   8.4060740  42.8401995  33.8259411
   8.1272864  43.1375456  35.2836275  57.4209261  38.5968733  24.4980502
  56.6675711  39.1863012  24.5335627  57.5887871  38.4787989  23.5631108
  56.3931834  23.2660142  25.8111715  56.8479478  23.9476434  25.3163958
  57.0929992  22.7768175  26.2438083   3.5731366  61.7132807  35.3663468
   4.1333053  62.1491766  36.0085607   2.7047747  61.7099476  35.7690477
  47.2081327  50.2970076  49.4988728  47.3066616  49.9391890  50.3811932
  47.9928732  50.8290529  49.3671751  57.0283890  57.1371984  18.7175691
  56.9443941  57.3860264  19.6380377  56.9241381  56.1856937  18.7162030
  10.7865608  42.7232265  19.1277325  11.5583229  42.4853039  18.6139131
  10.7632744  43.6796188  19.0960944  53.3045136  12.8028718  43.5989189
  53.3357799  13.7006704  43.2684422  53.9177358  12.7966920  44.3338680
  63.1964159  68.9844561  44.3969488  62.9856396  69.3803787  45.2425575
  63.5543966  68.1245899  44.6176624  45.2192974  31.2724662  46.8685532
  44.8028231  30.9420061  46.0725784  44.7997952  30.7858443  47.5780964
  74.8295164  32.7540302   9.2294234  74.5723200  32.8753805   8.3154458
  74.3041372  33.3916712   9.7127670   1.7493460  39.4331789  10.9193897
   2.4452460  38.7782693  10.9745908   2.1367255  40.1528740  10.4211879
   1.5293859  57.6492310  16.9842756   1.7077768  57.4930668  17.9116488
   2.2653267  57.2423983  16.5269876  28.8387418  58.1481600   8.2103747
  28.6416483  58.8520575   8.8283652  28.8036299  58.5674572   7.3506141
  38.1842422  56.3357735   6.4012295  38.5314584  56.0731745   5.5487549
  37.9702353  55.5108833   6.8371040  46.7438126  35.9777427   4.1197601
  46.1616898  36.1554813   4.8585254  46.7785215  35.0226521   4.0665647
  43.6234140  61.5913343  26.1248207  44.3584871  61.7591286  26.7145181
  44.0139961  61.5850782  25.2509546  70.0466108  70.2721882  54.7642851
  69.4003439  69.9692440  55.4020882  69.6175766  71.0012722  54.3164062
  36.1078405  56.1824036   2.8018183  36.1483192  56.7821455   2.0569016
  36.8965316  56.3761520   3.3084324  39.8347724  19.3976561  54.4863693
  39.2608750  20.1201836  54.7409729  39.7757352  18.7774006  55.2130274
  59.0875578  43.8821745  22.2904801  58.6195707  44.7046661  22.4344707
  59.8010445  43.8977242  22.9283857  65.6511938   5.1411859  28.5084057
  66.3176834   5.7074205  28.8975120  66.0589325   4.2756311  28.4803677
  21.2197971  66.1304092  35.8609867  21.4617205  65.3330564  35.3898883
  21.5749669  66.0057259  36.7410660  68.4611142   2.1918479  57.7234826
  67.5421906   2.2700540  57.4671728  68.5072566   1.3627020  58.1995294
  31.1249137  49.2561674  55.8946419  30.9319258  48.6196184  56.5829706
  31.7406940  49.8671722  56.2992668  27.4342084  66.1663342  31.6323471
  28.3261275  66.5032053  31.7173743  27.2189355  65.8356237  32.5044250
  48.5956430  39.4237566   4.4201753  48.8843870  38.5219121   4.5599523
  48.8731050  39.6284080   3.5272238  58.3053148  61.2382841  39.7346735
  57.9481494  61.9470978  39.1996527  57.7038908  60.5067396  39.5955014
  34.2014301  49.8641125  59.4212886  34.7313965  50.4515186  59.9600990
  34.4349421  48.9862743  59.7231291  61.7622471  51.3861290  37.8067330
  62.5683737  51.7052857  38.2123593  62.0556319  50.9268967  37.0197991
  38.5129547  58.6772346  39.4452333  38.2342529  59.1905689  38.6869144
  37.9199362  58.9454746  40.1470947  28.1183481  64.9127007  27.9157615
  27.7693987  64.4354200  27.1629882  27.9029727  65.8285475  27.7394819
  66.9656080  50.2618027  33.3919096  67.0796174  50.9647179  32.7522659
  66.1611122  50.4899883  33.8576889  19.1242421  42.5651169  47.5153494
  18.9463174  43.1991482  48.2100296  18.8210142  41.7294931  47.8703308
  61.6085541  29.2664647  32.9184079  61.8935716  30.1641703  33.0890584
  61.6141450  28.8458586  33.7782264  22.8174710  57.6800489  10.0621033
  22.4366546  57.8671741  10.9201205  23.6228633  57.2008419  10.2568758
  72.2031784  26.4494348  42.4175358  72.6321697  26.2367129  43.2463598
  71.2696695  26.3328385  42.5941753   9.9481207  43.6838484  36.9354129
   9.9439031  44.6250820  37.1094489   9.0644932  43.3943129  37.1625757
  14.5244300  26.0933614  10.1395738  15.2791059  25.6379247   9.7663832
  14.7840631  27.0145535  10.1547265  39.3481040  44.1643286  36.2924457
  39.3883467  44.5958710  35.4389906  38.4839034  44.3918848  36.6353846
  19.9087739  62.5474215   9.3000323  20.0605631  61.7027998   9.7240651
  19.8121691  62.3354006   8.3716220   6.4823354  20.7120768  55.9672199
   7.3893440  20.9759680  56.1219172   6.5486062  19.9618116  55.3765039
  72.7043897  70.4782867   4.2249376  72.9502505  69.6169329   3.8875133
  72.6342353  71.0296917   3.4456688  22.8906631  36.3741088  14.0192592
  23.6708093  36.0646272  13.5590148  23.2279944  36.7709136  14.8223686
  10.8472633  52.6258898  33.9536548  10.0421119  52.2010469  34.2494106
  11.4975739  52.3948193  34.6169305  67.8598379  43.6256481   2.0291730
  68.1658052  44.3312478   1.4593049  66.9569849  43.8630510   2.2406741
  27.0700979  56.9632816  34.6719146  27.2602344  56.6661596  33.7820840
  26.6976643  57.8376722  34.5580149  58.8495302  69.0280962  53.0557775
  58.8381958  68.7385893  53.9680767  59.7195816  68.7860966  52.7384853
   5.2294124  20.4092470  60.0343638   4.9507654  20.9018389  59.2623917
   5.7714403  19.7021261  59.6844856  50.8931971  31.0783863  31.0067773
  50.3405666  30.9895802  31.7832756  51.0115385  32.0226359  30.9037423
  29.6657609  22.2047750  14.7942483  30.1604905  21.7431489  14.1172135
  28.7761357  22.2597829  14.4452894  10.6974685  64.0682650  25.7896376
  10.9027672  63.1542540  25.9862733  11.0390842  64.5569229  26.5384650
  70.7525968  34.5655847   2.9924031  71.6234206  34.5590520   3.3897134
  70.5341243  35.4938198   2.9094764  50.7334566  54.1261244  41.1839962
  50.3043842  54.7223568  40.5702925  50.6098843  54.5345926  42.0408010
  19.0905142  53.5593081  13.5417044  18.5108793  54.1583252  13.0711401
  18.5140371  53.0962753  14.1495728  44.8364639   6.8910543  17.4999344
  45.7629621   6.9913951  17.7184868  44.4429886   6.5195981  18.2895100
  58.0924011  23.5899702  48.9386014  57.8032268  22.6904026  49.0915112
  58.2210345  23.6424938  47.9915396  40.4320884  31.2834374  58.7603311
  40.9935535  31.5757528  58.0423195  39.7981191  30.6983105  58.3456690
  58.4292841  30.8726144  27.0746613  57.7302265  30.4871535  26.5464854
  58.3987474  30.3904724  27.9010010   2.3387683  25.9406344  61.1168660
   2.3860848  26.5020577  60.3430466   2.3538363  26.5491739  61.8555692
  68.9264214   4.5177785  14.9437630  68.6550295   5.4349748  14.9072862
  69.7263300   4.5254127  15.4694259  43.7066650  52.0689058   6.5490890
  43.1064558  51.8805027   7.2705334  44.5016956  52.3880386   6.9760787
   7.3094713  -0.0955733  16.7467022   6.8522274   0.3298704  17.4720645
   8.0700409   0.4620735  16.5830040  16.1873186  39.6395794  59.9369352
  17.0898474  39.8953310  59.7464993  15.7210911  39.7740761  59.1118453
  54.8723733   6.2362949  34.1502619  54.8218595   5.5742065  33.4608269
  54.4044697   6.9908086  33.7924886  56.5917015  69.5346737  23.8302183
  57.0859241  69.6543503  23.0192637  55.6804085  69.4611788  23.5467052
  35.9804785   0.5341569   7.3157758  36.9150161   0.3536026   7.2144276
  35.8122158   1.2661067   6.7223370  26.6488098  15.2119232   1.7563554
  27.3724150  15.0477147   1.1516591  26.2151455  15.9897066   1.4053317
  49.3251812  18.7419454  12.5648320  49.2215144  19.0905897  11.6794324
  49.2482006  19.5075075  13.1342351  37.2216988  61.9503212  18.5163414
  37.9256463  62.4174309  18.9663398  37.4060535  61.0251951  18.6787820
  23.2396257  52.0000092  44.6187464  24.0485800  51.7565170  45.0687841
  23.5239494  52.5788990  43.9114455  58.0635357  66.2549829   4.9655205
  57.6713991  66.8888235   4.3649316  58.9954948  66.4733362   4.9691910
  62.3810541   4.1966907  40.7894564  61.4984428   3.9920846  41.0982704
  62.5652968   5.0645915  41.1486769   2.6180363  61.4498949  13.7024999
   2.7997446  62.0850229  13.0098057   3.1507635  61.7428541  14.4418287
  50.7264875   6.0212827   0.6755229  51.0959505   6.8925214   0.5317279
  51.1329197   5.7198882   1.4880534  63.7812674  12.3718397   3.6523828
  64.1939198  12.4031774   4.5154983  64.4819819  12.6047460   3.0432978
  73.6163055  28.9087240   4.6025094  72.8953230  28.5587827   5.1259243
  73.8523066  28.1936780   4.0115333  21.6935862  15.5521790  60.9439780
  21.3099421  16.3456503  61.3174121  22.5464237  15.8320824  60.6114809
   3.6180342  34.3233410  53.5042630   3.2559836  35.1171080  53.8980714
   3.0413974  33.6216036  53.8063947  68.9913618  11.3860361  24.8298693
  69.4355738  11.9765131  24.2213917  68.2521259  11.8956892  25.1615548
  25.1372266  54.7848082  26.3923240  25.0517035  54.3532944  25.5421996
  24.9082661  54.1075373  27.0288110  37.7084851  68.5263571  18.2328721
  38.3368670  68.3300885  18.9277383  37.7657246  69.4750508  18.1191369
  66.8898726  54.2681408  14.1767097  66.5857697  53.7852240  13.4082413
  67.3198891  55.0440979  13.8172507  53.2021856  62.5078249  35.9518385
  52.7786875  62.6992798  35.1150441  53.0532932  61.5719938  36.0870552
  63.0936372   2.3661129  29.9193001  63.1990897   3.3174745  29.9236059
  62.2476732   2.2169916  30.3416038  64.7507250  18.1516019  19.6697700
  64.6450746  18.4740774  18.7747383  65.1072895  18.8972990  20.1524973
  11.9906533  65.9775925  42.7531767  11.4546335  65.5916357  42.0603895
  12.8284216  65.5187035  42.6915598  74.7704876  20.8705679  57.8706215
  75.5944694  21.3024727  58.0958865  74.8845947  20.5967156  56.9605569
  69.3348671  58.4718275  46.2807492  69.8958326  57.7118468  46.1259095
  68.7262274  58.1854820  46.9617752  30.3694927  12.8878347   7.1647823
  29.5753872  12.3535291   7.1769184  30.0760567  13.7460748   6.8589091
  44.1624784  44.1256142  16.3792109  45.1108170  43.9961672  16.3676465
  43.9946651  44.5942020  17.1968281  49.5810795  43.9378929  15.9700477
  50.4231834  43.4918499  16.0602427  49.8096848  44.8603153  15.8555353
  29.2045010  21.1713711  59.0976481  29.5807970  21.0944477  59.9744121
  29.7764910  21.7912260  58.6450557   0.9860813   7.9873125  25.5953002
   0.1901495   8.5148565  25.5288005   0.9580624   7.6219217  26.4795709
  30.7582045  66.1407566  50.4043436  30.8991790  65.5905199  49.6338892
  30.9332466  67.0306873  50.0983715  16.6624498  30.1634932  20.5530763
  17.0260668  30.1919746  21.4380622  15.8951139  30.7344460  20.5909276
   5.9572018  49.0632835  59.5528170   6.5974153  48.3577076  59.6451307
   5.4051269  48.7913529  58.8196720  32.4184942  66.7527199  55.6076527
  32.1824527  66.3903189  56.4615726  33.3632064  66.8970919  55.6615782
  68.4913111  51.6743279   8.6380684  67.8598261  51.2016010   9.1802788
  68.3510303  51.3334656   7.7546853  14.5025003  43.4180498  22.4418879
  14.2952383  42.7129364  23.0551529  14.2491686  43.0730152  21.5857291
  10.0119936  36.5678906  18.2132626  10.0790048  37.5140548  18.3417737
  10.1828671  36.1959577  19.0785372  47.9019440  48.5704819  59.4016188
  47.3257006  48.3069149  60.1190452  48.2177771  47.7456299  59.0326984
  14.8093092   5.9332935  53.9170551  14.4307768   6.4413921  54.6345377
  14.0689337   5.7448284  53.3403730   3.7074995  57.5469351  22.8917527
   3.6841059  57.0622396  22.0666742   2.8622436  57.9944372  22.9306984
  57.9827309  28.6588097  20.2958298  57.8506374  28.1517696  19.4947720
  57.7119923  29.5472550  20.0643158  68.2909405   0.5152408  50.4429388
  68.9100849   1.2451068  50.4291821  67.6275217   0.7516805  49.7947073
  59.8622036  59.9795341  56.0981703  60.3164339  59.1797972  55.8329773
  59.2517757  59.6940708  56.7779684  30.4286724  21.1386053  36.9826746
  31.1165273  21.4121477  36.3758278  30.7670849  21.3690034  37.8479052
  14.2954242  59.5678473  28.2451510  14.2182505  60.2262020  28.9356899
  13.4334815  59.1528559  28.2124710  37.5493670  48.5128641   8.0290765
  37.9136419  47.6352072   7.9139566  36.6749120  48.3639574   8.3887827
  39.3838072  65.5115938  15.2156603  39.5473409  66.3762188  15.5923712
  39.1262627  65.6892824  14.3110442  15.2738118  44.6966076   3.1972793
  15.7016897  45.1160860   2.4508277  15.4624116  45.2740479   3.9370233
  70.5060864  54.9379206  11.4080822  70.9374970  55.6002855  11.9478905
  70.6795108  54.1114950  11.8588305   9.8339189  39.9516646  46.9695930
   8.9395655  39.6792618  47.1749274   9.8631681  39.9763075  46.0131578
   0.8705483  60.6907082  27.8017950   1.6312747  61.2277651  28.0233693
   0.8444583  60.0194550  28.4836841   6.8424189   5.0839559  25.5049396
   6.7912971   5.4720870  26.3784242   7.3511898   4.2826072  25.6283259
  54.3567038  41.5220356  32.3682547  53.7368965  41.7305183  31.6692519
  54.2381382  40.5847025  32.5218058  55.4461563  50.5814186  35.3364781
  55.9007621  50.0962177  34.6478919  55.7647265  50.1948372  36.1521391
   6.4274150  15.7798822  42.3238114   6.1625689  14.8983438  42.0611934
   5.9192777  15.9567697  43.1154803  37.2370124  60.9657097  32.5739455
  36.4865851  61.0821581  31.9912529  37.2574091  60.0256777  32.7532625
   7.6443064   9.2974035  29.2150092   8.5912620   9.4353906  29.1932821
   7.5318634   8.4853641  29.7091532  30.0289165   3.6854640  22.3168707
  30.7076847   4.0889970  22.8578591  30.3889477   3.7005893  21.4300895
  19.2645955  65.4487085  15.2003634  19.5090449  66.1704540  14.6210861
  18.6762977  64.9076223  14.6737146  27.2534299  53.0103636   1.2803048
  28.0928707  53.1481123   0.8414482  26.9264984  52.1865654   0.9187807
  55.3633833  41.8355322  18.3635545  55.5230618  41.9484568  19.3005621
  56.2340117  41.8655729  17.9668939  65.7604599  49.1101217   3.4960648
  66.5302849  49.3850374   2.9980469  66.0890150  48.9628172   4.3829620
  68.3691836  51.4050690  61.5276601  67.4862326  51.6149345  61.2233779
  68.2468999  50.6709686  62.1296330  69.6721888  49.9229240  30.7705736
  69.0185785  49.2971277  31.0826755  69.5470524  50.6950998  31.3222265
   1.0091793  18.4824792  12.3416317   1.8335735  18.8717405  12.6333189
   0.5976831  19.1636030  11.8096805   2.4735891  19.5213357  52.6938248
   2.2412884  20.4438344  52.7999496   3.0181467  19.3223230  53.4554577
  31.2579608  62.9801178  38.5549378  31.5366244  62.7741909  37.6626515
  32.0456052  63.3202887  38.9793539  55.2360252  51.7788139  51.5828423
  55.8414507  51.2629429  51.0503320  54.3981392  51.3231007  51.5022377
  57.9454732  67.8355328  55.8556662  57.0655281  67.6771084  55.5138622
  57.8525580  67.7513615  56.8046204  10.2333200  39.3818021  19.0885746
  10.6414807  40.2435398  19.0046322  10.4975510  39.0750957  19.9559534
  40.9324265  52.8794098  22.0961475  41.4795351  53.6325073  22.3192072
  40.3421450  53.2050753  21.4166355   1.8911791  53.7601137  32.4595642
   1.8153334  53.9828300  33.3873963   2.8303480  53.8014078  32.2793317
  71.4839840   3.5194036  24.2580152  70.7694578   3.2625973  24.8408818
  71.2690496   3.1090242  23.4203863  61.8611109   1.5202371  27.4154520
  61.4292561   1.0009948  28.0937719  62.4646127   2.0871726  27.8956699
  18.8581753  60.1548243  15.3248799  18.2407367  60.7359219  15.7690954
  19.7190857  60.5227709  15.5240738  19.3046581   6.3471738  38.1329274
  19.0991508   6.2787096  37.2005606  18.4517109   6.3407318  38.5672927
  22.9148043   4.9442497  60.8688803  22.4237383   4.3976227  61.4823007
  22.9341257   5.8082119  61.2804969  40.0182438  40.6552124  16.7006564
  40.7743120  40.9023714  17.2331095  39.6684384  39.8741364  17.1293581
  10.3051960   3.8401214  40.3006124   9.9252283   3.1104604  39.8112774
  10.0004827   4.6219150  39.8399878  32.0191908  23.0324141  60.8339617
  31.8246723  23.9680782  60.7798705  31.1859310  22.6281420  61.0757745
  28.4711432  28.4021974   8.7592310  28.2520628  27.5629783   9.1641319
  28.6237288  28.1911469   7.8381407  13.0980837  57.7291974   9.6204682
  12.2530376  57.8625163   9.1911002  12.9744255  56.9441899  10.1540442
  44.7408759   6.4666549  37.1519709  44.8096132   7.1938793  36.5333819
  45.5700361   5.9968606  37.0624256  49.5808994  27.7342264  17.5366628
  48.6977970  27.3873941  17.4099159  49.4676291  28.6846963  17.5337791
  71.0868657  24.5803133  58.7833519  71.3101805  24.8486248  57.8920771
  71.8039120  24.0034357  59.0465746   5.9443581  39.4483797  54.7356892
   6.4232122  39.9629632  54.0859652   5.3990948  38.8562528  54.2177153
  20.4640675  49.6361303  46.5426493  20.3590226  49.1652393  47.3693657
  20.9715986  50.4143047  46.7730665  25.4922628  60.2370501  39.3512058
  25.3046918  59.4921780  39.9223566  26.2707829  60.6419611  39.7335482
  65.8466303  10.2428762  18.7986279  65.7872021  11.1738721  19.0129900
  65.0302207   9.8683397  19.1294241  11.3047993   9.7484724  10.9843290
  11.6848671   9.9743310  11.8333089  11.5097629  10.4966012  10.4234982
  31.9543433  56.3048506  25.0399232  31.6295505  56.9291735  25.6887412
  32.7915072  56.6703653  24.7539401  21.1966907  32.9664842  22.1016479
  21.3428795  33.4808771  21.3077521  22.0753633  32.7896158  22.4376273
   5.1206106  25.2563381  43.5226870   5.4440677  26.1535311  43.6042404
   4.3929243  25.3193879  42.9040384  29.3394173  45.7852951  44.3781940
  29.2668236  45.7542053  45.3321306  30.2784813  45.7140461  44.2069987
  49.6901846  61.9966555   9.0015882  49.2487335  61.6726446   9.7866809
  49.7897196  61.2233067   8.4463781  17.6085627   3.4449378  33.9782834
  17.7632343   2.5086681  33.8529396  17.4945270   3.5444299  34.9234438
  58.1694233  20.7059804  54.7147274  58.7194240  20.0738088  54.2520285
  57.5676262  21.0340921  54.0465832  28.1594539  48.8023090   2.9196736
  28.8058138  49.4659376   3.1606108  27.3675823  49.0559578   3.3938408
  39.0968107  22.3297811   0.5455371  38.2425379  22.2109962   0.9606811
  39.2957424  23.2580066   0.6682416   6.2330133  50.8832169  61.3533211
   5.9860289  50.2675438  60.6632614   6.0457778  50.4173136  62.1682501
  56.3244772  12.0821149  34.3679766  56.8801022  12.2767789  35.1227097
  55.5588722  11.6448362  34.7406248  36.5138865  66.3274527  17.0964015
  36.8940878  67.1631813  17.3670268  37.2659349  65.7442760  16.9936323
  42.1588659  47.2540188  34.4206667  42.2461319  48.0131006  34.9972177
  42.3144102  47.6012421  33.5423303  34.1777706  68.5813570  44.5561695
  34.2580009  69.4927025  44.2746687  34.8156118  68.4923792  45.2643204
  59.1077291   3.7281553   7.5750118  59.4395291   4.2576782   8.3000946
  59.4770109   4.1362087   6.7918420  41.0081660  21.0554449  24.3960047
  41.6601407  21.6646043  24.0494728  40.1741099  21.5140001  24.2944503
  58.0633866  21.2484685  27.1642208  57.3290407  21.2470857  27.7781963
  58.0125796  20.3978960  26.7281246  49.7332251   6.7791311  22.7488446
  50.3645741   6.8885461  23.4599423  49.7452294   7.6173536  22.2868109
  27.3584533  57.6056767  12.3617601  27.9972506  57.0114946  11.9679093
  27.7527428  57.8630066  13.1951559  59.5473862  63.1901741   9.6069640
  58.9402723  63.4153700  10.3118980  59.3534517  63.8206291   8.9133167
  72.5070763  56.0548210  37.6493001  71.8368626  55.5408287  38.0996943
  72.5391722  56.8812609  38.1311727  54.9533606  55.8244324  27.9093027
  55.0644207  55.9578562  26.9679761  54.0098524  55.7127333  28.0257010
  28.4467649  51.4612341  31.4241552  28.5181594  50.6029177  31.0065079
  28.3133245  52.0705366  30.6980872  52.3777246  44.1440105  49.0319920
  52.7469492  45.0172377  48.9001322  52.7895451  43.8288260  49.8365355
  25.2249980  51.5430355  39.2502379  25.2296376  50.8978748  39.9573255
  25.0117564  51.0373402  38.4659958  48.7497854  46.0953999  32.3430610
  49.0766811  45.3289270  32.8141117  49.1800833  46.0531998  31.4890742
  23.6804461  38.6012077  24.7671914  22.7920270  38.6550832  24.4149947
  24.0982294  37.9066300  24.2580271  56.7925119  59.6650076  37.3272896
  56.5047359  60.3203106  36.6916847  57.7388525  59.6043301  37.1969652
  31.3322401  50.0625420  43.6689377  31.8044519  49.3909168  43.1768417
  30.6803775  50.3969336  43.0529118  59.0999937  52.6526976  24.9598050
  58.6449385  52.0850229  25.5818152  59.3217945  52.0769215  24.2280126
  23.4982241  25.5941835  52.8675137  22.7116383  25.1964537  52.4942527
  23.1691492  26.1889282  53.5414700  13.2915557  38.3522049  55.0443296
  12.4426950  38.0395571  54.7314058  13.0812371  39.1090218  55.5913422
  26.9980335  38.3055806   6.1627591  26.8264246  39.1362190   6.6064054
  26.1314535  37.9211378   6.0305792  38.7452936  58.1385660  31.4890718
  39.1490984  57.4832344  30.9201145  37.8149557  58.1089544  31.2658477
  41.4947533   4.9268190  11.2319922  41.4717233   5.2089015  12.1463931
  40.5828464   4.9715749  10.9444952  37.7701902  47.2114372  29.1716552
  37.7894258  47.4139786  30.1069832  36.8475795  47.2889471  28.9287305
  74.2355204  63.4895563   6.0902965  73.3142900  63.4232807   5.8389539
  74.6756840  63.8124037   5.3040028  43.3407736  56.1589956  27.7922106
  43.0205154  55.8535433  28.6409545  43.6675930  55.3692770  27.3612046
  49.9687338  56.8564510   0.6794189  49.8987675  56.2684393  -0.0726296
  49.0623236  57.0655060   0.9051380  75.8575642  15.8479063  48.3142710
  76.1827719  14.9515001  48.2310534  74.9050247  15.7616369  48.2760811
  20.7888588   7.5554267  17.6070547  19.9736928   7.2530357  18.0074227
  21.4308643   7.5218669  18.3162332  69.3603063  57.0518637  25.6187940
  69.8689830  56.2442636  25.5462742  68.6007363  56.9080067  25.0543571
  47.5003850   3.3936922  43.4213305  47.4864256   4.2385236  42.9715538
  46.5774214   3.1614486  43.5234642  32.6904927   9.6340625   3.9719888
  33.6227880   9.7925250   4.1201421  32.4655019   8.9359633   4.5870229
  17.6518286  31.2478319  53.5542790  18.0685223  30.7776705  52.8320948
  17.1617544  31.9523302  53.1303213  50.0042915  50.5781221   7.0255041
  50.7311058  50.8810186   7.5697720  49.6559572  51.3751221   6.6258919
  41.4566660  62.8679895  37.4776793  40.6795406  63.3955812  37.2934270
  42.1921062  63.4410810  37.2610641  50.1521063  64.7028828   9.1316223
  49.4097662  64.8192692   9.7245955  50.2842045  63.7554979   9.0963185
  49.1035223  66.6105127  43.8395596  49.2370844  65.7042456  44.1171885
  49.0195227  66.5594244  42.8874207   5.9060966  11.3688508  29.6158195
   6.5363991  10.6729261  29.4296765   5.3853046  11.4405576  28.8159037
  48.2237196  59.3023777  47.7556896  47.9020643  58.6691618  48.3974171
  48.0571175  60.1554298  48.1566668  65.6565189  53.6022329  11.7335927
  66.5494680  53.5316515  11.3961065  65.1411676  53.9051294  10.9859991
  19.1037321  65.9463167  17.8585398  19.3418932  65.0330067  18.0178404
  19.0318918  66.0125208  16.9063389  49.5500517  44.3306494  26.4871144
  48.6456633  44.6173811  26.3602424  50.0382137  44.7599220  25.7845092
   2.9227709  48.2501245   2.2301122   2.9030274  47.9356504   1.3262626
   3.8540672  48.3404947   2.4319764  56.9157696  39.2268372  11.6556478
  56.2260962  38.7404943  11.2039256  57.5145578  39.4960737  10.9590888
  35.1882839  48.0648899  18.1598139  36.1081433  47.9393339  18.3928943
  35.1838136  48.0814600  17.2027683  17.6915729  47.8171062  39.5995641
  17.7342498  48.7524796  39.4008541  17.3667312  47.7779245  40.4991055
  50.3098583  63.8866949  36.7207670  49.5410872  63.7333918  37.2700548
  50.3883362  63.0928898  36.1916733  19.2301989  36.6232824  16.4897609
  18.8395178  36.8848324  17.3235428  19.3075895  35.6711054  16.5497482
  15.5130768  66.8341923   1.7826048  15.1923585  66.3452196   1.0247932
  15.4691017  66.2096977   2.5066948  18.2712280  36.1885110  42.4390793
  18.6512482  36.2667696  43.3141136  17.6394283  35.4735033  42.5154066
  73.8439476   1.4253894  59.4952297  74.3222010   0.8735839  58.8763475
  73.0156242   1.6164438  59.0552187   5.6196130  28.1020561  61.6185964
   5.4208410  28.8371578  61.0386446   5.6257308  27.3374954  61.0427113
  32.0335460  56.1308575   0.6759991  31.4936137  56.0737276   1.4643154
  31.4440393  55.8837461  -0.0364959  28.7025892  11.6348402  38.8863087
  28.2413876  12.4662820  38.9969230  29.5551693  11.7773286  39.2974615
   0.3959858  28.0705873  14.8317182   0.2895271  28.9532129  14.4769335
   0.2839338  28.1770364  15.7763577  66.5614271  60.0968218  49.0960884
  66.6920376  59.5288992  49.8554564  66.7342663  59.5325613  48.3424473
  21.4651513  60.6503582  10.5633509  22.0512724  61.2460852  11.0300410
  21.9848561  60.3326178   9.8249876  57.0775414  67.2219181  30.3808379
  57.1594858  66.5850353  31.0906935  57.7205706  66.9396639  29.7303939
  63.9888620  39.9749875  30.5880952  63.3089828  40.3818989  30.0510478
  64.4989681  39.4499254  29.9713850  53.9831125   7.4627105  24.9431825
  53.6800515   8.3651391  25.0432396  54.4448864   7.2731821  25.7599282
  17.3367381  38.6802888  19.9108374  17.4692035  38.3738041  19.0137577
  17.8088760  39.5119286  19.9519908  70.1021587  13.4636522  11.2938233
  69.6633028  14.3015457  11.1469384  69.8203253  13.1957555  12.1684857
  33.6377478  67.8915358  57.7520227  32.8870511  67.2977924  57.7395344
  33.5717869  68.3433723  58.5932827  48.0083561  39.6079636  38.4521174
  48.8946819  39.6766186  38.8070011  47.5364542  39.0708899  39.0885878
  58.9003849  44.8567247  36.4786625  59.2828751  45.0076103  35.6142759
  59.5757294  44.3778992  36.9591498  51.6588211  38.9487815  39.9044275
  51.6429281  38.6141062  39.0077829  52.4113750  39.5399046  39.9261355
  34.0361095  52.4669253  40.7701997  34.4876934  53.3071279  40.8499459
  33.6846138  52.2999775  41.6447357  39.6901250  63.5080147  44.5127535
  39.3116665  63.5553551  43.6348248  40.5953121  63.2320642  44.3688059
  15.4662561  13.7978649  16.9846570  14.9454164  13.7968707  16.1815643
  15.9141970  14.6437633  16.9785738  63.2016706  65.0864410  15.9592354
  63.5505486  64.5221138  16.6491961  62.2523022  65.0473404  16.0750210
  31.1896849  18.8286769   0.5812896  31.0593653  17.9238296   0.2975649
  32.0444918  19.0706635   0.2249606  49.6233975  20.1555387  55.8927584
  49.9947464  19.3773881  55.4770517  48.9060986  19.8204557  56.4307451
  61.9420635  19.3779699  37.4452043  61.5221703  19.9226133  38.1109977
  61.3714253  19.4521562  36.6802859  67.7124178   4.4433919  22.6794720
  68.6502754   4.6163932  22.7614617  67.3043930   5.3080122  22.7261829
  50.7390261  53.5472345  12.7787030  51.4816475  53.6676550  12.1868873
  50.4449844  52.6511860  12.6147878  24.0051973  19.0880743  61.0405143
  23.3679426  19.4146648  60.4053130  23.9541948  18.1354014  60.9627841
  36.3079762  57.0947504  19.5563889  35.9417558  57.8931189  19.1759682
  35.8719826  56.3837671  19.0866566  74.4220268   2.2915308  56.1285877
  74.6391165   1.4997426  56.6207075  73.9250051   1.9757692  55.3739357
  25.9930038  57.7978468  20.0066423  25.2201009  57.8518963  19.4445646
  25.6419802  57.6287317  20.8809495   3.0463970  37.5237433  37.9976110
   3.9732183  37.3640839  37.8194384   2.6543105  37.6481548  37.1333078
  66.2066793  35.3224826  20.0048876  67.0544052  35.6070304  20.3463936
  66.4012766  34.5219636  19.5175147  43.8547134  67.2345257  45.6980562
  44.2206860  68.0320692  46.0804462  44.6145201  66.7603779  45.3602505
   7.5404322  12.1463052   6.4413941   7.1268570  12.5806657   7.1874011
   8.4621393  12.0715562   6.6885793  75.4641819  55.4426479   2.2853889
  75.6486273  56.0825729   2.9729226  75.7733297  54.6105289   2.6434997
  36.4189458  36.8358588  20.2271795  36.6724801  37.1737981  21.0861039
  35.4766107  36.9957495  20.1755071  41.3247395  63.5006142  56.2525606
  40.4323673  63.1786251  56.3799477  41.6028833  63.7860727  57.1228409
  15.6568157  20.5247728  42.7379608  16.4494907  19.9919836  42.8014135
  14.9632513  19.9647180  43.0865860  39.7962379  44.7780037  29.2392302
  40.1684761  44.9792242  30.0978231  39.3746662  45.5921650  28.9641738
  40.3867579  67.5178480  35.6356668  39.7315550  67.7086020  34.9644327
  40.1951313  68.1368589  36.3401794  57.5581646  48.2077742   9.6608472
  56.9773388  48.3769560  10.4026353  56.9878817  47.8297043   8.9914685
   5.5128962   5.5959947  32.9787330   6.1127728   6.2402303  33.3546881
   5.1601756   5.1271875  33.7350658  57.0538675   2.2588531   8.7834787
  57.0153963   2.5740615   9.6864724  57.7315080   2.7947799   8.3713865
  57.4806320  13.3367387  36.8040895  57.9076492  12.7059022  37.3836899
  56.9786179  13.9008180  37.3923302   4.3331539   2.6523057  35.6664038
   3.9914762   3.2250062  34.9797463   5.2840483   2.7020828  35.5686378
   1.6040134  64.9724483  36.1394191   2.0557594  65.3357029  36.9011283
   1.1636543  65.7234144  35.7414675   3.8533556  22.3957006  20.8230925
   4.4252932  22.6330224  21.5530229   2.9678881  22.4673501  21.1795235
  51.8623435   3.8593475  42.4599361  52.4968087   3.4726612  41.8564844
  52.1217501   3.5331289  43.3216333  26.7358053  37.1899525  58.1692556
  25.8034266  37.0293108  58.0239961  27.1658552  36.3869396  57.8752244
  12.4233294  41.8578148  31.3366652  12.9041433  41.2011909  31.8405342
  11.7327070  41.3629436  30.8957791  71.8268967  71.3757753  33.5164332
  72.0908356  72.0051861  32.8453088  72.5150347  70.7105255  33.5047674
  10.6600321  38.7293974  51.5797273   9.7601736  38.6243025  51.2707857
  11.1802185  38.8076607  50.7800333  15.1131498   9.9599210  52.0692921
  15.5540382  10.7007448  52.4852657  14.1807424  10.1624242  52.1457672
  29.4739604  59.7106123  21.4323592  30.3748202  59.6378708  21.7476225
  29.3312383  60.6515694  21.3300943  54.0514040  51.1146832  16.1260843
  53.2416964  51.0873556  15.6163204  54.0242386  50.3216887  16.6614842
  34.9757111  12.3237268  38.9675260  34.1816532  12.1230451  38.4721255
  35.6862938  12.2146360  38.3355331  51.2475144   9.5535604  30.7076216
  50.7878458   9.5384065  29.8681545  50.9516108   8.7619153  31.1570430
  70.0787937   9.9712602   0.1864913  69.6696579   9.1107885   0.0947613
  70.8819639   9.8032705   0.6793711  68.7439501  24.7833768  45.6914520
  68.8542950  25.1933805  46.5493298  67.9955255  25.2369539  45.3036928
   4.6186029  41.9453756  52.6583910   3.7908089  41.4835111  52.5254679
   4.6638929  42.0885126  53.6037445  35.1127696  63.1719351  33.4253073
  35.2117014  64.0966988  33.1988931  35.8323789  62.9954100  34.0313053
  72.0687962  57.3144436  34.0232205  71.6515827  57.2431755  33.1646848
  71.9292164  56.4588690  34.4291067   1.4815056  34.7942201  29.3977118
   1.4245903  35.2180807  28.5413599   0.7855761  34.1371099  29.3864417
  37.3015785  70.0043154   7.4847370  37.6222062  69.3244076   8.0773228
  36.7851090  69.5300484   6.8331516  46.8122530  70.9365511  55.6418896
  45.9219742  71.0310841  55.3032160  47.3216867  71.5894938  55.1619196
  64.3975830  67.2512245  26.5640163  64.4956684  66.3109922  26.7142892
  64.5522738  67.6481915  27.4211717  10.6268036   6.7360345  26.5050721
   9.9000704   6.7244617  25.8822083  11.3373100   7.1735279  26.0360217
  26.2493170  54.3107143  47.9173473  25.4180515  54.1927830  47.4576513
  26.6243637  53.4312550  47.9634933  36.9857836  52.1119499  13.7706351
  36.5201187  52.8427744  13.3640838  37.8929543  52.2166824  13.4837461
  61.7004204  64.4113159  37.6339769  61.3571453  65.0402260  36.9992566
  62.0465946  63.6965132  37.0996976  15.4451132  53.3475208  44.8890877
  15.6375849  52.4166679  44.7764063  15.0189579  53.6046648  44.0714693
  60.5159103   5.5156890  32.6934218  60.2468264   6.4307682  32.6130748
  59.7045385   5.0177804  32.5934267  12.9104471  50.8905077  43.8740253
  13.2464647  50.5354023  43.0510950  13.2032728  50.2688980  44.5404243
   4.0987217  16.0892145  26.5192008   4.9236214  15.6777040  26.2614560
   4.3584072  16.9274751  26.9014549  42.6471424  63.0882883  11.5991902
  41.9845104  63.7774658  11.6459227  43.1248140  63.2697821  10.7897949
  24.9308038  64.9099493   6.7965609  24.5038342  64.0749836   6.9882780
  24.4326639  65.5546284   7.2990370   4.7112524   6.2648622  52.0595980
   4.6240627   6.7132179  52.9007912   4.1131985   5.5201045  52.1220160
  41.0310078  49.7946024  52.9496527  40.5831289  49.9242449  53.7856102
  40.9506130  48.8563871  52.7778292  65.3985977  67.9004622  52.1892643
  66.3250637  68.1076241  52.0668936  65.1484108  68.3793974  52.9793644
   2.4394857  21.8298093  46.1051130   2.7834284  21.3881437  46.8815613
   3.2132017  22.1911375  45.6726408  43.1352032  41.3441483  61.9816156
  43.6934460  42.0111242  61.5819445  42.5760687  41.0400072  61.2667048
  46.4487578  56.7596841   2.8425094  46.6681575  57.6588464   3.0866500
  46.1837717  56.8186021   1.9246074  30.8458542  49.9078298   0.2111360
  30.3786301  50.2793050   0.9594270  30.6419205  50.4970861  -0.5151013
  60.3414237  31.9161264  20.9587622  60.2597677  32.7135126  20.4355621
  59.4908654  31.8230573  21.3878536   4.6262121  60.0066853  39.1201997
   4.2236948  60.3639269  39.9117756   3.8861036  59.7596359  38.5657263
  52.7129852  20.2610818  21.7038226  53.0595433  20.8874456  21.0683656
  52.8313291  20.6896059  22.5515246  58.3524656  67.2007990  24.4770026
  59.1365194  67.7487803  24.5116925  57.6785088  67.7702236  24.1058254
  50.4175770   1.1850206  22.0914698  50.6422412   0.5331556  22.7554178
  50.8176338   1.9955198  22.4065518  33.4525751  40.2477432  16.1183520
  32.9404234  40.8680940  15.5996009  33.4495329  39.4426799  15.6005736
  30.2467680  69.8174524  16.9230926  30.3124928  69.0166330  16.4028978
  29.3371511  69.8358488  17.2205663  68.8221466  12.4079172  13.8625813
  69.5187771  11.7542402  13.9229822  69.2784464  13.2484762  13.9010525
  64.8724079  59.7032833  23.8349676  64.9562645  59.1516638  24.6127319
  64.9371338  60.5983353  24.1680217  38.1026578  62.4589014   1.3219030
  37.9117918  61.5240049   1.2459445  38.9435863  62.5685167   0.8779969
  46.1006069  58.6695766  30.5261517  45.8856249  59.5772409  30.7409930
  46.9664955  58.7179708  30.1210284   5.6705152  11.3680974  26.2708163
   5.6260025  11.7101232  25.3779173   5.1167929  10.5874483  26.2561512
  52.6182163   8.3517853  48.0192927  52.0754946   8.1657234  48.7854961
  52.2550905   9.1609970  47.6593665   3.0743992   3.6315385  30.3081226
   2.9755699   4.5836202  30.3090978   2.3267757   3.3136503  29.8019171
  74.8775255  13.7209836  33.8360071  74.1310131  14.1158430  33.3854127
  74.8710072  12.8062765  33.5540318   1.3993751  33.7235204  37.8693295
   1.2406647  32.7805845  37.8255391   1.6075861  33.8889066  38.7888551
  52.9745102  40.2132607  21.7202401  53.9240360  40.1832438  21.6030526
  52.7881670  39.5133281  22.3460221  56.6891849   5.2007429  28.9961529
  56.5864431   4.9014274  28.0927777  55.8287441   5.5467168  29.2331624
  38.2845915  18.5198227  56.9963230  37.5290335  18.1560293  57.4578665
  38.3683003  19.4099442  57.3382337  67.5291645  45.3423730  38.0598879
  66.6449749  45.1972524  37.7231646  67.9677498  44.4983236  37.9528451
  69.7054195  56.8922949  14.8212314  69.0009403  57.4237442  14.4504178
  69.4392061  56.7407751  15.7280970  48.9490509  54.5642376  22.1279144
  49.6474361  54.1208363  21.6463685  48.3739710  54.9144030  21.4475465
  44.0707350  64.6178579  35.9323096  44.9179935  64.5426846  35.4932952
  43.5886002  65.2619743  35.4137588  46.3149118  65.7417250  22.1255469
  45.6249762  65.8137703  21.4659786  47.1036291  66.0541868  21.6822362
  72.0661270  39.5860616  53.9216089  72.9937136  39.7876684  54.0447998
  71.6456234  40.4408399  53.8279772  31.1628509  54.9437475  17.0771337
  31.4021659  55.0558567  16.1571383  31.7842627  54.2957211  17.4090075
  48.8688421  55.3573799  24.9391055  47.9511261  55.4140186  25.2052283
  48.8429451  54.9434996  24.0763974  11.1354183  64.4978738   9.3124457
  10.8303617  64.4199491  10.2163812  12.0644330  64.2708516   9.3527718
  33.1935894  10.2265588  60.1917124  33.2067978  10.1132432  59.2413378
  32.2671806  10.3340379  60.4072475  55.4270077  67.3448467  18.3513761
  55.1725149  66.6516733  17.7422953  55.9216595  67.9648399  17.8155053
  74.8178732  12.9733793  50.1743603  74.4761526  13.4967653  50.8992910
  75.7688868  13.0209486  50.2720547  66.5372955  23.6119596  58.7854624
  67.3758614  23.7713472  58.3522892  65.8846294  23.7331907  58.0958509
  15.2051472  10.0612188   6.4886638  15.1660465  10.8329606   5.9237548
  14.6882724  10.3009725   7.2578116  29.7529006  68.6650705  39.9631119
  29.6812892  68.6976147  40.9170723  30.4186082  67.9980040  39.7955179
  57.9651213  36.0975615  55.0969199  58.7103630  36.1836067  54.5024077
  57.2097046  36.3674227  54.5746634  40.8139598  14.7401754  47.1864319
  40.0707328  14.4294206  46.6694403  41.5621435  14.6760217  46.5928555
  64.6848976   2.3192159  11.2874198  65.1194846   2.9682390  10.7341206
  65.1306569   2.3872987  12.1317506  45.7281542  62.2313118  12.3305690
  45.6008530  61.2950897  12.1772182  45.1289463  62.6579905  11.7180932
  39.0565681  56.4638996  19.0786469  38.1681681  56.8011141  18.9634943
  39.5181799  56.7284393  18.2829309   6.8398344  17.2979013  46.1250496
   6.0286629  17.8060667  46.1247826   6.6533625  16.5487806  45.5591202
  23.4755289  15.7465307  16.6657662  24.4311249  15.7383768  16.7205453
  23.1997263  16.3238088  17.3777533  70.8794033  16.4940397   2.0866232
  71.7423593  16.0812513   2.1206175  71.0643970  17.4283258   1.9911663
  50.6372023  54.3074656   7.9900509  50.0946712  53.8319635   8.6191708
  51.1433506  54.9193001   8.5245603  18.3243847  48.3079767  14.8044407
  17.9516292  48.9654589  15.3918064  19.2676246  48.3546305  14.9604988
  63.1682158  51.0153484  15.8714771  62.5111246  51.1084175  15.1816952
  62.8823137  51.6184759  16.5575755  38.6715019   9.4652716  50.3366725
  39.2133034   8.8722197  49.8161201  38.4919966  10.2013365  49.7516815
  23.9644825   9.6458093  25.9717464  24.8663055   9.9205915  26.1373830
  23.6295568  10.2879373  25.3458643  66.3366806   8.0698816  12.6196194
  65.7872545   7.2860853  12.6248360  66.9572412   7.9226247  11.9058609
  55.7287442  28.4563390  48.4320974  55.5065858  28.2254545  47.5301170
  56.3540327  27.7846281  48.7042093  11.6919672   3.8977949  32.1855593
  12.4526607   3.7717096  32.7527261  12.0621502   4.0122501  31.3102889
  74.8739767  58.5504675  17.5813663  74.1694021  57.9048967  17.5261664
  75.6553411  58.0772686  17.2953880  62.3499870  69.0994740  11.5891898
  61.8757820  68.8658714  12.3871827  62.9751778  69.7680569  11.8691301
  53.8127661  69.9247026  53.6576557  54.6293402  69.9518967  53.1589556
  54.0904427  69.9491644  54.5733690  65.8046257  10.7804815  45.7461834
  64.8488700  10.8261339  45.7201719  65.9970819   9.8489896  45.8535433
  50.3494083   7.9691974   3.2185403  50.9728991   8.1341402   2.5112334
  50.8564293   7.4980537   3.8797405  36.9519579  22.6586095  35.2812147
  37.0267164  23.3454744  34.6187568  36.6865336  23.1206361  36.0763955
  33.3038878  62.5793839  12.4715877  34.1945100  62.6431131  12.1266806
  33.3919072  62.7867603  13.4018981  65.9209585  66.7928600  54.8456621
  65.0834036  66.5210819  55.2209902  66.2582636  66.0059023  54.4176960
  52.0372772  62.5547552  25.2540994  52.8897095  62.9788065  25.3529334
  52.1059036  62.0675230  24.4330430  32.1174121  58.6101055   8.1567687
  32.8708577  58.0483532   8.3383882  32.0805001  58.6598921   7.2015774
  43.6372900  47.1964359  28.3316565  42.7911997  47.4699640  28.6859775
  43.4308290  46.4523697  27.7659965  36.9507146  69.5927191  35.3172088
  37.7286506  70.0728321  35.6010032  37.2715855  68.9938498  34.6429443
  22.5733303  24.7205425   0.9099265  23.1052803  24.7202802   0.1141520
  22.4044584  23.7948490   1.0854360  58.7749052  64.5772886   7.4273241
  58.0031109  65.1131535   7.6100945  58.4582663  63.8955307   6.8347216
  19.4082623   6.6032068   3.6692360  18.4842264   6.6306154   3.9175054
  19.5322674   5.7271425   3.3040437  52.8676224  52.4359608  41.9508743
  52.6927757  52.1783066  42.8560114  52.0638561  52.8708315  41.6661119
  60.1992547   1.5114395  10.8453417  61.0237658   1.4405195  10.3643191
  59.7511327   2.2560112  10.4440594  32.8758919   1.7614261  31.5893364
  31.9762432   1.8811695  31.2851548  33.0467617   0.8272068  31.4698982
  24.3248606  60.8242702  49.3641901  24.6224618  60.4375553  50.1876688
  24.0717006  60.0747728  48.8253069   7.5287830  21.9047014  31.9324994
   6.9531452  21.1401884  31.9523597   8.1862986  21.6922895  31.2700868
  67.8599072  45.4796124  27.0587993  68.0455875  45.0599623  27.8988242
  68.5510969  46.1344194  26.9602156  44.3022537  49.4384336  43.7498522
  44.3046284  48.6615658  44.3090534  43.4941673  49.3655109  43.2420015
  63.6257362  62.7701378  39.8527575  63.6135149  63.4135723  39.1441846
  62.7040529  62.6455116  40.0790358  72.7705860   8.8156374  57.1120713
  72.3843288   8.0070932  56.7754809  73.2349825   8.5472925  57.9048882
  65.2974522  38.6741678  19.2386866  65.7602608  38.4298364  18.4372246
  64.7969186  37.8928987  19.4738829  51.7821730  47.7267376  46.7154423
  51.1686647  47.1705643  46.2353281  51.2260426  48.3564964  47.1740810
  25.5123973  33.2831955  22.6789451  25.6513739  32.7519679  21.8949080
  26.2867951  33.8435888  22.7289271  63.9519894  24.9450056  12.8579569
  64.5973241  24.2986814  13.1443834  63.4271895  25.1217309  13.6387157
  64.2259871  10.4946271  10.3139353  63.5203063   9.8506204  10.2546811
  64.7248375  10.2327863  11.0877717  66.7083847  42.9798357  34.9428320
  67.4082911  42.6564542  35.5100942  66.6324627  42.3182813  34.2552185
   9.0870344  26.5554086  37.0687890   8.2494699  26.2302057  37.3988795
   9.1896784  27.4135820  37.4801707  58.6432135  13.9186326   2.5162458
  58.6456716  14.4276372   3.3268905  58.8807475  13.0324403   2.7891475
  53.5680544  22.8449193  28.5460091  52.7944529  22.8156511  27.9830551
  53.2158482  22.8889123  29.4349670  20.2130997  11.2353364  31.5678859
  20.7349932  12.0323602  31.6606259  20.8398830  10.5227415  31.6927600
   2.2795259  19.8786394  18.5016310   1.3694250  20.1218454  18.6713493
   2.7428305  20.1074258  19.3073821  45.7189846  60.6232262  24.3711185
  46.5947819  61.0035849  24.4384742  45.3735352  60.9621382  23.5452652
  61.4160120  10.4042760  14.7581053  61.9891297  11.1684171  14.6959472
  60.7691633  10.6434003  15.4219127   4.3859446  23.9438669  14.9064052
   4.3781673  24.7888319  14.4567335   4.6201288  23.3126108  14.2260301
  65.2878189  61.1804533  32.2655463  65.5875587  60.2819204  32.4034953
  64.5839357  61.1019373  31.6216397  45.7263565  45.7075548  33.0345154
  45.1359034  46.3535929  32.6469207  46.6022491  46.0070896  32.7909565
  63.0634451  64.8896933  25.1668048  62.6753044  64.0147209  25.1635027
  63.8903570  64.7866678  24.6958137  60.5750620   1.3936750  30.7685757
  60.2610337   0.9211627  29.9976373  60.0695073   2.2064630  30.7737207
  71.2325775  12.1838323  56.4167786  71.7544853  12.4043409  55.6452703
  71.6151201  11.3679067  56.7395163   1.3446970  65.2061033  14.1452157
   0.8588035  65.9761429  14.4404829   1.2203038  64.5624447  14.8426831
  55.4612303  63.4864426   1.7944445  55.0547218  63.3287477   0.9423192
  55.8919621  62.6595259   2.0110388   2.4885035  68.4974432  47.5044346
   2.3318052  67.5734806  47.3095703   2.5133848  68.9221859  46.6469908
  58.1174194  11.7791215  58.8663530  58.8389551  11.7047254  58.2417917
  58.5412323  11.9927827  59.6975946  57.9612839  13.9241449   9.7107375
  57.1193540  14.3291322   9.5024788  58.0733788  14.0738241  10.6494939
   9.7260904  23.9394474  16.1907470  10.1069403  24.4824386  15.5005646
   9.0070581  23.4758615  15.7614386  12.7168989  70.7754135   9.9646479
  13.0146360  71.6802120   9.8701531  11.7660379  70.8439064  10.0506639
   0.5063307  35.0175992  52.8948402   0.4658949  35.9677068  53.0039072
   0.5774891  34.8878900  51.9491386  18.1879866  21.2280790   5.6275606
  17.7589714  21.0691110   4.7867832  19.1144859  21.0554830   5.4601163
  26.2507809  58.2324234  43.3895127  25.7728804  58.9506546  43.8042108
  27.1644438  58.5177628  43.3953814  74.8358643   5.0100366  30.2958131
  74.0326750   5.3518621  29.9030328  74.8337852   5.3587524  31.1872292
  72.4161243  36.5903759  33.6202860  73.3323812  36.3802767  33.8007331
  72.4498892  37.1857548  32.8715444  71.3415146  58.9166546  50.1130390
  71.1180067  58.1073380  50.5726910  71.8996954  59.3942833  50.7266617
  50.7338715  63.3157921   4.7349963  50.8963919  62.4118996   5.0047964
  51.1057949  63.3736038   3.8549042  62.3169565  50.9698486  43.4842396
  61.9165993  50.4089832  42.8198767  62.2775936  51.8499851  43.1100225
  55.3601551  56.4733696  25.2704620  55.7841158  55.9342527  24.6027470
  54.7437429  57.0189142  24.7819471  21.8230700  20.4922438  20.3084803
  22.0344687  20.8010721  19.4274771  20.8683896  20.5418301  20.3570104
  24.9347806  10.0138021  36.4230752  24.1676426   9.6633017  36.8757129
  25.6642294   9.8394245  37.0178270  25.7303610  51.2313246  45.1192299
  26.1118634  51.7715168  44.4272188  26.2041798  51.4863979  45.9108523
  71.8586361  42.0681381  26.8902183  71.7424467  41.1637545  26.5989757
  71.9748724  42.0014858  27.8379941  23.5961664  50.9229334  15.0198305
  23.9060057  51.5354308  15.6869721  22.6686609  51.1340745  14.9130976
  42.9978849  38.4742513  58.6767928  42.2726346  38.9767807  59.0478838
  43.7641586  39.0351465  58.7970136  16.8144715  28.9832640  23.8251495
  17.7001739  29.0536809  24.1812491  16.7623377  28.0889845  23.4878445
   5.7243526  65.2264377   6.7415494   4.8360169  64.9304470   6.5428525
   5.7442630  66.1376192   6.4490020  21.4205694  29.5623684  42.2121048
  21.8072152  30.3826618  41.9057512  21.6868734  29.4999337  43.1293917
  67.3825336  56.7075642  23.6167860  66.6323281  57.2918054  23.5068488
  66.9946755  55.8484682  23.7833762  70.9245664  47.1391296  14.4543409
  71.3438624  46.4620972  13.9232588  71.1055654  46.8809128  15.3581083
  72.1439326  66.4029660   6.9145018  71.2494553  66.0864814   6.7880797
  72.4782074  66.5368744   6.0276198  55.8636475  35.2534366  10.8638024
  55.4359341  35.5990624  11.6472793  56.7194557  34.9538660  11.1705375
   7.6287390  31.8265560  61.1482627   8.1617857  31.3237097  61.7640830
   8.1068731  32.6476752  61.0325878  71.1552406  41.9662577  59.6317095
  71.1876751  41.8377733  60.5796924  71.1064507  42.9156899  59.5202191
  74.6504141  40.0730157  56.3474343  74.6660496  41.0011845  56.1140040
  73.8985706  39.9860561  56.9334380  47.8147078  55.1558956  35.0759888
  47.1046606  55.7117971  34.7549939  48.6135714  55.6264206  34.8379660
  26.9696076  52.1968138  60.6988096  27.3966166  52.5849831  61.4624980
  27.1035400  51.2547266  60.8025668   1.0873159  27.5451636   1.8199366
   1.0121401  27.0630574   0.9964349   0.4495341  27.1292782   2.4000281
  39.7831608  12.0370864  51.6628543  40.4837657  12.6139044  51.9672618
  39.9166311  11.9767117  50.7169310  45.8190536  25.8198881  31.3739681
  46.1069727  25.5696201  32.2518659  45.9153271  25.0221300  30.8538270
  25.6719136   5.7874608  39.6365190  26.3529420   6.4095443  39.8923421
  26.0682511   4.9274820  39.7764659  47.6451517  52.0265337  28.0245781
  46.9673533  51.5948626  28.5446572  47.3127938  51.9985338  27.1273685
  10.3895545   8.2049066  23.0103636   9.8002142   8.9186323  23.2543015
   9.9484706   7.4137336  23.3197522   7.5114501  50.4781230   0.4725210
   7.8871954  51.3410457   0.6469011   8.2472218  49.9570211   0.1510772
  57.4423636   7.1230999  53.0956296  56.6689808   6.9618813  52.5551490
  57.0919478   7.2981182  53.9690194  21.1268401  -0.0441807  18.1339633
  21.4876795   0.8205684  17.9384232  21.8336272  -0.5011230  18.5899115
  21.5169549  13.5385954  32.5482988  20.6179094  13.8659108  32.5768495
  21.8004322  13.5370564  33.4625578  44.1988707   7.2418302  12.1185482
  43.9332676   8.1555194  12.0143402  44.2728758   7.1203834  13.0651236
  52.4195337  18.3450258   1.1754273  52.7913952  18.7713778   0.4033032
  52.8676939  17.5004995   1.2218576  45.2386123  40.6596955  48.5014582
  45.7301879  41.2070473  47.8890896  44.5867491  41.2496789  48.8799095
  13.8744545  27.3133755  30.0735283  13.0543399  27.6925015  29.7574472
  13.6684775  26.9962001  30.9528494  18.7182832  44.4168806   7.8583896
  18.9782214  45.0864744   7.2256893  18.0499816  43.9042377   7.4036396
  10.1858640  20.5906773  12.7534842  10.6821454  21.1233163  12.1320093
  10.6241274  19.7397673  12.7430809  54.5432994  67.2668054  26.6040611
  54.1985861  66.5691679  26.0466504  55.3962330  66.9427713  26.8934369
  17.9599560  56.7018064  11.5896297  17.7617348  57.4103805  12.2018898
  17.4426449  55.9608432  11.9052219  35.1738501   8.4321392  30.7876515
  35.6978893   7.6928264  30.4793763  35.4125881   9.1539562  30.2060866
   8.2760609  70.8789270  52.6011562   8.8143170  71.2350890  51.8942881
   8.2368768  71.5817632  53.2497835  16.9503653  10.1310575  44.6093225
  16.3989317   9.3817234  44.3842602  17.1429753  10.5475700  43.7692928
  48.0569393  70.3664754  44.3943501  48.3901056  69.5478501  44.0268087
  47.1079392  70.3104943  44.2825603  68.6598814  59.6300026  32.3467493
  68.9499450  58.8239761  32.7738523  68.2831312  59.3388506  31.5163755
  73.6714010  14.8123550  51.8393326  73.9631894  15.7070398  52.0143509
  73.1439111  14.5787251  52.6031446  73.0465377  65.6818714  30.8805847
  73.3407462  66.5926655  30.8693385  72.6511443  65.5685504  31.7449093
  30.0843310  17.6967227  23.2536721  29.9366021  16.9850862  23.8765526
  30.8747077  18.1331134  23.5716343  43.9211584   9.0835491  53.2195697
  43.7617964   9.8796908  52.7126280  43.1208087   8.9603678  53.7299613
  39.2254019   6.5108031  30.7816839  39.8250222   5.7945013  30.9904885
  39.7688556   7.2977084  30.8225632  13.9199865   3.9150038  12.8938949
  14.2466187   4.7202584  12.4925113  14.5932102   3.6744976  13.5304153
  12.8853119   7.6280418  50.1083628  13.7447107   7.9741922  49.8678497
  13.0374611   6.6958538  50.2636222  70.3007711  10.9687821  48.6683456
  70.8907950  11.4977900  48.1314508  70.7595718  10.8704296  49.5026497
  46.0260952  32.8593365  55.1735441  46.8478621  32.7969566  54.6866784
  45.9385002  33.7904898  55.3772835  16.8731928   8.1441116  33.1780219
  16.9687283   8.7247944  33.9329481  17.7693748   7.9913223  32.8784490
  21.5743307  46.1896932  56.3645391  20.9392191  45.5065435  56.5794162
  22.4107603  45.8465898  56.6790185  43.1169415  39.5447278   2.7828902
  43.0125761  38.7132359   3.2454479  44.0251732  39.7981095   2.9476589
  51.7170048  13.3358324   7.6452965  52.3970461  12.6896930   7.4548167
  51.0697556  13.2142138   6.9506681  26.0423660  23.5448623  37.5793505
  26.7012429  22.9211545  37.2742248  26.5287280  24.1549635  38.1338406
  16.0007751  26.3829350  22.7858949  16.5119958  26.3089585  21.9800329
  15.8273125  25.4775047  23.0434632  49.8822571  67.5226116  46.6721312
  49.5865584  66.6244840  46.5232627  50.5969716  67.6461005  46.0474996
  22.9107702   0.3924814  60.9669081  23.6466110   0.1116482  60.4229414
  22.2037924   0.5622879  60.3443495  54.0000010  23.7430477  15.3544748
  54.8701906  23.7424898  14.9557233  53.4030151  23.9154911  14.6263921
  20.0956966  48.4523785  51.8626753  20.6365872  47.7955496  52.3011313
  20.5468289  49.2809462  52.0245008  46.7458391  56.3087749  27.6931763
  46.5784121  57.2502995  27.6515484  46.6296864  56.0048199  26.7929792
   5.3088511  11.7826000  44.0336994   5.0813520  10.9583489  44.4639210
   5.2022017  12.4460093  44.7154216  12.1206129  38.0579051  21.8490553
  12.6678074  38.4559043  22.5261116  12.6681054  37.3685511  21.4731860
   7.3411018  18.6511660  51.8111229   6.5460241  18.1630385  51.5970802
   7.5203943  19.1720545  51.0283327  72.6649595   7.0212769  52.7789322
  73.0378891   6.7188096  53.6069838  72.1655537   6.2723660  52.4534217
  60.2259064  43.6860466  19.8097908  61.1252165  43.4322739  20.0173283
  59.8137951  43.8262129  20.6622863  52.6720859  45.5121791  56.5333740
  51.9298006  45.7128954  55.9633235  52.4258782  44.6960783  56.9687972
  49.8651696  45.6612837  45.2758519  49.0061165  46.0737967  45.1858810
  49.6768237  44.7885698  45.6210021  13.0174851  12.8271425  32.5711775
  13.3178473  13.1308138  33.4277964  13.6007786  13.2578993  31.9463158
  61.0466434  19.2572426  44.5013527  61.7548586  19.8217010  44.8112730
  61.4876510  18.5777127  43.9914683  42.0084847  71.0817647  11.6242778
  42.9580963  71.1954257  11.6636169  41.6945637  71.3936864  12.4730361
  11.5281391  14.4605410   1.9052485  11.6822302  14.5839238   0.9686247
  12.2045517  14.9874878   2.3307194  53.7974977   5.3368354  13.7519121
  53.2261896   5.5541342  13.0152869  53.2055521   5.2631742  14.5005143
  68.6736161  52.4916887  37.9760504  68.9064038  53.3334160  37.5842118
  68.8115007  51.8547964  37.2749186  25.8974862  55.4470825   1.6644232
  26.2100887  56.0582590   0.9973548  26.4408064  54.6675920   1.5485433
  34.2632246  21.7190456  19.5178032  34.7982216  21.0742664  19.0549088
  34.5253038  21.6339684  20.4344869   4.1918597   9.4192171   4.3875855
   4.2149913   8.4624135   4.3726009   3.5271251   9.6529037   3.7397042
  56.7226339  10.2099919  26.8047003  57.4209024   9.5670533  26.9283179
  56.6331841  10.6335687  27.6584057  54.1695833   9.8205793   0.1568398
  55.0111580   9.4106829   0.3567569  54.3294954  10.7586455   0.2602320
  74.7158932  40.5951118  34.2979527  74.1782381  40.7997370  35.0629926
  75.5865673  40.9234428  34.5223546  51.8821955  17.8556633   3.8317990
  52.6994133  17.7636218   4.3216109  52.1352577  18.3065331   3.0262500
  42.0699490  69.7360782  22.9179025  42.4585379  69.7963440  22.0452046
  42.6888073  70.1927795  23.4877038  33.4647512  31.5537977  12.4053085
  33.2809281  31.6912436  11.4760339  33.4513068  30.6028891  12.5140309
  21.5369463  28.3829689  37.4358225  20.9249473  28.2929659  36.7053509
  21.9329906  27.5160861  37.5246739  17.3171091  49.0862083   1.7063573
  17.5965309  49.2900419   0.8138281  17.1118307  49.9372959   2.0933235
  41.2433147  31.0564709   5.3770018  40.9161854  30.3060746   5.8731115
  40.8854723  31.8188047   5.8320010  31.2142897  50.7994986  21.9146657
  31.5758491  50.5593634  21.0615301  31.0971713  51.7482948  21.8666959
  49.8085404  55.4388058  61.1846035  49.2042495  54.7372353  60.9419891
  50.5740739  55.2989411  60.6272625   3.4970010   8.0592552  50.4188887
   3.7737883   7.2934166  50.9219865   2.6310242   7.8259150  50.0844173
  75.2092970  28.6731783  61.0568283  75.0736201  28.7143293  62.0034701
  75.3157485  29.5863119  60.7902072  26.2877417  33.0076313  33.8164353
  26.5764809  33.4339428  33.0095148  26.3873982  32.0717907  33.6417937
   5.5466187  29.4872284  50.0735092   5.1818722  29.9827456  50.8067560
   4.8160368  29.3907404  49.4626284  25.0854445  18.8855481   2.4521591
  24.9842358  18.5222661   1.5723778  25.8971858  18.4979677   2.7794072
  52.8390455  49.8960209  24.6476293  52.4131775  50.7075453  24.3714070
  53.3513832  50.1442862  25.4171133  72.0555982   6.1708212  17.3083484
  72.9429299   5.8435363  17.4558568  71.9783017   6.9250762  17.8926051
  67.5651814  63.0195546  43.5811154  67.7290751  62.1526861  43.9524762
  67.6568724  62.8965997  42.6362840  10.1256692   8.8260144  14.9678636
   9.9852288   7.8899920  15.1105881  10.5594599   8.8759774  14.1160643
  36.9716835  26.5302038  11.6235876  36.5784287  25.7248330  11.9596827
  37.2054935  27.0277143  12.4071980  54.7653366  35.9942721  48.1011204
  54.3375302  35.1548677  48.2702748  54.4265390  36.5770163  48.7807218
  41.8312788  23.8134670  28.8809276  41.4734888  23.0385637  29.3142200
  41.6181040  24.5371604  29.4700432  17.0076621  34.1039038   5.6590307
  16.5817571  33.4090424   6.1610305  16.8645883  33.8607335   4.7443563
   4.5483519  54.9005007  50.8528856   4.5168854  55.8459997  50.7070283
   4.1724182  54.5228481  50.0577215  28.3675909  29.4441605  19.8627615
  28.8488507  28.8200092  20.4059529  28.9528418  29.6219730  19.1264904
  63.3583546  35.0054288  33.7974119  62.6963520  35.6661773  33.5939598
  64.1591930  35.3353453  33.3899236  18.7285603  59.1776761  18.1073475
  19.0596903  58.3023425  17.9064143  17.8607357  59.2038115  17.7043235
  21.2523211  16.3521496  51.1099891  20.9788883  16.9990698  51.7603437
  21.9446171  16.7890564  50.6139354  23.8351655  52.5639963  18.0793655
  23.5005379  53.3485460  17.6449227  23.4476471  52.5909328  18.9542007
   8.2147051  29.3768656  37.3859433   8.9254023  29.1582006  37.9887108
   7.8788830  30.2143722  37.7053742  28.2609165   9.5737091  52.8747366
  29.2019308   9.4836918  53.0251543  28.1227387  10.5160299  52.7789603
  13.2356751  49.8573065  18.4047973  13.0124223  48.9582396  18.1638265
  13.0695057  50.3662395  17.6113188  72.8167893  57.7843976  54.6213959
  72.9171730  57.7801084  53.6694835  73.1945397  58.6191749  54.8983131
  40.8325911  53.7821245   9.6421421  40.0786257  54.3605328   9.5271885
  41.3437986  54.1909266  10.3405535  13.5348105  29.0047956  13.5083199
  13.4434938  29.9523354  13.6086249  12.6661634  28.7078261  13.2372248
  17.2269142  44.7629118  26.1675191  17.9626620  45.2803421  26.4948893
  17.3488700  44.7470093  25.2182531  42.7883757   4.6612898  46.0638169
  42.7118862   3.7858668  46.4433149  43.6669100   4.9523321  46.3081602
  49.2286003  14.4982926  55.1537047  49.2168844  14.3415657  56.0979144
  48.6990393  13.7903420  54.7868178  32.5152166  57.0928311  55.5964563
  31.6534639  56.6868162  55.6900851  32.3340614  58.0316662  55.5516986
  59.8858477  63.3729076  61.6368763  60.0330902  62.5564336  61.1594655
  59.3175102  63.8867139  61.0630915  15.7991111  42.3922825  26.7234159
  16.1340368  43.2406521  26.4330220  16.5628648  41.9454956  27.0885110
  27.2037983  12.1518266  28.5418010  27.1337962  11.8872559  27.6245594
  27.3425937  11.3328135  29.0173912   6.3732064  15.2600491   0.8051969
   7.1988809  14.7758162   0.8016341   6.2396950  15.5125701  -0.1083893
   1.3471044  59.6144398  38.0436492   1.4533937  59.2687567  37.1574020
   1.1842573  60.5493017  37.9181623  20.4991913  40.6809998   0.9447011
  20.0569868  40.3234196   0.1747505  21.4167476  40.4334784   0.8304349
  30.3245139  61.2218761   4.9192870  29.5051193  60.8273172   5.2178615
  31.0049486  60.6238890   5.2285618  21.1219144  42.2380114  33.7717295
  20.5758643  41.4740419  33.9572406  21.8812275  42.1346617  34.3453074
  57.2136904  33.2146963  17.0844153  57.7885486  32.4810302  16.8664674
  57.7824164  33.8389146  17.5351218  65.6092310  12.7342904   1.8038787
  66.3788891  12.2951376   2.1658193  65.5741501  12.4437368   0.8925168
  57.0925426  29.9070430  17.7399886  56.6115141  29.1639066  17.3758578
  56.4286566  30.4188609  18.2020795  28.2852077  52.5495815  15.6053805
  28.6398363  51.6645813  15.5202687  27.5523806  52.4564409  16.2140846
   8.6538297   8.6638850  10.8299720   8.5365486   8.4889293   9.8962331
   9.5745760   8.9118755  10.9133863  18.8239324   1.5372153   4.2031920
  18.4724319   0.8863959   3.5956451  18.2792139   1.4531232   4.9857789
  72.2812487  68.0893445  39.5571641  71.9042421  68.9488077  39.7453646
  71.7599178  67.4795770  40.0792984  54.7965051  61.4427852  52.5997273
  54.0915586  60.8239317  52.7902530  54.3795539  62.3030519  52.6479457
   4.2257035   3.8886229  57.3225794   3.5967696   3.3564273  57.8098605
   4.7294534   3.2556215  56.8109361   7.9765755  37.3719263  24.6080804
   8.4715688  38.1910038  24.5901108   8.4190804  36.8391013  25.2687764
  39.8973167  58.3334943  34.0636516  40.5606735  58.9416476  33.7375569
  39.3121040  58.1954857  33.3188605  20.7367539  50.2906132  28.3248854
  21.4431643  49.9370050  27.7843547  19.9360287  50.0575209  27.8550553
  72.7694929  55.2839756   2.9622656  72.7429369  56.0006475   3.5962316
  73.6937428  55.2081060   2.7251214   2.9017413  65.9127238  38.2784820
   3.6777366  66.4534219  38.4258127   2.5387824  65.7713719  39.1528463
  32.0943487   2.4761716  61.2691612  32.2104872   1.7265979  60.6853102
  32.7647341   2.3612920  61.9426722  22.4865953  59.2803383  44.7063200
  22.9196266  58.4847617  45.0157932  22.1583329  59.0515780  43.8367538
  66.4460325  11.1986864  28.2169390  66.8023360  12.0767629  28.3520675
  67.2149104  10.6289673  28.1950521  58.8993884  37.6863132  48.1584016
  58.4602500  36.8538716  47.9839603  58.3680154  38.3379060  47.7009038
  49.3499804  24.2955208  25.1111603  49.1978788  24.8508883  24.3465281
  49.0700102  24.8295593  25.8545661  23.3192849  15.6254852   2.0499457
  23.6503363  15.5573523   1.1544038  23.9000845  15.0639701   2.5633696
   5.5140257   2.3589244  -0.1240029   5.6548071   1.6160867   0.4630274
   6.1491346   3.0149344   0.1632694  73.4807469  10.6337452  55.2553872
  74.3043495  10.9926009  55.5857328  73.2446695   9.9548149  55.8874903
  74.5954073   8.1305519  59.0148205  75.5398238   8.0937830  59.1663376
  74.2151082   7.6636091  59.7588433  50.8687115  58.8520336   3.3449477
  49.9903440  58.9852667   2.9886451  51.3075638  59.6936560   3.2212242
  19.5693862   7.3360455  32.7773046  19.9936771   7.8676927  32.1038342
  20.2733159   7.1159256  33.3874369  32.6922798  21.2762403  11.4733851
  33.6465383  21.2028551  11.4580142  32.4892449  21.9051743  10.7809615
  75.6664821  24.0668678  12.8170288  74.7912575  24.0785313  12.4296308
  76.0807315  24.8682737  12.4970627  13.6230636  15.8676124  19.6875012
  12.6718199  15.9742236  19.6861506  13.7782145  15.1086271  20.2497292
  63.7237131   0.6732265  43.7431622  64.2385399   0.6269733  42.9375315
  63.8661253   1.5623991  44.0676928  31.9369769  16.8667722   7.2165132
  31.9864154  17.5001788   7.9324615  30.9999275  16.7105114   7.0992458
  59.7470951  20.0352621  23.4419036  59.5253313  19.7633898  22.5513196
  59.2483413  19.4427514  24.0044045  10.5877126  14.5108095  61.0284987
  10.8318341  15.4221026  61.1902984   9.6355403  14.5313135  60.9326908
  55.5792463  23.4620300  54.0188883  55.2416707  23.9057652  54.7969482
  55.4569600  24.0942160  53.3106367  55.0010872  11.0721743  22.2123313
  55.0747919  11.4916360  23.0695653  55.9028339  10.8604479  21.9709611
  63.3912981  24.4374156  21.1222029  64.0291202  25.1364994  21.2660718
  62.7791858  24.7997618  20.4816914  68.0764025  45.8667040   0.8256079
  67.2989291  46.0760212   1.3432483  68.3434075  46.7035627   0.4453364
  13.3124197  70.8064740   3.4953684  12.8216208  71.5269805   3.8906136
  12.6520813  70.2948349   3.0280253   6.4201879  39.8262048  20.9575295
   5.7844400  39.8641491  21.6721010   7.0173407  39.1203880  21.2054539
   8.4191197  32.5644708   8.9898485   8.3677983  31.8338823   8.3735389
   7.8826237  33.2507157   8.5930210  16.6894901  37.2708201  33.0905604
  16.4541030  38.1598258  33.3560705  17.5286150  37.3694682  32.6407051
  60.5461967  16.2340784  37.1233988  60.9620988  16.3567209  37.9767561
  60.2196765  15.3345084  37.1431613  71.9994318  31.3546222   5.1483174
  71.8170845  31.8503943   5.9465619  72.9076111  31.0685342   5.2462550
  75.6989009  18.7746584  30.4412794  76.3216214  18.2105780  30.8998227
  74.9732638  18.1939113  30.2123356  23.0925918  49.3486214   8.5985017
  22.2393012  49.4742537   9.0136433  23.3616734  50.2280712   8.3331835
  14.3947828  47.7883625  28.9469337  13.8900697  48.4365749  29.4381762
  15.2809131  48.1488943  28.9149380   6.7229773  34.6172397  61.5984363
   6.5105368  34.1219963  60.8073390   5.9735085  34.4772103  62.1771598
  14.9261320  30.0788212  30.6553125  14.1120827  30.0275922  30.1543808
  14.8578608  29.3712091  31.2962937  71.0547429  41.2025833   8.9322364
  71.3446319  40.3997898   9.3655014  71.6218716  41.8858480   9.2896521
  19.3694484  28.6293197  46.2950850  20.1092911  28.5235071  46.8931389
  19.1086876  29.5447397  46.3962841  17.7881730  26.5838194   7.2930115
  17.7861154  26.0796618   6.4793456  18.7064373  26.5994191   7.5627869
  46.1697960  14.2342067  21.9411945  45.2179050  14.2624640  22.0378447
  46.3152838  13.7056458  21.1565375  19.4310463  47.2026857   9.6400034
  19.8869408  46.4272650   9.9672872  19.7453249  47.9170402  10.1942182
  36.6845655  34.8117948  13.2596552  37.5034571  34.6684194  13.7340939
  36.9375753  35.3317523  12.4968565  70.7568312  41.5479851  16.8866217
  70.6098026  42.1041012  17.6517034  70.0628030  41.7937613  16.2749434
  48.4991102  71.4176116  40.6503820  49.2141319  71.4689924  40.0160837
  48.7551942  70.7111118  41.2432671  25.9136653  28.8068533  18.8094127
  25.9018564  29.2236042  17.9477787  26.8111229  28.9253163  19.1204882
  17.1347475  38.6205578  27.0664310  16.2950969  39.0630174  27.1907187
  16.9833720  37.7278972  27.3770356  10.1700760  49.0724265  42.4001757
   9.9865938  48.9120149  43.3258299   9.4477058  49.6269774  42.1054153
  14.5724977  38.3742794   0.5617161  14.5710552  37.4670108   0.8668301
  13.6871064  38.5156687   0.2265670  10.9459807  53.7520516  47.7228419
  11.3411928  53.6045122  46.8636147  11.4663340  54.4571542  48.1079320
  63.9031744  59.9176216  30.1408410  63.2712412  60.6351805  30.0960708
  63.3699751  59.1248703  30.0818753  27.5381064  20.8545637  39.7502923
  28.0220318  21.1834574  40.5078411  26.7044735  20.5528331  40.1111841
  21.0045886  30.1854038  30.2875090  21.6712141  30.5743694  29.7213411
  20.6940699  29.4212461  29.8018432   7.3161924   6.5200114  54.1396618
   6.6212165   6.8012178  54.7347736   7.7233922   7.3346329  53.8450241
  26.2750077  30.7503986   0.4478962  25.6469750  30.6282759  -0.2640674
  26.1058569  31.6368222   0.7670707  48.7790609  38.1531135  42.2421948
  49.1393829  38.8506561  41.6946224  48.9110066  37.3548212  41.7307738
  21.0557461  26.8791294  23.6938572  21.8300176  26.4178848  23.3713865
  21.0375714  27.6951933  23.1939173  33.9840865  22.3129773  38.0882382
  33.4002876  22.5695562  37.3743916  34.8260403  22.7087736  37.8630948
  21.7871594  57.4754286  17.3902488  21.8263650  57.5952673  16.4413905
  20.8975291  57.1633053  17.5556874   8.7228358   0.2375523  20.7236270
   8.8390267   0.3883902  21.6616992   9.5882857   0.3958646  20.3465776
  25.6267476  16.4373636  18.2070398  26.1857271  17.2142255  18.1909680
  24.8615241  16.7034066  18.7168300   7.9679090  37.1482158   7.6415479
   8.2981575  38.0464554   7.6233387   7.6742983  37.0192146   8.5434258
  18.8711393  47.8342303   3.9149234  18.3917320  48.0954512   3.1286895
  19.1718615  48.6587032   4.2970768  40.5228366  59.4295263  56.3927505
  40.3682722  59.1749620  57.3024426  41.1421813  58.7781024  56.0636709
  61.3116503  58.4062918   3.4347394  61.4987648  58.0383214   4.2983466
  60.9590447  57.6715930   2.9326239  70.5939353  64.1975524  39.9888587
  70.8471573  64.9994870  40.4460382  70.5933488  64.4397839  39.0628171
  14.2913783  43.9033651  16.6872275  14.1050434  43.1162834  17.1990967
  14.4115973  43.5844755  15.7927513  46.8387700  59.6457505  50.5813412
  46.8373300  60.2522230  51.3218955  46.2313057  60.0346613  49.9520830
  53.1852770  23.1003046  11.7664933  53.1174898  22.4080086  11.1089480
  54.0992785  23.3815479  11.7248225  70.4798275  38.6489105  18.9382660
  69.8369330  39.3567014  18.8941038  70.6052423  38.3820939  18.0276000
  70.6554073   9.5703107  29.6547604  71.1810344  10.3685772  29.6026301
  70.7741356   9.2636389  30.5536962  40.2235020  44.4934660  61.0920160
  41.1322583  44.4312149  60.7978764  40.0454939  45.4334730  61.1225360
  29.6717763   4.5049667  54.7548246  30.1965022   4.6635953  53.9701414
  28.8329387   4.9280614  54.5715857  64.8854543  56.9795966  30.9931163
  64.4426275  57.0793223  30.1503877  65.6722761  56.4730358  30.7917694
   9.0604264  42.1880102  13.3658206   9.7646129  42.8111267  13.1867182
   8.9292437  42.2404480  14.3125367  15.4069102  47.1770000  42.4538469
  14.7308922  47.2943020  43.1212854  15.0348663  46.5381861  41.8457937
  73.4107960  56.1735102  16.7398787  73.7874640  56.0187491  15.8736217
  72.5523866  55.7512995  16.7067087  43.7895120  42.8373259  52.7768276
  43.6250509  42.0282417  52.2925059  44.5518495  43.2237273  52.3458211
  15.2428007  56.8322134   1.1583520  15.8465326  57.1091461   0.4691156
  14.7636044  56.0971451   0.7758833   0.1241673  19.3152205  51.3640169
   0.1263965  20.0095049  50.7050840   1.0138548  19.3172852  51.7171256
  55.4540921  67.1432495  54.9614320  55.7165409  66.3177108  55.3686635
  54.8481322  67.5377321  55.5886720  64.9367654  16.0769121  48.1770515
  65.3425610  16.9084589  47.9319191  65.5733931  15.6621496  48.7592077
  57.1946669  24.7135949   9.4950926  56.6731977  24.4041109   8.7544715
  58.0194473  25.0013041   9.1036934  64.4322824  57.0035362   6.0055673
  63.4934711  57.0013666   6.1922687  64.4901943  57.2027826   5.0711274
   0.2549065   5.3580490  57.9198767   0.5249393   6.0611454  58.5106082
  -0.6829655   5.2560917  58.0818436  71.1161184  36.7799354   5.6497478
  71.4415598  35.9741974   6.0511291  70.1668310  36.6627359   5.6129849
  31.3357115  18.4201622  13.6736608  31.6067243  19.0478373  14.3435919
  30.6140089  18.8531613  13.2177150   5.2706588  68.4684231  33.8861227
   4.5639289  69.0693764  33.6502814   6.0712088  68.9316114  33.6395264
  17.7395737  20.1383567  24.2311335  17.8141713  21.0912299  24.2831016
  16.9160032  19.9875319  23.7672210  37.3291397   5.9219962   6.2369376
  36.8313169   6.1705399   7.0158023  37.7402163   6.7358637   5.9456164
  15.6678855   1.0171024  11.9744313  16.0736358   0.5495397  11.2443757
  15.2295780   1.7639343  11.5665543  32.6460886   9.8513448  30.5719614
  33.5591769  10.0771415  30.3944349  32.6694536   9.4084096  31.4201927
  35.4520369  21.6358542  11.2628591  35.3935075  21.3802028  10.3422892
  35.7848024  20.8561182  11.7072821  22.2314239  61.8855047  20.2625585
  21.8610072  61.4833832  19.4768608  23.0682158  61.4381981  20.3887773
  75.3808809  14.1212988   6.4235646  74.7588176  13.9220273   7.1232504
  75.7443838  14.9740982   6.6619563  37.2880816  10.3270972   2.0812064
  37.1354365  10.2593184   1.1386898  37.3673868   9.4201505   2.3768263
  12.9117764   7.8392998  54.6401344  12.0710099   7.4850527  54.9297098
  13.3542145   8.0973927  55.4487548   3.7828314  61.2357855   8.0501115
   4.1983715  60.4505253   8.4063756   2.9272288  61.2690926   8.4779739
   2.4764002  24.5056168  47.3533563   3.1007445  24.9659458  46.7925326
   2.2462428  23.7184301  46.8597964  30.7354856  38.4677386  13.8853586
  30.5021191  37.7466273  13.3007491  31.6245699  38.2631207  14.1750050
  58.9719343  37.3215342   8.0474329  58.0441093  37.5284934   8.1594157
  58.9975452  36.3673615   7.9757977  31.7395771  59.0912453  51.2384192
  31.9202459  59.9887863  51.5177337  30.7961309  58.9872089  51.3621930
  38.8018429   1.7991296   9.5738304  39.6388709   1.4800636   9.2364675
  38.6286771   2.5950185   9.0710354  35.1126671  14.9377179  12.3969102
  34.3660951  15.3158891  12.8615057  34.8423171  14.9257493  11.4787591
  24.2986000  36.5093056  57.5609175  23.4228123  36.6060320  57.1869234
  24.3971909  35.5673233  57.6994354  56.3582718  24.2931119  17.8475046
  56.7242872  23.4725515  17.5174475  55.4332888  24.0989820  17.9989970
  24.4378591  41.8103218   6.2242466  23.8996029  41.4968300   5.4974484
  24.1716671  41.2714767   6.9692445  50.1368380  23.8721776  19.0555632
  50.5258608  23.6309457  19.8962176  49.3283319  23.3617592  19.0105224
  35.4208183  39.9916697  22.7137041  36.2708020  39.5591617  22.6318693
  34.8506975  39.3278909  23.1017637   0.5429554  40.0781727   2.6413992
   0.1525402  40.2204895   1.7791033   1.4791393  40.2263546   2.5078607
  37.8346086  31.2195802  22.6187992  38.3269405  31.6490078  21.9192028
  37.0039225  31.6939378  22.6530862  28.0778527  51.4823437  19.3779135
  27.7781558  51.7278194  20.2532172  27.6062679  52.0716763  18.7892485
  22.3430431   1.1324731  20.8313445  23.2313717   1.4850751  20.8840255
  22.4636496   0.2150050  20.5865172  29.0831590  12.2752428  14.6511257
  28.2481074  12.4338579  14.2109454  29.2449093  13.0741251  15.1529789
  36.0663080  28.8609600  21.8630433  35.7542253  28.2484674  21.1969447
  37.0144415  28.8912559  21.7351508  35.7812953  17.6050115   6.9351280
  36.4614773  17.9146278   6.3370275  36.1555672  17.7276242   7.8075492
  11.0748065  47.0333767   5.6296617  11.4425015  46.2414265   6.0218978
  11.7036688  47.2787142   4.9510068  13.6011851  35.2909247  57.2625984
  14.3140281  34.7119251  57.5324930  13.9796579  36.1694065  57.2981272
  67.1805025  39.8781937  53.4954641  67.5115849  40.7262170  53.1997065
  67.0705772  39.9804648  54.4408152  56.6146564  10.0072873  17.5182486
  55.8793354   9.4300151  17.7238882  57.3532009   9.6354574  18.0004585
  22.0476294  54.7241306  11.0098052  22.7356696  55.3493786  10.7819879
  22.4382567  54.1754103  11.6899145  10.2882123  54.2624474  12.4690986
  10.5218923  53.4385920  12.0414460   9.7342348  54.7140837  11.8324172
  61.4003813   7.0903245  16.8720949  60.4620945   6.9049303  16.9105375
  61.5464007   7.4027769  15.9791875  41.4919662  45.7642746  37.1684480
  40.8659744  45.0857925  36.9154096  41.2369823  46.0052967  38.0590200
   9.7364479  43.1400633  32.6155901  10.2131557  43.8498783  32.1853113
  10.3566265  42.4111557  32.6330519  46.6388232  10.8422390  45.3277890
  45.8607588  11.1943403  45.7600776  46.5984312  11.1937967  44.4384030
  18.9104736   6.0242859  52.9540078  18.2564247   6.4704386  52.4160472
  18.4036625   5.4157988  53.4917060  30.7206429  12.0834604  34.0182094
  30.2222050  12.8967348  34.0980534  31.4788330  12.3187462  33.4833960
   9.0282929  33.6531130  58.4638257   9.0754474  34.0047518  59.3528477
   8.1658996  33.9204422  58.1459511  74.1491807  29.0609232  50.8244447
  73.8917888  28.2028500  51.1616210  73.3501232  29.5859114  50.8705560
  35.6196964   9.1379658  56.8746130  36.0064638   9.9000612  57.3057173
  35.1704300   9.4977728  56.1098067  20.5098009  22.7407742  40.2046776
  20.4368448  23.3343267  40.9520769  20.2653170  23.2755423  39.4493747
  23.8138056  21.0598540  10.6839406  23.6913109  20.8862591   9.7506177
  23.1965661  20.4723072  11.1198723  45.7928753  56.0723877  30.3185844
  45.6674719  55.8085299  29.4070578  46.0087252  57.0037079  30.2708125
  16.7377818  36.5482545  18.2304811  16.5466368  36.0907054  19.0492249
  15.9971893  36.3397288  17.6610327  54.4094181  31.3912773  41.9780016
  54.4281530  30.4464722  42.1303988  55.3176880  31.6705370  42.0932817
  49.1504853  42.9754273  45.5797605  49.0938634  42.1516434  46.0639159
  48.6981953  42.7998653  44.7546271   2.3734010   8.1841198  56.4632014
   2.2413481   9.0926758  56.1924366   2.7426231   8.2479445  57.3440147
  36.4300823  33.1623197   7.0672780  36.9022083  32.6263356   7.7045006
  35.6816959  33.5086465   7.5532895  42.4679565  62.9061365  51.4996529
  43.1205320  63.5451698  51.2132740  41.6373777  63.3807802  51.4666891
  33.6204171  56.1419201   8.8117582  33.0950904  55.6443930   9.4384396
  34.2763042  55.5181026   8.5004795  56.3901186  62.1689987  19.8753321
  56.5260839  62.5903654  19.0266883  57.2481871  61.8131638  20.1062751
  55.7097828  22.7696077  10.7853281  56.1678063  22.1344129  10.2348912
  56.0936129  23.6135618  10.5473244  35.4938316  24.0038037   9.1207892
  36.4371920  23.8584304   9.1927052  35.3247571  24.0176511   8.1787419
  52.0044184  61.5131235   1.1673533  51.9786930  60.7804775   0.5518894
  51.0880089  61.7677116   1.2751009  35.4112947  10.9019629  50.8966402
  36.2317646  11.2169472  51.2759058  35.6811417  10.2498928  50.2499441
  72.6247227   4.6457902   8.5081631  73.4188902   4.9819175   8.9235520
  72.6181375   5.0509731   7.6409727   7.3556435   6.3590995  34.8931956
   7.7331030   7.1671907  35.2406716   6.8689691   5.9865657  35.6284499
  54.7086000  38.3027363  20.1294255  53.7562370  38.3635807  20.0550079
  54.8559284  37.8684950  20.9696412  26.7802370  29.2068258  56.5380541
  26.4227856  28.9161507  57.3770831  26.6798580  30.1586500  56.5517978
  22.1284962  60.0278664   0.0547548  21.9123650  60.4821634  -0.7595746
  21.7069912  60.5484104   0.7385635  10.3829420  32.8878370  53.9538340
   9.9044478  32.3300854  53.3404903  10.9170425  32.2792784  54.4643466
  61.8508148  57.6262903  27.4832225  61.3643122  57.2197914  26.7660737
  61.1853695  57.8240681  28.1422329  68.6635113  15.9683529  56.2373338
  69.1337574  15.8335081  55.4145853  67.8077186  16.3049332  55.9716884
  50.0350523  35.4203868  22.0014620  50.3217125  34.8008299  21.3304901
  49.8571062  34.8768497  22.7690125  27.5240421  28.0659223  28.0813479
  27.8240848  28.9430976  28.3196068  28.2373357  27.7032518  27.5560713
  25.1612830  67.5875139  11.3135624  25.6529760  67.2686672  10.5567229
  25.3768802  68.5187387  11.3642383  71.2355480  67.0779133  13.5338151
  71.1358881  66.4087963  12.8566265  71.9249812  67.6532936  13.2023787
   5.5858399  70.2912569  43.9533953   4.9859739  70.3565502  44.6964470
   6.1826540  69.5809745  44.1890792  65.1946223   3.2214752  33.8499455
  64.2462469   3.2320825  33.9791946  65.4025293   4.0992132  33.5296587
  14.3115544  35.9623885   6.1187422  13.7468123  36.7314243   6.0420674
  14.4853997  35.8854723   7.0568752  60.9171249  60.2617144  30.6448034
  60.4502488  59.5118117  30.2761511  60.9779574  60.8853078  29.9211577
  28.5757160  64.2893457  12.7357876  27.8967452  64.9633598  12.7052414
  29.1572952  64.5671320  13.4434831  73.5473478  13.9693466  59.4556659
  73.9074338  13.5857073  60.2552859  72.6315415  13.6910120  59.4478224
  51.3145018  33.8448572  30.2912951  52.2642326  33.8186026  30.4077101
  51.1240530  34.7592497  30.0819039   0.5256392  63.3263492  44.9628107
   0.1522518  62.4718999  44.7466437  -0.1057791  63.7179088  45.5663196
  49.4705474  17.7243368  41.0904980  49.3916523  17.8624193  42.0343924
  49.8384106  16.8445913  41.0070515  32.6560426  22.7708459  35.6654239
  32.4861336  22.3092270  34.8442817  32.3271155  23.6570001  35.5145168
  31.8552589  29.0208316  25.0718069  32.1517467  28.7514806  25.9411597
  32.5502706  29.5942521  24.7487259  40.1499081  40.9046221   6.6319311
  40.9353495  41.0206413   7.1665829  40.4434347  41.0701084   5.7360035
  53.8569117  46.1163139  11.9956005  54.6827078  45.6799793  12.2051370
  53.5767555  45.7161999  11.1724043  20.6335235  45.4672718  16.8614197
  20.3214431  45.1937342  17.7239823  20.6957006  46.4206266  16.9204533
  62.2449207  39.7979641  15.4893911  61.3373375  40.0430965  15.3092980
  62.7097034  39.9841833  14.6735895  21.3141430  24.4254128  51.8985645
  20.4620398  24.7930733  51.6640858  21.1127461  23.7443606  52.5403092
  57.2517944  34.5856969  61.7486690  57.1802164  33.7652957  61.2607654
  57.3913599  34.3135512  62.6556919  10.9945166  39.8147321  30.2934575
  11.2157071  39.2358375  29.5639467  10.8377838  39.2232656  31.0295534
   8.8165224  28.4766880  58.2606677   9.2478765  29.3118778  58.0800370
   8.6537326  28.0993000  57.3961977  37.1920300  29.8670697   4.6384177
  36.3762760  29.9499226   5.1322907  37.7305150  29.2745924   5.1630467
  15.3021145  42.3387480  14.1671169  16.1867166  42.3715687  13.8029289
  14.7327614  42.2365332  13.4044766  57.5923907  17.1619359  13.0727494
  57.0092475  17.7126733  13.5951209  57.5595462  16.3058797  13.4997320
  60.4025316  44.0856266  27.1806622  60.5506706  43.2854128  26.6767359
  59.4900227  44.0251875  27.4633384   3.9953018  71.3405442  59.8018976
   4.2977358  71.7367148  60.6190983   3.2148624  70.8451485  60.0503431
  26.1859739  10.5999676  18.0741099  26.6940630  11.4110294  18.0902366
  26.8068493   9.9230066  18.3433084  42.7812243  62.1189022  34.6963644
  41.9882822  62.5007153  35.0727892  43.4970379  62.6209974  35.0859046
  22.0984149  43.4953070   6.0781509  21.3357329  43.9052963   5.6701559
  22.6811981  43.2921457   5.3464949  71.4195263   2.8003017  10.0106609
  70.6479513   2.5219575   9.5172769  71.8251335   3.4717933   9.4621974
  11.7235899  58.1610441  21.4335799  11.9768476  57.7048206  20.6311131
  11.1430883  58.8621616  21.1374640  64.9670172  47.1418571  10.0881064
  65.1093102  47.1390200   9.1415459  64.7947884  48.0588961  10.3016722
  47.5274813   1.5407268   6.4716494  47.8625333   0.8329050   7.0220697
  47.8612339   2.3397771   6.8795180  67.7950764  31.7045379  30.5179095
  67.0894670  31.8456864  29.8867011  68.3427858  32.4860263  30.4436016
  34.7988915  66.3951921   7.0950240  35.6331110  66.8404484   7.2435403
  34.8423839  66.1024427   6.1847287  11.8034077  22.2239947  28.7493825
  12.6971781  22.1856570  28.4088898  11.7344451  23.0934310  29.1437888
  75.2299607  18.4218613   7.7588443  74.7119058  18.2941547   6.9641475
  75.9159458  17.7562920   7.7070979  74.4006421  25.2587748  24.5356417
  73.8712190  24.5393658  24.8797226  73.8326849  26.0265183  24.6006608
  67.9368448  11.1611736  38.9749718  68.3049041  11.6824639  39.6884298
  67.3750931  10.5207026  39.4113946  34.0826500  52.3100582  52.7192358
  34.6086729  53.0720917  52.9617999  34.1410101  51.7277924  53.4767328
  13.2164860  49.5190525  12.9973841  13.2270718  49.7885990  12.0789802
  13.9836109  49.9443150  13.3806670   9.8011159  10.1277948   7.7965899
   9.2784213   9.3766618   8.0773374  10.1705359   9.8612857   6.9547244
  24.9307084  28.0799699   9.0414155  25.6768417  27.5431228   9.3084586
  25.3238463  28.8803768   8.6935347  41.8952370  54.4861603  38.3564425
  40.9601450  54.5376778  38.1585050  42.2946215  55.1568699  37.8024817
  60.6999779  36.2915277  24.9951744  60.4358864  37.2106123  24.9530458
  61.5810490  36.3123679  25.3686786  32.1503520  45.8108664  -0.0143831
  31.6166568  45.1936340   0.4860426  32.1840858  46.5960932   0.5319766
   3.1038940   5.0319067  48.6710695   2.2812784   4.6742979  48.3369223
   2.8503454   5.5303637  49.4479112  51.8720580  43.5832822  46.3887004
  52.0201541  43.7024366  47.3268382  50.9199835  43.6040920  46.2919752
   7.8516413  65.3591442  53.3942525   8.0278183  64.4249725  53.5061322
   8.4281374  65.7889485  54.0260390  34.7047461  55.5312144  55.8812741
  35.0245244  56.1609959  56.5273009  33.8916851  55.9158802  55.5538646
   8.6281097  12.3681370  35.8980207   8.2451880  12.7261702  35.0971345
   9.5167339  12.7233473  35.9182028  24.9001122  48.0611897  20.8543611
  24.6029019  48.1274414  19.9468875  25.8184028  47.7995491  20.7871413
  30.3816414  20.0854850  27.2346473  30.8845401  19.3040907  27.0049834
  29.9996090  20.3763890  26.4066029  14.1761076   2.8307907  19.3964481
  13.2221329   2.8128997  19.4729137  14.3564140   2.4189655  18.5513926
  62.4952090  48.7754265  51.7490582  62.2303570  49.5936504  51.3288299
  61.7214537  48.4961334  52.2384749  38.1588066   6.6351763  47.0547072
  39.0430058   6.6435352  46.6881696  37.6281870   6.1958281  46.3901452
  51.9621468  17.5113773  16.0190415  51.7456913  18.4349787  16.1468756
  52.7630377  17.3805869  16.5266812   1.7806078  55.9490800  58.5328884
   2.4059034  56.0314655  57.8128556   0.9224964  56.0057473  58.1125678
  31.3771796  11.5240681   2.3188432  32.0922160  10.9255266   2.5349504
  30.7852054  11.4708126   3.0691504  71.4124262   1.6130868   2.3871718
  70.9130632   2.0273630   3.0909064  71.0029757   1.9322244   1.5829772
  48.9726973  42.0145798  22.6266670  48.1835508  41.7387438  22.1604133
  49.6009684  41.3090992  22.4723792  17.7315367  13.5814491  41.1383919
  17.0049274  13.4122101  41.7380814  17.5615347  14.4597784  40.7979898
  16.9955492  38.5160685  14.9668932  17.7465713  38.4906697  15.5598116
  17.3279309  38.9434433  14.1775227  24.1919589  25.6912804  13.7499535
  24.2123437  25.9663868  12.8333652  25.0978374  25.4548812  13.9492714
   3.7917864   9.4253770  11.8562055   3.6615765  10.1640645  12.4508595
   4.0560352   8.7029878  12.4259019  44.1098631   8.7096754  42.1294955
  44.6220387   9.4770971  41.8745927  43.9159811   8.8482586  43.0565540
  53.3744133  33.9495388  49.1001395  52.5210372  34.3435446  49.2810897
  53.1753183  33.0418364  48.8706497  48.9204550  40.9656858  27.7081060
  48.5159445  41.0540390  26.8450904  48.2757282  40.4843855  28.2266736
   7.9166746  47.9782200  29.9464464   7.7270460  47.0636845  30.1559496
   7.0988321  48.3145571  29.5800686  65.1279831  46.0156775  23.5986638
  64.8682356  46.0671091  24.5185089  64.4388342  46.4850521  23.1285715
  58.8757932  -0.0099143   5.1826727  58.4643566   0.4892389   4.4771248
  58.1819355  -0.1228770   5.8323133  46.4444780  34.5479727  11.5339994
  46.5722084  34.0900350  12.3647881  46.6318417  33.8886762  10.8658266
  48.4721851  55.1534081  42.6701498  47.5956297  55.2596807  42.3005772
  48.4599972  54.2834616  43.0692434  30.2109551  37.9960275   1.4254878
  29.4467998  38.1318927   1.9857012  30.4105020  38.8651776   1.0776488
  21.0846174   9.5355288  53.7797574  21.8002737  10.1697746  53.7373308
  20.6650866   9.5900026  52.9211185  26.6964817  22.1561432  15.1988804
  26.8607545  21.4073014  15.7720149  25.8242106  21.9954634  14.8389399
  51.0328150  11.4136779  43.2682467  51.2788677  10.4889083  43.2460690
  51.8668222  11.8834174  43.2713604  56.2001514  32.8200841   3.3579949
  56.3672113  32.5995636   4.2743427  56.9933176  32.5463891   2.8973356
  30.6865538  12.9433695  47.9835168  31.1252821  12.1348635  48.2482115
  31.3876951  13.5936562  47.9415361  14.8473430  54.9537992   6.2954861
  15.0685835  55.3246355   5.4412234  15.2471817  55.5517673   6.9269896
  56.2955904  65.7202101   6.9988495  55.9688091  64.8481035   6.7777771
  56.7486095  66.0137224   6.2083733  41.6066540   3.0436197  58.1710438
  42.1335066   2.5934616  58.8313586  41.4843309   3.9254681  58.5226266
  55.5280352  17.6007032  46.5292645  56.1249208  17.1782315  47.1469069
  55.5754375  18.5311961  46.7487383  23.2607437  70.8027863  52.5113586
  22.8835417  71.2414336  53.2739452  23.5179354  69.9393129  52.8346173
  21.9807852   4.4275585  57.4094848  22.3941601   4.9412123  56.7155735
  22.3009050   4.8205391  58.2214708  56.8589544  22.2206450  16.2093174
  57.6640081  21.7076206  16.2795126  56.8925858  22.6001525  15.3312087
   9.8674417  19.3492997  15.8837426   9.7169560  19.8251224  16.7005527
   9.9328113  20.0328755  15.2168977  12.4852669  39.5202327  39.3147206
  12.7513242  40.4379559  39.3715715  12.7892554  39.2356825  38.4528303
  26.7262209  20.5269543  43.8843254  26.2100971  20.1108090  43.1939153
  27.5360716  20.0177923  43.9178721  71.3502884  44.5202112  30.2253914
  71.5553808  44.7048473  31.1419463  70.5905628  45.0702906  30.0344443
  29.7189177  19.1418520  47.8554527  29.0326393  18.8087574  48.4336416
  30.1150167  18.3569685  47.4769119  48.3093262  65.5722618  15.3052223
  47.9998541  64.8491859  14.7596765  48.0039167  66.3597822  14.8549199
  55.9783983  52.2004700  17.3960519  55.1838255  51.9544411  16.9223964
  56.4093065  51.3679600  17.5896418  46.6735697  17.9019582   8.0137628
  46.4546442  18.7333059   8.4346741  47.1465206  18.1525230   7.2201848
   5.6390393  65.5313921  26.7251062   4.7048345  65.7382250  26.6984105
   5.7734674  64.9350643  25.9885216  30.3697228  30.5154800   4.9529457
  30.3043127  29.8351479   4.2827961  30.8409905  31.2297082   4.5239723
   9.5312667  55.6397343   9.6841955  10.0324762  55.0945854   9.0777028
   8.6231411  55.5450439   9.3968385  41.5010214  39.8756742  14.5351982
  40.7877302  40.1326752  15.1194894  42.2777843  40.2931738  14.9074471
  63.5256386  17.3406255  23.6722946  64.4502354  17.5344062  23.8265586
  63.5317469  16.6791117  22.9804897  37.8638697  38.7394905   4.7612819
  36.9996119  38.7176156   4.3504131  37.7000189  38.5104704   5.6761235
   6.6045583  22.9218689  50.8041708   7.2195495  23.0552975  51.5254299
   6.6481698  21.9830195  50.6228046   8.9942635   0.3856460  52.6487557
   8.7073386  -0.4605421  52.9920802   9.9133885   0.2511970  52.4177490
  42.6358938  54.7674084   4.3080854  43.3185863  54.4088507   3.7409857
  42.0376396  55.2145624   3.7094399  31.9855356  14.6075368  14.5006573
  31.3501382  14.6574545  15.2148068  31.4558005  14.4484901  13.7194288
  44.3992090  47.4109030   0.9417231  44.1098642  47.3912764   0.0295134
  44.6918344  48.3115959   1.0808486  40.6724119   8.9851991  48.6031342
  40.4308235   9.6176759  47.9264975  40.4271423   8.1360094  48.2357645
  31.5495300  61.6307449  10.7193911  31.2656951  62.2788811  10.0747299
  32.2945595  62.0405197  11.1589861   3.8918781  69.1662836   0.8374567
   4.0634632  69.7367287   0.0881983   2.9672861  68.9330149   0.7541098
  69.4520187  51.3117313  15.2424824  69.1211700  50.4334688  15.0542545
  68.7344742  51.7437696  15.7058465  66.0903704   2.1207468  30.2625442
  65.1420605   2.1942893  30.1551652  66.2031662   1.4715139  30.9568095
  45.3804731  69.1672897  17.7913415  46.0249186  68.4715986  17.6612043
  45.6244898  69.8415041  17.1572101  47.3034286  22.5847626  25.2475023
  48.0750036  23.1512022  25.2405143  46.6025400  23.1303334  24.8906541
  43.0658614   9.6860925  11.2220967  43.2096731   9.8554460  10.2910388
  43.4876906  10.4210702  11.6671789  22.2039902  18.0233900  13.3621550
  23.0692779  17.8255311  13.7204289  21.8152868  17.1662561  13.1876481
  70.2082562  17.4497437  12.1480942  70.4656833  17.6232457  13.0535555
  69.6169686  18.1687319  11.9252312  38.2621765  64.7126245  18.1087089
  39.1883588  64.6724224  17.8703737  38.2638597  64.9357843  19.0395308
  30.1630493   3.6465923  19.4984341  30.7446354   4.1383783  18.9186597
  29.4839742   3.3006898  18.9192629   8.2444025  57.7027988  44.5849613
   8.1273676  57.0124673  43.9322905   8.3888413  58.4969020  44.0704040
  32.3427248  68.4929705  41.7159653  32.9384136  67.8585291  41.3173771
  32.7274704  68.6772346  42.5728464  13.5166656  41.4964239  20.6299949
  13.0824959  41.3558046  19.7885966  14.2068731  40.8337633  20.6570649
  35.7022964  13.6062089  19.8909414  35.7491123  12.7243654  20.2602434
  36.5049278  14.0338365  20.1895142  31.8673468  48.6789989  12.7791846
  31.8307424  48.6532736  11.8230307  32.8005362  48.7459660  12.9814315
  55.3729630  40.9617901  26.2828231  55.6471300  41.8782234  26.2479186
  55.7881880  40.6175184  27.0735812  36.8516720  55.5782333  50.2373675
  36.9568146  54.6773258  50.5432169  36.3112248  55.5026547  49.4509617
  48.8512516  45.5737305  60.2158403  49.1756296  46.1289549  60.9248734
  49.5380878  44.9188042  60.0911236   5.6095839  30.5267620  28.7984824
   6.3881445  30.0575447  29.0983224   5.6148481  31.3432860  29.2979717
  28.0164051  33.4219813  21.4228368  27.8669548  34.2014384  21.9579458
  28.6052275  32.8801370  21.9481206  18.5579085  68.4711599  16.3600051
  17.8409696  67.8778028  16.1360538  18.8752389  68.7926340  15.5160928
  53.1005478  67.6877069  16.3922262  53.6533689  68.4530878  16.5497637
  52.2102737  68.0378485  16.3599265  27.1058083  53.2198143  12.6204181
  27.7228594  53.0216455  13.3248401  27.6146793  53.7344551  11.9939792
  15.7912958  50.8768463  33.2648420  16.1092830  50.8998966  32.3622990
  16.2885547  50.1698017  33.6759973  59.9538803  28.4367752   9.0252608
  59.0456486  28.3456635   9.3134367  60.4730272  28.2576776   9.8092520
  26.9012308  28.3870721   5.2860141  26.6140556  28.9402556   6.0124779
  26.4233351  28.7213254   4.5269874  51.9734276  20.6744877  10.0172500
  51.3486708  19.9760977   9.8218993  52.5034082  20.3278843  10.7350329
  61.0496140  56.8221521  19.4399607  61.7270041  56.8736839  20.1142931
  61.2447596  57.5489330  18.8484085  61.3927437  67.5234127  53.3086834
  61.5877701  67.7253294  54.2237935  60.9741427  66.6630697  53.3371983
  48.0466557  52.2454834  11.7297983  48.3735657  52.7095795  10.9591007
  47.2915983  52.7592754  12.0163870  28.5132944  13.2904188  59.4795990
  28.2932150  12.8735486  60.3126764  27.7578890  13.1167928  58.9179564
   5.4883123  60.6271982  55.8774356   4.6348120  60.3479147  56.2087492
   5.9949995  60.8319115  56.6633073   8.2178665  57.2170806  34.5398454
   8.2526709  56.7960310  33.6809305   7.6569058  57.9816079  34.4092540
  37.2792172  31.6703391   9.3202108  36.8118429  31.0338283   9.8611790
  37.4858141  32.3878551   9.9191451  13.0307830  23.4791437  48.8798396
  13.4846294  22.7378241  48.4789673  12.9334605  24.1130653  48.1692723
  60.6338215  33.8618135  39.6145248  60.6117868  34.7062635  40.0646973
  59.8338413  33.8495708  39.0890574  43.3114672  31.4953876   7.4632674
  42.4147081  31.6667414   7.7508324  43.2213926  31.2140012   6.5528059
  71.2389540  12.3543239  18.4488984  70.8871721  13.2396865  18.3560773
  71.1468958  12.1565128  19.3809052  32.3027682  45.5055952  11.2864959
  32.2405314  44.7414541  11.8596005  32.8160834  45.2022123  10.5376983
   6.9602072  29.4049589  46.5095901   6.9411909  28.7808172  47.2350740
   7.1560299  30.2460996  46.9223499  50.7608425   5.1090709  15.3333879
  50.7138049   5.3682844  16.2536204  50.9693205   4.1751758  15.3579724
  27.2104955  24.6968603  14.3297398  28.1629658  24.6598697  14.2421770
  26.9428015  23.7825346  14.4223714  32.2585487  49.1085005   8.3955061
  31.7560244  48.5395861   8.9786351  31.6333246  49.3714476   7.7200925
  37.9281271  17.8733793  60.4246808  38.2431877  18.7318388  60.1418074
  38.6525143  17.5077787  60.9324474   4.1758097  33.3620850  50.7902745
   4.5185721  32.6435152  51.3216893   3.5770524  33.8274685  51.3743428
  70.3294336   8.0026142  31.8930507  69.4796478   8.3269063  32.1912646
  70.7047855   7.5726263  32.6614594  61.2682676  49.3831491  41.5685225
  60.7566261  50.1078892  41.9279766  60.6323004  48.6781788  41.4468718
   6.7100555  46.4539194  11.6485357   6.8291807  47.1744347  12.2673249
   6.5481877  46.8837404  10.8087218   1.5295446   7.0974985  59.7371740
   2.2933019   6.5259997  59.8164997   1.8839777   7.9831997  59.8155277
  10.0127792  70.7258129   9.4666958   9.4562662  69.9681807   9.2863703
  10.0648928  71.1891079   8.6307096  51.3027441  23.0016843   8.1556231
  52.1720349  23.3700887   7.9980206  51.4689433  22.1979181   8.6481398
  45.8581305  48.2665539  29.0654254  46.5145588  47.9366207  28.4518456
  45.0456715  47.8341913  28.8023639  61.8367708  10.2123228  40.9271816
  61.9367826  11.1529652  41.0735253  62.3142946  10.0442091  40.1148156
  54.1757393  44.2551136   5.3524470  54.3466854  43.6381340   4.6408650
  53.2211447  44.2952204   5.4105306  38.5617388  14.1869370  45.2478031
  37.8733767  13.5576931  45.4633109  39.1206301  13.7256924  44.6224014
  13.3798302  13.0769840  50.3576855  14.0646208  13.0859676  51.0264246
  13.6506665  13.7456099  49.7285430   3.0346275  35.3844028  57.7696131
   2.5549294  35.1379619  58.5604278   3.6261107  36.0805921  58.0554474
  37.3731971  19.6304476  23.6249971  37.8810167  19.9170566  24.3840790
  37.2431064  20.4264021  23.1094718  49.0046930  29.3287158  49.2791605
  48.6110783  29.8955178  48.6158085  48.3142853  29.2076802  49.9310207
  46.8939161  16.6517174  34.9829435  47.1995640  16.5425861  34.0824437
  46.5159178  17.5309002  35.0026894  42.5440073   0.4561414   1.4197415
  41.9021463   1.0904666   1.1005615  42.2840881   0.2874169   2.3253942
  43.0276728  46.1435127  23.7273455  43.6737537  45.6875563  24.2667150
  42.2791719  46.2743282  24.3094635  40.9093571  65.9975529  26.4583015
  40.2649450  66.6252184  26.7854142  41.4742851  66.5125275  25.8822060
  63.9433802   0.8897940  55.0913338  63.4803522   1.3565484  54.3956474
  63.2787741   0.7421914  55.7641927  47.1684122  70.0233126  15.6213093
  47.0781660  69.0716696  15.5717170  48.0955935  70.1664019  15.8112907
  58.7896681  56.4482594  11.0262418  59.3148041  56.9771147  11.6268897
  58.5603094  57.0483875  10.3166807  21.7587936  19.3534151  59.2973299
  21.1153448  18.8462463  58.8023729  22.5540627  19.3150297  58.7660036
   2.2516943  64.7777152  60.4544173   2.0741106  64.5635795  61.3703007
   1.7497231  65.5767059  60.2935780  25.2678132  68.4222698   6.2031698
  24.8495722  68.3138371   7.0573062  26.2059808  68.4117603   6.3928133
  27.2525465  12.5738279  42.8234482  27.0417034  11.9801752  42.1027851
  26.9292938  12.1258680  43.6051559  47.9683971  43.2815647   7.8152871
  48.0530596  44.2258501   7.9471433  48.1083965  42.9049158   8.6840600
  75.2180493  40.6546751  48.2334129  74.2976940  40.4053084  48.1497900
  75.5195487  40.1979319  49.0187267  67.7838612   5.6354707  33.3089590
  67.6002598   5.1949948  34.1387200  68.6400700   5.2995664  33.0438018
   6.3782322  11.9189111  58.8414431   6.9303476  11.4855997  59.4923258
   5.4901134  11.6286222  59.0493155  16.1432684  14.1293207  44.9889247
  16.8006838  13.4639183  44.7857551  16.2577999  14.3016687  45.9234885
  35.7933736  32.9117322  26.2000775  34.9502563  32.8883243  25.7474899
  36.3296509  32.2652555  25.7410479  69.5533657  59.9608469  28.3927298
  70.1175308  60.3543329  27.7270603  69.7850990  60.4157352  29.2024255
  62.2390152  23.2146994  50.4624502  62.5296951  23.8852802  51.0805611
  62.8420544  22.4842564  50.6003968  57.9425049  18.6439514  17.6819623
  57.9839563  19.5223367  17.3038697  58.8474655  18.4428644  17.9203725
  26.8161535  63.1895828  26.2662506  27.0271087  62.5089169  25.6271696
  26.1132360  63.6935568  25.8561921   8.8894666  12.1872822  51.4443688
   7.9564989  11.9735113  51.4341311   8.9785898  12.9010216  50.8128110
  41.0201502  44.9002171  26.5492868  40.5143738  44.8903751  27.3618889
  41.9258595  44.7678089  26.8292761  47.5467968  32.9978466   4.7316378
  48.4172535  32.8740263   4.3532172  47.6628304  32.8153753   5.6640923
  18.4110010  12.7352062  54.8232154  17.7776087  13.2345072  55.3387240
  19.1217125  12.5453249  55.4356370  53.2990683   6.5568844  51.6656438
  52.5772036   6.9990412  51.2188391  52.8751648   5.8818737  52.1956430
   8.1988966   9.7620527  24.1175246   8.5120451   9.2758886  24.8802924
   7.2612011   9.8743955  24.2735267  36.1260462  58.6309242   9.5048296
  35.6185508  59.4177866   9.3060166  36.8433952  58.9417696  10.0571132
  54.2979908  41.3639212  14.5311308  54.0028906  42.0000744  15.1826346
  54.7334337  40.6818771  15.0424433   2.2169602  24.0366617  57.9895467
   2.5659574  24.9193922  57.8661774   1.6101611  24.1196552  58.7251691
  10.8054495  40.9512472   6.1823666  11.3332796  41.0675001   5.3923583
  10.0427675  40.4524231   5.8895892  32.0471107  32.0623437  21.4168119
  31.1264812  31.8066255  21.3594627  32.2644531  31.9684354  22.3442674
  30.6977404  43.3257929  50.3274945  30.8181513  42.4887625  49.8790435
  29.8525131  43.6465946  50.0129930  21.1496008  13.0919758  59.2458824
  22.0746697  13.0029503  59.4751192  21.0079468  14.0366284  59.1842682
  14.5659578  35.7540003  48.7592129  15.3673590  35.3350988  49.0730719
  13.9022363  35.5167500  49.4068376  50.1034641  38.7486434  15.1766169
  49.4149399  38.8505650  15.8337152  50.3842402  39.6430588  14.9831855
  59.2711460  10.0497667  36.3151860  60.0356924   9.7568361  35.8193111
  58.5923206   9.4065896  36.1108494  11.4603556  31.2868610  55.8729039
  11.6084350  30.4295794  55.4736880  12.2947324  31.7451111  55.7726262
   6.3633585  54.3818140   8.5781777   6.0446691  55.2733135   8.7192100
   6.2997007  54.2515755   7.6320183  16.4635349  65.2042937  51.5716843
  15.7032038  64.6579527  51.3725773  17.1651913  64.5800328  51.7566375
  59.2445361  15.9620229  40.2555227  59.4902145  16.8810503  40.1494074
  58.3066833  15.9412900  40.0651693  35.3134012  18.2967138  29.1738915
  35.8103061  19.0906346  29.3713903  35.8955956  17.7827561  28.6143112
  38.3385170  33.9933792  60.8181490  38.8421476  33.1876675  60.7023110
  37.9501236  33.9099423  61.6890214  69.6715605  29.7317100   5.1307464
  69.0508789  30.4009008   4.8423523  70.5134255  30.1857495   5.1673955
  45.5951405  32.5518394  17.0992601  45.1141500  33.3790874  17.1225452
  46.4674473  32.7907133  16.7858016  34.1045094  61.8291044  40.3156710
  34.2947626  62.6871109  40.6949568  33.2861471  61.5591574  40.7323790
  56.2249422  37.1101236   8.8872474  55.3487825  37.4749756   9.0115923
  56.2393665  36.3282609   9.4392586  27.9401768  12.5957695  55.6978629
  28.1863726  13.5207621  55.6965784  28.2522667  12.2636810  54.8561070
  35.1302290  60.3115320  20.9976387  34.6697545  60.9931278  20.5081272
  35.3139281  59.6328211  20.3481483  35.9671319  16.8108669  57.9274581
  35.5330289  16.9497505  57.0857356  35.4480053  17.3183743  58.5512988
  60.9064293  29.1460228  37.1860290  60.6828928  30.0433850  36.9390368
  60.8372736  29.1360736  38.1406760  62.7944422  14.0493000  19.3957150
  63.3773565  14.4139171  18.7297606  62.0916080  13.6329436  18.8968170
  35.5099476   3.4978167  57.0371459  36.2504805   3.1638161  57.5433979
  35.8353365   3.5429255  56.1380802  56.9696903  63.9041138  17.6358843
  56.2494469  64.3412638  17.1815848  57.6172781  64.5944929  17.7781594
  41.1604977  59.5888996  25.3278065  41.8432045  60.1875687  25.0249147
  41.3929892  59.4008780  26.2371063  23.6396587  57.6727120  59.7875417
  23.2459963  56.8199555  59.9721312  24.4639242  57.4657074  59.3471218
  14.9422407  54.4935036  59.7599745  15.4443121  54.4840479  60.5748749
  15.5789709  54.7401905  59.0891933  33.8722396  47.9394722  31.6067958
  33.4850025  47.4455070  30.8841085  34.8156047  47.8135824  31.5045953
  35.6764769   8.4592382  24.4401574  35.6622087   9.0302030  23.6720276
  36.4580917   8.7272779  24.9233437  17.5129938  65.8487988  10.0905311
  17.6457131  66.7214060   9.7201651  17.6760495  65.2514505   9.3605846
  61.7071486  62.7408552  14.2299795  61.5609837  62.7773046  15.1752520
  62.5759649  62.3500729  14.1368556  16.8154896  10.0903431  49.7720007
  16.1286009   9.9444643  49.1215138  16.3442314  10.1954523  50.5985014
  13.1145250  25.6294576  14.5154095  13.7641632  26.2773077  14.7883606
  12.3080980  26.1323301  14.4012642  31.5363503  32.9327035   2.2977699
  32.2938347  32.5719571   1.8369961  31.3925505  33.7867975   1.8902464
  73.3234406  34.6740341  10.1639366  72.4375296  34.3226671  10.0749016
  73.2415867  35.3668261  10.8193541  44.2961645  61.7840242   4.2645639
  43.7612152  61.8565512   3.4741205  45.0314426  62.3774433   4.1114348
  13.7333918  43.3926773  34.7440767  14.5743799  42.9673195  34.9115443
  13.7905073  43.6866426  33.8349247  31.9163609  53.6902857  51.4243412
  31.0614586  53.5527039  51.8323183  32.5326562  53.2400084  52.0019770
  64.6622145  22.1530859  14.1069758  65.3331816  21.5400831  13.8065481
  63.8715755  21.8935052  13.6339629  53.7889433  40.5106020  39.3562293
  53.8525105  41.3826418  39.7457600  53.9524364  40.6522894  38.4237981
  28.5796404  58.6118841  27.5295830  29.2236352  59.3081951  27.6586366
  28.7484026  58.2907152  26.6438055  42.1080923  33.5562849  18.6280394
  42.6035023  34.1444063  18.0580258  42.1768379  33.9510727  19.4973195
  71.4931465  66.2198186  41.8760280  72.2117687  65.5888152  41.8354301
  70.8855654  65.8499860  42.5165752  13.5204590  11.1661354  45.4306940
  13.7707699  11.0569349  44.5132784  14.3521965  11.2063900  45.9027366
  34.4638252  58.9296103  18.4408975  34.5206022  59.7091627  17.8883493
  33.7515092  58.4167433  18.0590522  64.0306759  47.6989889   5.9551823
  64.0410757  46.7469788   5.8561492  63.4288883  48.0038691   5.2761179
  69.6250772  27.4085450   8.8869065  69.2107391  27.8908968   8.1714386
  69.1753626  27.7149773   9.6743643  36.4152277  12.5804630  46.0029975
  36.6768826  12.0343414  45.2617017  35.6631792  12.1254841  46.3820056
  62.5632906  27.1638703  23.6230993  61.7843199  27.2394609  23.0719924
  63.0971003  27.9230404  23.3887076   1.9565864  55.6728840  26.5962648
   1.7470992  54.9661303  25.9856558   2.6191241  56.1933708  26.1419845
  36.3730633   3.2729427  32.5925398  35.5282986   2.9477636  32.9037690
  36.1497032   3.8990680  31.9038391  26.3776016  32.1883988  19.8707306
  27.0865417  32.6358581  20.3326988  26.6144800  31.2617421  19.9084985
  26.1470020  29.7553316  52.2715519  26.3540113  30.6774202  52.4236236
  26.2098015  29.3499676  53.1364045  69.7722292  44.7506666  32.5355291
  70.1849365  45.1685715  33.2913446  69.0675020  45.3486013  32.2863960
  11.9149912   4.7039667  58.8699100  12.3353613   5.4136864  59.3555225
  12.0417178   4.9354426  57.9498056  58.4858274  62.7269077  34.4197965
  59.3054867  62.2956133  34.1781807  58.6406898  63.0569744  35.3048420
  72.0101357  20.1617360   5.5983502  72.7631569  20.1175570   6.1876184
  71.6761112  21.0526466   5.7029343  19.0152597  25.2686071  17.4226129
  19.4072676  24.4254303  17.6498079  18.4325838  25.0719666  16.6890955
  72.8922272  34.2000175  24.4129562  73.5961390  33.9731002  25.0206161
  72.6395369  33.3660173  24.0169477  50.2693033  26.0942960  31.1322021
  51.0109854  26.5356421  31.5461540  50.3622866  26.2925553  30.2003884
  56.7892254  29.3117968  53.6802665  56.3683743  28.6045376  53.1914923
  56.6313732  30.0946060  53.1525097   6.7243172  54.4446313  52.5123725
   5.8640076  54.3780410  52.0980493   6.6078545  54.0409171  53.3724211
  63.5881841  24.1511384  40.3681278  63.1931293  24.6037714  39.6229529
  64.5175826  24.3748228  40.3189325  40.1776207  12.9182116  61.5392500
  39.2608631  13.1644264  61.4161014  40.4950178  12.7273861  60.6565963
  55.0948083  12.2553102  10.9370744  55.1706254  13.1784765  11.1784196
  54.1653788  12.1340600  10.7429338  15.7550489   8.3738986  58.0366993
  16.5980398   7.9760829  57.8191376  15.6618511   8.2371036  58.9794827
  48.6143970  48.3472061  43.9891911  49.1497946  47.7280092  43.4930277
  47.9732800  48.6703777  43.3561373  15.6875742  28.1951300  53.5383896
  15.7667912  27.6274410  52.7717815  15.1476706  28.9269367  53.2397375
  67.0238424  34.9922661  58.5793839  66.3482309  34.7738838  59.2213271
  66.6852261  35.7661133  58.1291274   3.3863365  23.8392488  29.2201900
   4.0933239  24.1258279  28.6420226   3.3422195  24.5143167  29.8973703
  23.6501598  70.1936293  26.3511539  22.8615236  69.6763849  26.5146947
  24.0737772  70.2615261  27.2068238  18.2564437  53.5657167  19.7660887
  17.5621736  53.8919830  20.3385997  18.6716354  52.8647661  20.2686000
  41.1075687  65.3403568   4.8441693  41.2987423  65.4825974   3.9171025
  40.6764221  64.4861937   4.8715034  53.2710791  33.8673496  33.8095641
  53.0910683  33.6085010  34.7133493  53.6341238  34.7501421  33.8810444
  31.9992185  59.0910196   5.3381854  31.6186976  58.2654142   5.0385022
  32.8919029  59.0826321   4.9928209  64.3985653  48.1065750  18.1315446
  64.9959993  47.9208946  18.8559961  64.6936226  48.9498281  17.7878881
  66.7415446  65.0115490  15.4869390  66.7404586  64.3700314  16.1973524
  65.8152121  65.1849413  15.3193867  61.2611294   9.4605523   3.4232667
  60.6512213   8.7529838   3.2144776  61.7173815   9.6342385   2.5999206
  43.8748503   8.3880723  21.5473461  44.1121292   8.7901711  22.3829579
  42.9384279   8.5633785  21.4545298  61.3328052  17.3286310  49.5977477
  60.9738935  17.6313559  48.7636177  61.6302944  16.4362255  49.4207207
  40.2360010  46.8037558  24.5477390  40.3168058  45.8874512  24.8124814
  39.8187900  47.2329760  25.2946901  49.6370113  14.8384300  51.3387803
  49.5266808  13.8895098  51.2787596  49.2780197  15.1737372  50.5172400
  71.1511433  20.1743833  52.7943134  70.3391277  19.9406187  52.3446274
  71.5296757  19.3353120  53.0567980  24.7292221  67.2322575  41.8163828
  24.8398388  66.2848869  41.7359070  25.6110561  67.5626484  41.9879881
  48.5209131  62.6296234   6.4676517  48.5934591  62.8659344   7.3923826
  49.3598700  62.8899670   6.0873854  36.8476093   3.9555350  60.8276528
  36.0419548   3.4400049  60.7904593  37.0942104   3.9481369  61.7525120
  39.6526968  10.9957925  17.4174190  38.9925742  11.4088956  17.9740310
  39.1890728  10.7955877  16.6042769  45.4799318  43.8814259  23.3859658
  45.3520489  44.2010498  24.2791152  46.0312986  44.5446920  22.9708648
  67.1870924  63.4479165  60.6230500  67.6215674  64.2975926  60.5488155
  67.0562960  63.3271455  61.5635491  20.1000071  14.2653370   3.2281601
  20.0961924  13.3900023   3.6154655  21.0224390  14.4410992   3.0425444
  35.9597158  53.3557415  17.2469378  36.0218382  53.8232565  16.4139891
  36.6415668  52.6858044  17.1970105  70.6029665   2.5421039  21.9040680
  69.7677147   2.0798389  21.8340683  71.0181105   2.4171726  21.0506749
   0.0797569  15.1896993   2.3107678   0.5120289  14.7301618   3.0306301
   0.7516682  15.7761995   1.9632156   1.6358519   4.7404650  11.1449683
   1.2104988   5.5189627  11.5044785   2.5722170   4.9092180  11.2496996
  44.4805527  62.0754147  40.0223827  44.5848131  62.3974895  39.1270447
  45.3740883  62.0122290  40.3597689  50.3171062  48.8631153  24.5925355
  49.7365046  49.3208170  23.9845467  51.1775064  49.2550135  24.4429994
  60.1491594  26.3689232  33.6482501  59.3852043  26.3413048  34.2243075
  60.8813429  26.5704584  34.2309356  67.0867502  67.9645881   0.2599450
  66.9156229  67.2673925  -0.3731946  66.4617121  67.8046998   0.9670468
   7.9198324   2.1194259  13.9239991   8.4207594   2.6690380  14.5266867
   7.2609579   2.7075473  13.5549009  10.2371740  69.8071194  47.9772329
  10.7159948  70.6156015  48.1597853  10.9181356  69.1403198  47.8883600
  65.7803869  62.5137138  21.9834137  65.7492781  63.2696533  22.5697732
  64.8735666  62.3908806  21.7026711  73.1089973  51.2011957  47.7333593
  72.4316168  50.6542063  48.1310797  73.0420876  51.0213327  46.7955923
   6.2763988  16.1469499  14.3108082   6.9896280  16.7021123  14.6259785
   6.5902340  15.2530805  14.4477034  56.5994930  57.8772879  29.6009183
  56.7469597  56.9769335  29.8904896  56.4986038  57.8100204  28.6514282
   9.9266041  24.2922703  48.8820116   9.0934408  24.3854204  49.3439559
  10.5506433  24.7892157  49.4110219  61.4388895  65.2436304  21.4078403
  62.2844744  65.0766945  20.9914875  61.1947823  64.4048166  21.7990375
  41.9696188  68.2259655  43.8438368  42.6948118  68.2473278  44.4682312
  41.9913673  69.0849352  43.4220171  50.0211573  47.3026085  41.6886044
  49.3175125  47.0125341  41.1081076  50.6435156  47.7424049  41.1093950
  47.6600075  49.5559692   7.9935336  47.3552179  48.8093233   7.4779230
  48.4837484  49.8128891   7.5791967  64.1935921  45.1414013  19.1680562
  63.9703274  45.2303600  18.2415187  65.0238943  45.6086493  19.2602789
  43.1553745  69.6986198  20.1740932  42.5876808  69.4223022  19.4546449
  43.8211823  70.2456284  19.7573006  47.2864426  62.6031986  59.9007564
  47.6790464  61.9719139  60.5037252  47.1805084  63.3987347  60.4224146
  35.0632000  48.4518576  15.6053460  35.1885462  47.9269600  14.8147738
  35.8093524  49.0513468  15.6156147  67.4330282  20.6970358  50.2528667
  67.7613592  21.2618256  49.5532608  68.0899143  20.0051212  50.3302622
  25.4686855  35.4013992  12.1502706  25.6626486  34.8070455  11.4254590
  26.2193798  35.3155065  12.7379008  10.1140892  15.5688230  29.3953180
  10.5922710  15.8923189  28.6318207  10.1224338  14.6166841  29.2973995
  49.3590057  37.7652994  55.4695354  49.8397768  37.2316471  54.8368380
  49.3850601  37.2571436  56.2802944  16.3218737  42.1513081  35.8539867
  16.2387991  42.3299217  36.7906976  16.7936277  41.3196182  35.8096647
  63.7662983  59.8176908  45.1728535  62.9795027  59.9682236  44.6489096
  64.4615459  59.6853876  44.5283699  37.5889134  10.2473966  25.4073048
  37.6837980  11.1650506  25.1520872  37.9931044  10.1966707  26.2734985
  38.5489595  36.1493460  59.2458580  39.1200531  36.7849699  59.6772101
  38.4741295  35.4302088  59.8731337  53.5201823  24.4519845  17.8774786
  53.6958539  24.4082300  16.9375551  52.9130470  25.1857130  17.9737568
  65.7141066  33.1504035  24.4561720  65.8077240  32.4781013  23.7812805
  64.8796606  32.9497313  24.8800278  67.7541876  19.1342485   2.3822296
  67.1950626  18.8494992   3.1050894  67.8214979  18.3664119   1.8146661
  66.3599634  65.5135965  31.8385768  67.1539593  65.8650017  31.4356947
  66.4505672  64.5641041  31.7580271  56.8927050  38.2619834   3.8766977
  57.1726990  37.3700547   3.6710390  57.6125860  38.8150096   3.5731131
   4.3016922  10.4223863  41.5447378   4.7195398  10.8555166  42.2890759
   3.3708298  10.6227056  41.6427326   9.2534840  17.0335905  25.6552958
   9.9095022  17.7268545  25.5827475   9.7565805  16.2210981  25.6006193
   4.1614437  54.9431705   0.4928806   4.7026777  55.3142405  -0.2039676
   3.2675981  55.1966524   0.2626139   2.1697760  68.8743544  29.6449876
   3.0560112  68.8692379  30.0066495   2.2977257  68.9367056  28.6984277
  39.8940170   3.0339352  49.6002738  39.1415632   2.5229183  49.8984484
  39.7266138   3.9186231  49.9251381  50.1516056  65.1501226  17.5110018
  50.0110531  66.0568762  17.7835345  49.6299982  65.0559950  16.7139447
  56.6951895  64.5200920  48.1362629  57.6129866  64.3062925  48.3040905
  56.5437984  64.2351294  47.2350931   8.6152029  66.1903572  42.7469015
   7.9363584  65.5837154  43.0425024   8.3950186  66.3692045  41.8326998
   5.1925957  10.1283399  23.5939956   4.2597115  10.3337709  23.6553025
   5.3618538  10.0614206  22.6542592  49.3075502  28.0493561  60.9255307
  49.1631783  27.1436373  61.1995154  48.5283077  28.5174099  61.2254145
  24.4034815  42.4680185  18.2043993  24.8151064  41.6222095  18.3816123
  24.5527029  42.6160336  17.2705603  49.1220188  51.0842419  23.4000254
  48.4809637  51.4247561  24.0239906  49.9478531  51.4941263  23.6573648
  52.7108288  10.6501102   3.5529423  53.4951353  11.0991800   3.8682628
  52.2445393  11.3122582   3.0426827  52.9819537  14.4286131  51.0539416
  53.8012124  14.9186992  50.9841959  52.2977735  15.0936770  50.9776644
  74.2628396  12.4257866  37.0067839  73.8001550  13.0146137  36.4105944
  73.5699952  12.0181814  37.5264505  12.0352853   0.7516495  47.2129551
  11.1628378   1.1436454  47.1754543  11.8808878  -0.1870116  47.1066073
   6.5771991  30.5962038   6.6421747   6.4614391  30.2487350   5.7578123
   5.8882952  31.2545395   6.7329258  22.4762702   6.3130814  29.0439796
  21.6737032   5.7941294  29.0969563  22.1830344   7.1795857  28.7621760
  65.6208063  66.7002439  60.8327042  65.1776553  66.2381029  60.1211734
  65.2717806  66.3027525  61.6304599  58.9700365   9.0250987  11.0511076
  59.2886877   9.0096903  10.1486361  58.4808826   9.8451144  11.1184287
  24.8961163  24.7807336   7.5367153  24.3754435  24.8584318   8.3361489
  25.2627993  23.8973665   7.5746143  66.0362507  49.6138727  41.5986184
  65.6065537  50.4270267  41.3333396  65.9087683  49.5737779  42.5464419
  12.9501128   9.9355710   3.9335883  13.6639977   9.7061962   3.3386210
  12.9239416  10.8922970   3.9186785  38.4619940   4.0557614  34.3955783
  38.1700123   4.6231381  35.1090626  37.8113306   4.1846696  33.7054686
  26.7924143  26.5134310  58.2697455  26.6136385  25.6897139  57.8161357
  27.6868654  26.7385685  58.0138160  53.6077404  19.6916807  11.8289113
  54.3921280  19.2183709  11.5515304  53.9040136  20.2423286  12.5536466
  13.0631757   8.4377223  29.6654081  13.5674667   8.7280786  28.9053988
  13.6073911   8.6713046  30.4174066   1.9970512  22.8542852   4.7572505
   2.8845119  23.1494236   4.5534438   1.7678976  23.3213687   5.5607146
  49.8543240  43.8943648  49.7804312  50.7020928  44.0948611  49.3837933
  49.8410703  42.9396093  49.8474948  16.2180079  55.1391073   9.1439289
  15.6647623  54.4159385   9.4391829  16.7264689  55.3829309   9.9173957
  60.0271893  22.5755095  18.7046957  59.9399900  23.5239673  18.7998581
  60.2306986  22.2640133  19.5866179  17.2782171   9.0558973  39.9561671
  17.4509562   8.6854902  40.8217267  16.4334477   8.6849896  39.7011594
  26.2374568   8.8713610  11.2006700  26.5729570   9.3338805  11.9686210
  26.9870901   8.3734620  10.8745110  20.7970942  71.2029000  43.7612152
  21.1468590  70.3841537  43.4097147  20.4069174  70.9562354  44.5997572
  36.9952012  48.2984376  60.6780306  37.6704289  47.6231444  60.6126262
  37.3699344  49.0561306  60.2289108  28.5553873  50.1167878  28.8820410
  28.5371435  49.6552714  28.0436492  27.7933729  50.6953724  28.8535786
  11.4887261  22.4237251  10.9922659  12.1332014  22.2185659  10.3149235
  11.6702378  23.3335495  11.2278652   8.6916853  61.4811134  44.5080749
   8.3827711  60.9119916  43.8031606   7.9091145  61.6651892  45.0276295
  12.0575356  15.0260985  15.9107912  12.5288653  15.8588147  15.9365427
  12.6332045  14.4401419  15.4193723  12.1974779  71.1253833  53.2364736
  13.0655123  71.1088967  53.6395494  11.6019655  70.8659649  53.9395390
  61.6309739  41.8266242  58.4332518  60.7702590  41.5193253  58.7178005
  61.8259169  41.3054627  57.6543940   8.2636809  38.6534429  15.6717908
   7.6041186  38.7219024  14.9814844   8.0677593  37.8247309  16.1089182
  60.0284243  10.0942671  21.7490268  60.4659939   9.3296093  22.1232748
  60.5494452  10.8390844  22.0490575  20.6245888  55.4954346  37.9245639
  21.2555588  55.2401932  37.2515368  20.1830900  54.6796187  38.1606865
  12.3313595  62.3978185  44.7992424  11.7387796  62.0258355  45.4524724
  12.1637560  63.3396434  44.8325626  45.9110737  56.3742828  33.2173753
  46.2735653  57.2502851  33.3494711  45.9748459  56.2285137  32.2734904
  49.8637534  63.2094550  59.4295506  50.1019622  63.6672902  58.6234022
  48.9123274  63.2993054  59.4838339  19.5352877  10.7640806  47.0630125
  18.9353979  11.1890617  47.6760022  19.2392338   9.8544136  47.0299486
  12.1140349  41.8981361  10.6938231  11.1675119  41.7583704  10.6656575
  12.3581111  42.0688343   9.7841412  61.6188718  39.4981137  56.8420670
  60.8222033  39.1525229  56.4394281  62.2227932  39.6223545  56.1098955
  60.7820225  69.1810984  28.8088512  60.5808306  70.1026326  28.6459756
  61.7322887  69.1223115  28.7100053  37.1902251  14.4232512  29.6953106
  37.8171968  15.0893736  29.4134951  37.2982693  13.7108195  29.0652323
  14.9288965  47.4924349  55.4848955  15.8671881  47.3058962  55.4524807
  14.8689629  48.4404611  55.3670506  26.1825132  12.3512614  15.3129578
  26.1490130  11.8232930  16.1106801  25.5933619  11.9044471  14.7051013
  43.3028078  19.3818867  13.0137801  42.4496746  19.0768003  12.7050436
  43.5458279  18.7598419  13.6995161  71.9313074  59.2516398  36.0075668
  72.0596481  58.5985183  35.3196768  72.2288490  58.8184905  36.8076185
  60.4696703  65.9067535  32.6566505  60.7312822  66.8046284  32.4526620
  61.2308073  65.3761768  32.4213099  24.6841419  13.9542690  55.8588902
  24.6884954  13.0276600  56.0989139  24.9868095  13.9679113  54.9509052
  71.2546218  20.8846298  59.4677859  71.8187821  21.6386572  59.2963431
  71.6179860  20.4888311  60.2599613  38.2382107  27.6483512  17.1549475
  38.8518977  27.3296928  16.4930737  38.7536907  28.2538438  17.6877642
  37.2369946  14.0542761  58.2230339  36.8277777  14.8437372  57.8687478
  38.1158674  14.0492645  57.8438390  38.1128395   8.4780041  44.5967964
  38.4583748   8.6265627  43.7165860  38.4972895   7.6442352  44.8674587
  74.5542968  61.9374844  10.4056609  74.8474062  62.3563620  11.2148952
  73.9598859  62.5738599  10.0082517  44.5977545  27.2926426   2.3593596
  44.1983795  26.5160847   1.9673283  43.9108086  27.6605368   2.9152274
  58.1063820  61.1651706  45.6827478  58.9976526  61.4525699  45.4845802
  58.1623269  60.2098870  45.7058398  56.8926525  37.8976583  18.7467480
  57.0971918  38.8303399  18.8138223  56.0995817  37.7880454  19.2714000
  34.4075287  15.8578507  29.8736028  34.2798508  15.4308191  29.0265016
  34.6037758  16.7689434  29.6553783   6.5322615  64.6864652  39.8920802
   6.6636015  64.1234374  39.1292051   6.9947506  64.2403078  40.6015042
  43.4942865  19.2342007  31.2340522  43.9494753  18.3940029  31.2897563
  43.3694267  19.4998252  32.1451426  31.9041729   6.9571805  13.2129407
  31.8959045   6.0286957  13.4454906  32.6581788   7.3148108  13.6817777
  63.4655750   8.4751001  57.2476886  64.2122984   8.9396540  57.6256088
  63.8143504   7.6168314  57.0069341  29.7347569  32.3720574  23.0012417
  29.6130323  31.6837358  23.6551738  30.4983497  32.8612065  23.3076620
  25.2653778   2.6163856  18.8242082  25.9307182   3.1729356  18.4194736
  25.6479824   2.3565045  19.6622447  43.0912638  25.2535081   1.4620830
  42.2897148  25.7626510   1.3415799  42.7881432  24.3979359   1.7659646
  67.0778465  35.2142787  15.8328176  66.7399931  34.7390699  15.0736976
  66.6702318  36.0784364  15.7752800  25.3095949  15.4311052  29.8618249
  24.4389284  15.1341406  30.1263646  25.3014410  15.3757921  28.9062575
  55.5137421  36.3421272  57.1218095  55.9826518  35.5099408  57.0599903
  55.8695341  36.8711359  56.4078108  61.3736917  39.2825958  48.0180983
  60.5808021  38.8246622  48.2971195  61.1884190  40.2065098  48.1862907
  64.7538471  33.9707637   4.6860093  65.5250072  34.5270205   4.7960821
  64.0118837  34.5632648   4.8071313  23.7143971  31.4760995  58.3696530
  23.4885002  31.5552553  59.2964409  22.9029728  31.6846257  57.9066906
  72.7548936  56.3216162  25.7257819  73.1101084  56.3200283  24.8369336
  73.0291036  57.1624947  26.0917950  66.0602833  46.4143765  56.1558215
  66.0768629  45.4611987  56.2418977  66.4182402  46.7358517  56.9833193
  69.2156530  65.5180049  23.0833606  69.1271759  65.8997607  22.2100524
  69.7227360  66.1629629  23.5764412  21.5566516  47.9352236   2.0336841
  20.9927583  48.4992504   2.5629571  21.0457873  47.1354866   1.9084951
   8.9803255  59.8666187  14.0630186   8.3256186  60.2248033  13.4636068
   9.5926965  59.3975004  13.4963059  44.7501040  66.1604929  12.5007367
  44.5095682  65.4459667  11.9109666  44.4338369  65.8791876  13.3592653
  39.3797434  56.9840359  57.9865680  39.3419946  57.4990034  58.7925545
  38.8715292  57.4917173  57.3539461  38.5125519  65.9718752  40.4391555
  38.5508610  66.4489483  41.2681083  38.6167503  66.6473674  39.7690181
  30.7334805  12.6758683  12.5349510  30.2869725  12.4023998  13.3362496
  31.1870480  11.8888915  12.2329998  18.3096385  17.5781834  31.9387937
  18.3143198  16.7368329  31.4823508  18.8029861  18.1645834  31.3652325
  63.8636757  51.5898692  24.3214420  64.2556597  52.1951305  23.6919669
  63.8617803  50.7447981  23.8719038  15.8149421  37.0686269   3.9389697
  15.1188326  36.8829036   3.3087552  15.8093572  36.3162231   4.5306525
   4.2071104  43.1055546   7.0421839   3.2623243  43.1826591   6.9092798
   4.4992018  44.0014267   7.2105116   7.6483464  39.7139549  17.9692376
   7.8004801  39.3957281  17.0793951   8.5251880  39.8330331  18.3342052
  18.2312084  52.4987185  57.5822965  19.0544582  52.8191650  57.9508171
  17.6565815  52.3883569  58.3398283  15.1315558  52.9327059  10.4051518
  15.8557773  52.3367929  10.2137876  14.3599677  52.3675156  10.4431200
  62.1083857  71.4570498  52.0754472  62.5525404  70.6094694  52.0992307
  62.6954795  72.0210647  51.5720157  53.9579391  15.1173604  35.1679063
  54.2014408  16.0405385  35.2363253  53.3968687  15.0743961  34.3935776
  72.8933025  47.2983634  56.4915876  73.5370661  48.0051660  56.4443980
  73.3315588  46.6080570  56.9892235  74.7405840  52.1865737  35.0773458
  74.5199181  51.3994574  34.5793633  74.0653492  52.2391998  35.7537512
  74.0081526  54.3094444  32.8947715  74.0776802  53.4136605  33.2248763
  74.9102808  54.6289742  32.8773526  31.4230335  65.0322600  47.8792381
  31.2566937  65.7333931  47.2491741  31.8543613  64.3478431  47.3676109
  73.2441295   9.6104590  52.6312838  73.3575476  10.0557963  53.4709541
  73.1012571   8.6930672  52.8641025  66.0336542  40.0068665   4.9965239
  65.8405399  39.7920418   5.9090966  66.2953043  40.9273720   5.0173604
  25.5134857   1.3832394  31.3886265  26.4441574   1.1594740  31.3854961
  25.0641096   0.5394569  31.3403825  40.4955912  30.9256339  26.0122871
  40.6576300  31.5921879  25.3446937  41.3518620  30.5257130  26.1642432
  33.2046676  17.4107385   3.5216430  32.8489852  17.1023560   4.3550831
  33.0719423  16.6788936   2.9191321  27.0278526  70.9371018  31.5561990
  27.1560217  70.2004003  32.1537594  27.6030184  70.7471752  30.8150200
  62.1378304  40.0557980  54.0481726  62.4503280  40.9356278  53.8372783
  61.4533902  39.8833447  53.4016172   7.7073361  31.3964167  47.8994397
   8.6207129  31.1379525  48.0226020   7.7551008  32.2249600  47.4225048
  35.5397987  28.1712532  27.9234099  35.1872945  27.3213959  27.6593709
  34.9827862  28.8102031  27.4787641   3.8520742  45.0887698  30.3076653
   4.2425276  44.8817867  31.1567430   3.0546452  45.5727660  30.5223397
  46.8228149  42.7696609  18.6987925  46.9155407  42.9780769  17.7691722
  47.6631641  43.0169249  19.0846694  70.3366591  64.8012519  30.1058368
  71.2591911  64.9788141  30.2892522  69.8771120  65.5841398  30.4093722
  62.0965862   8.4242511  43.0635309  62.0428705   9.1590679  42.4524736
  62.6555777   7.7853590  42.6212835   1.7061974  58.5686254  10.6739072
   1.6704250  57.6267981  10.5068378   2.2912670  58.6563444  11.4263896
  56.2150097  15.9302413   9.1114116  55.7782793  16.6699874   8.6891824
  56.0282993  16.0421288  10.0435340  58.2796265  64.7223758  59.9517021
  58.3062006  65.6265783  59.6387471  57.3807026  64.6010422  60.2573864
  54.3284702  42.8063393   3.0060434  54.8238802  42.1223545   2.5555339
  53.4303522  42.6968050   2.6936030  64.2507648  34.4248319   1.7114152
  63.9821863  33.5603309   1.4003928  64.4432163  34.2960906   2.6401880
  61.9711829  58.0430007  56.4265523  62.3690225  57.1946191  56.2311004
  61.8756915  58.0490374  57.3789583  18.6213148  19.6272150  59.7464045
  17.7293909  19.8889319  59.5179101  19.1719807  20.0558916  59.0912444
  61.0913635  54.7957825  55.1686344  61.3200642  55.3248500  54.4044254
  61.9304587  54.4699001  55.4941330  44.6074284   3.8035718  49.6498481
  43.8249720   3.3320919  49.3640117  45.0054062   3.2315246  50.3060547
  49.2483139  38.0630946  21.4524007  49.6788120  37.2271061  21.6313553
  49.1837788  38.4872651  22.3080564  18.5444534  17.0358578  60.6394275
  17.6413477  16.7392794  60.5268531  18.5470140  17.9303900  60.2987895
  58.7551451  44.7229242  13.3665562  59.5248032  44.3137455  13.7620747
  59.1026545  45.2230597  12.6280892  39.5163488  17.7174175  22.5564861
  40.1253891  18.4258795  22.3482037  38.8369823  18.1337798  23.0868959
  31.2830580  21.9200483  33.0797557  30.5753267  22.4796263  33.3994750
  31.6916931  22.4277273  32.3786787  11.5540207  17.3522154  38.0041842
  12.2885097  16.7885176  37.7612785  10.9605587  16.7773787  38.4875063
  50.3582789  31.0659292  35.5117301  50.3274513  30.6696951  36.3825230
  50.5309774  30.3328329  34.9209861   3.9867474  49.0101194  35.6855372
   4.5003153  48.9881885  36.4930038   4.0058256  49.9279201  35.4144076
  55.9201622  48.7184381  12.0582032  55.5084705  49.3826437  12.6109922
  56.8018198  48.6204624  12.4178112  12.2524525  61.3008713  36.0119895
  13.1343008  61.3499665  35.6429891  11.8546272  60.5439329  35.5818585
  70.5308056  14.7738552  17.1948147  70.6608820  14.1028965  16.5246439
  69.6057701  15.0088990  17.1220469  35.2668309  42.3717928  21.5333533
  34.9137163  41.6774940  22.0896745  34.7301221  42.3403931  20.7414007
  54.2556215  42.5926935  50.6866912  54.8033548  42.9278725  49.9768488
  54.0299870  41.7029023  50.4154102  60.4371143  48.5214567  32.2097234
  60.2821852  48.6326182  33.1477384  60.1725079  47.6195860  32.0284871
  69.7133875  28.6473751   2.5891623  69.7968197  29.0202236   3.4668034
  70.6031227  28.6634111   2.2365417  22.1137178  14.4898001  23.5393838
  22.1818913  14.2042891  22.6283030  21.3520754  15.0694243  23.5523895
  25.3818596  10.5610672  55.0253395  26.0707129  11.1949888  54.8257069
  25.8517588   9.7845045  55.3292797  68.5184837  44.7719341  50.5267016
  68.8275934  44.5886409  51.4138822  69.2640139  45.1887637  50.0946490
  31.3172604  48.3638799  38.4203414  31.0179020  48.3433544  39.3292932
  31.0777927  49.2367661  38.1089596  39.1401052  21.8934345  17.5677705
  39.1643500  22.0634079  18.5094464  39.9157095  21.3578415  17.4010146
  63.6183548  40.4258585  25.6166053  63.4135532  40.1761913  24.7155190
  62.8043652  40.8016396  25.9519196  56.5318155  43.5951757   6.7653430
  55.6496191  43.9556122   6.6756314  56.3930130  42.6807642   7.0119512
  25.7800568  32.0730082  48.6435525  25.5696810  32.0906035  47.7099232
  26.2390793  32.8980366  48.8012282  10.7886673  50.0249493  51.2414793
  10.9490419  50.0835013  50.2996282  11.5282560  49.5199513  51.5794353
  75.5582488  68.6830299   8.2287055  76.0025585  69.4645166   8.5574901
  74.9491442  68.4422877   8.9267516  65.0263597  33.5315106  41.5483336
  64.4476343  34.2273473  41.8599729  64.9531294  32.8444498  42.2107665
  71.9342756  44.5819283  15.2822113  71.4126825  43.9576197  15.7866037
  72.1983194  44.0968943  14.5003831  64.1321589  35.5609046   9.7003869
  63.4932853  35.1240773   9.1371373  64.9668552  35.4527829   9.2445115
  32.0884884   1.8826881  51.1427752  32.2757233   2.5154701  51.8361441
  32.8804863   1.3481251  51.0861115  68.8177062  57.0791276   4.1826501
  69.5094395  57.5598510   4.6372291  68.3041466  57.7568384   3.7431094
  47.0972717  11.0652987  51.9692067  46.4964617  11.3877121  51.2974099
  46.8967617  10.1321665  52.0419584  28.5305203  28.1059567  54.6888761
  28.2837427  28.4125534  55.5614189  29.4277943  27.7887407  54.7913621
  73.9508152  48.7197924  10.8558226  73.4771681  49.0456104  11.6211557
  73.2645416  48.4903240  10.2292407  58.8182689  43.0392336  54.2122231
  58.2017256  42.3114085  54.2920850  59.0962149  43.0182987  53.2965056
  57.5462389  52.2481871   2.1128757  58.4635639  51.9801188   2.0591356
  57.0953417  51.6869211   1.4820799  43.0167068  71.7149996  61.7109275
  43.3908368  71.1841297  61.0077668  42.1527315  71.3330936  61.8656081
  59.9354769  50.0372707  47.0301143  60.3955628  50.8264434  46.7441789
  59.4475175  49.7514271  46.2578324  26.8600440  18.0421376  10.6265628
  26.1690331  17.3978424  10.7802582  27.6741076  17.5481999  10.7243156
  33.8913774  31.7366457   0.6732907  33.9807749  31.3729978   1.5541989
  34.6501684  32.3115087   0.5733360  12.6968611   5.3337160  56.1445616
  13.6250437   5.5642143  56.1843155  12.5251926   5.1908985  55.2137742
  34.1662359  57.0557165   4.6904510  34.8595548  56.7408371   4.1104570
  34.6161461  57.2682714   5.5081505  56.1750222  51.0972082  25.5601458
  55.5620648  51.0145676  26.2906841  55.7407142  51.6925442  24.9492601
   7.8677142  27.2027031  55.9628485   7.2430313  26.4841763  56.0614655
   7.8352583  27.4221960  55.0317196  31.1015177  38.8148999   7.6566947
  32.0361638  38.9634061   7.5131041  30.6892896  39.6493506   7.4331081
   8.1745017   4.6744696  31.1529378   7.3467434   4.3036572  30.8470873
   8.6960876   3.9147941  31.4119224   3.0383480  13.2338205  59.2793430
   3.3419502  13.2560316  58.3718363   3.1460846  12.3207489  59.5456632
   4.8679781  66.9043589   1.7564616   4.0090418  66.5373564   1.9656649
   4.6862650  67.8088284   1.5012169  64.3460369  45.6935501  29.0236211
  63.7070990  46.3875389  29.1859961  65.0939894  45.9227514  29.5752263
  30.7964361  66.8789535   4.6135446  31.4009226  67.1186187   3.9111280
  31.3227499  66.9327985   5.4112428  66.5113306  41.7844248  17.2088754
  65.6414700  41.4284277  17.3900890  66.6076660  41.7097473  16.2594688
  66.2391806  23.5077047   6.3650990  66.7143011  24.3349433   6.4436835
  65.4433823  23.7333846   5.8834326  58.7385309  28.6349264  55.3715608
  57.9964769  29.0611664  54.9427144  59.4833601  29.2066637  55.1856045
  43.8578939  27.4321651  30.2304697  43.2577658  27.6158857  30.9531903
  44.6508598  27.1046805  30.6549573  57.7177620  58.9908838  26.9344115
  58.3010864  59.1562700  26.1937284  56.8401194  59.1550350  26.5894055
  72.7689505  38.8014126  13.3172107  72.5131845  39.7152781  13.4423864
  73.3687353  38.6193156  14.0406263   5.9389830  16.6354859  30.2144146
   6.5120077  16.4837766  29.4628429   5.9048414  15.7910633  30.6638789
  16.0783875   5.3218329  20.0586820  16.1416113   5.0728309  20.9807611
  15.4753745   4.6828306  19.6788347   1.0208416   9.1787428  18.5735297
   0.6799889   9.6943557  19.3044174   1.8251276   9.6297640  18.3167565
  49.4537474  70.8414387  52.4951700  48.9198471  71.3538694  53.1022910
  50.3546525  70.9962391  52.7791444   9.8357022  65.4404702  18.4615433
   9.9824727  65.8203032  17.5952780  10.6824124  65.5139901  18.9018929
  53.5055399  39.5334744  12.5042081  53.8911581  40.0945663  13.1770432
  52.8694725  40.0943518  12.0602882  27.2526098  59.5163989  60.0824136
  27.4513269  60.4209947  60.3241789  28.0537201  59.0330004  60.2843655
  52.6714325  42.8225660  20.7512951  52.9510689  43.3041716  21.5298128
  52.7381992  41.9013834  21.0026932  51.9503450   2.4390697  37.6374674
  52.3027849   3.1861201  38.1211352  51.0221148   2.4193335  37.8703284
  46.7055977  70.3996007   1.7230806  47.4942625  70.0822370   2.1629940
  46.5736139  71.2803446   2.0739391   5.7763601  55.0893056  47.8581206
   4.8504759  55.2548587  48.0357746   6.0631062  55.8501577  47.3530332
  39.6510757  47.1055913  60.5653455  40.3724612  47.6458370  60.2429036
  39.4060660  47.5062084  61.3994365   9.6180368  27.7793222  47.5760094
   8.9262129  28.0139339  48.1945304   9.2488314  27.0584720  47.0658175
  31.0349442  66.0015273  32.0641331  30.3324295  66.6302228  32.2298125
  31.0606934  65.4580998  32.8516964   6.0744619  36.3439679   1.8010107
   6.6709661  35.6568265   2.0980871   5.2304697  35.9029627   1.7038873
  51.8021443  11.4959875  57.4821887  51.9964342  12.3570839  57.8523115
  50.8657525  11.3737837  57.6386155   0.9590400  37.9527680  59.5971704
   1.2400854  38.4250847  60.3808559   0.0706852  37.6595894  59.7999063
  54.7190380  21.3395333  25.4864430  54.5480633  21.0292482  26.3756680
  55.1679134  22.1763301  25.6069207  57.8563356  24.7693014  20.3670740
  57.4033165  24.0430999  20.7956004  57.6081944  24.6959877  19.4455099
   3.7977132  24.4138837  24.5468020   3.1215644  25.0911045  24.5261216
   4.2426419  24.4938111  23.7030721  49.5901276  69.2926669  28.0046348
  49.9698425  68.4461975  28.2402925  49.7658230  69.8528099  28.7606768
  64.2344559  19.0630356  54.4441161  64.8528159  19.4019762  53.7968282
  63.3931530  19.0499559  53.9877502  14.5055939  59.7423648  53.5842017
  15.4164387  59.6450114  53.3065055  14.0027834  59.2554664  52.9312531
   7.1532608  69.8890996  36.5410356   7.7461124  69.6659135  37.2586326
   6.4512945  69.2410206  36.5999226  64.1570795  19.6849600  34.1018943
  63.7224329  19.2667786  33.3586315  64.8260439  20.2429501  33.7052039
  76.0863400  26.1181450  41.1155462  75.4620695  25.3940582  41.0685253
  75.5758333  26.8527913  41.4560032  14.6435415   2.7665845  10.2075422
  14.7132456   2.1638195   9.4672370  13.7038052   2.8277103  10.3789771
  35.5393387  46.3756549  53.2822362  36.2596203  45.9459734  52.8209291
  35.9673573  46.9002401  53.9588825  28.8239039  10.1450792  48.7896566
  28.1147087  10.6309811  49.2105786  29.6160687  10.6312386  49.0184681
  75.2883053  47.6029158  19.7995973  74.3704271  47.3516369  19.6966815
  75.6127548  47.0416832  20.5038571  34.7943616  44.1660452  28.8130331
  33.9226651  44.0407896  28.4379482  35.3710771  43.6390305  28.2599616
  39.8729778  71.5550446  41.1784104  40.4136444  71.3138723  40.4262547
  38.9749695  71.3916516  40.8900932  38.3835268  34.3875599   4.6565187
  37.5393534  33.9715600   4.8312908  38.2342792  34.9106336   3.8688952
  75.2121258  24.1993642  34.9784470  74.6226120  23.4488463  34.9047685
  75.0970697  24.6759200  34.1563249  62.1714878  35.6745481   4.8682585
  61.4309216  35.3443217   5.3769320  62.0244789  36.6189814   4.8166478
  22.5718641  39.6898341  12.0288885  22.1426249  38.9887142  12.5192142
  22.0432615  39.7864652  11.2367535  66.7192411  43.6577845  11.2700272
  66.6430616  43.4555435  12.2025132  65.8154869  43.6818981  10.9555697
   4.9954392  64.0264439  52.9771755   5.9189106  64.1702389  52.7703832
   4.9666763  63.9918422  53.9333169   4.1085650  45.3784102  52.2275946
   3.8799215  46.2387108  51.8756918   5.0551582  45.3120875  52.1019111
  22.0838774  18.8823572  26.2825469  22.7060211  19.2992655  26.8786697
  21.6976345  19.6086517  25.7931165  67.7095890  71.1650085  10.0974047
  68.3129501  71.8843222   9.9109316  68.1648493  70.3833008   9.7845036
  26.4860333   9.4653908  46.8709890  27.1691263   9.5235125  47.5390009
  25.7569206   9.0286938  47.3113565  65.6103611  23.6339355   9.9606103
  64.7934818  24.1169190  10.0857949  65.3687429  22.7169061  10.0906503
  36.3779092  17.3974609  26.6742444  37.1199059  17.8279507  26.2495685
  36.4195442  16.4914012  26.3683772  58.1730223  13.4727573  22.6485157
  57.4956274  14.1003418  22.3965120  58.3671474  12.9935205  21.8429852
   7.4928808  49.3733215  37.3599839   7.9614019  49.0937328  36.5735054
   8.1776762  49.4868565  38.0190730  43.4892511  65.8370829  14.7996712
  42.7263880  66.3404703  14.5152915  43.5342216  65.9835768  15.7445252
  39.1175556  35.2309132  19.2911589  38.4346056  35.8524585  19.5431352
  39.8943973  35.5220771  19.7686255  75.6134224  43.5414839   2.6077172
  75.4138899  44.4730759   2.5152293  74.7595644  43.1097603   2.5800616
  56.0693789  47.2914839  16.5203154  56.7122078  46.6616583  16.8463862
  55.2377796  46.8179846  16.5420687  33.5794115  28.8676548  12.6228666
  34.3057370  28.9644599  13.2387507  32.8604960  28.5230494  13.1526196
  72.9884434  19.2942798  27.8168607  73.6449862  19.6756566  28.3997321
  72.1655130  19.7053444  28.0815101  42.9379749  37.0813560   0.6699079
  43.6567974  36.6747427   1.1538370  42.8632355  37.9589987   1.0445948
  49.6116161  40.6126118  40.7631159  50.3993368  40.1655912  40.4534483
  49.9261284  41.2090635  41.4424992  32.8860116  69.6503353  21.4657450
  33.4836102  69.1154861  20.9432077  33.4596777  70.1680708  22.0306230
  45.6182861  61.4782667  52.5359535  44.7959566  61.8155384  52.8912735
  46.1872673  61.3813210  53.2995605  61.9253017  57.7533841  59.0396667
  62.6344157  58.2800316  59.4084906  61.8079282  57.0382046  59.6649464
   9.8149944  65.1831770  55.0583194  10.3995491  65.8417201  55.4336164
  10.4023243  64.5144462  54.7060726  26.8353998   9.0723268  14.0049243
  26.2907469   8.7004510  14.6986818  27.7032768   8.6974374  14.1548574
   3.4315395  49.2421722  12.8606808   2.8124094  49.2076731  12.1314883
   2.9589033  49.7018147  13.5546362  30.9081305  11.8683735  55.0719140
  31.1384953  12.7879873  55.2041058  30.2560509  11.6851965  55.7482771
  40.8029985  53.3409834   1.3316272  41.1582756  52.7073383   0.7083292
  39.9142671  53.5114098   1.0196195  13.3714796  58.5655999  35.0179986
  13.8720347  58.8363075  34.2483286  12.8834988  57.7950692  34.7274975
  17.0777441  68.9589214  60.5948719  17.2738243  69.1111922  59.6704266
  16.7062641  69.7865009  60.9003943  40.4191053   1.5152017  31.7308811
  40.5261219   2.4415008  31.9470982  41.0600031   1.0651771  32.2812966
  40.5365979   8.9316694  59.9943686  41.3741910   8.4921018  59.8479128
  40.5041742   9.6146337  59.3244934   8.8044452   3.3390371   3.4550667
   8.4898734   3.2005445   4.3484285   9.7431015   3.1571952   3.5007712
  74.7944796  26.4357225  53.3535337  75.0231230  26.6674272  54.2536879
  75.4534447  25.7903615  53.0975819  56.7168629  67.8366995  50.0575161
  56.1952555  67.5827599  50.8188772  57.4881005  67.2710705  50.0961161
  24.1741943  66.0397196  50.2823782  24.0594697  65.0895452  50.2670431
  23.4433627  66.3775969  49.7647333  32.3228979  11.6820947  38.1106830
  31.5785872  11.5632478  37.5206757  32.7215272  10.8139650  38.1712532
  47.4232494   3.8961402  32.6494956  47.9187691   4.5502368  33.1422949
  47.5535929   4.1377584  31.7325091  18.7960904  33.5594503  44.8408747
  18.4426480  32.9226343  45.4619837  19.3163496  33.0361024  44.2312288
  48.8686168   7.1294347  31.3020635  49.4008505   6.3422338  31.1868572
  48.4349811   7.0039598  32.1461296  60.1232945   7.0044589   2.8497334
  60.9977387   6.7177940   3.1131812  60.1502656   7.0071626   1.8929168
  56.1859762   4.0736476  26.6762805  55.4999125   4.0204231  26.0109138
  56.6499626   3.2391159  26.6091847  31.7613792  53.4587336  39.3565607
  32.4456215  52.9411077  39.7809529  31.1841488  53.7252665  40.0721025
  52.5163580  67.1599555  48.1596998  53.4077026  67.0336198  47.8344683
  51.9739009  67.1771741  47.3712365  13.7016344  24.7183895  17.4469209
  13.2444429  25.3516912  18.0002153  13.2442784  24.7599483  16.6070807
  63.6962366  29.7392392  30.2077627  63.0376720  29.3831801  30.8042073
  64.2376697  28.9860463  29.9715757  21.8004513  12.6215172   6.9310570
  21.2287951  12.4804401   7.6857316  21.9222212  13.5703242   6.8968761
  66.0598546  40.3020620  28.1943059  66.6921109  40.7675171  27.6467323
  65.2070773  40.6233692  27.9014516   9.1990089  65.6548262  28.9402032
   8.3995581  65.5570650  29.4574594   8.9566934  66.2563419  28.2361484
  39.4272197  24.9893013  56.2069646  40.1714755  24.5340029  55.8132420
  39.1271103  24.4022146  56.9008628   5.7851409   7.0029298  23.4260511
   5.6258690   7.8899232  23.1033921   6.6206288   6.7513219  23.0324960
  63.2510674  44.1480350  25.7598114  63.8389027  44.8687124  25.9863114
  63.2903767  43.5606432  26.5145683  60.6323528  30.5854702  55.1657820
  60.5245018  31.5056086  55.4065084  60.9552968  30.1655865  55.9630537
  24.7733009  39.6472565  58.6999018  24.6711028  39.2021385  59.5411260
  25.6900442  39.5056072  58.4637899   2.8988541  62.1930762  42.9828691
   3.7361563  61.7293360  42.9727173   2.7121413  62.3299947  43.9116430
  16.7776621  14.8210112  47.5237946  17.3193849  15.5939404  47.3645667
  17.3295343  14.2470471  48.0550520  18.3647633  70.1802921  44.7153473
  18.1047821  69.5932007  45.4252577  17.9348695  69.8220921  43.9387417
  29.5702052  48.3244991  14.4704187  29.9082851  48.6587906  15.3011918
  30.3414249  48.2580233  13.9073622  50.5576968  71.3717175  38.7251496
  51.0917759  71.8121290  38.0640650  51.1751652  70.8157539  39.2004061
  35.4065204  55.1695728  21.9470358  35.3407812  54.2165613  21.8863702
  34.5901871  55.4908228  21.5641117  28.8517237  53.5658169  51.8692780
  28.0333352  53.5525751  51.3729954  28.6053085  53.9083719  52.7284431
  47.0100128   6.7324058   3.4392381  46.7079341   6.2268678   4.1938308
  47.8916871   7.0174352   3.6793250   0.1385705  41.8643427   7.8815842
   0.2184979  41.6312981   6.9566339   1.0382973  41.8601799   8.2082433
  51.5804887  55.7498264  18.2936919  52.0982480  54.9521351  18.1848538
  52.0930314  56.4296055  17.8561604  35.7715774  44.0512276  10.7631552
  35.5218363  44.2237520   9.8553580  35.7279301  43.0986786  10.8466768
  26.9287599  20.0361219  60.8479886  26.8779839  20.7895580  61.4361951
  26.0755456  19.6101109  60.9302547  73.3444011   4.0029136  44.0528297
  74.2760431   4.2175237  44.0057421  72.9023373   4.7773496  43.7048912
   6.1300558  64.3704510  57.8640604   7.0292461  64.6982527  57.8794050
   5.6415832  64.9853802  58.4113216   6.4902842  10.3842203  18.7501049
   7.1064662   9.6643201  18.6148512   6.7109525  10.7289926  19.6153593
  24.5975566  52.6456499  31.0348177  25.3876710  52.8935194  30.5546999
  24.9171042  52.3598051  31.8906283   3.2027259  26.7657328  48.5577726
   3.7101847  26.5350604  47.7796268   2.8102592  25.9399891  48.8412380
  10.9021568  40.8891296  22.1908903  11.7553222  40.9654045  21.7636633
  10.7639825  41.7415810  22.6037717  33.8508595   8.8302866  38.1586174
  33.6980248   7.8920570  38.0463461  34.7996104   8.9080969  38.2588605
  39.4609261  51.4658165  40.0965786  38.6730576  51.9898176  39.9519610
  39.8782134  51.4183235  39.2364359   7.4684530  36.1466312  10.4168272
   6.5164042  36.2443352  10.3998291   7.7319586  36.5145445  11.2602949
  57.9256284   7.9104940   5.5974758  57.2922718   7.3091260   5.9892076
  58.1081449   8.5487215   6.2870979   6.5059620  46.1741018  22.8250360
   6.9981354  45.3538275  22.8588796   5.6015033  45.9043360  22.6656270
  30.8129573  56.8141476  59.1326562  30.8709240  57.5679318  58.5455574
  30.2962006  57.1278015  59.8748283  40.0716591  50.6271315  33.2682109
  40.5766916  51.1081934  32.6126552  40.6920815  50.4688168  33.9797211
  15.2994514  36.4802098  36.6711426  14.9764776  37.2453189  36.1951923
  15.9534848  36.8322396  37.2749186  58.5097027  58.5033846  46.3965797
  59.3605590  58.3545780  46.8090534  58.4717226  57.8614855  45.6875277
   6.0254198  43.6483240  26.4805841   5.5655777  43.1996632  25.7710195
   6.4682543  42.9478502  26.9596124  52.8525209  14.9635434  32.6677179
  53.5378003  15.2187276  32.0500565  52.7938223  14.0121162  32.5806904
  31.6838455  47.2458935  21.4551950  31.0442114  47.9564619  21.5020132
  32.5274181  47.6886940  21.3627505  68.7187988  16.7292464  19.1700590
  68.0590081  16.1322296  19.5228755  68.3928782  17.6023984  19.3882632
  15.0226450  54.8912287  28.9140749  15.6145597  55.3092575  29.5394731
  14.2146003  54.7492647  29.4071674  64.6754277  67.6567507  32.1511865
  64.3153763  67.7329063  33.0348134  65.2466869  66.8897200  32.1906090
  69.2219198  64.4130182  33.3154726  68.7070894  64.8447752  32.6337337
  68.7191021  63.6285686  33.5346723   3.0277452  66.5689659  33.4042192
   3.8503349  66.9967747  33.6420345   3.2338840  65.6342363  33.4086704
   8.6810291  29.3538666  34.5563626   8.7715805  30.2662969  34.2815876
   8.7350100  29.3848920  35.5115366  20.7065415  33.4387159  42.1854877
  20.7992840  34.3252277  41.8365908  20.2038670  32.9703879  41.5189886
  38.3092046  47.4211597   4.5835218  38.0503726  48.2947063   4.8770344
  37.9533005  46.8302727   5.2471626  19.8270929  50.5993891  30.8261681
  20.4605746  51.1712027  31.2597060  20.0711489  50.6294489  29.9010921
  29.1405940  57.5934553   1.8151559  28.2525730  57.9241562   1.6799350
  29.7067738  58.2649994   1.4347625  12.3829269  60.3538036  16.8682885
  12.4233687  61.3088894  16.9173169  11.4468932  60.1537180  16.8619907
  67.0675367  23.2053399  27.0699525  67.9632652  23.3553362  26.7676210
  67.0679563  22.2998333  27.3802567  48.2502400  14.3927232  36.5559959
  49.0195548  14.1508905  36.0403371  48.0168378  15.2665178  36.2425876
  12.4023151  12.6692335   3.8597625  11.8120145  12.9660932   4.5523337
  12.1683669  13.2031099   3.1004995  66.5887857  69.4514608   3.9227551
  66.1351287  69.1239595   4.6993953  67.4688298  69.0801477   3.9850381
  37.9512525  50.1861811   5.8634174  38.2249355  50.9414959   6.3838339
  37.9506755  49.4562292   6.4826113  58.4637499  53.8346863   6.7276192
  58.5644710  52.9936790   7.1734792  57.5495636  54.0764904   6.8760347
  41.7166697   4.1764442  19.8363972  41.9605433   4.1674654  20.7619643
  41.4403438   3.2785789  19.6527970   3.8951242  58.1025696   2.5663212
   4.0065205  57.3064232   3.0859149   2.9995102  58.0476856   2.2330114
  26.8475366  68.7684536  33.4220481  26.2472105  68.1303263  33.0365252
  26.3584685  69.1461897  34.1530490   2.0472768  44.0638351  27.3599172
   2.7869144  44.6088743  27.6284361   1.3646464  44.6892881  27.1168971
  75.0261816  70.0475788  14.9509883  74.6646340  70.9337473  14.9362481
  74.6412941  69.6447849  15.7293534  55.5118871  44.7930765  18.0903625
  55.3127217  43.9455700  18.4882307  56.3694119  45.0283861  18.4446371
  36.3984919  23.6744070  22.7178526  37.1730566  24.1061068  23.0782914
  35.9935331  24.3370962  22.1583152  72.5649244  36.6301608  25.4799104
  72.6889184  36.9054461  24.5715737  72.6405755  35.6763196  25.4535580
  19.2747408   2.1462862  25.7127094  19.0891128   2.8996698  26.2732363
  19.9531072   2.4557201  25.1124573  20.5393338  67.2229147  32.0881963
  20.5178428  66.2661266  32.1063805  21.4494872  67.4382162  31.8844843
  21.0872769  35.5687571  53.5283756  21.2661958  34.7064114  53.1534386
  20.7646322  36.0879397  52.7917767  70.8518874  18.3662263  56.4642191
  70.5879271  17.4677888  56.2658024  71.2295877  18.3165018  57.3423433
  17.1325064  66.9304085  41.9114113  16.7955267  67.7314997  42.3125696
  17.9227185  67.2085238  41.4483261  58.0054104  16.1121313  50.9269047
  57.9476845  15.5784742  51.7194414  58.2641184  16.9788591  51.2400866
  66.5487856  60.1207924  13.1097770  66.6515034  59.5397234  13.8634622
  66.5668988  59.5359564  12.3522329  53.0651140  49.2061281  11.2180984
  52.6237130  48.9460230  10.4095566  53.8966489  48.7323570  11.2001038
   9.0635705  43.6897564   7.7254194   9.5667922  44.1657162   7.0647699
   9.7125554  43.1524420   8.1796730  14.3927168   9.5469610  48.1903124
  13.4622657   9.5120660  48.4122896  14.4745516  10.3119222  47.6207781
  40.8775568  48.0841017   4.1968775  39.9673605  47.8742552   4.4060123
  41.3577604  47.2766685   4.3804032  45.0904209  25.7299629  61.7560293
  44.7371948  25.0177780  62.2891849  45.3651047  25.3067032  60.9426207
  10.8651292  58.0140495  32.6580429   9.9697000  57.6905155  32.5592375
  11.3443696  57.2793198  33.0410957   1.4960459  49.6696711  19.3639505
   2.1835445  49.1467094  18.9515352   0.8004098  49.0411901  19.5571673
  67.4419940  49.3876028  10.7726169  66.7131138  48.7714672  10.6995046
  67.8274035  49.2021465  11.6289449  54.0277839  36.5002847  12.4320984
  54.0734363  36.3233066  13.3716869  53.9050698  37.4477148  12.3725140
  70.4346037  40.5051279  50.3132582  70.2797776  40.0747442  51.1541080
  69.5590872  40.6603527  49.9588442   1.2189102  52.4623966   9.7586882
   0.5654113  53.0656147   9.4047129   1.6012196  52.9316473  10.5002213
  75.3588243  66.9224453  46.1400890  75.3036458  67.1810246  45.2201319
  75.5598097  67.7343988  46.6054630  67.3321170  24.3910003  24.4156623
  66.4559454  24.7556734  24.5404387  67.5028348  23.8979220  25.2181339
  59.7204793  37.3739529  29.8325229  59.5362616  36.4798403  30.1203752
  60.3791618  37.2734118  29.1453123  61.4936340  22.6765394  35.7015705
  61.6963196  22.3669982  34.8187709  62.1911955  22.3148775  36.2482357
  15.9729647  22.2957302  12.6122304  15.7554125  23.2275749  12.6360627
  15.5500149  21.9310785  13.3896466  63.0491817  53.7329721  17.5060546
  63.9630926  53.6670637  17.7829230  62.6014745  54.1336346  18.2512128
  18.5800159   0.9451142  59.8919607  18.5518206   1.1655751  60.8230001
  17.8658331   1.4509789  59.5043076  19.4770926   1.1250202  12.9827487
  19.8991954   1.7916576  13.5246503  18.5613477   1.3995830  12.9352212
  46.8384873   1.6119281  29.6428585  47.1859848   0.9149162  29.0863943
  47.1470820   1.3927881  30.5220509  21.2193408  24.9468175  45.9115601
  21.9516617  25.3624193  45.4563522  20.4410877  25.2667562  45.4552794
  72.2151440  27.9734015  15.0963783  72.1578118  28.7292886  15.6808257
  72.7699241  27.3498368  15.5650115  42.1584988  55.3527880  30.5304623
  42.5237656  54.8776293  31.2768102  42.3130870  56.2750578  30.7347870
  59.3338466  62.8064966  37.2293520  58.4140682  62.9092312  37.4736547
  59.7569633  63.6034775  37.5487733  54.8446393  28.3335376  29.8655868
  54.6941137  27.7368760  29.1323948  54.1637754  29.0002728  29.7754765
  46.6563451  15.5970041   9.7492450  45.8318531  15.1662580   9.5236200
  46.6018712  16.4544908   9.3273818  74.3185778  51.2609243  12.2950959
  74.0035889  52.1345806  12.0632803  73.7304109  50.9715319  12.9926229
  72.6955950  13.7582437  27.5147200  72.9528677  14.6632234  27.6909256
  73.2563745  13.4869997  26.7879558  73.5315920  68.5072088  30.9586930
  74.1859028  69.1940117  30.8305764  73.1332782  68.7107372  31.8049526
  69.7187364  56.8628931  22.2623754  68.8059932  56.6660118  22.4730134
  69.9490595  57.5850010  22.8469586  20.8999538  51.1117458  36.2985349
  20.7967138  50.2402592  35.9163308  20.3108597  51.6680908  35.7889438
  12.0830214  68.1618786  26.8951869  11.8993902  68.2965374  25.9654689
  12.8205621  67.5518751  26.9077539  23.7022996  36.4773488  50.1858807
  23.2417655  36.0697079  49.4524193  24.0479398  37.2947121  49.8271608
  74.5033225  12.9452658  18.2739568  74.4902808  12.3519528  19.0249836
  75.4216378  13.2007599  18.1864810  22.1721101  45.0683355  14.7407615
  21.5671539  45.2647448  15.4560816  21.6311049  45.1071453  13.9520681
  19.0599942  66.9550180  39.6718359  19.5299065  67.6980734  39.2933059
  18.1640530  67.0481253  39.3480301  13.0139387  31.7398548  13.1508553
  12.6573801  32.2322321  13.8902211  12.5744653  32.1074319  12.3840559
  20.6992388  44.6841669  34.6277070  20.7501650  45.4100943  34.0058804
  20.7511663  43.8984823  34.0834308   0.0556908  30.2805376  27.7255177
   0.1280742  29.5078278  28.2857966   0.9546703  30.4633331  27.4522901
  72.9551590   7.0863405  61.4648817  72.6156223   6.1920563  61.4301783
  72.3725904   7.5860849  60.8929561  75.1561207  58.6254120  39.6987820
  75.4387509  57.7113533  39.7279286  75.8887720  59.0898657  39.2941356
  62.5981366  13.0991912   0.3633090  63.1205832  12.9611135  -0.4267673
  62.0305311  12.3300147   0.4125710  74.6129832  57.2132587  35.6175613
  73.9127223  57.2951746  34.9701381  74.2045733  56.7619514  36.3563132
  27.7621579   1.9499055  13.4715641  27.9576244   2.6144735  14.1321504
  27.8731751   1.1168472  13.9297366  24.2884505  33.9441696  53.6304931
  24.3556178  34.8126856  54.0272323  23.9900697  34.1116348  52.7365378
  31.0917836   8.6068765  49.8784018  30.2967905   8.1064836  49.6944761
  30.7954508   9.5153371  49.9341726   0.6885275  39.5414758  13.7057793
   0.9851840  39.4163537  12.8043520   0.6805435  38.6604023  14.0797806
   3.5723316   0.5068962  44.1384172   3.5009682   1.4050428  43.8152027
   4.4888007   0.2720777  43.9928818  36.3671028   2.1638528  20.1388311
  36.6547858   1.4414159  19.5806563  35.5368709   2.4467412  19.7555268
  19.7738969  45.0227976  19.4952297  20.1417875  45.2128410  20.3582335
  18.8988984  44.6804285  19.6779716  75.4404842   3.7744943  18.2241249
  75.5077707   4.5547477  18.7744963  75.0282967   4.0848915  17.4179101
  40.1191998  21.5462399  27.8441167  40.6746769  21.7538238  27.0927286
  40.6497622  20.9549856  28.3781171   3.2159492  52.0475245  46.1620378
   3.4212551  51.1138964  46.2112713   3.8551125  52.4010134  45.5433702
  12.6613259  48.4234905  48.0591202  12.4877322  49.3403864  48.2721949
  13.6161375  48.3586311  48.0401516  11.3868904  48.3401442  20.3037667
  10.6291890  48.1001949  19.7703362  12.1378207  47.9901838  19.8243260
  29.1674376  33.6215377   6.8806326  28.7141466  34.4127274   7.1717960
  29.7261143  33.9164877   6.1615235   9.7140086  42.7014795  61.9146646
  10.5436814  42.5711838  61.4554282   9.2759216  41.8519560  61.8634575
  68.9707554  56.8184963  54.7418229  69.2754424  56.3413921  55.5136833
  68.7104273  57.6761929  55.0777201   5.5390972  34.5739985  39.0111876
   5.3263271  33.8242984  39.5669866   5.8848554  35.2302170  39.6162152
  73.5335751  60.8349657  28.4014702  74.3419807  61.2775564  28.6599779
  73.3412750  60.2433109  29.1289306   4.1488933   1.3012100  12.5659486
   4.8004197   0.8843208  13.1298133   3.3937715   0.7138253  12.5975963
  30.3539634  64.4729567  10.0490153  29.8569846  64.5471430   9.2343128
  29.7195864  64.6774530  10.7360208   3.2311711  55.3444147  45.6653595
   2.4908726  55.8892727  45.9324169   2.8355157  54.5107794  45.4109144
   9.1058129  46.7162085  19.4722354   8.9729375  47.5058746  18.9478326
   8.3389920  46.6763830  20.0437522  19.3971747  11.3186780  15.4859483
  18.5658150  11.0330430  15.8647478  19.2176043  12.1961442  15.1482618
  74.2740466  45.7280636  38.3987045  74.0298907  46.1384773  39.2282701
  74.8798858  46.3486338  37.9936337   9.9139833  26.5597860  26.1742187
  10.5827450  27.0007936  26.6981483   9.4370043  27.2711030  25.7467318
   9.4872767  36.5954947  42.2705030   9.9942821  35.9529257  41.7742395
   9.7147238  37.4370551  41.8751860  40.2107513  37.7152411  60.7006570
  40.8066285  37.4059168  61.3829171  39.6786094  38.3835665  61.1323995
  32.9002739  19.6738020  55.0990943  32.5051046  18.8024822  55.0694130
  32.4987686  20.0930897  55.8601622  69.0276086  35.2616763  40.2637768
  69.2096782  35.4189968  39.3373156  69.8876214  35.1046205  40.6535769
  75.0901425  63.3510796  55.0474224  75.0452483  64.2360035  54.6853051
  76.0102547  63.2358185  55.2847872  35.6805575  19.9064270  58.7243793
  36.4829052  19.9702183  59.2424531  34.9895204  20.2057806  59.3152157
  61.1138201  37.6814604  16.8575096  61.0135698  37.1530604  16.0656917
  61.5057373  38.4994102  16.5515900  14.4084167  19.9611771  10.4344618
  13.9878631  19.9133468  11.2929952  14.1125607  19.1732109   9.9786001
  17.2945476  33.9119339   2.7709863  16.6864347  33.6338568   2.0860744
  17.9886425  33.2529426   2.7570030  15.6225312  45.8033991  23.1494021
  15.0763047  45.1548433  22.7052855  15.0096750  46.4861441  23.4223485
  60.6966376  62.2039890  21.0528088  60.2363062  61.4343166  20.7182431
  60.8573413  62.0048094  21.9751596  62.6302314  69.5470572  34.3962765
  62.9449534  68.6521864  34.5243025  62.7806366  69.7232771  33.4675384
  36.1077177   1.1138765  48.3383179  36.6911506   1.7843381  48.6937332
  35.4165732   1.6074268  47.8967762   3.7732619  45.4791594  22.0723367
   3.4473041  44.9214697  21.3659644   3.3395371  45.1477909  22.8586626
  11.0071873   2.0349256  37.1049714  11.8407750   2.2649757  37.5153875
  10.8395159   2.7470676  36.4877439  74.9355815  51.4493465  15.4575694
  75.1238269  51.3645077  16.3922334  75.7888669  51.6110897  15.0551093
  62.8830195  12.6448655  13.8270891  63.8206267  12.6743615  13.6366796
  62.5468373  13.4813213  13.5052872  46.1735928  37.3929063  23.2563519
  46.2780940  38.3412305  23.3338547  45.6553399  37.2733060  22.4605250
   5.5558598  27.2733442  20.6814146   5.1229679  27.0828859  19.8492122
   5.4954540  28.2244531  20.7706499  27.1436394  11.3813606  34.8247031
  26.8029965  11.8306843  35.5982021  26.3993705  10.8798472  34.4918660
  16.3185549  63.6838055  34.6246743  15.7322681  64.1012096  33.9935827
  16.5481961  64.3828249  35.2369428  62.8970623  69.3346024  24.5706749
  63.3783865  70.0982809  24.2523193  63.5417604  68.8382578  25.0748968
  36.2795376   4.4201032  37.3814988  36.8125677   4.8526613  36.7144108
  36.8790805   4.2822305  38.1148291  55.4010868  60.1017332  15.5696917
  55.8001614  60.9398270  15.3360808  56.1332464  59.5632935  15.8701146
  36.5317070  19.4949476  13.0231571  37.1024322  20.0031892  13.5995233
  36.3823330  18.6759225  13.4955120  25.3506278  17.4933855  32.4691343
  25.7623695  16.8785993  33.0763745  24.4177519  17.4486391  32.6788282
  27.0364571  71.2357712  15.1280737  26.1906290  70.8192253  15.2932894
  27.6776361  70.6344843  15.5069840  50.8433426  23.6904541  54.3847928
  51.1532006  24.5754448  54.5771811  50.5083480  23.3668963  55.2210466
  10.7052254  14.7655145  22.4889398  10.4881823  14.7657243  23.4212065
  10.8201038  13.8408033  22.2699738   9.3596840  16.7833710  21.2907052
   9.3642771  17.4810946  21.9459867   9.8957062  16.0899150  21.6754532
   9.8061168   0.4800931   5.3395104   9.2356550   1.1030857   5.7897133
  10.3928661   1.0269109   4.8170653  16.3013756  69.7549486  35.6866741
  16.5759230  70.6411934  35.4512453  15.4383922  69.8693323  36.0846806
  21.1314056  66.8440008  57.6831827  21.6742299  66.0605573  57.7714435
  20.2901442  66.5177559  57.3636905  24.5098246  16.6870991  50.5492012
  24.2095030  16.2691418  49.7421400  25.3453815  16.2619940  50.7424966
  19.0156317  43.0969000  52.4228096  19.4144690  42.4321842  52.9843378
  19.5199883  43.0579567  51.6101980  75.4631639  19.7656965  37.1367002
  74.7166088  20.1237440  36.6563988  75.9162980  20.5345225  37.4828339
  19.4326353  58.1527948  36.5843272  19.7863138  58.8391304  37.1500850
  19.5942521  57.3402500  37.0637918  62.8175557  22.1745983  55.3154925
  62.9174102  21.9478861  54.3909041  62.7758396  21.3309685  55.7658062
  59.9837875  53.2857370  39.8215652  59.2915618  53.0507517  39.2036366
  60.7862341  52.9516459  39.4207025  21.4207926  53.2476255   0.9729310
  21.4116239  53.8478717   0.2273770  21.5342894  52.3814448   0.5816766
  10.4987490  40.1827908  15.6109285   9.6561140  39.7291875  15.5898786
  10.2699876  41.1117458  15.6416202  38.3896494  51.9838381  46.8949270
  38.8863659  52.7389765  47.2099924  37.5165033  52.3308563  46.7121029
  14.6279287  65.7359505  36.3002872  14.4085264  66.0323715  37.1835923
  13.9792764  66.1589575  35.7376647  52.6689827   5.2573577   2.9994395
  53.2507193   4.5011178   3.0763507  53.2569062   6.0127202   2.9988933
  34.9719834  70.1552677  23.4188771  35.8534360  70.5244255  23.4735775
  34.4198370  70.7836628  23.8841581  65.3001130  48.7835026  50.7686186
  65.4819417  47.8440094  50.7913637  64.3554986  48.8481140  50.9091949
  39.3167901  50.4737616   3.0652660  39.0303540  50.2100754   3.9397112
  40.2656174  50.3478813   3.0759284  63.6584473  40.9731531  17.9701877
  62.9704309  40.6896925  17.3680949  64.0128982  40.1595879  18.3289456
   3.4355086  26.9213390  23.2094574   4.0742040  27.6160550  23.0492353
   3.4620872  26.7853332  24.1565728   6.3417792  11.3356042  51.3074780
   6.1313719  12.0193815  51.9434118   5.5025846  10.9138513  51.1227894
  17.1790373  57.0011568  32.9736209  17.6143014  57.6670647  32.4413180
  16.3000333  56.9334078  32.6008010  53.9505291  45.2654409  33.4269762
  53.5902786  44.5567560  33.9600968  54.6743870  44.8611450  32.9486418
  17.0159757  26.3572931   2.4825217  17.7644944  25.7846498   2.3150919
  17.3727620  27.0684052   3.0147383  13.5714649  22.1078706  19.8574277
  13.4088968  23.0224967  19.6266385  13.1978964  22.0118690  20.7334824
  54.2443800  37.7693152  49.9614477  53.6249590  38.2161975  50.5383730
  54.9263191  37.4433184  50.5487442  57.9113256  19.3073694   0.8475959
  58.4227144  18.6360208   1.2992528  58.2418739  19.2963544  -0.0506510
  68.2137739   4.1995613  39.6741557  68.7618362   4.8158304  39.1882825
  68.7626516   3.9157907  40.4052114  52.9335033   0.4291908  44.8751593
  52.4333989   0.3532115  44.0625381  53.7419378  -0.0542315  44.7049570
  70.5653477  52.1920919  43.6602306  70.7536077  53.0639458  43.3128643
  69.7306585  52.2917747  44.1180420  17.8418720  46.3325024  43.8205814
  17.5682425  45.6211615  44.3996811  17.0373523  46.6050625  43.3793449
  67.2647250  42.1637074  49.5108871  67.6746309  42.7351538  50.1602391
  67.2677672  42.6778189  48.7034766   0.8523978  47.5024366  23.6664104
   1.0020398  47.9311562  24.5090461  -0.0685476  47.2425699  23.6900997
  50.4763961  68.9882231  35.7993102  50.7513809  68.6609745  34.9428511
  50.8655953  68.3775616  36.4252877  17.4592328   8.6328069   8.5318410
  16.8923503   9.1375486   9.1150320  17.9100650   8.0171815   9.1097617
  33.0155706  67.9220343  15.5275083  32.0586467  67.9376602  15.5106688
  33.2712579  67.9143381  14.6051216  39.0112495  71.0520172  30.3191972
  39.1268444  71.3547325  31.2198830  38.6875868  71.8198490  29.8481297
  42.1111869  19.0157167  21.4361882  42.5150382  18.8732091  20.5801344
  42.2440946  19.9472658  21.6116214  12.1877050  67.6559019   9.0723854
  12.4987996  66.8556929   8.6491656  11.6077220  68.0587053   8.4261626
  60.0882816  52.1926785  42.4064541  59.9868584  52.8324461  43.1111860
  59.9699545  52.7000856  41.6034794   0.7959132  69.6961355  33.4207916
   0.9422988  69.7625542  32.4771857   0.1824747  70.4038620  33.6184025
   5.3692627  70.6577301  49.6679592   6.1940712  70.1729965  49.6988678
   5.3291857  71.0056973  48.7771511  65.8243454  25.2989689  60.7181111
  66.5019084  25.9706942  60.7950753  66.2007511  24.6455399  60.1285476
  33.9106131  64.5274115  41.1649323  34.6016264  64.7693396  40.5483294
  34.3183303  64.6119165  42.0268202  33.3336460  32.7543584  19.1636562
  33.1125456  32.3059026  19.9798846  33.6133700  33.6275999  19.4383347
  63.0190552  27.9612795  57.3718224  63.4914434  27.9264656  58.2036094
  62.6643062  28.8495461  57.3348440  26.8676066  54.3703508  22.0913649
  27.0378375  54.7888851  21.2475133  26.8255448  55.0958252  22.7143836
   6.4839471  18.8227240  58.1475476   7.0404113  19.2470757  57.4944718
   6.9527734  18.0202643  58.3766506  23.3705544  62.3141718  11.5955830
  23.6291027  62.8184700  12.3669910  24.1980100  62.0367193  11.2024307
  57.4438976  68.4020353   0.5696412  57.2763931  67.4657274   0.4623815
  57.4079036  68.5449911   1.5154191  64.1018426   7.2375671  21.4424729
  64.1729652   6.4274160  20.9376645  64.8275792   7.1962205  22.0652342
  35.0470591  51.7863894  61.2423277  35.7739043  52.2385216  61.6707039
  34.3190527  52.4061728  61.2882233  28.0975223  53.4174871  29.4658136
  28.7216663  54.0824461  29.1751122  27.5747681  53.2232761  28.6878395
  38.8024437   1.8997804  12.5651479  38.1652843   1.1865989  12.6055336
  38.7675213   2.2010271  11.6572595  39.3534255  58.4137964  22.0020604
  39.0731835  57.5599575  22.3316932  38.9115024  58.5012960  21.1575031
  47.8987741  69.1501856  50.7072544  48.3481646  69.8986197  51.0998440
  47.9436350  68.4663725  51.3755512  21.8241954  64.3375731  15.1833165
  22.3519707  64.7318411  15.8777499  21.0179377  64.8534012  15.1730740
  44.1947579  19.8008100  27.5960469  44.3331205  19.8203317  28.5429931
  44.9517226  19.3257944  27.2531271  17.2526013   3.8777868  18.0442691
  16.9008237   4.5985023  17.5217247  17.1718716   4.1769210  18.9499354
  28.3546066  58.6849546  24.7309709  28.0291533  59.5302773  24.4215536
  29.2817807  58.6836433  24.4931078  28.9821946   5.8514825  13.1459117
  28.3721050   6.1006967  12.4517107  29.2085322   6.6773073  13.5737157
  56.5189934  51.8045855   4.8295692  56.7911577  50.9096050   5.0324661
  56.5616798  51.8572712   3.8747740  21.7657638  70.5437231  56.3719082
  21.8500757  69.9194527  57.0926094  20.8787942  70.4069042  56.0390472
   1.5083170  69.0076971  17.2487271   2.4209833  69.0651083  17.5315309
   1.0067749  69.3557501  17.9859805  18.7426072  17.4340002  20.6267762
  17.8746241  17.5714532  20.2473760  19.1015475  18.3154241  20.7292080
  44.9559342   1.7444173  53.9939737  44.3138802   2.3440162  53.6138725
  44.4377768   1.1538116  54.5407200  12.7449036  56.3753891  18.8485670
  13.4385705  55.7659769  19.1009068  12.8254449  56.4495134  17.8976452
   2.2425951  41.0304928  47.9100370   2.5053564  41.8331337  47.4595261
   1.3492171  40.8675051  47.6074791  59.1646147  36.4622593  18.7485063
  59.7622013  36.8347454  18.1001449  58.3937502  37.0288396  18.7171078
   8.5160172  43.7073231  23.3974028   9.3091136  43.4732199  23.8795090
   8.4999734  43.1033564  22.6549768  19.4928718  35.3997183  37.3585868
  20.3141069  35.1113486  37.7568913  18.8114226  35.0234962  37.9156494
  24.7511935  19.3299878  47.2423124  24.5167899  18.8839614  46.4284658
  25.0757146  20.1856303  46.9616127  59.1680646  11.1014903  16.4447939
  58.8246858  10.6674433  17.2257721  58.3971143  11.2588298  15.8997142
  63.4478593  44.2512655  42.8897095  63.6062646  45.1951981  42.8785181
  63.9997172  43.9074469  42.1872330  62.6823306  48.2631302  30.8659482
  61.9293022  48.3963633  31.4416456  63.2087731  47.5984669  31.3101459
  12.9214467  61.4196396  55.5050162  13.6377169  60.9607291  55.0661645
  12.5164856  60.7546639  56.0618357   1.1109209  20.6973839  32.0269179
   0.6221561  20.1834369  31.3841105   0.9605202  20.2469897  32.8580356
   4.0376843  68.0513661  21.9274879   4.8061932  68.1603008  21.3673425
   3.3979238  67.6055583  21.3723350  56.1221046  63.2401427  45.5311108
  56.5394283  63.6069044  44.7516489  56.6960955  62.5206657  45.7940149
  75.9387133   9.6599919  39.1418600  75.0378853   9.9834800  39.1320515
  75.8535265   8.7112129  39.0480876  23.7145162  23.8561249  23.7301755
  23.8921547  23.9902973  24.6611285  24.0964150  23.0005336  23.5343504
   7.0267975  11.5657425  21.1340332   7.2700828  12.4114561  20.7574534
   7.3799813  11.5890694  22.0233870  59.6433163  56.3161421   6.8337905
  59.3908811  55.4442120   6.5300792  59.8079109  56.2052584   7.7701908
  58.1798494  56.3809156  22.2223496  57.6674652  55.8778048  22.8552556
  58.3766747  55.7570791  21.5235543  74.9327624  16.8212668  33.9533142
  74.0197814  17.0121161  34.1684321  75.0086034  15.8721415  34.0514950
  50.3653073  61.2642813  11.9535351  49.5471716  61.7013836  12.1898127
  51.0464716  61.9059706  12.1547306  19.8670650  29.4737720  39.7212458
  20.0914693  29.2108226  40.6138420  20.5588007  29.0948725  39.1788721
   7.3287618  44.6781778  18.6341989   8.2060999  44.8964930  18.9486015
   7.4318051  43.8270950  18.2084334  16.0571742  34.6700406  42.8914690
  15.4091299  35.0490952  42.2976780  15.7959485  34.9780655  43.7592888
  57.1632803   2.2308270  52.1526907  56.4374781   1.6694823  52.4253348
  56.7538965   2.9053799  51.6108278  27.2080660  19.0656018  27.8045630
  26.6557169  18.8443017  28.5543418  28.0509925  18.6557448  27.9987884
  16.4475906  21.6017175  32.8551030  16.3138759  21.6991425  33.7978959
  17.3987114  21.5922141  32.7478075   7.9345786   0.7258359  35.8830452
   7.2034943   0.5386964  35.2942109   8.7138187   0.6292097  35.3356147
  21.9662499  26.4973426  26.2028909  21.4789462  26.6049099  25.3860688
  21.7317891  25.6208992  26.5080214  25.6410742  29.7999024  16.1655486
  24.8592043  30.0617933  15.6794167  26.3150191  29.6910906  15.4945886
  16.0543466  63.4617281  28.5743809  16.1161232  63.5323524  27.6217890
  16.8063712  63.9560509  28.9004707  64.2597246  14.3403745  37.4902606
  65.0612628  14.8066258  37.2528219  63.6011100  15.0286174  37.5839686
  26.5029962  53.7922930  50.5901877  26.2956070  53.5338127  49.6921853
  26.0445365  54.6236729  50.7120637  48.1316948  39.1429615  35.3499937
  48.2059407  38.1902671  35.2944064  48.0233121  39.3206453  36.2842917
   3.3705324  17.3100746  18.4557950   2.9182145  18.1433451  18.5873294
   3.1622872  17.0641792  17.5544620  15.8946395  18.6312151   6.5010238
  16.6897774  18.9294636   6.9426513  15.4199564  19.4359863   6.2930548
  67.6919550  46.9546604  24.0847635  68.2989770  46.6148472  24.7422433
  66.9700646  46.3261271  24.0777016  32.2499943  54.6199226  31.3543844
  31.8889856  53.7703991  31.6077900  32.0358253  55.1989937  32.0858502
  56.6029621  66.8306332  13.5328794  55.9346688  67.3542964  13.0908465
  56.5137202  65.9571620  13.1516767  55.4333377  61.3153172  49.5535564
  56.3803136  61.1846924  49.5045185  55.2514958  61.4008188  50.4894257
   4.6934325  13.2950258  10.8305442   4.1180554  13.9724529  10.4752064
   4.9331319  12.7624035  10.0721979  18.2696736  21.9910526  19.1030252
  18.4108949  21.6363811  18.2252467  18.8796973  22.7260470  19.1653717
   8.0636722  37.3633957  32.8301978   7.6479483  38.1187034  33.2460260
   8.8733435  37.2336531  33.3239913  73.6496461  15.8606783  57.3656885
  73.4329546  15.2097002  58.0331511  73.3907664  16.6966406  57.7534757
  26.0552273  42.6743745  60.4000578  26.8304352  42.1299660  60.5375502
  25.6684237  42.3403072  59.5907285  15.6798172  57.8779364  26.7260170
  15.1073396  57.1754217  26.4178419  15.0805199  58.5526848  27.0450687
  23.6976337  29.9799585  24.4936991  23.9027262  29.4996381  25.2958584
  24.5442605  30.1006794  24.0637207  15.8143497  58.4049654  21.1800838
  14.9620831  58.7037802  20.8629394  15.7928264  58.5757065  22.1216869
   5.8763117  20.9415531  26.1931443   6.3987148  21.2644172  26.9273710
   5.1506394  21.5619612  26.1244011   2.4736194  32.0116949  24.5798397
   3.2986438  32.3725271  24.2552352   2.0402779  32.7509212  25.0064468
  26.6481686  32.2573090  16.8131781  26.8592954  32.0980024  17.7331126
  26.4437270  31.3910961  16.4608824  64.3546236  43.1138229  28.0638647
  64.4836807  43.9330292  28.5418558  65.1801384  42.9747200  27.5997448
   1.0355837  13.2078230   4.3401802   1.0481064  12.2507262   4.3338192
   0.5656721  13.4358811   5.1423049   7.5602406  71.1659479  18.4770238
   8.4917355  70.9555578  18.4115660   7.2428918  70.6254959  19.2005110
   9.8034787  13.0299067  29.2891455  10.4397309  12.3384178  29.1067767
   9.3146729  12.7115417  30.0480556  16.8128836  27.2064567  12.2611344
  16.6966820  27.9504466  11.6701984  17.2339714  27.5792789  13.0356801
  34.2625130  71.3709712  40.6555180  33.6768795  71.3241648  39.8998241
  34.9341483  70.7121443  40.4792122  30.5090165  38.1006408   4.7494787
  31.3203597  37.9913402   4.2534870  30.7900143  38.1346273   5.6638730
   0.2960311  40.9918404  45.6445265  -0.1792416  41.0517597  46.4732313
   0.6765150  41.8617487  45.5231857  10.2015579  37.0395708  34.5009875
  10.4210937  37.6824975  35.1752853   9.8694795  36.2854743  34.9881148
   2.7455450  67.8954696  61.3307858   2.5194169  68.3591246  60.5244854
   3.2747437  67.1528768  61.0396863  53.8733983  24.0136123   7.6217586
  53.7781668  23.0614185   7.6439202  54.1636872  24.2045927   6.7298561
  16.3973582  23.6412024  50.5150795  16.4086163  23.1421590  51.3318157
  16.8907940  23.1012583  49.8976517   8.6570734  56.2803078  22.7246499
   8.7523133  56.1433649  21.7820954   8.0508560  57.0172739  22.7995563
  17.9464532  66.7099118  44.6670775  17.3169918  66.6640782  43.9474193
  18.0363477  65.8046007  44.9646751  54.2218685  36.1430216  36.9753766
  54.0484977  36.6845179  37.7454138  54.6480608  35.3601122  37.3241520
   0.7440061  37.3544788  15.5181730   0.8939005  36.4099264  15.4784060
   0.9964391  37.5997829  16.4083052  11.2078297  32.2427177  10.9791112
  11.2884796  31.5177274  10.3593409  11.0440016  33.0097604  10.4304397
  61.2704993  20.9035317  39.7665052  60.8679331  21.7702404  39.7118787
  60.5944050  20.3495756  40.1567129  16.8255508  28.6068821  43.1333733
  16.3728809  27.9415894  43.6517429  16.1285818  29.0455866  42.6455164
   7.6674604  29.2833877  13.0926359   6.7777002  29.5793581  13.2848835
   8.1051350  29.2716408  13.9438319  26.2055445  14.6339893  14.1566837
  27.0833039  15.0134099  14.1992223  26.2777805  13.8088548  14.6364403
  59.7016395   3.3111993  60.4165159  58.7650741   3.1636516  60.5480691
  59.7811485   4.2581907  60.3019730   6.4300907  19.8238969  15.4215157
   5.4906696  20.0069976  15.4075921   6.7384201  20.2158451  16.2385488
   0.5322422  33.9654374  15.3982377   1.4517778  33.8029432  15.1878047
   0.0970464  34.0157413  14.5471752   4.0956196  37.8041697  11.1187005
   4.1091412  37.0364118  10.5472147   4.8463064  38.3264446  10.8359814
   8.2487184  53.9727831  16.8321013   8.2219058  54.3378830  15.9476721
   8.8046074  54.5771742  17.3239660   3.6304864  14.6964073  17.6590359
   4.4559535  14.2378151  17.8156531   3.7727329  15.5737376  18.0144072
   8.0721366  62.6184607  16.8898153   8.1980884  63.3303404  16.2624490
   7.2368574  62.2236204  16.6395283  75.2241002  41.1459160  25.5981660
  74.7443421  41.9199133  25.8931136  75.2998544  41.2577772  24.6505475
  15.1803888  60.4627680  50.1561455  15.5252446  59.7159671  49.6666602
  15.9028573  60.7313776  50.7237009  75.2873034  18.6892390  42.3078299
  74.9462855  19.4314432  42.8068972  75.7471927  18.1557894  42.9560280
  13.3505356  71.1009026   7.2283924  13.8919079  70.3473806   6.9931239
  13.0658805  70.9208965   8.1243831  46.6500208  68.1055912  30.6947875
  46.0881776  68.4365376  31.3955283  46.7721043  68.8547923  30.1116705
   2.1431292  15.0053803  54.7302381   1.9428838  15.0542227  53.7954930
   3.0848611  15.1686636  54.7822926   3.8556200  42.5382280  29.4649386
   3.9865962  43.3567381  29.9435997   3.2176393  42.7573633  28.7858272
  45.8132839  57.4933624  19.7689199  46.3352728  58.2845831  19.6357799
  45.7981920  57.3733425  20.7184458  34.5382137  56.0567212  48.3407394
  33.8923211  56.5659380  48.8303844  34.9075950  56.6782236  47.7134255
  58.0803752   0.5213204  57.6169513  57.9978061   1.4458171  57.3830233
  57.2165567   0.1505271  57.4365042  52.7458429  63.0163479  40.7775974
  53.3600736  63.3495617  41.4317560  53.2811427  62.8742123  39.9969053
  55.5856306  54.4273218   1.6353855  56.0940034  53.6183878   1.5769400
  54.6953819  54.1369232   1.8337741  71.0498580   6.3657486  10.8080566
  70.5872160   5.6964159  10.3038859  71.7528197   5.8895195  11.2499642
  10.2933300  68.8461256  13.9185095  10.8395255  68.5239792  13.2014859
  10.3686976  69.7989941  13.8675523   3.1920921   9.9236909  36.1402416
   3.3833086   9.2953817  35.4438996   2.7738845  10.6585638  35.6915665
   9.9402732  32.5694394  19.9075186   9.4907296  32.8230047  20.7136488
  10.3888595  31.7536259  20.1298904   0.6548361  57.7935076  22.4351978
   0.4270529  57.7139282  23.3614898  -0.1882011  57.8189564  21.9825697
  60.1533651   2.5410515   1.2457159  61.0228586   2.9394943   1.2075381
  59.6093988   3.0995110   0.6903319   6.1931449  49.6798849  15.9313750
   6.6107637  50.4910564  16.2208998   6.4340580  49.0356302  16.5970552
   6.4980936  32.7983809  13.7358403   7.0763201  32.7078605  12.9784155
   6.7691839  33.6189580  14.1474128  17.9812098  12.3873401  48.5270405
  17.4854469  11.7547333  49.0469074  18.6847711  12.6760566  49.1083145
  49.6548773  60.3107047  51.0366170  49.4784380  61.2364983  50.8692638
  48.8623906  59.8594617  50.7457964   2.4770731  30.2078557  39.5706344
   1.7950225  30.4996037  38.9657187   2.0530617  30.2101064  40.4287958
  38.7515069  69.9093866  46.4732365  39.0513636  69.0003728  46.4696912
  39.0898038  70.2763724  45.6564693  70.2861774  51.3982201  59.5936584
  69.5550400  51.2463903  60.1925087  70.1995504  50.7126904  58.9312553
  12.9992568  24.5881033  26.5473723  12.4209452  24.7607660  27.2903228
  13.8695276  24.5013046  26.9363832  17.4466240  68.2832956   8.5273683
  16.5645707  68.4187794   8.8735729  17.9795420  68.9488173   8.9624667
  21.8140316  25.4651761  34.5477509  21.8261981  25.9398341  33.7166166
  22.6691461  25.0373030  34.5917511  29.7584343  39.7353315  17.7709699
  29.4388390  40.5815697  17.4579620  29.3920279  39.0989327  17.1569896
   1.2564003  31.1157942   1.8925445   1.3674021  31.7558384   1.1895129
   0.5569892  30.5398107   1.5838386   5.8360261  33.1321478  53.3446503
   5.2106011  33.8567448  53.3504820   6.0462087  32.9897380  54.2675686
  65.6316543  55.2110243  26.4795923  66.1335206  56.0243845  26.5325427
  64.9194467  55.3276730  27.1083879   9.2908210  40.9986067  26.1125278
   8.9692324  41.3584805  26.9391489  10.1885438  40.7264376  26.3029194
  39.6123862  52.2034693  17.7144635  39.5519900  52.8545237  17.0153868
  40.2207661  51.5458298  17.3773873  54.5773888  35.1663494  45.2560949
  54.5093370  35.5085421  46.1474419  54.3085623  34.2506433  45.3299046
  58.0443370   3.3263294  14.5901525  57.4717295   3.9986030  14.2208219
  57.8377830   2.5356046  14.0918314  37.0886303  25.1518789  58.2462225
  36.4999211  25.3816954  57.5273094  37.5251818  25.9737173  58.4703560
  75.6908414  45.6709957  16.1131048  74.7997085  45.8673096  16.4021981
  76.2268026  45.7790661  16.8987882  35.4974497  28.7754837  59.0895371
  35.3147162  29.2072979  59.9240286  36.4525402  28.7261692  59.0494649
   9.8847497   5.1262299  28.5767941   9.9235809   5.6891266  29.3500141
  10.1615298   5.6910101  27.8552369   0.9048656  45.3226137  33.3230972
   1.2945463  44.4677162  33.5061979   0.0273628  45.2719831  33.7021184
  70.0056875  34.5144939  13.5407066  69.9688613  34.3805552  14.4877744
  70.5078524  33.7685370  13.2126641  17.5815964  56.0498619  15.8243728
  18.5074317  56.2186241  15.9992445  17.3589301  56.6501951  15.1128614
  69.1714693  56.8773365  60.2731133  69.3752791  57.7996182  60.1179000
  68.2228256  56.8596768  60.3995816  65.6220175  56.3254380  56.8948684
  65.3538443  56.8295955  57.6630766  65.8081127  56.9861793  56.2277696
  46.2410906  20.7524553  53.2294241  45.6107411  20.9275452  52.5306861
  47.0748330  20.6314007  52.7750562  53.0546198  14.4679562  29.0312032
  53.4358138  14.9500958  28.2974032  53.7977765  14.2746559  29.6026782
  60.9795284  28.4368753  11.7778051  60.2996099  27.7634716  11.7560732
  60.7843411  28.9490795  12.5625217  65.6717658  51.4696741  26.4248705
  65.1536322  51.1406469  27.1593833  65.0273705  51.6582394  25.7426476
   8.0899990  32.1553373  11.8929517   8.5520792  32.2193718  11.0571206
   8.2077891  31.2444806  12.1625793  74.8312436  66.6623878  19.6243525
  74.6148730  66.5232658  20.5463409  74.4849163  65.8897877  19.1778362
  75.2301640  41.6263628  12.1643841  75.7818327  41.1143923  12.7558053
  75.2664884  41.1530924  11.3331652  30.2049732  26.5467715   0.7726392
  29.5687771  26.2486243   0.1225664  29.7420812  26.4821196   1.6079727
  65.1604139   7.0683853  44.1535139  65.7836401   6.4554349  43.7634945
  65.6778204   7.5652353  44.7872782  51.5103960  52.2401047  24.2229867
  51.5643072  53.0136728  23.6618161  51.4477015  52.5922012  25.1108670
  12.0916212  23.1599355   4.6300760  11.9435394  24.0995479   4.5231599
  11.3160098  22.8466511   5.0953847  56.7052507  24.9407458  33.3781838
  57.5459242  24.5163798  33.5496783  56.1010695  24.5354891  34.0002489
   4.8458779  31.1071944  43.2148504   4.4766012  30.8536863  44.0607786
   4.7308308  30.3343105  42.6619959  12.7152908  37.9993653   9.8798567
  13.2337177  37.1985912   9.8009497  12.9967082  38.3861566  10.7089686
  32.5074196  15.5479777  37.7246761  32.0674872  15.6702471  36.8834019
  33.3465886  15.1460743  37.4999499  33.6143875  53.2058048   5.0731570
  34.1860247  53.2368565   4.3060198  32.9119277  53.8246441   4.8736140
  73.7224448  23.8931322   5.3829867  74.5042639  23.4538651   5.7177055
  72.9975623  23.3271956   5.6484938  24.9469376  38.7488675   3.8695976
  24.3513179  38.7049747   3.1215724  24.9169111  39.6647215   4.1462559
  45.0785101  34.2449442  29.5029668  45.8530993  34.7792784  29.3276743
  45.3958023  33.5418669  30.0697450  19.0622067   8.7077320  50.0157928
  19.3980086   9.4275224  50.5499935  18.1929922   8.9990836  49.7404480
  71.7810461  44.5627642  37.3546624  71.0688856  44.3100691  37.9422045
  72.2949007  45.1937532  37.8586841   4.4830847   9.3945712  45.5422401
   4.2347297   8.7102205  44.9207735   5.1184827   8.9733344  46.1210823
  20.9274006  60.7872391  18.2480025  20.2305555  60.1315975  18.2202613
  21.3363147  60.7388639  17.3838949  15.5706656  19.5388043   3.8174927
  15.8333659  19.3645835   4.7213000  14.8950064  20.2129221   3.8901633
  25.0644970  38.7481642  21.0851264  25.6799889  38.1789017  21.5470171
  24.4498253  38.1460428  20.6657648   7.5526631  24.3595958  17.7699065
   7.8530014  25.2051258  18.1032300   8.3134604  23.9971614  17.3159647
  37.4714994  62.4290419   8.7872320  37.0373511  62.1395206   7.9847819
  36.8129683  62.9569721   9.2387408  13.1595981  35.8189893  29.0689898
  13.9381933  36.0050774  29.5937705  13.5038495  35.5262733  28.2251668
  15.4489672   6.0859448  23.0504298  15.3150809   6.8445981  22.4823189
  14.6708643   5.5451250  22.9151464  60.3308976  43.4804440  30.6056881
  60.8933902  42.8873587  30.1076055  59.4827485  43.0377293  30.6353045
  41.4553023  65.6273198  54.3800745  41.7416252  65.0366044  55.0767128
  42.2651113  65.8969903  53.9468090  45.3685570  17.2494638  19.3091965
  44.5475721  17.7379346  19.2491126  45.9101057  17.7639353  19.9077606
  13.1719935  22.3253894  24.7653198  13.8983333  22.0547724  25.3269506
  12.6564574  22.9199028  25.3103065  69.3720258   4.2793528  56.4788423
  69.0254617   3.4769646  56.8690977  69.5594323   4.0423790  55.5705724
   3.9344898  25.6539726  10.6070900   3.5062137  26.1961865   9.9446589
   3.4934020  25.8823919  11.4253187  66.8388558  33.0694595  55.0269220
  66.7014599  32.1752564  55.3395770  66.1312366  33.5745874  55.4273663
  55.3013396  57.6517725   4.7952670  55.4086924  56.7027092   4.7321609
  54.6983552  57.8723383   4.0853417  24.0362883  58.7379313   1.1702360
  23.3202672  59.2872143   0.8511297  23.6724520  57.8526402   1.1812029
  17.0163251  58.8182044  60.8244101  17.2255976  57.9094076  60.6087054
  17.6818902  59.3322467  60.3672303  45.1814008  20.8662891  21.5822291
  45.5743527  21.5581727  21.0501385  45.7696342  20.1187491  21.4754701
  56.8088614  14.4622556  25.0959134  56.7783582  14.0682832  24.2240834
  57.5603902  15.0542680  25.0650573  14.0417957  56.6733122  41.9886541
  13.6240399  56.2621737  41.2318993  14.5005417  57.4313641  41.6265154
  45.6360149  51.2208176  29.7328115  44.7176600  51.1428356  29.4744158
  45.9090757  50.3228140  29.9205971  72.4381214  55.2698326  28.4840655
  72.4931836  56.0952139  28.0024552  73.2899922  54.8553467  28.3471441
   6.8334520  18.4552065  54.5052902   7.5275815  17.9651562  54.9460457
   7.1798146  18.6258808  53.6294273  28.1459066   1.6234342  21.4293957
  28.9183750   2.0845882  21.7562890  27.5969973   1.4971391  22.2033334
   8.4619058  47.1197811  51.0388486   8.8350547  46.4885822  51.6541378
   9.1889203  47.3481289  50.4595892  67.5877882  42.4754826  52.8359304
  67.6925314  42.7970139  53.7314061  66.9544924  43.0736319  52.4392120
  68.6652780  26.7980591  51.5437047  68.5528791  25.9726540  51.0722176
  68.6783052  27.4657503  50.8579580   1.7443312  15.2028242  61.0301570
   1.0171688  15.4674164  60.4667222   1.9595469  14.3155542  60.7426322
  65.0430727  71.0593987  16.1455381  65.2901268  71.9839478  16.1656880
  65.5789042  70.6533957  16.8269169  73.3141477  45.9392023  16.9489479
  72.6082557  46.4176655  17.3837149  72.8785262  45.4542780  16.2480104
   2.5528563  28.5011498  51.2880651   1.7451489  28.5416523  50.7760111
   3.0400575  27.7693812  50.9094063  43.6060762  20.1666188   4.5534238
  43.7955451  19.2423666   4.3918985  44.2315459  20.6389213   4.0039223
  13.1849515  43.2995033  43.5924101  13.2290745  44.1085863  44.1019869
  12.9230917  43.5822630  42.7162218  26.8108416  59.5565176   1.3657935
  26.0966945  58.9686298   1.1195990  27.0357704  60.0128078   0.5549693
  53.7985236  50.8333317  48.2352082  54.7239659  51.0658661  48.3108310
  53.7528503  50.2835671  47.4529699  71.4766491  58.6537949  59.9792361
  71.8927873  57.8584686  60.3116778  71.1335457  58.4039227  59.1212887
  29.8549318  27.4015474  26.8257380  30.7125926  27.6398683  27.1776676
  29.9179959  26.4614058  26.6572595  46.6551685  70.0644541  28.6427379
  47.2949457  70.5348158  28.1082487  46.0641909  70.7456017  28.9637041
  32.6038027  45.2029276  19.2368078  32.8661513  45.6789637  18.4489012
  32.1151590  45.8443451  19.7526062  36.0760605   3.0763523  14.0871739
  35.4190063   3.7546531  14.2434478  36.0738897   2.9550067  13.1376994
   3.4287128  16.1408579  21.1963415   3.8608462  15.2964664  21.0679054
   3.6810353  16.6578627  20.4313111  66.3337553  32.1974635   6.2727749
  66.1428577  32.2462988   5.3360760  65.6995475  31.5668726   6.6139036
  22.8794196   7.9697076  45.8474588  22.8203439   8.8961641  45.6141853
  23.1250652   7.5326148  45.0320816   5.3359329   9.0446989   9.7299087
   4.7784769   9.3528787  10.4444039   5.7157766   8.2292882  10.0571001
  19.6406126  54.8848963  43.4749413  18.7316489  54.9722481  43.1879091
  20.1556134  54.9912262  42.6751280  59.7590024  24.9855438  58.7879036
  59.8617513  24.8772493  57.8424157  60.2573193  24.2617527  59.1674350
  17.7808154  60.6169128   6.0123605  17.7011669  59.7512579   5.6116986
  17.3922610  61.2135935   5.3726476  26.7371845  10.2261297  24.0353179
  27.1557444  10.7759706  23.3729696  25.9800274   9.8474447  23.5886168
  42.5505132   5.4476324  59.7662956  43.4121091   5.2877871  60.1514364
  41.9698632   5.5640427  60.5183112  70.9395373  10.9309212  34.8630742
  70.2589822  11.6038385  34.8791746  71.0968888  10.7273022  35.7850341
  22.7270783  10.8977190  50.0162748  23.0427158  11.5367809  49.3773679
  22.9285467  10.0478808  49.6245901  14.2961013  22.2896194   9.3069160
  14.4122910  21.5137696   9.8553592  15.0463426  22.8457999   9.5167524
  68.3311868  30.2542996  17.6164663  68.8350207  29.5672679  18.0527842
  68.4365833  30.0722551  16.6826665  18.6751759  22.3599092  29.7797823
  18.3916664  21.4957372  29.4813490  18.5583567  22.3355428  30.7295132
  15.9861410  64.4030905  15.0635481  16.6843534  64.1450977  14.4617426
  16.1470878  65.3312635  15.2333260  49.9126673  66.3717079  11.6001320
  49.9567032  67.1549892  11.0517108  50.4900217  65.7431412  11.1667788
   0.7062563  49.3294477  11.9928157   0.6304603  50.1983833  12.3870707
  -0.1869632  49.1066647  11.7305946  43.0038404   7.5712816  24.8435450
  43.5798668   8.2693187  24.5318222  43.3609795   7.3297731  25.6981540
  33.7312531  44.5043373   4.0119433  34.4058847  44.9303627   4.5407203
  34.1755104  43.7549496   3.6153468  29.8169613  67.4862671  11.1326408
  29.0762687  68.0714083  11.2914288  30.5568647  67.9141045  11.5636075
  74.6474112  22.0034996  49.1772262  74.9914563  22.2319714  50.0407461
  75.1374281  22.5577656  48.5698501  22.4703550  53.2205391  36.6502643
  22.5453901  53.2188559  37.6045179  22.2017241  52.3287106  36.4295626
  73.7961555  27.0991254   9.3807000  72.9623774  26.9963646   9.8394877
  73.8822019  28.0432892   9.2488468  14.7108686  60.2350378  32.4399948
  14.3138111  60.5808210  31.6406131  15.6482518  60.2056456  32.2484756
  14.4564807  22.4856114  28.7754583  14.7616637  21.9311976  29.4935942
  14.8764145  22.1210957  27.9963446  11.4703238  58.3515787  12.6180398
  11.9539964  59.1530085  12.4180388  11.0361433  58.1224823  11.7963147
   9.6805733  48.1478500   7.5943649   9.9654382  47.6759911   6.8117869
   8.7248367  48.1028318   7.5665694  66.0460531  12.0373193  34.0949154
  66.2244808  11.1547891  34.4197941  66.4850246  12.0729867  33.2450557
  36.0281181  33.2402730   0.6769150  36.2759185  33.6891508  -0.1313754
  36.7521167  33.4133863   1.2786511  69.3322760  44.6444654  17.2856688
  69.9846840  45.2719450  17.5968957  68.5906923  44.7550058  17.8807032
  21.4051247  68.8740492   6.2148941  21.6919303  69.2962027   5.4051036
  20.5547523  69.2708540   6.4036858  52.5002245  29.6620241  59.1868324
  52.8367132  28.9270798  58.6741323  53.1107954  30.3774706  59.0091417
  22.2970533  61.9401932   4.7638643  21.9323611  61.0573435   4.8255819
  23.2450414  61.8078566   4.7578824   8.0968314  31.1126590  25.2509499
   8.2947755  30.7126737  24.4041562   8.2906604  30.4274893  25.8906412
   5.3141469  38.2848716   4.6245679   5.8673650  38.4764719   3.8672894
   4.6492958  38.9734411   4.6158302  55.8729643  21.8429104  31.7383961
  56.4764000  22.5349012  31.4677505  55.0043732  22.2363535  31.6548089
  38.3423567  56.1106968  34.8970723  38.8309550  56.0443592  34.0766430
  38.6706376  56.9107962  35.3073215  60.1460981  27.5290751  21.5694451
  59.5338392  27.7996612  20.8852267  59.8800969  28.0298829  22.3405933
  21.7239118  59.8931646  33.0757928  21.5551782  59.2787647  32.3614621
  22.4897289  59.5345497  33.5242915  26.7853737  24.6520305  18.0089235
  26.4012957  23.7815309  17.9043043  27.5707936  24.6345806  17.4620736
  57.0734311  32.1334616  60.3319825  57.1194476  31.3100496  60.8178962
  57.1464444  31.8739668  59.4135256  25.1122642  38.3210993  27.2435546
  24.3557286  38.3070374  26.6573048  25.7730079  38.8263106  26.7698312
  29.2160797  61.0381079  38.4422159  30.0032091  61.5787840  38.5080147
  28.7725282  61.1576128  39.2819834  32.8484726  65.8921003  19.8816025
  33.2060862  65.1424742  19.4057822  33.4863949  66.0623598  20.5746388
  66.0961414   4.0980664  54.6866540  65.2460814   3.8370696  55.0409285
  65.8864844   4.7451225  54.0131620  30.0734496  50.7044125  11.8823934
  30.6969094  50.8560085  11.1720765  30.4732013  50.0115919  12.4081600
  59.3161154  66.9938612  28.6003757  59.7068071  67.8632975  28.6879826
  59.9962950  66.4667654  28.1811476   6.1553997  39.1575360  13.8855755
   5.9393048  38.7524819  13.0456555   6.2821007  40.0836229  13.6793244
  57.3137356  35.5221758  47.6041321  56.4367677  35.8366946  47.8237573
  57.1623160  34.7772561  47.0224122  67.8618723  50.5973244   5.6988060
  67.1663433  51.0468769   5.2188319  68.6589694  50.7960320   5.2074963
  58.1293666  55.3865910   2.0056513  58.3957016  54.9709368   1.1855727
  57.1735811  55.3347731   2.0010680  41.5430737  62.1820688  29.4983721
  40.8928347  62.2633028  30.1960969  41.5752888  63.0512047  29.0986252
  69.0982152  33.9410130  51.1891440  68.2251537  34.0246168  51.5725581
  69.0130818  33.2317701  50.5519954   1.6930872  46.9052601  31.3120151
   1.7965549  46.4361906  32.1399641   0.7486580  47.0360041  31.2272072
  11.9594729   0.6093875  54.8393617  12.1613420  -0.1980695  55.3121118
  11.9183696   0.3449670  53.9203278  62.1527100  29.5795456  44.2892937
  62.8717745  28.9730803  44.1121534  61.6483903  29.1566197  44.9842946
  75.2621483  52.8671074  22.5509572  74.4871908  52.3832798  22.2653317
  75.9757218  52.2316599  22.4939632   9.0851676  66.6014576   5.0992560
   8.2779419  66.8862057   4.6708471   8.8510919  66.5243149   6.0241830
  30.9854698  68.8555908  23.4484029  31.4881706  68.5235500  22.7045798
  31.5528584  69.5166683  23.8449812  10.6239176  68.7279606  52.3019218
   9.8971987  68.5143614  52.8871441  10.9966612  69.5308781  52.6660824
   5.6873900   2.9650009  21.1417794   5.5140996   2.0362110  21.2952447
   4.9024761   3.2847846  20.6969404  24.1808820  57.3016548  26.6016531
  24.9233007  57.7671146  26.9868684  24.4604516  56.3866282  26.5733266
  22.7449322  58.4702969  28.6585808  22.9959750  57.9847288  27.8728127
  22.5951290  59.3639994  28.3502221   3.3595970  50.4955673  27.5984764
   3.6133495  49.7590113  27.0423031   2.9680106  50.0884247  28.3712173
  63.3491659  61.8663788  36.5017819  63.7304258  61.1457205  36.0002613
  62.8152108  61.4369106  37.1701217  31.8303919  23.2959056  30.7889485
  31.7229152  24.2082667  31.0577989  32.2847533  23.3459687  29.9479485
  75.7624929  35.8202624   9.1645372  74.9878345  35.3082967   9.3969703
  76.3838544  35.6491923   9.8722631  39.5954442  52.8390551  53.4489727
  39.4367838  53.7632036  53.2566023  39.3750405  52.3839569  52.6362371
  67.0083565  69.3120146  36.2588334  66.7256391  70.1496649  35.8918858
  67.7337676  69.5381641  36.8409562  33.6735237   1.6523925  54.7019754
  32.7669323   1.6650859  55.0088350  34.1970289   1.7487327  55.4975210
  39.8772430  56.7130995  25.9521723  40.0200939  56.4482689  26.8608475
  39.2027020  57.3903084  26.0032845   9.9982476  39.3680072   8.2861793
  10.1047873  39.8204374   7.4494070  10.3056157  39.9967194   8.9392316
  21.2733674  49.3413353  44.1556168  21.9556832  50.0126028  44.1643286
  20.9770894  49.2891598  45.0643158   6.2982005  70.9013653  13.9128983
   6.5924293  71.3540745  14.7032881   6.3364595  71.5678072  13.2268786
  39.2370296  28.2397532  11.4906597  38.4940553  27.6687837  11.2951744
  39.1688848  28.4081912  12.4304569   1.4402726  48.4966612   4.7075024
   1.7227165  49.2970037   5.1501197   1.8359187  48.5516500   3.8376334
  53.0533838  63.8628483  49.0071011  53.9388180  64.0699530  48.7081957
  52.7876329  64.6280575  49.5170689  68.8864255  10.1650253  46.4366976
  69.5754993  10.5536047  46.9755987  69.0088356  10.5570522  45.5720798
  72.6159719  68.6998940  33.6565757  71.7353141  68.4847689  33.9638138
  73.1976682  68.3425188  34.3275046  38.6224151  41.1773586   2.6963067
  38.7384701  40.5559492   3.4150660  39.5132804  41.4032745   2.4288097
  25.8835673  45.3040934   4.4578576  25.1630998  45.7427549   4.0053830
  25.5267096  45.0825500   5.3179759  28.4678304  20.5395738  22.6820540
  28.7084448  20.9446470  21.8488359  27.6044893  20.1582376  22.5225019
  43.0095387  28.4405494  19.1368437  43.5950994  28.4625697  19.8937237
  42.4549580  29.2138052  19.2404985  36.7562580  50.7949638  33.3647037
  37.5641060  51.2672520  33.5660911  36.0585523  51.3655138  33.6870599
  58.7358380   9.0976444  58.0476204  59.1880173   9.2651716  57.2207589
  58.2768363   9.9153915  58.2395560  69.6578562  54.0274048  19.5642400
  70.1536107  54.8406553  19.6595550  68.8393414  54.1894913  20.0332737
  31.4414549  49.8675823  30.3559589  30.5746770  49.8676014  29.9498439
  32.0366359  50.1203156  29.6501827  35.0777030  65.0047207  55.7377148
  35.6959605  64.3751955  56.1087799  34.6940923  64.5501184  54.9877739
  28.0267655   2.9408781  18.0661130  27.8386101   2.0802204  18.4404051
  28.3017131   2.7565567  17.1679711  27.0290531   3.7939779   1.1446210
  26.9657644   3.9124290   2.0923531  26.8492706   4.6615163   0.7822837
  48.6692353  33.5966316  29.5027069  49.6020654  33.3963886  29.4254879
  48.4549513  34.0563503  28.6909370  11.2990737  68.6289406  31.8331122
  10.9527850  68.6193466  30.9407973  11.9846296  67.9609299  31.8311739
   7.7752268  49.4687414  19.0208101   7.2345471  49.3900919  19.8067570
   7.3846662  50.1938057  18.5329854   3.5007054  62.7928877  11.0313880
   2.7517638  62.5289440  10.4969227   3.6973509  63.6846256  10.7444012
  68.3147705  36.2267366  55.6673143  68.4088529  35.7434908  54.8464266
  68.7389553  35.6718699  56.3218550   6.4172447  58.4058714  22.4539661
   6.5212256  59.3351364  22.2492981   5.4714477  58.2828331  22.5349689
  14.5544100  40.1781797  15.9236169  14.6749198  40.7985687  15.2047098
  15.2801812  39.5609260  15.8315110   7.7028984  22.6051736  19.8910582
   7.5148791  23.2602930  19.2189753   8.6585158  22.5792909  19.9396086
  36.4822221  37.5969902  57.5756566  36.8367684  37.1885506  58.3654074
  36.8896008  37.1173302  56.8544070   4.2338771  63.9538860  14.5640981
   3.4555498  64.5110416  14.5596886   4.9565113  64.5503521  14.3684983
  50.9681988  52.9272270  20.4852605  50.1395798  52.5671816  20.1690555
  51.4455700  53.1637478  19.6900213  56.3897693  53.0061960   9.6140957
  55.8186221  52.2417927   9.6896636  56.3990891  53.3860064  10.4926670
  10.1954067  61.1372232  39.0106440  10.9701312  60.5752897  39.0269542
   9.8580688  61.0542345  38.1187081  74.1614805  58.4605360   1.5733531
  74.7099177  58.7198591   0.8329488  74.1370727  59.2345238   2.1360052
  10.1393926  48.6914206  17.2336769   9.4850200  49.2945910  17.5861156
  10.9377825  49.2154312  17.1687436  44.0054285   2.4774686  16.4900076
  44.9074316   2.7975503  16.5029228  44.0625464   1.5863458  16.8347836
  33.8269973  51.1814690  25.2876568  34.3228483  50.5891514  24.7223926
  34.3690801  51.9683504  25.3442144  25.6353450  48.6276436   8.7549871
  26.1238432  49.1914749   9.3547338  24.7485375  48.9879227   8.7563318
  12.0860171  52.2140837   8.9902878  12.0648146  51.5673733   8.2849157
  12.5537515  52.9609156   8.6165273  34.6238852  66.0279465   0.6240134
  34.6489096  65.2979660   1.2426646  35.0560188  65.6915045  -0.1610349
  31.2486792  44.4120979  15.8095503  30.7009387  44.8115063  15.1337647
  32.0775986  44.8880053  15.7582176  25.2981091   5.0285393  52.3071814
  24.9235010   4.3614501  51.7319489  25.3333163   5.8180887  51.7671776
  30.5242854   7.2878877  31.1764741  29.7134128   7.7388231  31.4117932
  31.1703419   7.6143877  31.8027663  73.6781896  29.5489803  58.0497915
  73.5763276  30.4813877  58.2407693  72.8519428  29.1553989  58.3302198
  50.8592224  49.5403910  34.6068835  49.9597693  49.4832659  34.9293017
  51.0778236  48.6454296  34.3470883   9.2948759  34.1127268  35.4964928
   8.4995902  34.4973484  35.8650259   9.5262659  33.4114996  36.1055712
  71.4693093  57.7952003  18.4059000  71.8233362  58.5290480  17.9035425
  71.7145604  57.0193624  17.9017568  12.8341186  40.8789158  13.0699337
  13.0993402  39.9593449  13.0532169  12.6724195  41.0982704  12.1523452
  24.1713524  67.2492313  15.4436576  24.6448398  67.4131966  16.2592304
  23.2723665  67.0715237  15.7201946  28.6178350  48.3107710  22.1785760
  28.9094234  48.6288548  21.3241553  28.2128906  49.0729761  22.5924540
  38.5508990  64.1733694  29.8044538  37.6283288  64.1312456  29.5528126
  38.9773440  64.6253920  29.0764070  55.7927752  27.3181295  36.8696785
  55.4442930  27.5837827  36.0186672  55.1249933  27.5925207  37.4981785
   8.6340541  28.1407142  24.0042067   9.5779586  28.2796502  23.9269209
   8.4229714  27.5312304  23.2969546  10.5204393  70.9188318  43.4013394
  10.4073883  70.1243090  43.9230541   9.9277629  70.8039546  42.6585273
   5.1419884  51.3059473  37.7925420   5.4535365  51.8466616  37.0667315
   5.7518089  50.5686951  37.8209329  40.7351923  66.9172573   0.4023806
  41.4350796  66.9081593   1.0552996  40.8048868  66.0688305  -0.0352786
  14.6400118  39.7409034   4.3923444  15.1842618  39.2416000   3.7834764
  13.8432109  39.2186308   4.4849324  29.3742299  57.8790951  61.2229347
  29.1144466  56.9596910  61.2815857  29.4248581  58.1721878  62.1327543
  35.3967130  17.2559968  23.2140994  35.0727093  17.3221437  22.3158336
  36.2873494  17.6043741  23.1737256  32.0047825   3.7526981   2.7188823
  32.7894556   3.4054986   3.1431136  31.8465769   4.5894758   3.1559262
  66.9377846  50.3862858  54.1467381  67.2207588  49.5071268  54.3981981
  67.7440465  50.8324957  53.8877583  23.5853815  24.2236352   9.8355108
  22.7107811  24.3168354  10.2131569  23.7243986  23.2780004   9.7837603
  27.9640811  11.8688623   6.8280220  27.2285065  12.2107641   6.3198245
  27.5624895  11.2698404   7.4574155   1.2352251  55.9221363  30.7410192
   1.5494174  55.5210161  31.5513372   0.6703638  55.2568960  30.3478050
  24.5650363  47.6147652   5.9383374  24.3984318  47.2017241   6.7856127
  25.2776217  47.1014309   5.5576259  35.9928346  40.1233053  26.0001779
  35.9938312  41.0162926  26.3448524  35.5694437  40.1971626  25.1448894
  57.6721573  53.0263329  28.0889344  56.9227934  52.5612736  28.4609580
  58.2420540  52.3336840  27.7547455  36.8751001  48.8840580  31.3829851
  36.7963505  49.4450569  30.6114197  36.4442921  49.3761587  32.0818925
  37.9245615  65.0787592  12.8536856  37.6850128  65.5375099  12.0484567
  37.2801805  65.3727198  13.4975731  35.5462385  67.4919462  51.9786272
  35.7703353  67.7347064  52.8770039  35.4094816  66.5452027  52.0133756
  60.0228429  63.3876896  16.5885127  59.6052444  63.6833382  17.3974824
  60.0553763  64.1689301  16.0363913  69.9823141  29.8982430  13.7274265
  70.1045650  29.2673349  14.4368219  69.1068441  30.2565289  13.8737655
  67.3963231  67.7424192   9.9920505  67.4026448  67.9746628  10.9206271
  68.1272215  68.2339001   9.6172577  48.7472641   7.6719705  36.1791015
  48.4290611   8.1553785  36.9415283  49.6093976   7.3500101  36.4423537
  51.3351857   6.5999929  36.6535854  51.9107520   6.4831726  37.4094367
  51.9316613   6.7132179  35.9135652  59.5598007  14.4657341  34.8852066
  59.3409914  14.9437300  34.0852861  58.7123663  14.2313973  35.2635888
   0.5497408  57.1065092   4.2951307   1.1803968  57.8185701   4.1880152
   0.3833907  57.0735884   5.2371895  58.0668318   3.0375806  21.2107205
  57.4465119   3.4169666  20.5882239  57.5902020   2.3101846  21.6106606
  24.5964813  36.8498445   5.6690824  24.0898657  37.1474743   4.9134460
  24.6006179  35.8956122   5.5938584  26.3024974  60.4840040  17.2312272
  25.6080508  59.8252726  17.2383559  26.4238262  60.6941080  16.3052857
  16.2228405  68.6401415  20.4820657  16.4338565  67.7751589  20.1306295
  17.0722079  69.0673733  20.5928707  68.9089227  15.5428851  10.0479329
  68.4252220  15.2231145   9.2863476  68.2682830  16.0559952  10.5404067
  29.5295071  25.9069658   3.5074969  29.2329143  25.0500846   3.2008859
  30.4381393  25.7650257   3.7729617  10.0529993   6.6977564  57.1221981
  10.9006966   6.2948195  56.9343648   9.4105018   6.0600582  56.8111269
  50.7117487  71.2896967  44.2069642  49.8407484  70.8974361  44.1459409
  51.1479689  70.7973647  44.9023441  72.1892041  57.0781994  43.1493759
  71.9130418  57.9883957  43.2566261  73.1374159  57.1282625  43.0284643
  66.6147327  55.8367014   9.1351265  65.9271789  56.4922333   9.0177417
  67.1113873  56.1437082   9.8936212  61.9982898  54.3563032   1.8421438
  62.6633644  53.7188196   1.5822925  61.6606653  54.0245676   2.6741248
  38.1868171   8.4844200  13.5855711  38.5866451   8.3469240  12.7268124
  38.9000475   8.8150255  14.1316760  43.3088732  52.1100855  19.1267812
  42.8564882  52.9527283  19.1659403  44.2299080  52.3256731  19.2732286
  57.5445127  49.8170471  17.5834215  57.1929407  48.9392138  17.7318645
  58.4805965  49.6788740  17.4389124   5.8936083  41.8373585  23.7693143
   6.6099560  41.2066221  23.8417530   6.2732983  42.5777149  23.2960916
  49.2203760  26.0588336  19.8819375  49.4851780  25.1815581  19.6053505
  49.1963530  26.5682936  19.0719354  26.7261386  63.9724541  15.4083860
  26.8041945  64.2951775  14.5106173  26.7383909  64.7624159  15.9487891
  71.7717949  60.4288960  40.5342245  71.1061198  60.7665491  39.9349785
  71.3615695  60.4739475  41.3978910  10.4771888  68.6336231   7.1920753
   9.7703171  68.9829302   6.6493487  11.0773814  68.2239008   6.5690780
   1.0933923  63.1581163  16.1142051   1.6843008  63.4326553  16.8154097
   1.4252445  62.3023319  15.8426595  67.0170832  62.3439725  19.4564581
  66.6439283  62.5758632  20.3068781  67.9219020  62.6532908  19.4995522
  34.8407937  66.9347691  60.5817428  34.9271507  66.6002845  61.4744318
  35.2430440  67.8028440  60.6112725  39.2141426  11.0523430  56.9505049
  38.6376989  11.3861815  56.2631200  40.0777090  11.0108582  56.5396927
   8.8969910  15.4969923   5.4447305   8.4354317  15.1536981   4.6796557
   9.6426832  14.9078123   5.5588943  15.6485694  15.5478136  23.2523274
  15.3039348  15.1820795  22.4376512  15.8593845  14.7829954  23.7879086
  54.3993664  57.6481724  31.5300393  55.0389862  58.0638742  30.9518456
  53.5975122  58.1555653  31.4043093  18.0048013  52.9951906   8.3927011
  17.5732398  52.4320889   9.0352750  17.7154076  53.8796854   8.6166579
  60.4080641  19.8422853  34.9915481  60.6040799  19.0244047  34.5345116
  60.5499231  20.5237619  34.3345022  34.6514010  62.6916599  45.9829950
  35.2143049  62.7358961  45.2100706  35.1288867  63.1778812  46.6551781
  28.5976887  68.3661938   4.8916870  28.5203981  68.6126566   3.9699960
  29.3975043  67.8419733   4.9331793  59.4362246  11.2229005   9.4532114
  58.8928091  12.0106927   9.4711936  60.2307641  11.4691488   9.9268180
  66.3725448  36.7552868  53.3858053  66.9077373  37.5474182  53.4340302
  65.7525051  36.8406931  54.1100208  62.4121797   4.4194786   1.5275742
  62.2648727   4.9187843   2.3308346  63.0205357   3.7265483   1.7844489
  62.8640509  16.6296640  46.0915546  62.7389789  17.2349564  46.8224505
  63.4889257  15.9832827  46.4201168  48.2179105  15.6628934   2.1620454
  47.3978340  16.1137811   1.9610414  48.4614360  15.2320901   1.3426930
  67.7060043  32.6606790  10.2210593  66.9151222  32.8834764   9.7300428
  67.7534878  33.3219186  10.9115219  10.8376956   3.9594419  46.2811057
  10.1920462   4.6049841  46.5685705  11.6770029   4.3120344  46.5768651
  12.8154111  59.6824837  43.4977436  12.1622658  60.2633333  43.8879347
  13.6122060  59.8444557  44.0028334  19.1589653  39.6334052  44.8353815
  18.3293533  40.0129366  45.1250935  19.8120618  40.3038263  45.0359631
  22.4291182  46.1051655  25.1041508  23.1577802  45.5121422  25.2874708
  22.5618720  46.8400049  25.7030010  41.0405063   8.3797065  30.3812647
  40.7405686   9.2795125  30.5102086  41.7011380   8.2476894  31.0612416
  13.5852444   0.8482257  24.8205304  14.0212404   1.6063253  25.2096605
  13.5014736   1.0700122  23.8931537  10.1650834  34.2987680  29.6636462
   9.9377793  35.2276635  29.6222401  10.6030512  34.1967964  30.5086422
  30.8235621  58.2859707  30.7965446  30.2156830  58.7553310  31.3678718
  31.6773963  58.3930635  31.2157488  25.1934075  53.0649805  24.2649674
  25.6500125  53.2773304  23.4509349  24.3062377  52.8348303  23.9889383
  28.5545325  46.3806915   9.8425376  28.2287574  46.6667080   8.9891350
  28.5382605  45.4247141   9.7969961  75.5162037  37.2731796  48.8521127
  75.1177538  37.0686928  49.6980766  74.7960222  37.6204840  48.3258514
  39.2707849  62.7487230  49.8272467  39.1713500  63.0367184  50.7346630
  39.4201088  63.5558271  49.3347931  54.7827088  18.5273878   8.5907078
  53.8905346  18.8709012   8.6381894  55.1207244  18.6146871   9.4819748
   9.4403648  59.6929455  58.8553524   9.1096163  60.4343700  58.3482742
   8.6683941  59.3441916  59.3010664  28.0010438  59.1969395   5.5256522
  27.2166348  58.6654615   5.6615257  27.7322650  59.8633194   4.8932526
  74.9265934  49.5463037  38.7541890  75.3056376  48.6772442  38.6226773
  74.5335719  49.7664928  37.9096293   6.2470806  41.6513887  43.9835731
   6.0875404  42.3071781  43.3048121   5.6499327  41.8902794  44.6925012
  16.6565073  12.5737063  58.3278928  16.5997875  13.4072081  57.8606732
  16.2578905  11.9382397  57.7333213  24.2234076  59.5425049  51.9068007
  23.6847723  59.9248043  52.5995854  23.7017525  58.8126198  51.5730623
  72.2869137  64.7790623  15.4042208  72.1296459  65.4704666  14.7612131
  71.4308542  64.6239996  15.8034062  31.4755690  12.2345869  18.5721958
  31.7214965  12.1934740  19.4963503  31.1439388  11.3589517  18.3734119
  69.6548962  20.8478523   1.5155288  69.4402765  20.9923196   0.5939551
  68.9520942  20.2846218   1.8396827  34.2836046  57.9382086  15.5030024
  33.5297966  58.5246468  15.5670071  34.9853039  58.4874010  15.1533735
  52.4663782   8.0459936  57.0145226  51.5151072   8.1423528  56.9694490
  52.6803398   7.4451406  56.3007853  35.5395651  57.2943354  37.4494076
  36.1907673  57.9631281  37.2375584  34.8085499  57.7830935  37.8275108
  68.3211946  61.5653467  52.5965738  67.5378990  61.0273457  52.4815178
  68.1712770  62.3289490  52.0391941  13.4569943  45.5420589  50.2585745
  13.1449163  44.9819851  50.9693146  14.1288018  45.0201941  49.8197556
  75.0434362   2.4736158  23.3706069  75.5684006   2.7966777  24.1029143
  74.5929062   3.2499210  23.0380392  55.2648739  18.7116209  53.1760983
  55.1915202  19.4077078  53.8290236  55.0667164  17.9089371  53.6584536
  44.5404374  26.5479032  17.7323794  44.2013335  27.0201723  18.4927773
  45.4075014  26.9250146  17.5833333   3.7711078  52.1263170  53.4138107
   4.4102737  51.4216614  53.5194445   4.1185987  52.8458643  53.9408159
  12.3598707   9.5125881  52.5463949  12.5815166   8.6619249  52.9251705
  11.4550126   9.4143787  52.2500537  69.7418892  12.5843088   0.3217850
  69.6947395  11.6584245   0.0835855  70.6448090  12.7109758   0.6131987
   9.0799784  22.1881811  47.1439838   9.4618105  22.8072683  47.7662086
   8.1955385  22.5195924  46.9885349  47.5147281  49.1132465  52.1022073
  47.6016495  48.5091129  52.8395722  46.7439050  48.8023487  51.6274361
  69.3822110  29.6851173  58.2773677  69.2935062  28.8778797  57.7706794
  68.4870279  30.0125662  58.3648736  40.9863926  22.7730814  61.5923768
  41.3207126  21.9016234  61.8045610  41.1473871  22.8693834  60.6537401
  58.9903879  67.3067951  18.4687734  58.4881210  67.6059437  19.2267096
  59.2943716  68.1120205  18.0499220  17.2530306  32.3352018  41.3385538
  17.7510155  31.6502920  41.7848019  17.0076263  32.9449097  42.0344464
  65.7063758  68.3732605  14.1145623  65.2140760  67.8725100  13.4640861
  66.6219246  68.1514502  13.9448571  33.9965725  66.6040325  13.0354321
  33.9849591  65.6692171  12.8299773  34.8472166  66.7475510  13.4502077
  66.5441669  16.9048515  58.3821646  66.3164270  16.4895693  57.5503550
  66.8283117  17.7862326  58.1399567  40.4644060  26.7357635  15.7027400
  41.0706186  27.3678303  15.3164363  40.8343840  25.8816838  15.4793644
  63.5312974  16.3519041   3.4244463  62.5795447  16.4422170   3.3770543
  63.7640368  15.8546487   2.6403543  49.5931112   3.1857339  38.4578848
  49.3849837   3.8334409  39.1312313  48.8652217   2.5649253  38.4895849
  25.9143972  70.2069569  11.6382265  25.4200840  70.4875278  12.4084008
  25.5799317  70.7531929  10.9268975  55.6713533  67.0452356  33.2065082
  55.9791183  67.7056408  32.5857210  56.1613417  66.2552500  32.9783273
  65.8284151   1.6659681  27.3022151  66.1749756   1.3162319  28.1230760
  65.4190504   0.9134666  26.8751407  65.5544949  65.9426785  21.9193721
  66.0774452  66.7314577  21.7759013  64.7313166  66.2646103  22.2867560
  27.5596976  68.3688068  16.0364306  27.7461171  67.5950241  16.5681636
  26.7621613  68.7353516  16.4182854  49.5275914  11.5194074  26.7035675
  50.0815689  12.1255914  27.1953917  49.8699533  11.5530626  25.8103228
  35.0466907   8.2338230  21.2979984  35.8809030   8.1912223  20.8305526
  34.7920393   7.3188726  21.4173770   4.4795361  63.6501360  30.8594942
   4.6598712  63.8885021  31.7688298   4.0351593  62.8043032  30.9172201
  30.6267285   0.9430448  19.7769606  30.8009433   1.8283168  19.4573128
  31.1760312   0.8573190  20.5561590  44.2936027  29.0776292  34.4830513
  45.2394056  29.1704313  34.5973992  44.0159714  29.9094430  34.0993476
  16.4474988  56.8004799  38.2403469  15.7300079  57.3685169  38.5210013
  16.6704381  57.1118975  37.3631072  60.1724863  46.1665630  43.4360361
  60.7972336  46.0277700  42.7242374  59.3437815  46.3524342  42.9945278
  50.1381493  50.0018787  47.6175213  50.5829287  50.7043934  48.0917358
  49.6069098  49.5632792  48.2820892  21.6573676  20.1442663  47.3637629
  22.5656852  19.8445550  47.3268318  21.6208082  20.8745233  46.7460155
  30.9214247   5.0747982  61.1328045  31.0411585   4.1367403  60.9846770
  29.9764193   5.2097336  61.0621736  27.6648712  61.4059639  40.7613468
  26.8894792  61.3459253  41.3193703  28.1534195  62.1517992  41.1096048
  52.5338125  43.0035639  16.1587548  52.7483177  43.7495422  15.5986345
  52.7347326  43.3039808  17.0451033  31.6648721   3.3588544  26.5567350
  30.8661484   3.7528173  26.9075370  32.3244422   3.5116092  27.2333932
  12.4836731  38.4541631  16.1386037  11.7022920  38.8647604  15.7683527
  13.1714427  39.1119051  16.0357463  22.5824070  67.3838568  22.7819014
  22.7543187  66.4441061  22.8414464  22.2645044  67.6247931  23.6520290
  35.7180619  51.0919857  29.1464138  35.1227736  51.8400335  29.0986252
  36.4420295  51.3244867  28.5649967  17.8567684  54.3387842  33.7960672
  18.3818424  53.5642147  33.5946488  18.4924924  54.9867487  34.0997624
  31.5389323  47.1867085   5.8657753  31.6287637  47.1447563   4.9137238
  32.4339414  47.2989368   6.1860859  32.1795356  28.1782476  22.3156548
  32.9643404  28.5672895  22.7016044  31.4612561  28.4939996  22.8639340
  26.2137497  29.0774838  46.4586238  25.6297148  29.8331562  46.5226213
  25.9096706  28.4811417  47.1428351   1.4231957  34.5036650  19.4603896
   1.4315234  33.6710072  19.9324524   2.3315263  34.6335530  19.1878152
  40.4916846   2.4486772  23.7124753  41.3108825   2.7341835  24.1169882
  40.4577398   2.9213659  22.8808260  11.5827381  13.6786405  45.3601837
  10.9139978  13.1441633  44.9319792  12.2064220  13.0442373  45.7134151
  22.9299057  22.8310124  50.4190306  22.8026426  23.0156199  49.4884638
  22.4132765  23.4996811  50.8687035  52.3811126  53.7006903  46.7303419
  53.1704259  53.6059427  46.1971998  51.6601157  53.5412884  46.1212587
  59.8399019  26.1733937  12.6660728  59.9307394  25.9690213  13.5967779
  58.9059114  26.0646200  12.4870157  25.7608438  64.7692966  29.6880198
  26.0773873  65.3899574  30.3443837  26.5285730  64.5781374  29.1492391
  29.7637739   9.2339937   7.5996912  29.6332722   9.1573087   8.5448474
  29.2295604   9.9860994   7.3443913  59.6943057  39.7591567  14.0830731
  59.4303060  38.9143229  13.7186658  59.1403830  40.3974628  13.6336660
  51.2342607   7.2231523  24.9347425  52.1780264   7.0674602  24.8986745
  51.0990774   7.6844875  25.7624650  55.6569815  54.7675180  39.7888350
  54.8360634  54.3499041  40.0494576  55.3857899  55.5468893  39.3037939
  34.0534472   2.7890674   4.2800605  34.6976804   2.2086565   3.8747013
  34.5414185   3.2483188   4.9635834   5.3908461  47.8026342  37.6993656
   6.1505854  48.3665752  37.8442693   5.7600945  46.9259214  37.5932407
  19.0034044  48.0171314  20.6086473  18.2004726  48.0630127  21.1277083
  18.7175406  47.6970020  19.7530583  73.1243193  42.2856275   3.1831425
  73.2806360  41.6811887   3.9087099  72.6780474  43.0312768   3.5844854
  13.6303031  19.0368390  37.4906874  12.9299951  18.5947752  37.9706645
  14.3169391  19.1758907  38.1429338   1.8941700   2.9852430  58.5040092
   1.6546690   3.8884870  58.2965946   1.1324608   2.4689332  58.2404661
   1.2864721  17.9345051  46.9736842   0.9138692  17.2855774  47.5705854
   0.7356799  18.7090031  47.0877794  30.5367034  15.3840009  12.0814502
  30.6017124  14.4356672  11.9688940  31.4172542  15.7084981  11.8928659
  21.2939358  57.2212839   7.9828972  20.4256296  57.1861362   8.3841968
  21.8990779  57.2538567   8.7238234  66.0837257  38.9021650  13.6419610
  65.8217776  38.2497564  12.9923657  67.0013083  39.0857283  13.4405164
  18.4629047  55.3251600  55.0817919  18.0469084  55.1021242  54.2490673
  19.3781567  55.4905939  54.8555756  31.7099988  23.3113138  25.4710937
  31.4732825  24.1855470  25.1613903  30.9804236  22.7549116  25.1983809
  40.5378067   2.2176591  18.2870758  40.5442190   1.4389459  18.8436675
  40.3292620   1.8860904  17.4136889   4.8746553  62.5326300  37.4661303
   5.7668221  62.8092527  37.6752925   4.5024681  62.2681236  38.3074069
  13.9186489  14.4805662  10.7161915  14.2375576  14.5047704   9.8140037
  13.3263885  15.2297346  10.7810557  37.5430989  55.7582712  38.7911892
  37.6818347  56.2523365  39.5992017  36.8686056  56.2499428  38.3226299
  56.7011129  27.3579160  42.0530701  56.1193048  28.1175271  42.0260668
  56.5448415  26.9069139  41.2233639  72.8513395  12.0442525  10.8886039
  71.9433844  12.2711317  11.0895407  73.3630955  12.4758283  11.5727687
  58.7406814  14.1174356   6.0741627  59.6084582  13.8070241   5.8156306
  58.4877479  13.5454122   6.7987639  51.2246037  67.4879217  38.5788989
  51.5927649  68.2333231  39.0533066  51.6884279  66.7277908  38.9300346
  38.3699632  58.9048767  25.7120538  37.8150463  59.0782118  24.9516225
  39.2282963  59.2496061  25.4657626  26.3680172  69.5431042  36.2410331
  26.1784768  70.2400160  35.6128454  26.0248828  69.8703289  37.0725465
  49.5943928  61.5126896  18.7650037  49.0124130  61.6600704  18.0194759
  50.2984571  62.1507168  18.6490333  42.5374937  66.2528038   2.6520786
  43.3117533  65.7148743   2.4865837  42.8452206  66.9401312   3.2429412
  21.3001633  58.5382986  22.1280766  21.3123846  58.5687542  23.0847144
  21.1161423  59.4392014  21.8620968  54.6009675  29.3551603  44.9222771
  54.4427839  29.3123070  43.9792112  55.4485620  28.9269987  45.0426630
   9.6771706  43.2454697  55.3228257   9.5615256  42.3122183  55.1442174
   9.2541540  43.3812824  56.1706714   0.9944952   7.3607603  49.2918483
   0.6541288   8.2017008  48.9865545   0.2149070   6.8592325  49.5304743
   7.0787848  46.2491337  40.1263718   6.3758266  45.6517235  39.8710660
   7.8477324  45.6871811  40.2220897  46.1770598  14.7975365  56.0997210
  46.4299489  15.7194773  56.0517065  46.2372739  14.4853273  55.1968745
  23.1671465  51.2750259  60.5606883  23.8609970  51.7955700  60.1559267
  23.0385626  50.5399052  59.9612735  66.5896392  15.1151529  40.4761652
  66.1609674  15.9638468  40.5865649  67.2052324  15.2496830  39.7556237
  54.3234074   0.5410425  12.7119267  53.4606349   0.6635705  13.1079602
  54.1906225   0.7344476  11.7839205  24.3553567  50.7711887  21.5243077
  25.1369548  51.2982130  21.3582253  24.5485950  49.9234533  21.1240101
   7.9858899  15.1836435  11.9389129   8.6300992  15.4574529  12.5917923
   7.1401464  15.3999082  12.3315716   2.6726639  69.4523954  12.2206056
   2.4704245  69.7038317  13.1217778   1.8396869  69.1415310  11.8660021
  61.0025215  69.0057898  16.8032813  61.5440750  68.5631752  17.4567664
  61.3679743  69.8887300  16.7476332  36.0029829  30.4800192  56.7770449
  35.5189646  29.9154917  57.3797611  36.8815887  30.5342213  57.1530054
   8.5017341  67.7294636  31.6924763   8.8333333  68.5210466  31.2686014
   8.4029919  67.9739332  32.6126480  51.1074162  53.3158255  38.2561564
  51.0939455  53.1918812  39.2052007  50.4124594  53.9521694  38.0878282
   8.1339163  57.9087162  26.5171409   8.5188872  57.0349932  26.5852785
   8.3204389  58.3191442  27.3615289  71.2906254   6.5464512  56.6470889
  72.0752681   6.2779108  57.1250553  70.7143629   5.7830683  56.6845409
  -0.0911033  24.1530386  47.7980451   0.8083666  24.4249168  47.6156406
  -0.4263389  24.8204962  48.3966688  46.8915653  32.4482036  31.2995076
  46.9285154  31.5754819  30.9080720  47.6754332  32.8903294  30.9734559
   6.2208241  68.8927794  20.3228807   6.7914945  69.0459442  21.0759473
   6.6885835  68.2450628  19.7957170  28.9408248  20.3140871  32.3377538
  29.6902587  20.8800355  32.5229049  28.6976960  20.5257932  31.4364791
  59.7931015  18.7288133  26.9395590  60.1819527  19.5999185  27.0182490
  60.3835880  18.2549516  26.3538861  47.5386679  12.3721925   8.7706685
  48.0898702  12.0752374   9.4947040  47.3027479  11.5700666   8.3046508
  18.0589306  62.4427462  48.4800816  18.2356262  63.3570147  48.7017202
  18.3659232  61.9484091  49.2400932  49.4383490  36.2847463  14.3763494
  49.9390900  37.0164529  14.7370422  49.0494716  35.8605043  15.1412213
  25.1009438   0.3408758   6.8705750  25.2425592   0.1021186   7.7866387
  25.4767855  -0.3853043   6.3729399  46.1967039  66.2300491   6.6743368
  45.5039024  66.5410662   6.0916525  45.9114313  65.3559399   6.9404030
  13.7998260  24.4691292  51.3705079  13.3533109  23.9884773  50.6734912
  14.7180760  24.2114798  51.2888567  53.9044357   8.9350573  33.8793401
  53.8139719   9.2601267  34.7750954  53.1216866   8.4026733  33.7375478
  68.7653309  38.7941241  22.0683360  67.8422165  39.0459728  22.0940948
  68.7610424  37.9041243  21.7160416  72.7109349   7.1765915  46.8196062
  73.2320250   6.3738838  46.8006364  72.8435171   7.5274530  47.7002589
   8.1306517  13.5833684  33.4423923   8.3694612  13.1980840  32.5993299
   8.7707197  14.2824022  33.5761738  36.3456774  55.5801868  15.2491868
  35.5882621  56.0062408  14.8479009  37.0937061  55.8923006  14.7400045
   4.0536653  19.1622583   6.4974326   4.0422880  18.2097665   6.4032453
   4.7032463  19.3276159   7.1807593  45.5176973  61.3359785  29.7417688
  45.5033827  61.4056683  28.7872148  46.2190580  61.9274855  30.0146079
  35.5131769  38.4052682  12.5050449  35.8390832  38.1864262  13.3780420
  34.9023151  37.6993394  12.2935164  24.7892833  55.4886150  40.1901579
  24.3550229  56.1346197  40.7472324  25.1551175  56.0012531  39.4693232
  45.1586676  44.3611956   5.2985656  45.4151249  45.0618839   4.6989852
  45.9683943  44.1247702   5.7509804  26.2085724  62.3632383   4.6789309
  26.5105271  62.1805763   5.5687004  26.8081188  61.8722916   4.1170168
  62.6783932  20.2633349  47.1901564  62.8655685  20.9352699  46.5346424
  62.0170343  20.6597105  47.7573613  32.5018454  49.7799683  33.0012012
  31.9583845  49.8634386  32.2176743  33.2415056  49.2397308  32.7232146
  44.3329180  26.9692341  53.8654135  43.8942469  26.6155544  54.6391777
  45.2646912  26.9355551  54.0819738  75.4604877  16.0375229  59.5616269
  75.3167213  16.2027613  58.6298228  74.6650804  15.5905930  59.8511312
  65.8934128  20.0808279  12.5749874  65.6598007  20.2937547  11.6714835
  66.8505060  20.0921098  12.5839269  44.6526527  57.5733662   5.2479011
  45.0445127  57.1499872   4.4840765  43.7092018  57.5098753   5.0992322
  32.3517227  17.2652626  32.4140024  32.7644920  17.7941871  31.7312932
  31.4132142  17.4119234  32.2960091  51.9695854   4.4451568   8.9434505
  52.6763868   3.8292280   9.1365671  52.1030521   5.1641750   9.5610523
  66.1898781  59.2360592  46.4715962  66.2314106  58.4113097  45.9875552
  65.3133179  59.5757126  46.2912945  16.9491447  64.2703318  26.0252217
  16.5353645  64.6876120  25.2696446  17.0797832  63.3613729  25.7551126
  10.3723121  30.8005238  22.5098252   9.4774461  30.6220722  22.2206855
  10.5149615  30.1933837  23.2359552  41.8187071  52.6315879  45.2564601
  41.3111735  51.8323385  45.1156000  41.1600185  53.3175599  45.3651063
  33.9332366  38.0779481  19.8182082  33.3825517  38.6482453  19.2817950
  33.8065434  38.3947873  20.7125211  17.9407668  21.8547821  16.1842680
  18.2419801  22.4686790  15.5144668  17.0225966  22.0856786  16.3252687
  55.5415965  64.7213435  60.6390845  55.1432777  65.3533840  61.2374975
  55.6130911  63.9170217  61.1530773  42.6131481   6.8796793  54.3249772
  43.3076221   6.3211313  54.6742044  42.1546239   7.2045246  55.0998727
  35.9486879  68.7288618  46.8628625  36.7606307  69.1824126  46.6364245
  35.4879273  69.3368768  47.4410061   4.3221274  33.9608502  30.0040650
   3.5416612  34.3523288  29.6118283   5.0060856  34.0782261  29.3447804
  17.0922792   4.5952622  54.5470206  16.9920767   3.6462728  54.6218971
  16.2586487   4.8963514  54.1855816  17.5803363  43.4812307  19.8529780
  17.8064990  43.0702782  19.0185928  17.6480877  42.7740002  20.4944348
  50.9730625   5.3315872  12.4468505  50.7931471   5.4602569  13.3781433
  50.1536131   5.5641830  12.0102322  75.5715298  10.6293333   1.1360960
  75.6179532  11.4945793   0.7293704  75.6190667  10.8036768   2.0760837
  71.2007570  37.0134878  20.8593774  71.9218588  36.4777207  20.5289292
  70.9644413  37.5775170  20.1229954  62.6369250  39.9266672   8.1110114
  63.3052313  40.0757360   7.4421489  63.0138540  40.2914572   8.9116895
  51.8310619  58.7754464  43.1870822  51.8959666  59.6871733  43.4712879
  50.9311439  58.5234880  43.3942036   4.3113411  15.9203926  60.2638943
   4.0604008  16.3951365  59.4715067   3.5376800  15.4034582  60.4885238
  28.1630797  34.7652369  52.0228283  29.1022233  34.7313827  52.2047488
  27.9380782  35.6926760  52.0967374  56.4641667  25.4658186  44.4647411
  56.5041400  26.3615560  44.7998385  56.5665151  25.5596089  43.5176615
   7.5974024  27.1215979  43.4277264   8.0240691  27.9470078  43.6576919
   7.8675521  26.9558350  42.5245241  72.9302276   1.6261068  53.9800701
  72.0580686   2.0004741  54.1042534  73.2181013   1.9654838  53.1326131
  25.8867717  28.1146884  21.5683579  26.6038752  28.5921144  21.1511540
  25.1041389  28.3957744  21.0943246  22.2426844   9.4046193  28.5846639
  22.3666501   9.1130406  27.6814198  23.0898166   9.7726721  28.8359356
  40.6121063  21.7699099  13.8898265  41.5430355  21.9925070  13.8828635
  40.2014303  22.4732089  14.3927658  66.6943741  11.1738983  31.4717630
  66.1439384  10.6939665  30.8529595  67.2404397  10.5010525  31.8783645
  42.6127195  43.3740377  14.3675947  41.6882563  43.6171675  14.4175196
  42.9340792  43.4688807  15.2642357  59.2950846  23.1738639  53.0254630
  59.7047855  24.0375006  53.0755530  59.1093136  22.9437327  53.9358262
  55.5356098  66.7797207  52.0191250  55.9547163  65.9778452  52.3314981
  55.2922608  67.2492432  52.8169743  70.1137983  26.4492837  14.4531667
  70.9413158  26.9303648  14.4557440  70.2443087  25.7448331  15.0879526
  31.1616898  44.9170876   7.4088091  30.3017735  44.5745468   7.1650010
  31.1229873  45.8459044   7.1806973  29.2497182  40.8646345  13.7124479
  28.3060527  40.7104492  13.6682427  29.6408725  40.0115728  13.5239947
  43.6573887  46.4025545  41.4888000  43.4951162  47.3436546  41.4237881
  43.0613708  46.0120201  40.8496761  36.5633930  62.1287775  49.7801808
  36.4755667  61.2157726  49.5064322  37.5064434  62.2923970  49.7694079
   8.5061860  26.1267996  21.3570571   7.6317239  25.8210731  21.5980530
   8.3511382  26.7899799  20.6844616  35.7044482  44.3426609   6.7088413
  35.7642531  45.1020288   6.1291730  36.4396596  43.7863779   6.4514619
   9.0169841  48.9792824  13.7410843   9.2249030  49.8979139  13.9117372
   8.0627078  48.9590740  13.6691117  69.3987871  36.9457008  59.1129116
  69.3433357  36.0056947  59.2848004  68.5622336  37.2951020  59.4200436
  32.6853395  53.0850506  13.5715973  33.3472633  52.4049330  13.4469974
  33.0537796  53.6574411  14.2445433  59.6754932  58.1964588  29.0101337
  59.5439816  57.3653460  29.4664073  58.9078617  58.2835102  28.4449816
  38.9870858  48.0475950  26.5954518  39.1318631  48.9627600  26.3551426
  38.6339688  48.0863428  27.4842930   3.1067026  13.6993519  41.3441757
   3.1726659  14.4907442  40.8097819   3.8612307  13.1709972  41.0838727
  67.4112058  12.8865591  44.9906675  66.7314661  13.2267204  44.4088785
  66.9524968  12.2676674  45.5588154  48.9900875  50.9023762  14.5966876
  48.7917662  50.5608368  13.7247646  48.6377144  51.7923403  14.5911658
  -0.0382653  38.9487338  30.3058219   0.8006200  39.2615294  29.9672055
  -0.6656394  39.1451788  29.6100903  40.0149786   5.2671234  27.4722767
  40.4399514   4.4841234  27.8223395  39.1012835   5.0093500  27.3500180
  61.8350328  13.4830490  33.2299475  60.9987832  13.8390986  33.5301928
  62.2994114  13.2515446  34.0343050  34.4460821  41.1897659   5.4172379
  35.1341939  41.8549633   5.4015648  34.6928668  40.5735826   4.7275692
  63.8912869   0.2942649  21.9818286  64.1922308   1.1091009  21.5797023
  63.1131292   0.0524512  21.4796046   3.9965380   7.1191326  54.6159444
   4.3335903   7.9873339  54.3949167   3.3818472   7.2761694  55.3326903
  27.8763831  16.8293921  53.7552778  28.7102807  17.1460739  54.1024969
  27.6714337  16.0610071  54.2880211  62.7084458  42.7855396  20.2179313
  62.9544163  41.9063950  19.9301195  63.3635402  43.3595610  19.8209631
   1.1984170  52.3208347  52.1475331   1.0968030  53.2725922  52.1556036
   2.1104348  52.1751896  52.3990158  54.8973978   9.2074410  44.1535811
  54.5575023   9.7451941  44.8687879  54.2116696   8.5587231  43.9949051
  41.6735220  51.5034294   8.2796395  41.4833355  52.2536612   8.8428587
  41.0067987  50.8562326   8.5095406   1.6485977  -0.0190042  25.7395411
   2.1431923   0.1965840  24.9488878   2.2873068   0.0534261  26.4487958
   9.2319835   2.7737776  32.7875189   9.5861924   1.9745246  33.1773452
   9.9155438   3.4298888  32.9235152  47.1179056  27.0041585   3.0293438
  46.1811256  27.1937966   3.0814150  47.3229122  26.5792179   3.8621882
  10.5162871  62.1052790  18.1249249   9.6719354  61.9451141  17.7034402
  10.5466366  63.0541086  18.2475078  67.1589315  20.5552173  28.7033057
  66.3444877  20.0741434  28.8498712  67.7880853  20.1480675  29.2988110
  59.3639780  17.0021168  54.1598223  58.8902295  16.1901156  53.9796887
  59.2802209  17.5120655  53.3541105  42.1512413  63.5233021   8.6470813
  42.4297237  63.6191511   7.7363163  41.2884426  63.9366055   8.6784869
  26.4991570  63.9797592   9.9082434  26.8233871  64.8415422   9.6466380
  25.7266188  63.8382769   9.3610686  25.3922272  33.6112189  25.5296564
  24.7345209  34.3033171  25.5978990  25.7544684  33.7110114  24.6492863
   6.5609706  20.5520168  49.0898458   6.1764300  20.8596912  48.2690565
   7.4273098  20.2289740  48.8421897  70.1982391  13.2629982  53.1545345
  69.7291184  12.5112740  53.5165659  70.9647501  13.3616224  53.7193040
  18.6323988  30.2004504   8.9592087  18.2342756  30.2832866   8.0926824
  17.9201305  29.8968768   9.5220125  44.5991993  60.2898073  21.5528464
  44.1112900  59.4716740  21.6468263  45.0818920  60.1879406  20.7325625
  31.1874819  21.8999124   8.6942512  31.4341092  22.6727676   9.2022884
  30.3976417  22.1650863   8.2230139  27.2173346  22.1837107  34.6255330
  26.4906681  21.5724054  34.5051364  27.5798834  21.9590059  35.4824452
  16.9224262  59.4424152   8.2195163  16.2999916  58.7646866   7.9559004
  17.0684242  59.9556971   7.4248749  32.6853836  15.2564636  40.6583575
  32.8084457  15.1959768  39.7110299  33.5727394  15.3203598  41.0115580
  50.6458521  28.8642049  33.6961484  51.4653635  28.7956715  34.1859841
  50.9063196  29.2034149  32.8398037  23.6305321  19.8920456  28.2401971
  23.9963234  19.0742222  28.5772304  23.0660904  20.2102629  28.9447359
  49.0908191  13.8149944  57.9238857  48.6645175  13.7942234  58.7806628
  50.0150959  13.9683548  58.1199057  37.2274555  61.7315077  22.0196442
  37.1479989  61.6989231  22.9729847  36.5260388  61.1632728  21.7012815
  51.7464066  52.9852676  26.9242406  51.2092924  52.6798344  27.6553011
  51.5471888  53.9188910  26.8543315  19.7551096  60.7804028  52.5402097
  19.8487604  59.8306385  52.6137684  20.6503809  61.1144177  52.5963972
   8.2202746  58.1231475  60.8727520   7.3113895  58.0746197  61.1690660
   8.4702660  57.2124433  60.7166948   6.6839522  36.3380265  17.0108998
   5.8318919  36.3491392  16.5748930   6.5388387  36.8076229  17.8322732
  15.1789021  51.4874029  27.6349306  15.8348274  52.1688938  27.4880767
  15.6561208  50.7878208  28.0811119   9.3865454  28.3820939   3.0276996
  10.1953745  28.2017756   3.5067731   8.7248939  27.8455925   3.4642923
  52.5274611  22.4390340   0.2808952  53.0583096  22.9789805   0.8664633
  51.7108202  22.9278493   0.1789719  36.8383682   9.1191307  47.4324040
  37.3876274   8.3353535  47.4480490  36.6810501   9.2828289  46.5025202
  14.8267770  60.2719402  15.7778025  13.8995111  60.1481581  15.9805048
  14.8293185  60.7192183  14.9315369  47.8587627  45.6919813   8.4831488
  47.4419880  46.4940929   8.1682706  47.5323439  45.5873966   9.3768746
  30.8107305  28.8289142  11.0302544  30.1841354  29.3040729  10.4845130
  31.6247511  28.8416672  10.5268288  43.0370462  13.5862700  57.5333033
  42.8592146  14.4386498  57.1357415  43.5648668  13.1237999  56.8823335
  52.8920343  35.8976761  54.2908154  52.7172936  35.5659500  55.1715288
  52.2459683  35.4591671  53.7371526  29.7267283   3.8543168  47.8681854
  29.1075218   3.5493342  47.2050134  29.2035997   4.4082657  48.4475879
  24.6835780  16.0292411  11.2432587  24.6271944  15.0920212  11.0570538
  24.3680191  16.1140931  12.1429551   9.8780311  46.6976563  61.1517753
   9.2097939  46.9323269  60.5078627  10.5030120  46.1614529  60.6638123
  48.3616257  66.5325403   4.9602085  49.2192650  66.3580847   5.3478348
  47.7356052  66.2139893   5.6104839  25.4773126  50.0226903  56.8085931
  24.5699131  50.3169965  56.7295871  25.4281155  49.2389452  57.3559076
   7.9001093  46.4738464  -0.3166278   8.5666186  45.9594059   0.1387258
   7.2443533  46.6637659   0.3543012  37.2600722  53.8373041   5.8745885
  37.5971699  53.8217688   4.9788454  37.7418780  53.1428862   6.3238961
   3.8239587  10.1683966  51.7939476   4.2459047   9.7090498  52.5200281
   3.4724892   9.4705883  51.2409858  72.9400289  27.6021528  20.5404496
  73.2199740  28.3015180  21.1309981  73.5858437  26.9074082  20.6688499
  33.3254135  18.4545675  61.3960750  33.3132589  19.2717186  60.8977226
  32.4564493  18.0773607  61.2588041   9.3206418  19.9442164  55.7901732
   9.6339787  19.7805039  54.9006508   9.4002450  20.8915678  55.9015910
  21.4444458  18.7930528   7.4816245  21.1535847  17.9413549   7.1556759
  21.5627253  18.6618082   8.4223777  25.1573491  29.0856361  13.2214415
  25.2568579  29.9517822  12.8263187  24.8757672  28.5238957  12.4993670
  22.2776341  29.4091511  12.4843562  22.6593900  28.5765362  12.2064245
  22.9412222  29.7987151  13.0536759  59.7633696  51.2589359  22.7563286
  59.7590017  51.9294596  22.0732403  59.5423174  50.4483652  22.2977042
  12.0430994  61.1052895  12.4095047  12.7798736  60.9840012  13.0084085
  11.4902067  61.7579937  12.8390610  18.4000182  64.7824764  29.5502543
  19.2688441  65.0489283  29.2496252  18.4755850  64.7517061  30.5039716
  61.8455792  22.1749512  33.0405454  62.7139390  22.4201599  33.3600072
  61.9920564  21.9006983  32.1352486  33.2659507  62.8542185  30.4810381
  32.5193357  62.2803307  30.6526375  33.9031959  62.6271582  31.1582351
  12.7715362  36.6102902  45.3570966  13.2255805  37.4432770  45.2297858
  12.0683396  36.8126741  45.9741763  20.8657301  19.6304623  44.2815653
  20.8979357  20.1151529  43.4567825  21.7457092  19.2669741  44.3802861
   5.2555513  52.8411388   1.9637731   4.7016728  53.4592247   1.4868842
   6.0918146  52.8605938   1.4984594  56.5513932  20.6249658  23.2654762
  55.8932554  20.7073251  23.9556217  57.1108233  19.9033967  23.5528803
   1.6939223  46.6257492  18.1086949   1.2275374  46.6132752  18.9444951
   2.2314609  45.8338562  18.1225328  49.2886477  16.0378090  19.3598489
  48.5717315  16.3532129  18.8095931  49.7657563  15.4230324  18.8024930
  70.7831920  13.4650198  58.9794407  71.1523903  13.0378738  58.2064799
  69.9028826  13.7275902  58.7104691  43.7617821  42.5803009  55.7469366
  43.6672032  42.7201906  54.8047493  42.8974468  42.7797237  56.1066387
   8.2283396  57.9657793   4.8829606   8.8288796  58.5625172   5.3296000
   7.4054968  58.0489779   5.3648734  58.6322243   9.9589506  40.3928451
  59.1452259  10.4017655  41.0688452  59.1273732   9.1629425  40.1993708
  73.4904039  27.6655499  28.7639455  73.1563724  28.2505337  29.4439797
  74.1393889  27.1231857  29.2121510  59.3790657  34.2725102  34.4858340
  58.9595700  34.8010126  33.8069109  59.9099714  34.8962990  34.9810652
   2.5467646  31.6446686  34.5742083   3.3530265  31.4291477  35.0429559
   2.6342711  32.5739026  34.3618417  71.1852563   4.3567291  52.3033414
  70.7481874   4.3914095  53.1542239  70.6095541   3.8184754  51.7601244
  16.7871094  71.1186981  22.6788568  16.0682154  70.6686831  22.2351122
  17.5492978  70.5597639  22.5275445  44.1405786  43.8920935  10.0573587
  43.8352985  43.2031044  10.6475532  45.0835294  43.9414867  10.2143157
   3.1343496  38.2920424  50.8994500   3.4309829  39.0932432  50.4678086
   3.3535970  37.5928989  50.2835278  14.8790681  56.4001846  12.5092280
  13.9892673  56.0837698  12.3531306  14.8776948  57.2955561  12.1707916
  50.6609404   0.7226554   7.0438576  50.5872046   0.3700057   7.9306674
  50.7364475  -0.0502451   6.4842570  58.6752403  18.7291924  43.0189172
  59.4625128  19.0265146  43.4750227  58.7176019  17.7740780  43.0657665
  42.9591274  27.3032832  23.8718176  42.0574951  27.6130843  23.9573455
  43.3705997  27.5305867  24.7056389  20.3952575  26.3054729   8.2257152
  21.1534905  26.8182683   7.9457945  20.6065488  25.4071760   7.9714555
  49.8012053   2.8417675   9.7539127  50.2776157   3.6565486   9.5945555
  49.2540562   3.0294744  10.5165565  59.3610537  18.7315980  39.5529079
  59.2722666  19.0829317  38.6669564  58.6009681  19.0736906  40.0235176
  26.4371204  46.0057497  17.5342345  25.5061650  46.1750174  17.3896635
  26.8060112  45.9286642  16.6543424  50.3409052  39.0000844  11.9627190
  50.6251717  38.6269975  12.7971232  50.6857872  39.8929667  11.9696987
  27.0223999  26.6197252  23.8090539  26.5212369  26.9477344  23.0624104
  27.6852536  26.0489130  23.4204268  37.4099684  50.1775694  21.1061454
  37.4212813  51.0835838  20.7975292  36.4900994  49.9181223  21.0536242
  27.5906265   3.5705224  59.8763397  27.8733528   3.2712713  60.7404835
  28.2340324   3.1999985  59.2722140  20.7829237  47.9832602  22.6923037
  20.2846837  48.0593538  21.8785477  21.5204263  48.5827446  22.5785375
   4.6700538   1.2741533  59.3396590   4.4556344   1.4517561  60.2554713
   5.4063452   0.6638471  59.3800692  63.2444287  58.3123159  37.8907661
  63.7764050  58.5700154  37.1378879  62.3544956  58.2475257  37.5442843
  66.3128579   7.9640833  49.9278907  66.6041828   8.8411156  49.6785299
  67.0611764   7.5852457  50.3891222  40.7034344   5.4070059  36.0338239
  41.3618959   5.6381622  35.3786687  40.5726594   4.4656197  35.9201817
  58.9513254  40.9892607  21.5150785  58.9081049  41.9317389  21.6766262
  59.8697615  40.8247375  21.3014627  33.4085846  51.0804558  -0.2031012
  32.5454140  50.7145309  -0.3961432  33.2869554  51.5623188   0.6149713
  50.0245035   7.1623341  55.4338823  49.0777195   7.1966711  55.2973149
  50.3868616   7.7113882  54.7385637   2.1220649   1.8502251  55.2716849
   1.7790950   1.6821924  54.3939785   1.6349757   2.6157013  55.5766765
  34.8368161  20.6842557   8.4852093  34.4809430  19.9504415   8.9863133
  34.1732382  20.8636037   7.8190786  33.1230617  55.5012655  14.9125934
  32.5083756  55.9477615  14.3303251  33.8005638  56.1534309  15.0912011
  26.2572182   8.2442919  53.9688555  25.4384888   8.3360544  53.4815184
  26.8463219   8.8848034  53.5701958  13.7115169  46.7527390  31.5629411
  12.9782486  46.1568165  31.7159986  13.3124769  47.6224804  31.5396571
  29.9616098  60.3303289  17.5269151  29.3937564  60.7956409  16.9127023
  29.4216728  59.6109819  17.8543961  42.0842833  11.0232035  55.2665023
  42.7542711  11.6708294  55.0475828  41.8690408  10.6093374  54.4306687
  50.9622681   5.1303522   5.0575262  50.7239711   4.2148344   5.2033722
  51.5851843   5.1029388   4.3312645  10.5283201  44.6145168  48.9453272
  10.2975572  44.0274159  49.6652476  10.3693092  44.0984217  48.1550173
  46.7927634  18.4018747  15.5817020  46.4230906  19.2396204  15.8605504
  46.1880600  18.0846445  14.9109352  10.4044844  68.2489061  44.6996776
   9.9323917  67.6544952  44.1165499  10.2992226  67.8644585  45.5699376
  74.6405542   6.4442364  50.4348187  73.9117849   6.9718138  50.1080350
  74.2614115   5.5779759  50.5833975  58.8840891  47.2848916  47.5279633
  57.9520107  47.3872411  47.7202837  59.0827442  47.9968512  46.9197837
  62.7044250  31.4820277  38.6811523  62.3143555  31.0971656  37.8963236
  62.2077514  32.2875195  38.8251285  47.1247768  54.8570299  19.6392894
  47.7065897  54.8254013  18.8798654  46.9048309  55.7837820  19.7340727
  16.6963566  12.0300737  34.4576768  16.6123283  12.0950476  33.5063891
  17.6398886  11.9841877  34.6121983   2.5077988  63.8275599  20.8345393
   2.9488970  63.9731431  21.6714791   1.5797354  63.9623117  21.0262946
  66.4186252  37.9411284  34.9158506  66.0488916  37.4156443  34.2063455
  66.4404238  37.3480574  35.6668667  73.0706287  56.4556694  60.8349765
  73.8725639  56.6951775  61.2994875  72.4766375  56.1541605  61.5223597
  69.7776616   0.4488364  39.6166424  68.8532508   0.2091042  39.5516399
  70.2474022  -0.3159794  39.2840318  19.8066986  37.0644823  32.5642828
  20.6322277  36.8268887  32.9865245  19.7501982  36.4841000  31.8052081
  73.6905861  63.5155725  45.8735609  72.8884655  63.0168867  45.7181835
  73.3913133  64.4148064  46.0079241   9.1384107  67.5418901   1.1848506
   8.2833344  67.1276903   1.0685977   9.5974934  66.9739771   1.8036780
   3.2747305  28.5578075  33.7812785   2.7036799  28.5085980  34.5479039
   2.6948870  28.8229195  33.0673245  29.2342973  40.5309486  20.7975769
  29.6259212  40.8485174  19.9839342  29.9224162  40.0051546  21.2053347
  12.2376574  50.9640328  48.8855366  12.3601020  51.4182678  49.7191457
  12.0143593  51.6579548  48.2651869  37.3151565  27.4617147   8.9965272
  36.5240097  27.9047084   8.6898136  37.0763969  27.1121979   9.8550504
  21.8356586  27.7507472  29.1917801  22.1263695  27.8358698  30.0997853
  22.5866675  28.0371737  28.6719942  30.5855024   7.3221747  53.3678267
  30.8985365   8.2154575  53.2253836  30.2891624   7.3145023  54.2779670
  23.1020665  71.4054251  31.3878059  22.4361444  70.7913923  31.6972280
  23.7051821  71.4964533  32.1255064  29.0900779  65.0011063   3.4626970
  29.6603942  65.6845427   3.8146693  28.2331419  65.4205370   3.3854422
  31.4493632  64.7394991  29.7296929  31.1827230  65.3181553  30.4440379
  32.0906234  64.1495991  30.1259708  47.2841692  44.6475029  11.0835195
  46.7732954  45.1245785  11.7374611  47.0249224  43.7331486  11.1974585
  60.2896572  46.7518413  38.7449316  60.4812814  46.2627923  39.5451454
  59.9542094  46.0934984  38.1364159  71.4641584  11.2949005  50.9957902
  71.1953939  12.1506134  51.3300876  72.0229328  10.9336582  51.6839091
  23.1179369  11.2460247  53.6037395  23.9740646  10.9948555  53.9504162
  23.3155478  11.7073694  52.7886669  65.2776886  11.5848986  58.7343801
  65.6433356  12.4597231  58.8656110  64.3340684  11.7281500  58.6616299
   3.5827852  68.8486099  27.3906926   3.3845879  67.9404544  27.1622042
   3.5910584  69.3102121  26.5521912   2.0067811  49.0934801  29.7266603
   1.3566253  48.8660288  29.0619850   1.9906637  48.3579779  30.3390360
  72.9198021  35.8838224  19.3024278  73.6799103  36.0092974  18.7343407
  72.3273873  35.3322458  18.7915063  65.5516411  34.8313214  60.6782575
  64.7852565  35.4036580  60.7145395  65.3902365  34.1718495  61.3529997
  70.3117478  35.7073179  46.4351431  69.5920504  35.1325623  46.6957609
  70.1993442  36.4909378  46.9732288   9.0206289  50.3268623   3.5883233
   8.2995260  50.8666611   3.9121458   8.7415856  49.4272184   3.7586215
  12.7045119  20.4493570  60.6943274  12.6325393  19.6847785  60.1229525
  12.5479376  21.1959958  60.1161861  28.6725843  38.8404766  60.2269214
  28.2221306  38.1923071  59.6854509  29.4315470  38.3741013  60.5772122
  35.4704416   1.1973468  15.8017901  35.1401222   1.4952508  16.6493634
  35.6236446   2.0028440  15.3078918  45.6664515  60.5312872  36.8466043
  45.4322338  61.4415789  37.0275450  45.8782578  60.1633978  37.7045250
  63.9635611  53.0916309  38.6491632  63.8888443  53.9035702  38.1477690
  63.9612949  53.3738708  39.5638037   9.0365398  36.6891352  29.8348621
   8.1358445  36.6271559  29.5168380   8.9586890  37.0989863  30.6963686
  13.2462729  55.2123562  39.7685985  12.7451075  54.4022671  39.8624615
  12.8785122  55.6328121  38.9912943  63.6323417  14.2671887  52.2283278
  62.8108252  13.7814299  52.1549723  63.5017503  15.0424639  51.6823153
  41.8602335  22.4741117   5.0679272  42.7064692  22.9185335   5.1189333
  42.0756340  21.5426675   5.1153237  61.8719708   9.0866319  11.3663995
  60.9190189   9.0579072  11.4517820  62.1765792   8.2983009  11.8158221
  29.1659118  68.9751887  49.1478364  30.0237180  69.1760015  49.5221023
  28.8495202  69.8133349  48.8107292  73.6451662  33.1240193  58.8716949
  73.9821804  33.5987488  58.1118999  73.0179418  32.5004688  58.5056252
  41.7536163  57.3930740  10.4432106  41.1040783  57.8483438   9.9074280
  42.2739458  56.8924046   9.8148674   3.4128186  52.8456688  16.2896705
   3.8427091  52.3086786  16.9553006   3.8571686  53.6919260  16.3409770
  12.6602233  53.4810082  60.6509849  12.4622620  54.2278114  61.2160837
  13.4052671  53.7701527  60.1241679  45.7018925  65.6410837  30.1956491
  46.1394096  66.4924383  30.1984600  45.5375863  65.4592895  29.2703466
  29.1822184  14.2950932  35.9827952  28.3029259  13.9258877  35.9005455
  29.2720020  14.4946209  36.9146542  60.3205156  49.3595219  17.8578949
  60.4165888  49.5553589  18.7899089  61.1095762  48.8659477  17.6342857
  18.3160055  31.1544720  46.5116910  18.6538065  31.5639225  47.3082272
  17.3991764  31.4267555  46.4727227   2.8380007  32.7361298  11.4859951
   2.3574039  32.2130895  10.8443666   3.7597159  32.5693965  11.2888348
  46.1106348  47.6327085  20.2686238  45.9158707  47.6441288  19.3315172
  45.2928448  47.9025316  20.6865263  72.5035203  26.7671124  51.9227956
  73.2520474  26.7247692  52.5178955  71.7732037  26.4141909  52.4310420
  55.0014626  14.9463788  11.8674016  55.0762665  15.3030054  12.7525318
  54.1145932  15.1766912  11.5905440   4.2702284  45.9091520   6.9691211
   3.7275481  46.0008717   6.1859757   3.7946671  46.3885355   7.6475501
  13.4752154  54.7687483   0.8333293  12.8630769  54.7561836   1.5691018
  14.0461826  54.0153837   0.9838994  53.9972044   5.3087345  59.0491239
  54.9128616   5.5876032  59.0430278  54.0172995   4.4132534  58.7115721
  71.8942702   3.5924855  46.4115624  71.7165936   2.7182618  46.0645811
  72.4083865   4.0216819  45.7276706  61.5949106  31.9307828   1.9320029
  61.2646341  32.0663524   1.0438759  61.7612267  30.9896111   1.9846261
  38.6840761   8.0911938  54.5886634  38.3375061   7.7065388  55.3937493
  37.9173744   8.4600082  54.1500608  39.9467837   0.4702417  16.1070883
  40.5293333  -0.1541337  16.5395522  39.0682911   0.1198808  16.2544942
  54.4381217  24.8850456  59.8264811  54.2034963  24.2599026  60.5123227
  55.3931708  24.8415867  59.7793143   5.1151592  62.5789976  19.0835667
   4.8697138  62.1452761  19.9008024   5.7080090  63.2804108  19.3533421
  30.8725977  59.0113878  10.5494726  31.1830378  58.8009453   9.6688074
  31.0454178  59.9478006  10.6469572  -0.1667904  70.1027464  30.1583985
   0.6414963  69.5927763  30.1051358  -0.3038811  70.4279470  29.2686323
  34.4173992  50.9218136  13.6635140  34.1886461  49.9983803  13.7692145
  35.3675163  50.9476963  13.7768487  49.9878013  -0.1603611   9.5349622
  49.7701156   0.6989042   9.8962116  49.1906607  -0.4398402   9.0847480
  53.1099033  69.7868443   4.1725931  52.5783587  70.1027966   3.4419319
  52.5057793  69.7608280   4.9146080  37.4393309  19.9708191  15.7106713
  37.6066721  20.9108988  15.7775382  38.2777727  19.5623699  15.9261207
  75.1030325   0.9540923   2.1970007  74.4988512   1.3233741   1.5529259
  75.9575318   1.3123782   1.9568019   1.6905845  25.5843845  54.1406385
   1.1769283  25.8765522  54.8936514   2.0372427  24.7317520  54.4034646
  39.7262144  56.9594908   1.3764462  39.2249894  56.4258289   0.7598367
  39.5085907  57.8621531   1.1439187  33.6231446  62.1774149  19.3250811
  33.8937688  61.6168213  18.5979438  34.1654038  62.9613638  19.2377973
  14.3339230  63.3916711  51.2030438  13.4694935  63.6186599  51.5457932
  14.1522480  62.8849291  50.4115645  67.8280140  47.8940653  54.8341105
  67.2473026  47.2727441  55.2733872  68.6768509  47.7698934  55.2587138
  17.5544477  36.9377398  30.0985384  17.3567057  36.5426302  29.2494082
  18.0649996  36.2720275  30.5594015   8.8267876  39.9384683  23.6307029
   9.3515183  40.3817391  22.9640726   9.1799046  40.2541685  24.4624905
  30.6299389   4.5476309  37.0771078  30.6123579   5.1595274  37.8129796
  30.9636820   5.0644413  36.3437919  32.7829409  11.5144444   6.7894274
  31.8869996  11.7997587   6.9686413  32.8697062  11.5806842   5.8384722
  57.8171206  30.7171106  13.1263518  57.0094872  30.5601096  13.6155462
  58.4049654  31.1281943  13.7601328  44.1154623  34.7602057  16.8944824
  44.0898037  35.1895165  16.0393405  44.6080589  35.3636527  17.4507487
  32.6692648  70.4455661  30.6983666  32.1458514  70.8864688  31.3676004
  32.7965755  69.5600414  31.0387639   7.2570206  60.2349901  50.9980706
   6.8100334  59.3894958  50.9584121   7.2234608  60.4805207  51.9226352
  75.8029127  75.8029127  75.8029127 109.4712190 109.4712190 109.4712190
